 Entering Gaussian System, Link 0=g16
 Input=clay-glucose_cation-041-b3lyp_d3bj-631gd-pcm_thf.gjf
 Output=clay-glucose_cation-041-b3lyp_d3bj-631gd-pcm_thf.out
 Initial command:
 /n/sw/g16_nehalem/g16/l1.exe "/scratch/Gau-2813.inp" -scrdir="/scratch/"
 Entering Link 1 = /n/sw/g16_nehalem/g16/l1.exe PID=      2814.
  
 Copyright (c) 1988,1990,1992,1993,1995,1998,2003,2009,2016,
            Gaussian, Inc.  All Rights Reserved.
  
 This is part of the Gaussian(R) 16 program.  It is based on
 the Gaussian(R) 09 system (copyright 2009, Gaussian, Inc.),
 the Gaussian(R) 03 system (copyright 2003, Gaussian, Inc.),
 the Gaussian(R) 98 system (copyright 1998, Gaussian, Inc.),
 the Gaussian(R) 94 system (copyright 1995, Gaussian, Inc.),
 the Gaussian 92(TM) system (copyright 1992, Gaussian, Inc.),
 the Gaussian 90(TM) system (copyright 1990, Gaussian, Inc.),
 the Gaussian 88(TM) system (copyright 1988, Gaussian, Inc.),
 the Gaussian 86(TM) system (copyright 1986, Carnegie Mellon
 University), and the Gaussian 82(TM) system (copyright 1983,
 Carnegie Mellon University). Gaussian is a federally registered
 trademark of Gaussian, Inc.
  
 This software contains proprietary and confidential information,
 including trade secrets, belonging to Gaussian, Inc.
  
 This software is provided under written license and may be
 used, copied, transmitted, or stored only in accord with that
 written license.
  
 The following legend is applicable only to US Government
 contracts under FAR:
  
                    RESTRICTED RIGHTS LEGEND
  
 Use, reproduction and disclosure by the US Government is
 subject to restrictions as set forth in subparagraphs (a)
 and (c) of the Commercial Computer Software - Restricted
 Rights clause in FAR 52.227-19.
  
 Gaussian, Inc.
 340 Quinnipiac St., Bldg. 40, Wallingford CT 06492
  
  
 ---------------------------------------------------------------
 Warning -- This program may not be used in any manner that
 competes with the business of Gaussian, Inc. or will provide
 assistance to any competitor of Gaussian, Inc.  The licensee
 of this program is prohibited from giving any competitor of
 Gaussian, Inc. access to this program.  By using this program,
 the user acknowledges that Gaussian, Inc. is engaged in the
 business of creating and licensing software in the field of
 computational chemistry and represents and warrants to the
 licensee that it is not a competitor of Gaussian, Inc. and that
 it will not use this program in any manner prohibited above.
 ---------------------------------------------------------------
  

 Cite this work as:
 Gaussian 16, Revision A.03,
 M. J. Frisch, G. W. Trucks, H. B. Schlegel, G. E. Scuseria, 
 M. A. Robb, J. R. Cheeseman, G. Scalmani, V. Barone, 
 G. A. Petersson, H. Nakatsuji, X. Li, M. Caricato, A. V. Marenich, 
 J. Bloino, B. G. Janesko, R. Gomperts, B. Mennucci, H. P. Hratchian, 
 J. V. Ortiz, A. F. Izmaylov, J. L. Sonnenberg, D. Williams-Young, 
 F. Ding, F. Lipparini, F. Egidi, J. Goings, B. Peng, A. Petrone, 
 T. Henderson, D. Ranasinghe, V. G. Zakrzewski, J. Gao, N. Rega, 
 G. Zheng, W. Liang, M. Hada, M. Ehara, K. Toyota, R. Fukuda, 
 J. Hasegawa, M. Ishida, T. Nakajima, Y. Honda, O. Kitao, H. Nakai, 
 T. Vreven, K. Throssell, J. A. Montgomery, Jr., J. E. Peralta, 
 F. Ogliaro, M. J. Bearpark, J. J. Heyd, E. N. Brothers, K. N. Kudin, 
 V. N. Staroverov, T. A. Keith, R. Kobayashi, J. Normand, 
 K. Raghavachari, A. P. Rendell, J. C. Burant, S. S. Iyengar, 
 J. Tomasi, M. Cossi, J. M. Millam, M. Klene, C. Adamo, R. Cammi, 
 J. W. Ochterski, R. L. Martin, K. Morokuma, O. Farkas, 
 J. B. Foresman, and D. J. Fox, Gaussian, Inc., Wallingford CT, 2016.
 
 ******************************************
 Gaussian 16:  ES64L-G16RevA.03 25-Dec-2016
                24-May-2019 
 ******************************************
 %nprocshared=4
 Will use up to    4 processors via shared memory.
 %mem=3GB
 -------------------------------------------------------------------
 #p b3lyp 6-31g* opt freq=noraman scrf=(pcm,solvent=tetrahydrofuran)
 -------------------------------------------------------------------
 1/18=20,19=15,26=3,38=1/1,3;
 2/9=110,12=2,17=6,18=5,40=1/2;
 3/5=1,6=6,7=1,11=2,25=1,30=1,70=2201,71=1,72=20,74=-5/1,2,3;
 4//1;
 5/5=2,38=5,53=20/2;
 6/7=2,8=2,9=2,10=2,28=1/1;
 7//1,2,3,16;
 1/18=20,19=15,26=3/3(2);
 2/9=110/2;
 99//99;
 2/9=110/2;
 3/5=1,6=6,7=1,11=2,25=1,30=1,70=2205,71=1,72=20,74=-5/1,2,3;
 4/5=5,16=3,69=1/1;
 5/5=2,38=5,53=20/2;
 7//1,2,3,16;
 1/18=20,19=15,26=3/3(-5);
 2/9=110/2;
 6/7=2,8=2,9=2,10=2,19=2,28=1/1;
 99/9=1/99;
 Leave Link    1 at Fri May 24 08:31:14 2019, MaxMem=   402653184 cpu:               0.9 elap:               0.4
 (Enter /n/sw/g16_nehalem/g16/l101.exe)
 -----
 title
 -----
 Symbolic Z-matrix:
 Charge =  1 Multiplicity = 1
 6                     1.03159   0.46421   1.06912 
 6                     1.80812   0.66205  -0.27133 
 6                     0.84652   1.1001   -1.33338 
 6                    -0.63077  -0.6633   -0.6089 
 6                    -0.28582  -0.34339   0.86788 
 1                     1.01835   1.92208  -2.02998 
 1                     2.61246   1.39209  -0.14345 
 1                     1.7073   -0.11768   1.69957 
 1                    -0.03747  -1.4907   -0.99625 
 1                    -1.10213   0.2697    1.25327 
 8                    -0.24411   0.49621  -1.50336 
 8                     2.28812  -0.61731  -0.65093 
 8                     0.84932   1.68076   1.75386 
 8                    -0.36349  -1.52527   1.63975 
 6                    -2.1068   -0.87611  -0.86355 
 1                    -2.40219  -1.78876  -0.32294 
 1                    -2.27916  -1.04656  -1.93682 
 8                    -2.80231   0.25785  -0.40061 
 6                     3.45094  -0.61016  -1.50133 
 1                     3.75749  -1.65349  -1.58049 
 1                     3.22283  -0.22053  -2.49912 
 1                     4.2533   -0.02054  -1.04537 
 6                     0.06252   2.67145   1.10843 
 1                     0.5208    2.99517   0.15526 
 1                    -0.96518   2.34284   0.91185 
 1                     0.0416    3.53462   1.77508 
 6                     0.56715  -2.58193   1.38041 
 1                     0.45016  -3.28021   2.21075 
 1                     0.34182  -3.10888   0.44507 
 1                     1.60351  -2.23072   1.34812 
 6                    -4.21346   0.14173  -0.54899 
 1                    -4.4933    0.02682  -1.60535 
 1                    -4.64757   1.06355  -0.15784 
 1                    -4.60281  -0.71454   0.01887 
 
 ITRead=  0  0  0  0  0  0  0  0  0  0  0  0  0  0  0  0  0  0  0  0
 ITRead=  0  0  0  0  0  0  0  0  0  0  0  0  0  0
 MicOpt= -1 -1 -1 -1 -1 -1 -1 -1 -1 -1 -1 -1 -1 -1 -1 -1 -1 -1 -1 -1
 MicOpt= -1 -1 -1 -1 -1 -1 -1 -1 -1 -1 -1 -1 -1 -1
 NAtoms=     34 NQM=       34 NQMF=       0 NMMI=      0 NMMIF=      0
                NMic=       0 NMicF=      0.
                    Isotopes and Nuclear Properties:
 (Nuclear quadrupole moments (NQMom) in fm**2, nuclear magnetic moments (NMagM)
  in nuclear magnetons)

  Atom         1           2           3           4           5           6           7           8           9          10
 IAtWgt=          12          12          12          12          12           1           1           1           1           1
 AtmWgt=  12.0000000  12.0000000  12.0000000  12.0000000  12.0000000   1.0078250   1.0078250   1.0078250   1.0078250   1.0078250
 NucSpn=           0           0           0           0           0           1           1           1           1           1
 AtZEff=   0.0000000   0.0000000   0.0000000   0.0000000   0.0000000   0.0000000   0.0000000   0.0000000   0.0000000   0.0000000
 NQMom=    0.0000000   0.0000000   0.0000000   0.0000000   0.0000000   0.0000000   0.0000000   0.0000000   0.0000000   0.0000000
 NMagM=    0.0000000   0.0000000   0.0000000   0.0000000   0.0000000   2.7928460   2.7928460   2.7928460   2.7928460   2.7928460
 AtZNuc=   6.0000000   6.0000000   6.0000000   6.0000000   6.0000000   1.0000000   1.0000000   1.0000000   1.0000000   1.0000000

  Atom        11          12          13          14          15          16          17          18          19          20
 IAtWgt=          16          16          16          16          12           1           1          16          12           1
 AtmWgt=  15.9949146  15.9949146  15.9949146  15.9949146  12.0000000   1.0078250   1.0078250  15.9949146  12.0000000   1.0078250
 NucSpn=           0           0           0           0           0           1           1           0           0           1
 AtZEff=   0.0000000   0.0000000   0.0000000   0.0000000   0.0000000   0.0000000   0.0000000   0.0000000   0.0000000   0.0000000
 NQMom=    0.0000000   0.0000000   0.0000000   0.0000000   0.0000000   0.0000000   0.0000000   0.0000000   0.0000000   0.0000000
 NMagM=    0.0000000   0.0000000   0.0000000   0.0000000   0.0000000   2.7928460   2.7928460   0.0000000   0.0000000   2.7928460
 AtZNuc=   8.0000000   8.0000000   8.0000000   8.0000000   6.0000000   1.0000000   1.0000000   8.0000000   6.0000000   1.0000000

  Atom        21          22          23          24          25          26          27          28          29          30
 IAtWgt=           1           1          12           1           1           1          12           1           1           1
 AtmWgt=   1.0078250   1.0078250  12.0000000   1.0078250   1.0078250   1.0078250  12.0000000   1.0078250   1.0078250   1.0078250
 NucSpn=           1           1           0           1           1           1           0           1           1           1
 AtZEff=   0.0000000   0.0000000   0.0000000   0.0000000   0.0000000   0.0000000   0.0000000   0.0000000   0.0000000   0.0000000
 NQMom=    0.0000000   0.0000000   0.0000000   0.0000000   0.0000000   0.0000000   0.0000000   0.0000000   0.0000000   0.0000000
 NMagM=    2.7928460   2.7928460   0.0000000   2.7928460   2.7928460   2.7928460   0.0000000   2.7928460   2.7928460   2.7928460
 AtZNuc=   1.0000000   1.0000000   6.0000000   1.0000000   1.0000000   1.0000000   6.0000000   1.0000000   1.0000000   1.0000000

  Atom        31          32          33          34
 IAtWgt=          12           1           1           1
 AtmWgt=  12.0000000   1.0078250   1.0078250   1.0078250
 NucSpn=           0           1           1           1
 AtZEff=   0.0000000   0.0000000   0.0000000   0.0000000
 NQMom=    0.0000000   0.0000000   0.0000000   0.0000000
 NMagM=    0.0000000   2.7928460   2.7928460   2.7928460
 AtZNuc=   6.0000000   1.0000000   1.0000000   1.0000000
 Leave Link  101 at Fri May 24 08:31:16 2019, MaxMem=   402653184 cpu:               6.5 elap:               2.2
 (Enter /n/sw/g16_nehalem/g16/l103.exe)

 GradGradGradGradGradGradGradGradGradGradGradGradGradGradGradGradGradGrad
 Berny optimization.
 Initialization pass.
                           ----------------------------
                           !    Initial Parameters    !
                           ! (Angstroms and Degrees)  !
 --------------------------                            --------------------------
 ! Name  Definition              Value          Derivative Info.                !
 --------------------------------------------------------------------------------
 ! R1    R(1,2)                  1.5617         estimate D2E/DX2                !
 ! R2    R(1,5)                  1.5583         estimate D2E/DX2                !
 ! R3    R(1,8)                  1.0921         estimate D2E/DX2                !
 ! R4    R(1,13)                 1.4079         estimate D2E/DX2                !
 ! R5    R(2,3)                  1.4982         estimate D2E/DX2                !
 ! R6    R(2,7)                  1.0937         estimate D2E/DX2                !
 ! R7    R(2,12)                 1.4182         estimate D2E/DX2                !
 ! R8    R(3,6)                  1.0911         estimate D2E/DX2                !
 ! R9    R(3,11)                 1.2582         estimate D2E/DX2                !
 ! R10   R(4,5)                  1.5499         estimate D2E/DX2                !
 ! R11   R(4,9)                  1.0893         estimate D2E/DX2                !
 ! R12   R(4,11)                 1.5146         estimate D2E/DX2                !
 ! R13   R(4,15)                 1.5129         estimate D2E/DX2                !
 ! R14   R(5,10)                 1.0912         estimate D2E/DX2                !
 ! R15   R(5,14)                 1.4137         estimate D2E/DX2                !
 ! R16   R(12,19)                1.4406         estimate D2E/DX2                !
 ! R17   R(13,23)                1.4202         estimate D2E/DX2                !
 ! R18   R(14,27)                1.4317         estimate D2E/DX2                !
 ! R19   R(15,16)                1.1011         estimate D2E/DX2                !
 ! R20   R(15,17)                1.1003         estimate D2E/DX2                !
 ! R21   R(15,18)                1.4085         estimate D2E/DX2                !
 ! R22   R(18,31)                1.4237         estimate D2E/DX2                !
 ! R23   R(19,20)                1.0903         estimate D2E/DX2                !
 ! R24   R(19,21)                1.0952         estimate D2E/DX2                !
 ! R25   R(19,22)                1.0951         estimate D2E/DX2                !
 ! R26   R(23,24)                1.106          estimate D2E/DX2                !
 ! R27   R(23,25)                1.0967         estimate D2E/DX2                !
 ! R28   R(23,26)                1.0908         estimate D2E/DX2                !
 ! R29   R(27,28)                1.0912         estimate D2E/DX2                !
 ! R30   R(27,29)                1.097          estimate D2E/DX2                !
 ! R31   R(27,30)                1.0947         estimate D2E/DX2                !
 ! R32   R(31,32)                1.0988         estimate D2E/DX2                !
 ! R33   R(31,33)                1.0914         estimate D2E/DX2                !
 ! R34   R(31,34)                1.0987         estimate D2E/DX2                !
 ! A1    A(2,1,5)              112.0352         estimate D2E/DX2                !
 ! A2    A(2,1,8)              104.7938         estimate D2E/DX2                !
 ! A3    A(2,1,13)             111.862          estimate D2E/DX2                !
 ! A4    A(5,1,8)              108.7538         estimate D2E/DX2                !
 ! A5    A(5,1,13)             113.6525         estimate D2E/DX2                !
 ! A6    A(8,1,13)             105.055          estimate D2E/DX2                !
 ! A7    A(1,2,3)              109.0477         estimate D2E/DX2                !
 ! A8    A(1,2,7)              110.4791         estimate D2E/DX2                !
 ! A9    A(1,2,12)             106.4848         estimate D2E/DX2                !
 ! A10   A(3,2,7)              111.0841         estimate D2E/DX2                !
 ! A11   A(3,2,12)             106.9335         estimate D2E/DX2                !
 ! A12   A(7,2,12)             112.6138         estimate D2E/DX2                !
 ! A13   A(2,3,6)              124.8753         estimate D2E/DX2                !
 ! A14   A(2,3,11)             120.7839         estimate D2E/DX2                !
 ! A15   A(6,3,11)             114.3217         estimate D2E/DX2                !
 ! A16   A(5,4,9)              111.9858         estimate D2E/DX2                !
 ! A17   A(5,4,11)             110.3563         estimate D2E/DX2                !
 ! A18   A(5,4,15)             113.9884         estimate D2E/DX2                !
 ! A19   A(9,4,11)             103.441          estimate D2E/DX2                !
 ! A20   A(9,4,15)             111.3884         estimate D2E/DX2                !
 ! A21   A(11,4,15)            104.9126         estimate D2E/DX2                !
 ! A22   A(1,5,4)              114.7194         estimate D2E/DX2                !
 ! A23   A(1,5,10)             107.1959         estimate D2E/DX2                !
 ! A24   A(1,5,14)             114.1543         estimate D2E/DX2                !
 ! A25   A(4,5,10)             106.6184         estimate D2E/DX2                !
 ! A26   A(4,5,14)             109.5989         estimate D2E/DX2                !
 ! A27   A(10,5,14)            103.6373         estimate D2E/DX2                !
 ! A28   A(3,11,4)             120.5935         estimate D2E/DX2                !
 ! A29   A(2,12,19)            115.2597         estimate D2E/DX2                !
 ! A30   A(1,13,23)            116.9651         estimate D2E/DX2                !
 ! A31   A(5,14,27)            118.8411         estimate D2E/DX2                !
 ! A32   A(4,15,16)            107.1981         estimate D2E/DX2                !
 ! A33   A(4,15,17)            109.8045         estimate D2E/DX2                !
 ! A34   A(4,15,18)            108.2522         estimate D2E/DX2                !
 ! A35   A(16,15,17)           107.9675         estimate D2E/DX2                !
 ! A36   A(16,15,18)           111.9283         estimate D2E/DX2                !
 ! A37   A(17,15,18)           111.5902         estimate D2E/DX2                !
 ! A38   A(15,18,31)           112.9251         estimate D2E/DX2                !
 ! A39   A(12,19,20)           105.3695         estimate D2E/DX2                !
 ! A40   A(12,19,21)           111.8054         estimate D2E/DX2                !
 ! A41   A(12,19,22)           110.3816         estimate D2E/DX2                !
 ! A42   A(20,19,21)           109.4426         estimate D2E/DX2                !
 ! A43   A(20,19,22)           109.8422         estimate D2E/DX2                !
 ! A44   A(21,19,22)           109.8999         estimate D2E/DX2                !
 ! A45   A(13,23,24)           111.4845         estimate D2E/DX2                !
 ! A46   A(13,23,25)           113.0523         estimate D2E/DX2                !
 ! A47   A(13,23,26)           106.5505         estimate D2E/DX2                !
 ! A48   A(24,23,25)           108.7531         estimate D2E/DX2                !
 ! A49   A(24,23,26)           107.6385         estimate D2E/DX2                !
 ! A50   A(25,23,26)           109.1885         estimate D2E/DX2                !
 ! A51   A(14,27,28)           105.3518         estimate D2E/DX2                !
 ! A52   A(14,27,29)           112.0528         estimate D2E/DX2                !
 ! A53   A(14,27,30)           112.5764         estimate D2E/DX2                !
 ! A54   A(28,27,29)           108.6269         estimate D2E/DX2                !
 ! A55   A(28,27,30)           109.2221         estimate D2E/DX2                !
 ! A56   A(29,27,30)           108.8707         estimate D2E/DX2                !
 ! A57   A(18,31,32)           111.1715         estimate D2E/DX2                !
 ! A58   A(18,31,33)           106.7382         estimate D2E/DX2                !
 ! A59   A(18,31,34)           111.1578         estimate D2E/DX2                !
 ! A60   A(32,31,33)           109.3635         estimate D2E/DX2                !
 ! A61   A(32,31,34)           108.9726         estimate D2E/DX2                !
 ! A62   A(33,31,34)           109.3931         estimate D2E/DX2                !
 ! D1    D(5,1,2,3)             46.3242         estimate D2E/DX2                !
 ! D2    D(5,1,2,7)            168.6812         estimate D2E/DX2                !
 ! D3    D(5,1,2,12)           -68.7324         estimate D2E/DX2                !
 ! D4    D(8,1,2,3)            164.0744         estimate D2E/DX2                !
 ! D5    D(8,1,2,7)            -73.5686         estimate D2E/DX2                !
 ! D6    D(8,1,2,12)            49.0179         estimate D2E/DX2                !
 ! D7    D(13,1,2,3)           -82.6326         estimate D2E/DX2                !
 ! D8    D(13,1,2,7)            39.7244         estimate D2E/DX2                !
 ! D9    D(13,1,2,12)          162.3108         estimate D2E/DX2                !
 ! D10   D(2,1,5,4)             -5.6639         estimate D2E/DX2                !
 ! D11   D(2,1,5,10)          -123.8313         estimate D2E/DX2                !
 ! D12   D(2,1,5,14)           122.0093         estimate D2E/DX2                !
 ! D13   D(8,1,5,4)           -121.0254         estimate D2E/DX2                !
 ! D14   D(8,1,5,10)           120.8072         estimate D2E/DX2                !
 ! D15   D(8,1,5,14)             6.6478         estimate D2E/DX2                !
 ! D16   D(13,1,5,4)           122.3481         estimate D2E/DX2                !
 ! D17   D(13,1,5,10)            4.1807         estimate D2E/DX2                !
 ! D18   D(13,1,5,14)         -109.9787         estimate D2E/DX2                !
 ! D19   D(2,1,13,23)           63.2885         estimate D2E/DX2                !
 ! D20   D(5,1,13,23)          -64.8127         estimate D2E/DX2                !
 ! D21   D(8,1,13,23)          176.4191         estimate D2E/DX2                !
 ! D22   D(1,2,3,6)            133.636          estimate D2E/DX2                !
 ! D23   D(1,2,3,11)           -48.0465         estimate D2E/DX2                !
 ! D24   D(7,2,3,6)             11.644          estimate D2E/DX2                !
 ! D25   D(7,2,3,11)          -170.0385         estimate D2E/DX2                !
 ! D26   D(12,2,3,6)          -111.5975         estimate D2E/DX2                !
 ! D27   D(12,2,3,11)           66.72           estimate D2E/DX2                !
 ! D28   D(1,2,12,19)         -155.2516         estimate D2E/DX2                !
 ! D29   D(3,2,12,19)           88.2695         estimate D2E/DX2                !
 ! D30   D(7,2,12,19)          -34.0189         estimate D2E/DX2                !
 ! D31   D(2,3,11,4)             1.8987         estimate D2E/DX2                !
 ! D32   D(6,3,11,4)          -179.616          estimate D2E/DX2                !
 ! D33   D(9,4,5,1)             77.8386         estimate D2E/DX2                !
 ! D34   D(9,4,5,10)          -163.6684         estimate D2E/DX2                !
 ! D35   D(9,4,5,14)           -52.1096         estimate D2E/DX2                !
 ! D36   D(11,4,5,1)           -36.8174         estimate D2E/DX2                !
 ! D37   D(11,4,5,10)           81.6756         estimate D2E/DX2                !
 ! D38   D(11,4,5,14)         -166.7656         estimate D2E/DX2                !
 ! D39   D(15,4,5,1)          -154.5626         estimate D2E/DX2                !
 ! D40   D(15,4,5,10)          -36.0696         estimate D2E/DX2                !
 ! D41   D(15,4,5,14)           75.4892         estimate D2E/DX2                !
 ! D42   D(5,4,11,3)            42.2118         estimate D2E/DX2                !
 ! D43   D(9,4,11,3)           -77.7373         estimate D2E/DX2                !
 ! D44   D(15,4,11,3)          165.4115         estimate D2E/DX2                !
 ! D45   D(5,4,15,16)          -65.8393         estimate D2E/DX2                !
 ! D46   D(5,4,15,17)          177.1166         estimate D2E/DX2                !
 ! D47   D(5,4,15,18)           55.072          estimate D2E/DX2                !
 ! D48   D(9,4,15,16)           62.0663         estimate D2E/DX2                !
 ! D49   D(9,4,15,17)          -54.9778         estimate D2E/DX2                !
 ! D50   D(9,4,15,18)         -177.0224         estimate D2E/DX2                !
 ! D51   D(11,4,15,16)         173.3288         estimate D2E/DX2                !
 ! D52   D(11,4,15,17)          56.2848         estimate D2E/DX2                !
 ! D53   D(11,4,15,18)         -65.7598         estimate D2E/DX2                !
 ! D54   D(1,5,14,27)          -64.7426         estimate D2E/DX2                !
 ! D55   D(4,5,14,27)           65.5105         estimate D2E/DX2                !
 ! D56   D(10,5,14,27)         179.0124         estimate D2E/DX2                !
 ! D57   D(2,12,19,20)         172.5767         estimate D2E/DX2                !
 ! D58   D(2,12,19,21)         -68.6214         estimate D2E/DX2                !
 ! D59   D(2,12,19,22)          54.0443         estimate D2E/DX2                !
 ! D60   D(1,13,23,24)         -62.266          estimate D2E/DX2                !
 ! D61   D(1,13,23,25)          60.6206         estimate D2E/DX2                !
 ! D62   D(1,13,23,26)        -179.4389         estimate D2E/DX2                !
 ! D63   D(5,14,27,28)         168.7924         estimate D2E/DX2                !
 ! D64   D(5,14,27,29)         -73.2651         estimate D2E/DX2                !
 ! D65   D(5,14,27,30)          49.8523         estimate D2E/DX2                !
 ! D66   D(4,15,18,31)        -177.8819         estimate D2E/DX2                !
 ! D67   D(16,15,18,31)        -59.9523         estimate D2E/DX2                !
 ! D68   D(17,15,18,31)         61.1748         estimate D2E/DX2                !
 ! D69   D(15,18,31,32)        -61.0989         estimate D2E/DX2                !
 ! D70   D(15,18,31,33)        179.7072         estimate D2E/DX2                !
 ! D71   D(15,18,31,34)         60.485          estimate D2E/DX2                !
 --------------------------------------------------------------------------------
 Trust Radius=3.00D-01 FncErr=1.00D-07 GrdErr=1.00D-06 EigMax=2.50D+02 EigMin=1.00D-04
 Number of steps in this run=    177 maximum allowed number of steps=    204.
 GradGradGradGradGradGradGradGradGradGradGradGradGradGradGradGradGradGrad

 Leave Link  103 at Fri May 24 08:31:17 2019, MaxMem=   402653184 cpu:               0.2 elap:               0.1
 (Enter /n/sw/g16_nehalem/g16/l202.exe)
                          Input orientation:                          
 ---------------------------------------------------------------------
 Center     Atomic      Atomic             Coordinates (Angstroms)
 Number     Number       Type             X           Y           Z
 ---------------------------------------------------------------------
      1          6           0        1.031589    0.464212    1.069117
      2          6           0        1.808119    0.662046   -0.271331
      3          6           0        0.846518    1.100099   -1.333384
      4          6           0       -0.630768   -0.663304   -0.608898
      5          6           0       -0.285824   -0.343388    0.867879
      6          1           0        1.018354    1.922078   -2.029980
      7          1           0        2.612461    1.392087   -0.143453
      8          1           0        1.707301   -0.117677    1.699565
      9          1           0       -0.037472   -1.490699   -0.996251
     10          1           0       -1.102125    0.269701    1.253274
     11          8           0       -0.244114    0.496214   -1.503357
     12          8           0        2.288124   -0.617313   -0.650933
     13          8           0        0.849320    1.680760    1.753861
     14          8           0       -0.363485   -1.525272    1.639751
     15          6           0       -2.106801   -0.876107   -0.863550
     16          1           0       -2.402190   -1.788757   -0.322939
     17          1           0       -2.279162   -1.046564   -1.936815
     18          8           0       -2.802313    0.257847   -0.400611
     19          6           0        3.450939   -0.610161   -1.501334
     20          1           0        3.757487   -1.653490   -1.580486
     21          1           0        3.222832   -0.220525   -2.499122
     22          1           0        4.253301   -0.020540   -1.045368
     23          6           0        0.062519    2.671451    1.108430
     24          1           0        0.520802    2.995168    0.155264
     25          1           0       -0.965175    2.342835    0.911846
     26          1           0        0.041602    3.534624    1.775076
     27          6           0        0.567154   -2.581931    1.380407
     28          1           0        0.450164   -3.280208    2.210753
     29          1           0        0.341822   -3.108885    0.445070
     30          1           0        1.603511   -2.230718    1.348123
     31          6           0       -4.213461    0.141725   -0.548991
     32          1           0       -4.493303    0.026824   -1.605346
     33          1           0       -4.647565    1.063553   -0.157840
     34          1           0       -4.602809   -0.714539    0.018869
 ---------------------------------------------------------------------
                    Distance matrix (angstroms):
                    1          2          3          4          5
     1  C    0.000000
     2  C    1.561710   0.000000
     3  C    2.492110   1.498173   0.000000
     4  C    2.617338   2.796189   2.411813   0.000000
     5  C    1.558298   2.587140   2.865556   1.549904   0.000000
     6  H    3.424902   2.303097   1.091065   3.379834   3.902666
     7  H    2.197825   1.093745   2.149360   3.867791   3.526290
     8  H    1.092083   2.121924   3.379749   3.330657   2.171450
     9  H    3.038143   2.926777   2.758139   1.089323   2.202948
    10  H    2.150461   3.308757   3.343287   2.135500   1.091217
    11  O    2.871596   2.399385   1.258192   1.514609   2.515836
    12  O    2.388964   1.418190   2.343816   2.919557   3.001172
    13  O    1.407866   2.461397   3.141378   3.642517   2.484088
    14  O    2.495977   3.626632   4.146832   2.422984   1.413742
    15  C    3.921881   4.247733   3.584442   1.512880   2.568578
    16  H    4.336419   4.871940   4.463249   2.118101   2.825977
    17  H    4.720079   4.732764   3.839553   2.151152   3.512002
    18  O    4.111142   4.629922   3.859200   2.368018   2.881539
    19  C    3.689817   2.414596   3.120289   4.178468   4.432577
    20  H    4.351503   3.297822   4.014605   4.602307   4.905020
    21  H    4.242964   2.782696   2.958016   4.315001   4.864407
    22  H    3.884000   2.654048   3.597910   4.945481   4.936436
    23  C    2.410922   2.998094   3.007700   3.814506   3.044415
    24  H    2.738936   2.698634   2.431759   3.910815   3.507766
    25  H    2.746093   3.451973   3.141287   3.385463   2.771145
    26  H    3.302406   3.944625   4.029556   4.874219   3.996147
    27  C    3.097029   3.845987   4.582581   3.012222   2.449761
    28  H    3.957533   4.852437   5.648459   3.995877   3.312084
    29  H    3.692186   4.108914   4.597082   2.835074   2.867173
    30  H    2.769041   3.321533   4.342564   3.358381   2.713344
    31  C    5.498438   6.050393   5.209332   3.672513   4.203473
    32  H    6.153738   6.472327   5.453400   4.048254   4.894566
    33  H    5.841012   6.469153   5.618557   4.395469   4.696421
    34  H    5.851403   6.563475   5.900565   4.021670   4.415306
                    6          7          8          9         10
     6  H    0.000000
     7  H    2.526074   0.000000
     8  H    4.306362   2.548611   0.000000
     9  H    3.718926   4.007476   3.492398   0.000000
    10  H    4.243411   4.124166   2.870908   3.048419   0.000000
    11  O    1.975916   3.288153   3.800473   2.060990   2.895946
    12  O    3.156358   2.097718   2.472212   2.508076   3.988306
    13  O    3.795294   2.606108   1.993353   4.290416   2.459637
    14  O    5.221171   4.532886   2.504607   2.656311   1.979111
    15  C    4.353963   5.285327   4.657483   2.162743   2.608293
    16  H    5.327702   5.941103   4.875546   2.476707   2.900322
    17  H    4.437919   5.752490   5.475215   2.471253   3.646181
    18  O    4.474595   5.538268   4.988825   3.325138   2.371943
    19  C    3.550939   2.560446   3.678120   3.633107   5.393738
    20  H    4.526542   3.556921   4.161817   3.843117   5.945140
    21  H    3.109753   2.919289   4.465018   3.808089   5.746830
    22  H    3.899757   2.345490   3.745158   4.535914   5.835116
    23  C    3.365234   3.115475   3.291502   4.665102   2.673159
    24  H    2.484828   2.652195   3.671846   4.664832   3.356738
    25  H    3.572921   3.849293   3.717089   4.381489   2.105520
    26  H    4.246504   3.857530   4.014917   5.739371   3.498587
    27  C    5.667488   4.722102   2.733925   2.684188   3.306730
    28  H    6.735758   5.661109   3.441411   3.704728   3.991018
    29  H    5.647491   5.075521   3.519320   2.199954   3.762050
    30  H    5.385137   4.045676   2.144581   2.955764   3.685316
    31  C    5.721440   6.951336   6.338668   4.505966   3.597909
    32  H    5.843857   7.381934   7.027859   4.746399   4.441935
    33  H    6.028649   7.267470   6.725294   5.336674   3.897639
    34  H    6.538119   7.518267   6.557322   4.740801   3.840218
                   11         12         13         14         15
    11  O    0.000000
    12  O    2.894615   0.000000
    13  O    3.634311   3.624132   0.000000
    14  O    3.738955   3.619759   3.429659   0.000000
    15  C    2.400463   4.407669   4.703941   3.118827   0.000000
    16  H    3.357346   4.845504   5.188734   2.842164   1.101111
    17  H    2.590264   4.764226   5.553988   4.085438   1.100301
    18  O    2.795934   5.171181   4.472231   3.645610   1.408510
    19  C    3.857134   1.440615   4.755316   5.025303   5.600533
    20  H    4.543125   2.024045   5.540084   5.231518   5.958875
    21  H    3.677632   2.108773   5.228414   5.629769   5.613365
    22  H    4.550113   2.091324   4.724107   5.548765   6.419965
    23  C    3.412786   4.343345   1.420248   4.251619   4.602154
    24  H    3.095301   4.101634   2.095496   4.839426   4.788429
    25  H    3.124603   4.667838   2.107065   3.981724   3.849276
    26  H    4.479028   5.307632   2.022293   5.077889   5.570685
    27  C    4.295256   3.308747   4.288312   1.431739   3.885256
    28  H    5.342097   4.319532   4.997928   2.016896   4.665738
    29  H    4.139617   3.346228   4.991111   2.105362   3.562799
    30  H    4.356698   2.658570   4.004134   2.109923   4.526907
    31  C    4.097828   6.546536   5.770919   4.731996   2.360709
    32  H    4.276253   6.878486   6.524063   5.476774   2.657242
    33  H    4.639253   7.153477   5.852460   5.318523   3.273498
    34  H    4.772978   6.924092   6.202690   4.610468   2.652324
                   16         17         18         19         20
    16  H    0.000000
    17  H    1.780613   0.000000
    18  O    2.086796   2.082090   0.000000
    19  C    6.085789   5.763172   6.408447   0.000000
    20  H    6.288191   6.077537   6.933707   1.090308   0.000000
    21  H    6.231853   5.592000   6.398043   1.095185   1.784135
    22  H    6.924165   6.672367   7.090480   1.095145   1.788493
    23  C    5.293115   5.346085   4.038558   5.390847   6.291913
    24  H    5.626589   5.343425   4.341085   4.932385   5.924439
    25  H    4.545301   4.618382   3.073238   5.834868   6.669773
    26  H    6.221911   6.336510   4.853734   6.287900   7.210002
    27  C    3.513903   4.632799   4.752859   4.528634   4.450518
    28  H    4.096333   5.444328   5.469521   5.469314   5.287541
    29  H    3.140410   4.098305   4.683551   4.438324   4.229399
    30  H    4.362731   5.221895   5.353719   3.762792   3.680972
    31  C    2.656796   2.660752   1.423671   7.759853   8.235459
    32  H    3.051828   2.482832   2.089068   7.970417   8.420191
    33  H    3.633819   3.636850   2.028067   8.378070   8.947130
    34  H    2.472549   3.055205   2.088847   8.196632   8.563534
                   21         22         23         24         25
    21  H    0.000000
    22  H    1.793115   0.000000
    23  C    5.600494   5.426630   0.000000
    24  H    4.968643   4.946470   1.106048   0.000000
    25  H    5.978706   6.053819   1.096717   1.790554   0.000000
    26  H    6.518446   6.191325   1.090835   1.773256   1.783011
    27  C    5.261141   5.102234   5.284567   5.710268   5.178890
    28  H    6.263567   5.974246   6.065281   6.603815   5.942134
    29  H    5.031015   5.201822   5.824976   6.113549   5.625600
    30  H    4.632966   4.199413   5.144256   5.468552   5.263637
    31  C    7.696278   8.482852   5.237419   5.572375   4.186919
    32  H    7.771664   8.764639   5.925719   6.087041   4.914046
    33  H    8.311053   9.010459   5.135530   5.526408   4.042374
    34  H    8.235593   8.946783   5.866631   6.327078   4.835010
                   26         27         28         29         30
    26  H    0.000000
    27  C    6.151765   0.000000
    28  H    6.840956   1.091216   0.000000
    29  H    6.781981   1.096955   1.777281   0.000000
    30  H    5.988407   1.094728   1.782069   1.782846   0.000000
    31  C    5.917653   5.830537   6.408995   5.683769   6.562369
    32  H    6.655620   6.428728   7.066607   6.116806   7.140771
    33  H    5.641865   6.545919   7.103896   6.531977   7.224687
    34  H    6.535304   5.662990   6.076146   5.510346   6.525651
                   31         32         33         34
    31  C    0.000000
    32  H    1.098817   0.000000
    33  H    1.091427   1.787142   0.000000
    34  H    1.098747   1.788766   1.787412   0.000000
 Stoichiometry    C10H19O5(1+)
 Framework group  C1[X(C10H19O5)]
 Deg. of freedom    96
 Full point group                 C1      NOp   1
 Largest Abelian subgroup         C1      NOp   1
 Largest concise Abelian subgroup C1      NOp   1
                         Standard orientation:                         
 ---------------------------------------------------------------------
 Center     Atomic      Atomic             Coordinates (Angstroms)
 Number     Number       Type             X           Y           Z
 ---------------------------------------------------------------------
      1          6           0        1.031589    0.464212    1.069117
      2          6           0        1.808119    0.662046   -0.271331
      3          6           0        0.846518    1.100099   -1.333384
      4          6           0       -0.630768   -0.663304   -0.608898
      5          6           0       -0.285824   -0.343388    0.867879
      6          1           0        1.018354    1.922078   -2.029980
      7          1           0        2.612461    1.392087   -0.143453
      8          1           0        1.707301   -0.117677    1.699565
      9          1           0       -0.037472   -1.490699   -0.996251
     10          1           0       -1.102125    0.269701    1.253274
     11          8           0       -0.244114    0.496214   -1.503357
     12          8           0        2.288124   -0.617313   -0.650933
     13          8           0        0.849320    1.680760    1.753861
     14          8           0       -0.363485   -1.525272    1.639751
     15          6           0       -2.106801   -0.876107   -0.863550
     16          1           0       -2.402190   -1.788757   -0.322939
     17          1           0       -2.279162   -1.046564   -1.936815
     18          8           0       -2.802313    0.257847   -0.400611
     19          6           0        3.450939   -0.610161   -1.501334
     20          1           0        3.757487   -1.653490   -1.580486
     21          1           0        3.222832   -0.220525   -2.499122
     22          1           0        4.253301   -0.020540   -1.045368
     23          6           0        0.062519    2.671451    1.108430
     24          1           0        0.520802    2.995168    0.155264
     25          1           0       -0.965175    2.342835    0.911846
     26          1           0        0.041602    3.534624    1.775076
     27          6           0        0.567154   -2.581931    1.380407
     28          1           0        0.450164   -3.280208    2.210753
     29          1           0        0.341822   -3.108885    0.445070
     30          1           0        1.603511   -2.230718    1.348123
     31          6           0       -4.213461    0.141725   -0.548991
     32          1           0       -4.493303    0.026824   -1.605346
     33          1           0       -4.647565    1.063553   -0.157840
     34          1           0       -4.602809   -0.714539    0.018869
 ---------------------------------------------------------------------
 Rotational constants (GHZ):           0.7509357           0.4438938           0.4180977
 Leave Link  202 at Fri May 24 08:31:17 2019, MaxMem=   402653184 cpu:               0.6 elap:               0.2
 (Enter /n/sw/g16_nehalem/g16/l301.exe)
 Standard basis: 6-31G(d) (6D, 7F)
 Ernie: Thresh=  0.10000D-02 Tol=  0.10000D-05 Strict=F.
 There are   263 symmetry adapted cartesian basis functions of A   symmetry.
 There are   263 symmetry adapted basis functions of A   symmetry.
   263 basis functions,   496 primitive gaussians,   263 cartesian basis functions
    59 alpha electrons       59 beta electrons
       nuclear repulsion energy      1181.3637409659 Hartrees.
 IExCor=  402 DFT=T Ex+Corr=B3LYP ExCW=0 ScaHFX=  0.200000
 ScaDFX=  0.800000  0.720000  1.000000  0.810000 ScalE2=  1.000000  1.000000
 IRadAn=      5 IRanWt=     -1 IRanGd=            0 ICorTp=0 IEmpDi=  4
 NAtoms=   34 NActive=   34 NUniq=   34 SFac= 1.00D+00 NAtFMM=   60 NAOKFM=F Big=F
 Integral buffers will be    131072 words long.
 Raffenetti 2 integral format.
 Two-electron integral symmetry is turned on.
 ------------------------------------------------------------------------------
 Polarizable Continuum Model (PCM)
 =================================
 Model                : PCM.
 Atomic radii         : UFF (Universal Force Field).
 Polarization charges : Total charges.
 Charge compensation  : None.
 Solution method      : On-the-fly selection.
 Cavity type          : Scaled VdW (van der Waals Surface) (Alpha=1.100).
 Cavity algorithm     : GePol (No added spheres)
                        Default sphere list used, NSphG=   34.
                        Lebedev-Laikov grids with approx.  5.0 points / Ang**2.
                        Smoothing algorithm: York/Karplus (Gamma=1.0000).
                        Polarization charges: spherical gaussians, with
                                              point-specific exponents (IZeta= 3).
                        Self-potential: point-specific (ISelfS= 7).
                        Self-field    : sphere-specific E.n sum rule (ISelfD= 2).
 1st derivatives      : Analytical E(r).r(x)/FMM algorithm (CHGder, D1EAlg=3).
                        Cavity 1st derivative terms included.
 Solvent              : TetraHydroFuran, Eps=   7.425700 Eps(inf)=   1.974025
 ------------------------------------------------------------------------------
 GePol: Number of generator spheres                  =      34
 GePol: Total number of spheres                      =      34
 GePol: Number of exposed spheres                    =      34 (100.00%)
 GePol: Number of points                             =    2274
 GePol: Average weight of points                     =       0.13
 GePol: Minimum weight of points                     =   0.18D-09
 GePol: Maximum weight of points                     =    0.20577
 GePol: Number of points with low weight             =     143
 GePol: Fraction of low-weight points (<1% of avg)   =       6.29%
 GePol: Cavity surface area                          =    295.267 Ang**2
 GePol: Cavity volume                                =    318.349 Ang**3
 Leave Link  301 at Fri May 24 08:31:17 2019, MaxMem=   402653184 cpu:               1.0 elap:               0.4
 (Enter /n/sw/g16_nehalem/g16/l302.exe)
 NPDir=0 NMtPBC=     1 NCelOv=     1 NCel=       1 NClECP=     1 NCelD=      1
         NCelK=      1 NCelE2=     1 NClLst=     1 CellRange=     0.0.
 One-electron integrals computed using PRISM.
 One-electron integral symmetry used in STVInt
 NBasis=   263 RedAO= T EigKep=  1.55D-03  NBF=   263
 NBsUse=   263 1.00D-06 EigRej= -1.00D+00 NBFU=   263
 Precomputing XC quadrature grid using
 IXCGrd= 4 IRadAn=           5 IRanWt=          -1 IRanGd=           0 AccXCQ= 0.00D+00.
 Generated NRdTot=       0 NPtTot=           0 NUsed=           0 NTot=          32
 NSgBfM=   262   262   262   262   262 MxSgAt=    34 MxSgA2=    34.
 Leave Link  302 at Fri May 24 08:31:20 2019, MaxMem=   402653184 cpu:               9.7 elap:               2.6
 (Enter /n/sw/g16_nehalem/g16/l303.exe)
 DipDrv:  MaxL=1.
 Leave Link  303 at Fri May 24 08:31:21 2019, MaxMem=   402653184 cpu:               1.3 elap:               0.5
 (Enter /n/sw/g16_nehalem/g16/l401.exe)
 ExpMin= 1.61D-01 ExpMax= 5.48D+03 ExpMxC= 8.25D+02 IAcc=3 IRadAn=         5 AccDes= 0.00D+00
 Harris functional with IExCor=  402 and IRadAn=       5 diagonalized for initial guess.
 HarFok:  IExCor=  402 AccDes= 0.00D+00 IRadAn=         5 IDoV= 1 UseB2=F ITyADJ=14
 ICtDFT=  3500011 ScaDFX=  1.000000  1.000000  1.000000  1.000000
 FoFCou: FMM=F IPFlag=           0 FMFlag=      100000 FMFlg1=           0
         NFxFlg=           0 DoJE=T BraDBF=F KetDBF=T FulRan=T
         wScrn=  0.000000 ICntrl=       500 IOpCl=  0 I1Cent=   200000004 NGrid=           0
         NMat0=    1 NMatS0=      1 NMatT0=    0 NMatD0=    1 NMtDS0=    0 NMtDT0=    0
 Petite list used in FoFCou.
 Harris En= -768.250325653073    
 JPrj=0 DoOrth=F DoCkMO=F.
 Leave Link  401 at Fri May 24 08:31:33 2019, MaxMem=   402653184 cpu:              48.4 elap:              12.4
 (Enter /n/sw/g16_nehalem/g16/l502.exe)
 Integral symmetry usage will be decided dynamically.
 Closed shell SCF:
 Using DIIS extrapolation, IDIIS=  1040.
 NGot=   402653184 LenX=   402510103 LenY=   402440493
 Requested convergence on RMS density matrix=1.00D-08 within 128 cycles.
 Requested convergence on MAX density matrix=1.00D-06.
 Requested convergence on             energy=1.00D-06.
 No special actions if energy rises.
 Fock matrices will be formed incrementally for  20 cycles.

 Cycle   1  Pass 1  IDiag  1:
 FoFJK:  IHMeth= 1 ICntrl=       0 DoSepK=F KAlg= 0 I1Cent=           0 FoldK=F
 IRaf= 890000000 NMat=       1 IRICut=       1 DoRegI=T DoRafI=F ISym2E= 0 IDoP0=0 IntGTp=1.
 FoFCou: FMM=F IPFlag=           0 FMFlag=      100000 FMFlg1=           0
         NFxFlg=           0 DoJE=F BraDBF=F KetDBF=F FulRan=T
         wScrn=  0.000000 ICntrl=         0 IOpCl=  0 I1Cent=           0 NGrid=           0
         NMat0=    1 NMatS0=      1 NMatT0=    0 NMatD0=    1 NMtDS0=    0 NMtDT0=    0
 Symmetry not used in FoFCou.
 Inv3:  Mode=1 IEnd=    15513228.
 Iteration    1 A*A^-1 deviation from unit magnitude is 5.33D-15 for    560.
 Iteration    1 A*A^-1 deviation from orthogonality  is 3.62D-15 for   2229    569.
 Iteration    1 A^-1*A deviation from unit magnitude is 5.11D-15 for    560.
 Iteration    1 A^-1*A deviation from orthogonality  is 1.83D-15 for   2242    560.
 E= -768.080500775782    
 DIIS: error= 2.23D-02 at cycle   1 NSaved=   1.
 NSaved= 1 IEnMin= 1 EnMin= -768.080500775782     IErMin= 1 ErrMin= 2.23D-02
 ErrMax= 2.23D-02  0.00D+00 EMaxC= 1.00D-01 BMatC= 2.54D-01 BMatP= 2.54D-01
 IDIUse=3 WtCom= 7.77D-01 WtEn= 2.23D-01
 Coeff-Com:  0.100D+01
 Coeff-En:   0.100D+01
 Coeff:      0.100D+01
 Gap=     0.011 Goal=   None    Shift=    0.000
 GapD=    0.011 DampG=0.250 DampE=0.500 DampFc=0.2500 IDamp=-1.
 Damping current iteration by 2.50D-01
 RMSDP=4.51D-03 MaxDP=1.03D-01              OVMax= 2.77D-01

 Cycle   2  Pass 1  IDiag  1:
 RMSU=  1.12D-03    CP:  9.95D-01
 E= -768.158372563161     Delta-E=       -0.077871787379 Rises=F Damp=T
 DIIS: error= 9.72D-03 at cycle   2 NSaved=   2.
 NSaved= 2 IEnMin= 2 EnMin= -768.158372563161     IErMin= 2 ErrMin= 9.72D-03
 ErrMax= 9.72D-03  0.00D+00 EMaxC= 1.00D-01 BMatC= 6.97D-02 BMatP= 2.54D-01
 IDIUse=3 WtCom= 9.03D-01 WtEn= 9.72D-02
 Coeff-Com: -0.759D+00 0.176D+01
 Coeff-En:   0.000D+00 0.100D+01
 Coeff:     -0.686D+00 0.169D+01
 Gap=     0.143 Goal=   None    Shift=    0.000
 RMSDP=1.30D-03 MaxDP=3.04D-02 DE=-7.79D-02 OVMax= 2.45D-01

 Cycle   3  Pass 1  IDiag  1:
 RMSU=  1.20D-03    CP:  9.85D-01  1.40D+00
 E= -768.294271077657     Delta-E=       -0.135898514496 Rises=F Damp=F
 DIIS: error= 6.12D-03 at cycle   3 NSaved=   3.
 NSaved= 3 IEnMin= 3 EnMin= -768.294271077657     IErMin= 3 ErrMin= 6.12D-03
 ErrMax= 6.12D-03  0.00D+00 EMaxC= 1.00D-01 BMatC= 2.84D-02 BMatP= 6.97D-02
 IDIUse=3 WtCom= 9.39D-01 WtEn= 6.12D-02
 Coeff-Com: -0.501D+00 0.974D+00 0.526D+00
 Coeff-En:   0.000D+00 0.000D+00 0.100D+01
 Coeff:     -0.470D+00 0.915D+00 0.555D+00
 Gap=     0.129 Goal=   None    Shift=    0.000
 RMSDP=6.82D-04 MaxDP=2.52D-02 DE=-1.36D-01 OVMax= 3.11D-02

 Cycle   4  Pass 1  IDiag  1:
 RMSU=  4.77D-04    CP:  9.89D-01  1.61D+00  6.50D-01
 E= -768.316590842373     Delta-E=       -0.022319764716 Rises=F Damp=F
 DIIS: error= 2.06D-03 at cycle   4 NSaved=   4.
 NSaved= 4 IEnMin= 4 EnMin= -768.316590842373     IErMin= 4 ErrMin= 2.06D-03
 ErrMax= 2.06D-03  0.00D+00 EMaxC= 1.00D-01 BMatC= 2.51D-03 BMatP= 2.84D-02
 IDIUse=3 WtCom= 9.79D-01 WtEn= 2.06D-02
 Coeff-Com: -0.190D+00 0.320D+00 0.250D+00 0.621D+00
 Coeff-En:   0.000D+00 0.000D+00 0.000D+00 0.100D+01
 Coeff:     -0.186D+00 0.313D+00 0.245D+00 0.629D+00
 Gap=     0.127 Goal=   None    Shift=    0.000
 RMSDP=1.89D-04 MaxDP=7.93D-03 DE=-2.23D-02 OVMax= 7.31D-03

 Cycle   5  Pass 1  IDiag  1:
 RMSU=  1.49D-04    CP:  9.88D-01  1.62D+00  7.09D-01  8.13D-01
 E= -768.318439125246     Delta-E=       -0.001848282873 Rises=F Damp=F
 DIIS: error= 7.83D-04 at cycle   5 NSaved=   5.
 NSaved= 5 IEnMin= 5 EnMin= -768.318439125246     IErMin= 5 ErrMin= 7.83D-04
 ErrMax= 7.83D-04  0.00D+00 EMaxC= 1.00D-01 BMatC= 4.47D-04 BMatP= 2.51D-03
 IDIUse=3 WtCom= 9.92D-01 WtEn= 7.83D-03
 Coeff-Com: -0.702D-01 0.106D+00 0.665D-01 0.333D+00 0.565D+00
 Coeff-En:   0.000D+00 0.000D+00 0.000D+00 0.610D-01 0.939D+00
 Coeff:     -0.696D-01 0.105D+00 0.659D-01 0.331D+00 0.568D+00
 Gap=     0.128 Goal=   None    Shift=    0.000
 RMSDP=7.30D-05 MaxDP=3.49D-03 DE=-1.85D-03 OVMax= 4.33D-03

 Cycle   6  Pass 1  IDiag  1:
 RMSU=  5.56D-05    CP:  9.88D-01  1.63D+00  7.09D-01  8.74D-01  7.59D-01
 E= -768.318721313656     Delta-E=       -0.000282188410 Rises=F Damp=F
 DIIS: error= 4.49D-04 at cycle   6 NSaved=   6.
 NSaved= 6 IEnMin= 6 EnMin= -768.318721313656     IErMin= 6 ErrMin= 4.49D-04
 ErrMax= 4.49D-04  0.00D+00 EMaxC= 1.00D-01 BMatC= 7.54D-05 BMatP= 4.47D-04
 IDIUse=3 WtCom= 9.96D-01 WtEn= 4.49D-03
 Coeff-Com: -0.244D-01 0.318D-01 0.737D-02 0.140D+00 0.364D+00 0.481D+00
 Coeff-En:   0.000D+00 0.000D+00 0.000D+00 0.000D+00 0.695D-01 0.930D+00
 Coeff:     -0.243D-01 0.316D-01 0.734D-02 0.139D+00 0.363D+00 0.483D+00
 Gap=     0.128 Goal=   None    Shift=    0.000
 RMSDP=2.63D-05 MaxDP=1.48D-03 DE=-2.82D-04 OVMax= 1.76D-03

 Cycle   7  Pass 1  IDiag  1:
 RMSU=  1.93D-05    CP:  9.88D-01  1.64D+00  7.08D-01  8.95D-01  8.19D-01
                    CP:  7.87D-01
 E= -768.318779146647     Delta-E=       -0.000057832992 Rises=F Damp=F
 DIIS: error= 8.71D-05 at cycle   7 NSaved=   7.
 NSaved= 7 IEnMin= 7 EnMin= -768.318779146647     IErMin= 7 ErrMin= 8.71D-05
 ErrMax= 8.71D-05  0.00D+00 EMaxC= 1.00D-01 BMatC= 5.11D-06 BMatP= 7.54D-05
 IDIUse=1 WtCom= 1.00D+00 WtEn= 0.00D+00
 Coeff-Com: -0.592D-02 0.601D-02-0.664D-02 0.376D-01 0.140D+00 0.259D+00
 Coeff-Com:  0.570D+00
 Coeff:     -0.592D-02 0.601D-02-0.664D-02 0.376D-01 0.140D+00 0.259D+00
 Coeff:      0.570D+00
 Gap=     0.127 Goal=   None    Shift=    0.000
 RMSDP=9.80D-06 MaxDP=4.47D-04 DE=-5.78D-05 OVMax= 7.15D-04

 Cycle   8  Pass 1  IDiag  1:
 RMSU=  6.56D-06    CP:  9.88D-01  1.64D+00  7.08D-01  9.05D-01  8.44D-01
                    CP:  8.19D-01  8.20D-01
 E= -768.318783806042     Delta-E=       -0.000004659395 Rises=F Damp=F
 DIIS: error= 2.45D-05 at cycle   8 NSaved=   8.
 NSaved= 8 IEnMin= 8 EnMin= -768.318783806042     IErMin= 8 ErrMin= 2.45D-05
 ErrMax= 2.45D-05  0.00D+00 EMaxC= 1.00D-01 BMatC= 3.76D-07 BMatP= 5.11D-06
 IDIUse=1 WtCom= 1.00D+00 WtEn= 0.00D+00
 Coeff-Com:  0.392D-03-0.927D-03-0.387D-02-0.614D-02-0.106D-02 0.180D-01
 Coeff-Com:  0.219D+00 0.775D+00
 Coeff:      0.392D-03-0.927D-03-0.387D-02-0.614D-02-0.106D-02 0.180D-01
 Coeff:      0.219D+00 0.775D+00
 Gap=     0.127 Goal=   None    Shift=    0.000
 RMSDP=4.11D-06 MaxDP=1.16D-04 DE=-4.66D-06 OVMax= 4.79D-04

 Cycle   9  Pass 1  IDiag  1:
 RMSU=  2.05D-06    CP:  9.88D-01  1.64D+00  7.09D-01  9.09D-01  8.53D-01
                    CP:  8.50D-01  9.18D-01  9.76D-01
 E= -768.318784184725     Delta-E=       -0.000000378683 Rises=F Damp=F
 DIIS: error= 9.97D-06 at cycle   9 NSaved=   9.
 NSaved= 9 IEnMin= 9 EnMin= -768.318784184725     IErMin= 9 ErrMin= 9.97D-06
 ErrMax= 9.97D-06  0.00D+00 EMaxC= 1.00D-01 BMatC= 6.13D-08 BMatP= 3.76D-07
 IDIUse=1 WtCom= 1.00D+00 WtEn= 0.00D+00
 Coeff-Com:  0.333D-03-0.490D-03-0.152D-02-0.511D-02-0.910D-02-0.734D-02
 Coeff-Com:  0.779D-01 0.416D+00 0.530D+00
 Coeff:      0.333D-03-0.490D-03-0.152D-02-0.511D-02-0.910D-02-0.734D-02
 Coeff:      0.779D-01 0.416D+00 0.530D+00
 Gap=     0.127 Goal=   None    Shift=    0.000
 RMSDP=1.19D-06 MaxDP=3.20D-05 DE=-3.79D-07 OVMax= 1.00D-04

 Cycle  10  Pass 1  IDiag  1:
 RMSU=  8.29D-07    CP:  9.88D-01  1.64D+00  7.09D-01  9.09D-01  8.55D-01
                    CP:  8.56D-01  9.36D-01  1.02D+00  7.60D-01
 E= -768.318784237866     Delta-E=       -0.000000053141 Rises=F Damp=F
 DIIS: error= 2.37D-06 at cycle  10 NSaved=  10.
 NSaved=10 IEnMin=10 EnMin= -768.318784237866     IErMin=10 ErrMin= 2.37D-06
 ErrMax= 2.37D-06  0.00D+00 EMaxC= 1.00D-01 BMatC= 4.77D-09 BMatP= 6.13D-08
 IDIUse=1 WtCom= 1.00D+00 WtEn= 0.00D+00
 Coeff-Com:  0.176D-03-0.216D-03-0.275D-03-0.187D-02-0.499D-02-0.648D-02
 Coeff-Com:  0.363D-02 0.772D-01 0.240D+00 0.693D+00
 Coeff:      0.176D-03-0.216D-03-0.275D-03-0.187D-02-0.499D-02-0.648D-02
 Coeff:      0.363D-02 0.772D-01 0.240D+00 0.693D+00
 Gap=     0.127 Goal=   None    Shift=    0.000
 RMSDP=4.91D-07 MaxDP=1.17D-05 DE=-5.31D-08 OVMax= 4.94D-05

 Cycle  11  Pass 1  IDiag  1:
 RMSU=  2.02D-07    CP:  9.88D-01  1.64D+00  7.09D-01  9.09D-01  8.56D-01
                    CP:  8.58D-01  9.45D-01  1.05D+00  8.24D-01  8.74D-01
 E= -768.318784243099     Delta-E=       -0.000000005233 Rises=F Damp=F
 DIIS: error= 7.30D-07 at cycle  11 NSaved=  11.
 NSaved=11 IEnMin=11 EnMin= -768.318784243099     IErMin=11 ErrMin= 7.30D-07
 ErrMax= 7.30D-07  0.00D+00 EMaxC= 1.00D-01 BMatC= 3.63D-10 BMatP= 4.77D-09
 IDIUse=1 WtCom= 1.00D+00 WtEn= 0.00D+00
 Coeff-Com:  0.465D-04-0.495D-04-0.234D-04-0.483D-03-0.167D-02-0.218D-02
 Coeff-Com: -0.361D-02 0.780D-02 0.761D-01 0.301D+00 0.624D+00
 Coeff:      0.465D-04-0.495D-04-0.234D-04-0.483D-03-0.167D-02-0.218D-02
 Coeff:     -0.361D-02 0.780D-02 0.761D-01 0.301D+00 0.624D+00
 Gap=     0.127 Goal=   None    Shift=    0.000
 RMSDP=1.32D-07 MaxDP=4.07D-06 DE=-5.23D-09 OVMax= 1.42D-05

 Cycle  12  Pass 1  IDiag  1:
 RMSU=  8.21D-08    CP:  9.88D-01  1.64D+00  7.09D-01  9.09D-01  8.56D-01
                    CP:  8.59D-01  9.46D-01  1.05D+00  8.46D-01  9.26D-01
                    CP:  8.52D-01
 E= -768.318784243499     Delta-E=       -0.000000000400 Rises=F Damp=F
 DIIS: error= 4.11D-07 at cycle  12 NSaved=  12.
 NSaved=12 IEnMin=12 EnMin= -768.318784243499     IErMin=12 ErrMin= 4.11D-07
 ErrMax= 4.11D-07  0.00D+00 EMaxC= 1.00D-01 BMatC= 8.57D-11 BMatP= 3.63D-10
 IDIUse=1 WtCom= 1.00D+00 WtEn= 0.00D+00
 Coeff-Com:  0.290D-05-0.112D-05 0.284D-04 0.314D-04-0.118D-03-0.442D-04
 Coeff-Com: -0.283D-02-0.912D-02 0.215D-02 0.407D-01 0.349D+00 0.620D+00
 Coeff:      0.290D-05-0.112D-05 0.284D-04 0.314D-04-0.118D-03-0.442D-04
 Coeff:     -0.283D-02-0.912D-02 0.215D-02 0.407D-01 0.349D+00 0.620D+00
 Gap=     0.127 Goal=   None    Shift=    0.000
 RMSDP=5.07D-08 MaxDP=1.58D-06 DE=-4.00D-10 OVMax= 6.01D-06

 Cycle  13  Pass 1  IDiag  1:
 RMSU=  2.39D-08    CP:  9.88D-01  1.64D+00  7.09D-01  9.09D-01  8.56D-01
                    CP:  8.59D-01  9.47D-01  1.05D+00  8.51D-01  9.36D-01
                    CP:  9.70D-01  8.27D-01
 E= -768.318784243584     Delta-E=       -0.000000000085 Rises=F Damp=F
 DIIS: error= 9.52D-08 at cycle  13 NSaved=  13.
 NSaved=13 IEnMin=13 EnMin= -768.318784243584     IErMin=13 ErrMin= 9.52D-08
 ErrMax= 9.52D-08  0.00D+00 EMaxC= 1.00D-01 BMatC= 3.98D-12 BMatP= 8.57D-11
 IDIUse=1 WtCom= 1.00D+00 WtEn= 0.00D+00
 Coeff-Com: -0.137D-05 0.242D-05 0.143D-04 0.433D-04 0.474D-04 0.142D-03
 Coeff-Com: -0.103D-02-0.440D-02-0.362D-02-0.292D-02 0.120D+00 0.264D+00
 Coeff-Com:  0.628D+00
 Coeff:     -0.137D-05 0.242D-05 0.143D-04 0.433D-04 0.474D-04 0.142D-03
 Coeff:     -0.103D-02-0.440D-02-0.362D-02-0.292D-02 0.120D+00 0.264D+00
 Coeff:      0.628D+00
 Gap=     0.127 Goal=   None    Shift=    0.000
 RMSDP=1.22D-08 MaxDP=3.08D-07 DE=-8.53D-11 OVMax= 1.41D-06

 Cycle  14  Pass 1  IDiag  1:
 RMSU=  8.78D-09    CP:  9.88D-01  1.64D+00  7.09D-01  9.09D-01  8.56D-01
                    CP:  8.59D-01  9.47D-01  1.05D+00  8.52D-01  9.40D-01
                    CP:  9.92D-01  8.64D-01  9.14D-01
 E= -768.318784243561     Delta-E=        0.000000000023 Rises=F Damp=F
 DIIS: error= 3.89D-08 at cycle  14 NSaved=  14.
 NSaved=14 IEnMin=13 EnMin= -768.318784243584     IErMin=14 ErrMin= 3.89D-08
 ErrMax= 3.89D-08  0.00D+00 EMaxC= 1.00D-01 BMatC= 1.01D-12 BMatP= 3.98D-12
 IDIUse=1 WtCom= 1.00D+00 WtEn= 0.00D+00
 Coeff-Com: -0.134D-05 0.163D-05 0.248D-05 0.171D-04 0.440D-04 0.909D-04
 Coeff-Com: -0.210D-04-0.549D-03-0.198D-02-0.880D-02 0.327D-02 0.223D-01
 Coeff-Com:  0.355D+00 0.631D+00
 Coeff:     -0.134D-05 0.163D-05 0.248D-05 0.171D-04 0.440D-04 0.909D-04
 Coeff:     -0.210D-04-0.549D-03-0.198D-02-0.880D-02 0.327D-02 0.223D-01
 Coeff:      0.355D+00 0.631D+00
 Gap=     0.127 Goal=   None    Shift=    0.000
 RMSDP=5.08D-09 MaxDP=1.45D-07 DE= 2.32D-11 OVMax= 6.53D-07

 Error on total polarization charges =  0.01218
 SCF Done:  E(RB3LYP) =  -768.318784244     A.U. after   14 cycles
            NFock= 14  Conv=0.51D-08     -V/T= 2.0091
 KE= 7.613958541384D+02 PE=-4.137662719112D+03 EE= 1.426584339764D+03
 Leave Link  502 at Fri May 24 08:37:38 2019, MaxMem=   402653184 cpu:            1411.4 elap:             364.7
 (Enter /n/sw/g16_nehalem/g16/l601.exe)
 Copying SCF densities to generalized density rwf, IOpCl= 0 IROHF=0.

 **********************************************************************

            Population analysis using the SCF density.

 **********************************************************************

 Orbital symmetries:
       Occupied  (A) (A) (A) (A) (A) (A) (A) (A) (A) (A) (A) (A)
                 (A) (A) (A) (A) (A) (A) (A) (A) (A) (A) (A) (A)
                 (A) (A) (A) (A) (A) (A) (A) (A) (A) (A) (A) (A)
                 (A) (A) (A) (A) (A) (A) (A) (A) (A) (A) (A) (A)
                 (A) (A) (A) (A) (A) (A) (A) (A) (A) (A) (A)
       Virtual   (A) (A) (A) (A) (A) (A) (A) (A) (A) (A) (A) (A)
                 (A) (A) (A) (A) (A) (A) (A) (A) (A) (A) (A) (A)
                 (A) (A) (A) (A) (A) (A) (A) (A) (A) (A) (A) (A)
                 (A) (A) (A) (A) (A) (A) (A) (A) (A) (A) (A) (A)
                 (A) (A) (A) (A) (A) (A) (A) (A) (A) (A) (A) (A)
                 (A) (A) (A) (A) (A) (A) (A) (A) (A) (A) (A) (A)
                 (A) (A) (A) (A) (A) (A) (A) (A) (A) (A) (A) (A)
                 (A) (A) (A) (A) (A) (A) (A) (A) (A) (A) (A) (A)
                 (A) (A) (A) (A) (A) (A) (A) (A) (A) (A) (A) (A)
                 (A) (A) (A) (A) (A) (A) (A) (A) (A) (A) (A) (A)
                 (A) (A) (A) (A) (A) (A) (A) (A) (A) (A) (A) (A)
                 (A) (A) (A) (A) (A) (A) (A) (A) (A) (A) (A) (A)
                 (A) (A) (A) (A) (A) (A) (A) (A) (A) (A) (A) (A)
                 (A) (A) (A) (A) (A) (A) (A) (A) (A) (A) (A) (A)
                 (A) (A) (A) (A) (A) (A) (A) (A) (A) (A) (A) (A)
                 (A) (A) (A) (A) (A) (A) (A) (A) (A) (A) (A) (A)
                 (A) (A) (A) (A) (A) (A) (A) (A) (A) (A) (A) (A)
 The electronic state is 1-A.
 Alpha  occ. eigenvalues --  -19.32858 -19.22319 -19.20095 -19.19223 -19.18544
 Alpha  occ. eigenvalues --  -10.39461 -10.31757 -10.31724 -10.29755 -10.29224
 Alpha  occ. eigenvalues --  -10.27573 -10.26657 -10.26601 -10.25082 -10.24697
 Alpha  occ. eigenvalues --   -1.21588  -1.10072  -1.08451  -1.07108  -1.06583
 Alpha  occ. eigenvalues --   -0.86909  -0.85140  -0.77502  -0.75726  -0.74229
 Alpha  occ. eigenvalues --   -0.71683  -0.69366  -0.68332  -0.66041  -0.61414
 Alpha  occ. eigenvalues --   -0.60216  -0.58817  -0.57408  -0.54610  -0.53665
 Alpha  occ. eigenvalues --   -0.52304  -0.51218  -0.50805  -0.50204  -0.49808
 Alpha  occ. eigenvalues --   -0.48658  -0.48186  -0.47598  -0.46128  -0.45386
 Alpha  occ. eigenvalues --   -0.44233  -0.43400  -0.42556  -0.41775  -0.41533
 Alpha  occ. eigenvalues --   -0.40047  -0.37703  -0.36240  -0.35472  -0.34620
 Alpha  occ. eigenvalues --   -0.33463  -0.31008  -0.29034  -0.28709
 Alpha virt. eigenvalues --   -0.15967   0.00650   0.03908   0.04997   0.06172
 Alpha virt. eigenvalues --    0.06545   0.08503   0.09142   0.09936   0.10402
 Alpha virt. eigenvalues --    0.10912   0.11398   0.12009   0.12610   0.12866
 Alpha virt. eigenvalues --    0.13258   0.13680   0.14034   0.14724   0.15233
 Alpha virt. eigenvalues --    0.15560   0.16034   0.16335   0.16735   0.16832
 Alpha virt. eigenvalues --    0.18677   0.19554   0.20541   0.21127   0.22549
 Alpha virt. eigenvalues --    0.23493   0.25033   0.26241   0.27952   0.31730
 Alpha virt. eigenvalues --    0.43649   0.45086   0.45497   0.46555   0.47228
 Alpha virt. eigenvalues --    0.48821   0.49173   0.49298   0.50807   0.51789
 Alpha virt. eigenvalues --    0.52795   0.53729   0.54105   0.55157   0.55631
 Alpha virt. eigenvalues --    0.56665   0.57854   0.58711   0.59880   0.60856
 Alpha virt. eigenvalues --    0.64059   0.65272   0.67109   0.68769   0.70134
 Alpha virt. eigenvalues --    0.73086   0.75033   0.75308   0.78500   0.79429
 Alpha virt. eigenvalues --    0.79613   0.80064   0.80732   0.81772   0.82635
 Alpha virt. eigenvalues --    0.83491   0.84560   0.84831   0.85549   0.86066
 Alpha virt. eigenvalues --    0.86595   0.87162   0.88283   0.88592   0.89699
 Alpha virt. eigenvalues --    0.90442   0.91731   0.92720   0.93658   0.94844
 Alpha virt. eigenvalues --    0.95705   0.97608   0.99175   1.00616   1.03813
 Alpha virt. eigenvalues --    1.04642   1.05916   1.07207   1.09963   1.13004
 Alpha virt. eigenvalues --    1.13055   1.15091   1.15657   1.17749   1.19434
 Alpha virt. eigenvalues --    1.23798   1.25541   1.29716   1.31534   1.32706
 Alpha virt. eigenvalues --    1.33848   1.35277   1.37382   1.39250   1.40622
 Alpha virt. eigenvalues --    1.44200   1.45562   1.46331   1.47744   1.48869
 Alpha virt. eigenvalues --    1.51022   1.54746   1.55355   1.56604   1.58373
 Alpha virt. eigenvalues --    1.61573   1.63775   1.64581   1.68490   1.70582
 Alpha virt. eigenvalues --    1.71173   1.73736   1.77346   1.79262   1.81385
 Alpha virt. eigenvalues --    1.83788   1.84599   1.87799   1.89457   1.90632
 Alpha virt. eigenvalues --    1.91367   1.93504   1.94986   1.97150   1.99682
 Alpha virt. eigenvalues --    2.00687   2.02478   2.02566   2.04451   2.05349
 Alpha virt. eigenvalues --    2.06095   2.07203   2.08397   2.08693   2.09623
 Alpha virt. eigenvalues --    2.12557   2.13632   2.15860   2.16988   2.17521
 Alpha virt. eigenvalues --    2.20764   2.22290   2.22876   2.23863   2.26000
 Alpha virt. eigenvalues --    2.27826   2.30400   2.33440   2.35375   2.35793
 Alpha virt. eigenvalues --    2.36762   2.42031   2.43812   2.45627   2.46950
 Alpha virt. eigenvalues --    2.49000   2.50403   2.52671   2.57377   2.61957
 Alpha virt. eigenvalues --    2.62135   2.66193   2.68349   2.74286   2.76825
 Alpha virt. eigenvalues --    2.77994   2.79024   2.86249   2.87295   2.92211
 Alpha virt. eigenvalues --    2.93006   2.96040   3.00975   3.06108   3.80396
 Alpha virt. eigenvalues --    3.90670   3.95920   3.97276   4.10397   4.18149
 Alpha virt. eigenvalues --    4.22586   4.23218   4.24339   4.25730   4.27229
 Alpha virt. eigenvalues --    4.43963   4.49091   4.55764   4.73203
          Condensed to atoms (all electrons):
               1          2          3          4          5          6
     1  C    5.008840   0.268695  -0.029512  -0.049528   0.268702   0.002787
     2  C    0.268695   5.129870   0.271380   0.000302  -0.033154  -0.037496
     3  C   -0.029512   0.271380   4.848924  -0.040312  -0.021826   0.361364
     4  C   -0.049528   0.000302  -0.040312   5.189024   0.256676   0.003261
     5  C    0.268702  -0.033154  -0.021826   0.256676   5.018994  -0.000155
     6  H    0.002787  -0.037496   0.361364   0.003261  -0.000155   0.424844
     7  H   -0.026475   0.361760  -0.046620   0.000597   0.004213  -0.000376
     8  H    0.378347  -0.038747   0.005556   0.003406  -0.042790  -0.000104
     9  H   -0.004071  -0.001258  -0.002699   0.362403  -0.031606  -0.000131
    10  H   -0.044312   0.003067   0.001988  -0.048678   0.379940   0.000018
    11  O   -0.004430  -0.035271   0.397847   0.103133  -0.015533  -0.039263
    12  O   -0.036720   0.178348  -0.034086   0.000486  -0.000228   0.002091
    13  O    0.251104  -0.044976   0.000154   0.003070  -0.037450  -0.000056
    14  O   -0.025362   0.001987   0.000084  -0.038489   0.237604   0.000002
    15  C    0.003782  -0.000184   0.002421   0.341792  -0.029810  -0.000126
    16  H    0.000118  -0.000021  -0.000058  -0.031651  -0.008514   0.000003
    17  H   -0.000066   0.000023  -0.000145  -0.030302   0.005046  -0.000018
    18  O    0.000330  -0.000051   0.000416  -0.052509  -0.006293   0.000018
    19  C    0.003289  -0.034727  -0.001370   0.000034  -0.000169   0.000205
    20  H   -0.000122   0.005095  -0.000209   0.000006   0.000019   0.000005
    21  H   -0.000112  -0.005400   0.003629  -0.000056   0.000004  -0.000854
    22  H    0.000137  -0.007740  -0.000828   0.000026  -0.000017   0.000088
    23  C   -0.047446  -0.010953   0.009612   0.000174  -0.006676  -0.001079
    24  H   -0.007464   0.006439   0.009865   0.000511  -0.001593   0.001230
    25  H   -0.006653  -0.001158  -0.001481  -0.002808   0.008086  -0.000064
    26  H    0.004594  -0.000021  -0.000129  -0.000003   0.000007   0.000008
    27  C   -0.008531  -0.000261   0.000046  -0.005658  -0.042378   0.000000
    28  H    0.000097  -0.000015   0.000000   0.000014   0.004884   0.000000
    29  H   -0.000768   0.000350  -0.000002   0.001605  -0.004502   0.000000
    30  H    0.006651  -0.003406   0.000130  -0.000760  -0.006115  -0.000001
    31  C   -0.000005   0.000001  -0.000002   0.005779   0.000273   0.000000
    32  H    0.000001   0.000000  -0.000001   0.000007   0.000022   0.000000
    33  H    0.000000   0.000000   0.000000  -0.000272   0.000008   0.000000
    34  H   -0.000002   0.000000   0.000001   0.000059  -0.000117   0.000000
               7          8          9         10         11         12
     1  C   -0.026475   0.378347  -0.004071  -0.044312  -0.004430  -0.036720
     2  C    0.361760  -0.038747  -0.001258   0.003067  -0.035271   0.178348
     3  C   -0.046620   0.005556  -0.002699   0.001988   0.397847  -0.034086
     4  C    0.000597   0.003406   0.362403  -0.048678   0.103133   0.000486
     5  C    0.004213  -0.042790  -0.031606   0.379940  -0.015533  -0.000228
     6  H   -0.000376  -0.000104  -0.000131   0.000018  -0.039263   0.002091
     7  H    0.510295  -0.005044   0.000072  -0.000164   0.002229  -0.026008
     8  H   -0.005044   0.499741   0.000191   0.002019   0.000019   0.002858
     9  H    0.000072   0.000191   0.471439   0.003734  -0.023887   0.009961
    10  H   -0.000164   0.002019   0.003734   0.508209  -0.000278   0.000016
    11  O    0.002229   0.000019  -0.023887  -0.000278   7.953752  -0.004632
    12  O   -0.026008   0.002858   0.009961   0.000016  -0.004632   8.245801
    13  O    0.002895  -0.030138  -0.000025  -0.001008  -0.000007   0.001271
    14  O   -0.000055  -0.001540  -0.004838  -0.032017   0.001030  -0.000069
    15  C    0.000023  -0.000134  -0.031164  -0.012014  -0.035928   0.000386
    16  H    0.000000  -0.000003   0.001053  -0.000824   0.003095  -0.000002
    17  H    0.000000   0.000002  -0.000846   0.000705  -0.002903  -0.000005
    18  O    0.000000  -0.000002   0.002202   0.017844   0.003083   0.000000
    19  C   -0.005355   0.000197  -0.000105   0.000003   0.000074   0.219601
    20  H    0.000078  -0.000050  -0.000044   0.000000  -0.000010  -0.029522
    21  H   -0.000975   0.000035  -0.000080   0.000000   0.000341  -0.032473
    22  H    0.009385  -0.000081   0.000035   0.000000  -0.000007  -0.032154
    23  C   -0.000679   0.005288   0.000001   0.001145  -0.000771   0.000133
    24  H    0.000645  -0.000166  -0.000003   0.000407  -0.002498  -0.000009
    25  H    0.000252  -0.000237   0.000030   0.003771   0.001059   0.000002
    26  H   -0.000094  -0.000120   0.000000  -0.000031   0.000047   0.000000
    27  C   -0.000023   0.001583   0.005582   0.004904   0.000012  -0.001271
    28  H    0.000000  -0.000201  -0.000119  -0.000139   0.000000   0.000101
    29  H   -0.000004   0.000228   0.004364  -0.000142  -0.000118  -0.000434
    30  H    0.000113   0.004861  -0.000481  -0.000231   0.000019   0.006646
    31  C    0.000000   0.000000  -0.000136  -0.000487  -0.000026   0.000000
    32  H    0.000000   0.000000   0.000006   0.000076  -0.000028   0.000000
    33  H    0.000000   0.000000   0.000003  -0.000032   0.000002   0.000000
    34  H    0.000000   0.000000   0.000009  -0.000062   0.000008   0.000000
              13         14         15         16         17         18
     1  C    0.251104  -0.025362   0.003782   0.000118  -0.000066   0.000330
     2  C   -0.044976   0.001987  -0.000184  -0.000021   0.000023  -0.000051
     3  C    0.000154   0.000084   0.002421  -0.000058  -0.000145   0.000416
     4  C    0.003070  -0.038489   0.341792  -0.031651  -0.030302  -0.052509
     5  C   -0.037450   0.237604  -0.029810  -0.008514   0.005046  -0.006293
     6  H   -0.000056   0.000002  -0.000126   0.000003  -0.000018   0.000018
     7  H    0.002895  -0.000055   0.000023   0.000000   0.000000   0.000000
     8  H   -0.030138  -0.001540  -0.000134  -0.000003   0.000002  -0.000002
     9  H   -0.000025  -0.004838  -0.031164   0.001053  -0.000846   0.002202
    10  H   -0.001008  -0.032017  -0.012014  -0.000824   0.000705   0.017844
    11  O   -0.000007   0.001030  -0.035928   0.003095  -0.002903   0.003083
    12  O    0.001271  -0.000069   0.000386  -0.000002  -0.000005   0.000000
    13  O    8.178249   0.000987  -0.000053  -0.000001   0.000001   0.000006
    14  O    0.000987   8.205980   0.003006   0.005701   0.000019  -0.000132
    15  C   -0.000053   0.003006   4.884557   0.355846   0.356827   0.238506
    16  H   -0.000001   0.005701   0.355846   0.567735  -0.043841  -0.036198
    17  H    0.000001   0.000019   0.356827  -0.043841   0.574545  -0.038993
    18  O    0.000006  -0.000132   0.238506  -0.036198  -0.038993   8.208953
    19  C   -0.000046   0.000003  -0.000008   0.000000   0.000000   0.000000
    20  H    0.000001   0.000000   0.000000   0.000000   0.000000   0.000000
    21  H    0.000003   0.000000  -0.000001   0.000000   0.000000   0.000000
    22  H   -0.000009   0.000000   0.000000   0.000000   0.000000   0.000000
    23  C    0.244174   0.000069   0.000106  -0.000007  -0.000004  -0.001019
    24  H   -0.040743  -0.000004  -0.000005   0.000000   0.000001   0.000000
    25  H   -0.035425   0.000003  -0.000177   0.000041   0.000001   0.004597
    26  H   -0.030039   0.000000  -0.000002   0.000000   0.000000   0.000006
    27  C    0.000077   0.235414  -0.000736   0.000198  -0.000021  -0.000006
    28  H    0.000000  -0.031956   0.000000  -0.000021   0.000000   0.000000
    29  H   -0.000001  -0.037358   0.000087  -0.000157  -0.000024  -0.000001
    30  H   -0.000003  -0.033799   0.000100   0.000055   0.000002   0.000000
    31  C    0.000000  -0.000009  -0.040798  -0.004089  -0.003998   0.245007
    32  H    0.000000   0.000000  -0.007655  -0.002107   0.010604  -0.035621
    33  H    0.000000   0.000000   0.005564  -0.000095  -0.000134  -0.031417
    34  H    0.000000  -0.000002  -0.007183   0.010746  -0.002082  -0.036073
              19         20         21         22         23         24
     1  C    0.003289  -0.000122  -0.000112   0.000137  -0.047446  -0.007464
     2  C   -0.034727   0.005095  -0.005400  -0.007740  -0.010953   0.006439
     3  C   -0.001370  -0.000209   0.003629  -0.000828   0.009612   0.009865
     4  C    0.000034   0.000006  -0.000056   0.000026   0.000174   0.000511
     5  C   -0.000169   0.000019   0.000004  -0.000017  -0.006676  -0.001593
     6  H    0.000205   0.000005  -0.000854   0.000088  -0.001079   0.001230
     7  H   -0.005355   0.000078  -0.000975   0.009385  -0.000679   0.000645
     8  H    0.000197  -0.000050   0.000035  -0.000081   0.005288  -0.000166
     9  H   -0.000105  -0.000044  -0.000080   0.000035   0.000001  -0.000003
    10  H    0.000003   0.000000   0.000000   0.000000   0.001145   0.000407
    11  O    0.000074  -0.000010   0.000341  -0.000007  -0.000771  -0.002498
    12  O    0.219601  -0.029522  -0.032473  -0.032154   0.000133  -0.000009
    13  O   -0.000046   0.000001   0.000003  -0.000009   0.244174  -0.040743
    14  O    0.000003   0.000000   0.000000   0.000000   0.000069  -0.000004
    15  C   -0.000008   0.000000  -0.000001   0.000000   0.000106  -0.000005
    16  H    0.000000   0.000000   0.000000   0.000000  -0.000007   0.000000
    17  H    0.000000   0.000000   0.000000   0.000000  -0.000004   0.000001
    18  O    0.000000   0.000000   0.000000   0.000000  -0.001019   0.000000
    19  C    4.919969   0.385237   0.370966   0.372262   0.000000   0.000015
    20  H    0.385237   0.492991  -0.029033  -0.025668   0.000000   0.000000
    21  H    0.370966  -0.029033   0.557425  -0.039597   0.000001  -0.000007
    22  H    0.372262  -0.025668  -0.039597   0.541214   0.000000   0.000005
    23  C    0.000000   0.000000   0.000001   0.000000   4.968716   0.347044
    24  H    0.000015   0.000000  -0.000007   0.000005   0.347044   0.614180
    25  H    0.000000   0.000000   0.000000   0.000000   0.357978  -0.049303
    26  H    0.000000   0.000000   0.000000   0.000000   0.387102  -0.028183
    27  C    0.000059   0.000028  -0.000004   0.000006   0.000008   0.000000
    28  H   -0.000003  -0.000001   0.000000   0.000000   0.000000   0.000000
    29  H    0.000017   0.000009   0.000000  -0.000001   0.000000   0.000000
    30  H   -0.000173   0.000005   0.000027  -0.000017   0.000002  -0.000001
    31  C    0.000000   0.000000   0.000000   0.000000   0.000021   0.000000
    32  H    0.000000   0.000000   0.000000   0.000000  -0.000001   0.000000
    33  H    0.000000   0.000000   0.000000   0.000000   0.000008   0.000000
    34  H    0.000000   0.000000   0.000000   0.000000  -0.000001   0.000000
              25         26         27         28         29         30
     1  C   -0.006653   0.004594  -0.008531   0.000097  -0.000768   0.006651
     2  C   -0.001158  -0.000021  -0.000261  -0.000015   0.000350  -0.003406
     3  C   -0.001481  -0.000129   0.000046   0.000000  -0.000002   0.000130
     4  C   -0.002808  -0.000003  -0.005658   0.000014   0.001605  -0.000760
     5  C    0.008086   0.000007  -0.042378   0.004884  -0.004502  -0.006115
     6  H   -0.000064   0.000008   0.000000   0.000000   0.000000  -0.000001
     7  H    0.000252  -0.000094  -0.000023   0.000000  -0.000004   0.000113
     8  H   -0.000237  -0.000120   0.001583  -0.000201   0.000228   0.004861
     9  H    0.000030   0.000000   0.005582  -0.000119   0.004364  -0.000481
    10  H    0.003771  -0.000031   0.004904  -0.000139  -0.000142  -0.000231
    11  O    0.001059   0.000047   0.000012   0.000000  -0.000118   0.000019
    12  O    0.000002   0.000000  -0.001271   0.000101  -0.000434   0.006646
    13  O   -0.035425  -0.030039   0.000077   0.000000  -0.000001  -0.000003
    14  O    0.000003   0.000000   0.235414  -0.031956  -0.037358  -0.033799
    15  C   -0.000177  -0.000002  -0.000736   0.000000   0.000087   0.000100
    16  H    0.000041   0.000000   0.000198  -0.000021  -0.000157   0.000055
    17  H    0.000001   0.000000  -0.000021   0.000000  -0.000024   0.000002
    18  O    0.004597   0.000006  -0.000006   0.000000  -0.000001   0.000000
    19  C    0.000000   0.000000   0.000059  -0.000003   0.000017  -0.000173
    20  H    0.000000   0.000000   0.000028  -0.000001   0.000009   0.000005
    21  H    0.000000   0.000000  -0.000004   0.000000   0.000000   0.000027
    22  H    0.000000   0.000000   0.000006   0.000000  -0.000001  -0.000017
    23  C    0.357978   0.387102   0.000008   0.000000   0.000000   0.000002
    24  H   -0.049303  -0.028183   0.000000   0.000000   0.000000  -0.000001
    25  H    0.566135  -0.025443   0.000002   0.000000   0.000000   0.000002
    26  H   -0.025443   0.484802   0.000000   0.000000   0.000000   0.000000
    27  C    0.000002   0.000000   4.940879   0.384164   0.367598   0.357682
    28  H    0.000000   0.000000   0.384164   0.514179  -0.032411  -0.026536
    29  H    0.000000   0.000000   0.367598  -0.032411   0.585060  -0.044358
    30  H    0.000002   0.000000   0.357682  -0.026536  -0.044358   0.570920
    31  C   -0.000109   0.000000   0.000000   0.000000   0.000000   0.000000
    32  H    0.000005   0.000000   0.000000   0.000000   0.000000   0.000000
    33  H   -0.000030   0.000000   0.000000   0.000000   0.000000   0.000000
    34  H    0.000013   0.000000   0.000000   0.000000   0.000000   0.000000
              31         32         33         34
     1  C   -0.000005   0.000001   0.000000  -0.000002
     2  C    0.000001   0.000000   0.000000   0.000000
     3  C   -0.000002  -0.000001   0.000000   0.000001
     4  C    0.005779   0.000007  -0.000272   0.000059
     5  C    0.000273   0.000022   0.000008  -0.000117
     6  H    0.000000   0.000000   0.000000   0.000000
     7  H    0.000000   0.000000   0.000000   0.000000
     8  H    0.000000   0.000000   0.000000   0.000000
     9  H   -0.000136   0.000006   0.000003   0.000009
    10  H   -0.000487   0.000076  -0.000032  -0.000062
    11  O   -0.000026  -0.000028   0.000002   0.000008
    12  O    0.000000   0.000000   0.000000   0.000000
    13  O    0.000000   0.000000   0.000000   0.000000
    14  O   -0.000009   0.000000   0.000000  -0.000002
    15  C   -0.040798  -0.007655   0.005564  -0.007183
    16  H   -0.004089  -0.002107  -0.000095   0.010746
    17  H   -0.003998   0.010604  -0.000134  -0.002082
    18  O    0.245007  -0.035621  -0.031417  -0.036073
    19  C    0.000000   0.000000   0.000000   0.000000
    20  H    0.000000   0.000000   0.000000   0.000000
    21  H    0.000000   0.000000   0.000000   0.000000
    22  H    0.000000   0.000000   0.000000   0.000000
    23  C    0.000021  -0.000001   0.000008  -0.000001
    24  H    0.000000   0.000000   0.000000   0.000000
    25  H   -0.000109   0.000005  -0.000030   0.000013
    26  H    0.000000   0.000000   0.000000   0.000000
    27  C    0.000000   0.000000   0.000000   0.000000
    28  H    0.000000   0.000000   0.000000   0.000000
    29  H    0.000000   0.000000   0.000000   0.000000
    30  H    0.000000   0.000000   0.000000   0.000000
    31  C    4.886435   0.367503   0.385700   0.369579
    32  H    0.367503   0.585840  -0.030654  -0.044579
    33  H    0.385700  -0.030654   0.522546  -0.030012
    34  H    0.369579  -0.044579  -0.030012   0.580251
 Mulliken charges:
               1
     1  C    0.094103
     2  C    0.027523
     3  C    0.265865
     4  C    0.028661
     5  C    0.104448
     6  H    0.283800
     7  H    0.219312
     8  H    0.215024
     9  H    0.240408
    10  H    0.212571
    11  O   -0.300161
    12  O   -0.470087
    13  O   -0.462011
    14  O   -0.486258
    15  C   -0.027028
    16  H    0.182999
    17  H    0.175606
    18  O   -0.482652
    19  C   -0.229976
    20  H    0.201186
    21  H    0.176161
    22  H    0.182963
    23  C   -0.252944
    24  H    0.149637
    25  H    0.180910
    26  H    0.207496
    27  C   -0.239355
    28  H    0.187962
    29  H    0.160963
    30  H    0.168668
    31  C   -0.210638
    32  H    0.156581
    33  H    0.178816
    34  H    0.159449
 Sum of Mulliken charges =   1.00000
 Mulliken charges with hydrogens summed into heavy atoms:
               1
     1  C    0.309127
     2  C    0.246835
     3  C    0.549665
     4  C    0.269069
     5  C    0.317019
    11  O   -0.300161
[...]
 ,-0.00007909,0.00004177,0.00004793,0.00000131,0.00000700,-0.00011071,0
 .00009676,0.00007064,-0.00000123,0.00005832,-0.00000183,-0.00003943,0.
 00000083,0.00000703,0.00001684,-0.00001327,-0.00000056,0.00002781,0.00
 001650,-0.00001073,-0.00003267,0.00012545,-0.00018275,-0.00002064,0.00
 000424,0.00006227,-0.00001687,0.00002973,0.00001708,-0.00000956,-0.000
 03154,0.00000408,-0.03038748,-0.10255623,-0.09487778,0.00494958,0.0119
 8393,0.01709836,0.02295650,0.11596861,0.00027080,0.00032227,-0.0001658
 7,-0.00000897,-0.00017325,0.00025604,-0.00000906,0.00020012,-0.0002017
 3,-0.00043764,0.00058212,-0.00174370,0.00051904,0.00240434,-0.00046258
 ,0.00001449,-0.00007201,-0.00003917,-0.00005969,0.00003473,0.00005357,
 0.00008335,-0.00017917,-0.00001049,-0.00095321,0.00118707,-0.00037986,
 -0.00004165,-0.00020242,0.00006975,-0.00003942,-0.00070816,0.00138958,
 -0.00003993,0.00010549,0.00006374,-0.00005559,-0.00030743,0.00000565,0
 .00738321,-0.00904137,0.00167406,0.00017692,0.00002262,0.00009419,0.00
 007117,0.00003731,0.00000974,0.00003682,0.00000974,0.00001075,-0.00003
 109,0.00005762,0.00008626,0.00009061,-0.00003119,-0.00004141,-0.000011
 29,0.00001438,0.00000154,-0.00001556,-0.00000434,0.00001510,-0.0000077
 3,-0.00000088,0.00000626,-0.00001594,0.00016530,-0.00013482,-0.0000264
 5,0.00000143,0.00006831,-0.00001902,0.00000450,0.00002284,-0.00000308,
 -0.00002244,0.00000366,-0.05529012,-0.09686583,-0.24156687,-0.00784323
 ,-0.01136018,-0.02007818,0.05618529,0.11199940,0.25934351,0.00042383,0
 .00053005,-0.00132789,0.00009168,0.00061031,0.00014244,-0.00042018,-0.
 00013133,-0.00020153,-0.00013432,0.00027589,0.00025374,0.00025315,-0.0
 0478301,0.00276960,0.00002028,0.00004859,0.00008541,0.00004410,-0.0000
 1752,-0.00009679,0.00058390,0.00013094,0.00032777,-0.00013726,-0.00003
 193,-0.00009715,0.00017305,0.00030284,-0.00009350,0.00033292,0.0003225
 6,-0.00038415,-0.00040725,-0.00127834,0.00128662,0.00048801,-0.0002299
 1,0.00030462,-0.02672207,0.00891408,0.00250576,0.00005866,-0.00019980,
 0.00009531,0.00010675,0.00008257,0.00005118,-0.00001556,0.00004213,-0.
 00003767,-0.00010805,0.00005757,-0.00005271,0.00021375,-0.00032395,-0.
 00000378,0.00002668,0.00004814,-0.00004934,-0.00010246,0.00001072,0.00
 006880,-0.00005542,-0.00000866,0.00004200,-0.00009705,-0.00005548,-0.0
 0012379,0.00000361,0.00000177,0.00002812,0.00004374,-0.00001053,0.0000
 0991,0.00003408,-0.00003586,0.00002797,-0.27774213,-0.08748572,0.00287
 564,-0.00051032,-0.00209960,-0.00022968,-0.00506425,-0.00471539,0.0001
 1918,0.30854314,0.00020546,-0.00070978,0.00034191,-0.00031995,-0.00019
 695,-0.00002232,0.00030071,-0.00002743,0.00000416,0.00020069,-0.000446
 52,-0.00023812,0.00089952,0.00432490,-0.00057457,-0.00004208,-0.000009
 42,-0.00001744,-0.00005484,0.00005289,0.00009199,-0.00039075,-0.002357
 71,-0.00061828,-0.00000527,-0.00006302,0.00005190,-0.00024893,-0.00008
 600,-0.00007591,-0.00019583,-0.00011771,0.00031599,-0.00036495,-0.0007
 5095,0.00028599,0.00001980,0.00035902,-0.00000715,0.03533835,0.0034879
 2,-0.00308122,0.00002915,0.00003840,-0.00002252,-0.00003740,-0.0000502
 4,-0.00005861,-0.00000003,-0.00001291,0.00001284,-0.00000491,0.0000208
 1,0.00001564,-0.00028386,0.00005830,0.00007841,0.00003491,0.00000039,-
 0.00003734,0.00006571,0.00000256,-0.00005596,0.00002841,0.00000885,0.0
 0001057,0.00017915,0.00000515,0.00008204,-0.00000570,0.00001028,-0.000
 01407,-0.00001579,-0.00001463,-0.00000103,-0.00002264,0.00002395,-0.00
 001283,-0.09340900,-0.08974168,0.00278327,-0.01842224,-0.00538717,-0.0
 0174772,-0.01349999,-0.00332349,0.00181620,0.09004169,0.09490215,0.000
 46091,0.00000975,0.00087289,-0.00022849,0.00037311,-0.00019637,-0.0002
 2040,0.00003035,-0.00024883,-0.00006385,-0.00018620,-0.00016021,-0.001
 54145,-0.00039712,0.00039822,-0.00000890,0.00005915,0.00007852,0.00001
 228,-0.00017682,0.00002405,-0.00012389,-0.00027911,0.00014419,-0.00021
 441,-0.00017366,-0.00002110,-0.00002823,0.00001898,-0.00010797,0.00018
 219,0.00015194,0.00011577,0.00011665,0.00003036,0.00000148,-0.00006934
 ,-0.00025211,-0.00026825,0.00811495,0.00213117,0.00158866,-0.00000599,
 -0.00011462,0.00001195,0.00002599,-0.00001599,-0.00003594,0.00001799,-
 0.00000662,0.00000921,0.00010119,0.00002975,0.00002144,0.00062190,-0.0
 0023057,-0.00028243,-0.00000410,0.00005503,-0.00000523,-0.00016406,0.0
 0000145,0.00013323,-0.00010182,-0.00005039,0.00003804,-0.00007221,0.00
 005866,0.00001973,0.00003023,-0.00001371,-0.00002787,0.00000335,0.0000
 0471,0.00001039,0.00000546,-0.00001033,-0.00000983,0.00486101,0.000675
 87,-0.05388052,0.02388530,0.00840505,0.00160970,-0.02727742,-0.0108158
 6,0.00161463,-0.00829409,0.00069337,0.04855084,-0.00032915,-0.00114487
 ,-0.00020688,-0.00028560,0.00007154,0.00030711,-0.00193582,-0.00089930
 ,-0.00063492,-0.00228509,-0.00105241,0.00148390,0.00012977,0.00134551,
 -0.00095289,0.00023354,-0.00000859,0.00001908,0.00014725,0.00000524,-0
 .00003712,0.00017617,0.00010764,0.00006782,0.00074193,0.00016563,-0.00
 028935,-0.00079022,-0.00046157,-0.00125459,0.00192787,0.00193845,0.000
 19248,0.00087959,-0.00011673,-0.00014199,0.00026860,0.00066559,0.00038
 758,0.00098103,-0.00102106,0.00073197,-0.03877527,0.01115965,0.0031172
 3,0.00512043,-0.00554000,-0.00170792,0.00491093,-0.00490973,-0.0027801
 6,-0.21750704,0.00095136,-0.01066816,-0.00057401,0.00002475,0.00043235
 ,0.00006690,-0.00002369,-0.00005509,0.00002593,0.00004926,-0.00007548,
 0.00011285,0.00004019,-0.00004253,-0.00040674,-0.00004661,-0.00002013,
 -0.00004024,0.00004626,0.00008493,-0.00000362,-0.00035992,-0.00043391,
 0.00010300,0.00008679,0.00008729,-0.00072067,0.00058050,0.00005591,0.0
 0008286,-0.00014969,0.00008487,0.00003442,-0.00001485,-0.00006021,0.00
 011294,-0.00002826,-0.00004484,0.46412303,-0.00006312,-0.00004405,0.00
 009404,-0.00003650,-0.00009002,-0.00004599,-0.00008505,0.00013829,-0.0
 0004706,0.00317891,-0.00608646,-0.00187299,0.00004753,0.00005066,-0.00
 082913,0.00002757,0.00004445,0.00002882,0.00001242,0.00000655,-0.00000
 116,0.00002396,0.00000828,0.00000399,0.00148690,0.00062846,0.00014573,
 -0.00003984,-0.00000102,0.00040588,0.00023307,0.00017565,-0.00016574,0
 .00017278,0.00003492,-0.00001845,0.00000781,0.00012165,0.00004481,-0.0
 0008154,-0.00001490,0.00021960,0.03797617,-0.00404024,0.00311346,0.003
 08114,0.00110497,-0.00076651,0.00046584,0.00030151,0.00013779,-0.03911
 703,-0.08576865,-0.01328475,-0.00006100,0.00004124,0.00005219,0.000000
 83,-0.00000549,-0.00000291,0.00000992,-0.00000138,-0.00000662,0.000021
 64,0.00000619,-0.00000977,0.00019316,-0.00006201,0.00000654,-0.0000231
 8,-0.00001488,-0.00001422,-0.00002215,0.00015995,0.00019881,-0.0000482
 0,-0.00001372,-0.00000694,-0.00006419,0.00002882,-0.00007593,0.0000041
 7,0.00000404,0.00003258,0.00000457,0.00002752,-0.00000306,-0.00001019,
 -0.00000176,-0.00000917,-0.02666821,0.61745471,0.00000190,0.00011249,-
 0.00001746,-0.00010310,-0.00006037,0.00002986,-0.00027831,-0.00021216,
 -0.00019809,0.00083793,-0.00260625,-0.00158805,-0.00079121,-0.00002027
 ,-0.00044290,0.00007434,-0.00001415,-0.00000814,0.00001033,0.00000329,
 0.00002902,-0.00004181,-0.00002311,0.00001087,0.00078250,0.00018273,0.
 00039488,0.00007664,0.00020160,0.00073661,0.00007185,0.00037420,0.0001
 8157,0.00019213,0.00001575,-0.00001825,0.00000361,0.00004317,0.0000430
 3,-0.00002143,0.00018591,0.00009287,0.01500805,0.00074053,-0.00334025,
 -0.00193945,-0.00066619,0.00091352,0.00369467,-0.00123644,0.00141676,-
 0.02706066,-0.01026850,-0.06860803,-0.00007901,0.00000253,0.00008810,0
 .00001223,-0.00000175,-0.00000623,0.00000087,0.00001092,-0.00001553,0.
 00002011,0.00000464,-0.00001182,0.00004797,0.00002415,-0.00006156,-0.0
 0001347,0.00000947,0.00003536,0.00002597,0.00005531,0.00002516,-0.0000
 2799,-0.00001345,0.00000541,-0.00004057,0.00003182,-0.00010972,-0.0000
 2122,0.00003296,0.00002329,0.00000682,0.00002159,0.00003447,0.00001489
 ,-0.00000064,-0.00000157,-0.01937601,0.01782540,0.58001993,0.00001825,
 0.00026645,0.00008473,0.00002057,-0.00003294,-0.00003894,0.00020005,0.
 00007259,0.00003747,0.00029423,0.00011383,0.00009101,-0.00001546,-0.00
 023453,-0.00004784,-0.00002340,-0.00000334,-0.00001186,-0.00002314,-0.
 00000158,0.00001776,-0.00004404,-0.00002734,-0.00000860,-0.00014454,-0
 .00008097,0.00007251,0.00014596,0.00018204,0.00051380,-0.00015697,-0.0
 0011536,-0.00005276,-0.00012369,0.00002339,0.00002795,-0.00003353,-0.0
 0008976,-0.00003695,-0.00020388,0.00024376,-0.00009342,0.00376053,-0.0
 0544147,-0.00486578,-0.00047370,0.00066001,0.00039556,0.00038187,0.000
 48245,0.00166062,-0.03010190,-0.00315811,-0.03655151,0.00008537,-0.000
 00482,-0.00006713,-0.00001011,0.00000375,0.00000772,-0.00000453,-0.000
 00820,0.00001237,-0.00001613,-0.00000515,0.00000712,0.00010185,0.00001
 635,-0.00001978,-0.00000544,-0.00000753,-0.00000238,0.00000108,0.00008
 992,0.00008139,-0.00003030,-0.00002049,-0.00001363,0.00011978,-0.00008
 910,-0.00005320,-0.00002094,0.00003634,-0.00000749,-0.00000709,0.00000
 880,0.00001641,-0.00001947,0.00000459,0.00000849,-0.06063403,-0.002897
 43,-0.04525377,0.07693726,0.00005617,0.00005177,-0.00001898,0.00000888
 ,-0.00000263,0.00000137,0.00009439,0.00004439,0.00002098,0.00011480,0.
 00012963,-0.00017958,-0.00002056,-0.00010753,0.00009892,-0.00001617,-0
 .00000643,-0.00000646,-0.00000867,-0.00000046,0.00000397,-0.00001143,-
 0.00000660,-0.00000309,-0.00001727,-0.00001589,-0.00000047,0.00005741,
 0.00002021,0.00006552,-0.00012152,-0.00011114,0.00001265,-0.00004465,0
 .00000507,0.00000673,-0.00002813,-0.00004746,-0.00001430,-0.00004536,0
 .00006485,-0.00003981,0.00080357,0.00017363,0.00222938,-0.00017263,-0.
 00000193,0.00014452,-0.00069894,0.00048682,-0.00021251,-0.00291537,0.0
 0192341,-0.00445174,0.00002917,-0.00000232,-0.00002397,-0.00000247,0.0
 0000110,0.00000275,-0.00000157,-0.00000195,0.00000452,-0.00000624,-0.0
 0000203,0.00000227,0.00002412,0.00001174,-0.00000583,-0.00000746,-0.00
 000365,0.00000303,-0.00000719,0.00001501,0.00001132,-0.00000447,-0.000
 00432,-0.00000320,0.00003923,-0.00001975,0.00000149,-0.00000575,0.0000
 0856,-0.00000502,-0.00000310,-0.00000017,0.00000148,-0.00000481,0.0000
 0017,0.00000131,-0.00449573,-0.05769591,-0.02373955,0.00825979,0.05184
 099,0.00006994,0.00008120,0.00003844,0.00002598,-0.00001830,-0.0000191
 2,0.00014759,0.00006213,0.00003638,0.00010304,0.00040731,0.00027063,0.
 00021325,-0.00011217,0.00009297,-0.00002110,-0.00000158,-0.00000724,-0
 .00001446,-0.00000057,0.00000538,-0.00000629,-0.00000350,-0.00000560,-
 0.00012169,-0.00004791,-0.00002326,0.00010933,0.00004676,0.00014390,-0
 .00013643,-0.00013365,-0.00001143,-0.00009435,0.00001767,0.00002352,-0
 .00004710,-0.00004934,-0.00002003,-0.00012495,0.00010748,-0.00004351,0
 .00155210,-0.00126748,0.00188001,0.00009437,0.00032033,-0.00041315,-0.
 00155740,0.00115614,-0.00010152,-0.01013504,-0.00131124,0.00350047,0.0
 0006173,-0.00000387,-0.00005221,-0.00000810,0.00000266,0.00000483,-0.0
 0000268,-0.00000690,0.00000979,-0.00001190,-0.00000327,0.00000586,0.00
 006477,0.00001169,-0.00000124,-0.00000988,-0.00000415,0.00000209,-0.00
 001091,0.00003118,0.00002308,-0.00000930,-0.00000659,-0.00000838,0.000
 08116,-0.00007384,-0.00001443,-0.00000610,0.00001400,-0.00000686,-0.00
 000694,0.00000649,0.00000774,-0.00001659,0.00000389,0.00000533,-0.0493
 9736,-0.02429948,-0.29259186,0.06286790,0.02747500,0.31228989,0.000035
 43,0.00018071,0.00003899,0.00005624,0.00003801,-0.00002939,0.00027557,
 0.00011997,0.00011675,-0.00050569,0.00227968,0.00069620,0.00006914,-0.
 00011308,0.00040368,-0.00004594,-0.00000919,-0.00000891,-0.00002293,-0
 .00000320,0.00000038,-0.00002169,-0.00001775,-0.00001211,-0.00064421,-
 0.00027069,-0.00009277,0.00005864,0.00002172,0.00001064,-0.00023825,-0
 .00026651,-0.00003982,-0.00017819,-0.00001008,0.00001826,0.00002637,-0
 .00017455,-0.00006289,-0.00010418,0.00009573,-0.00014708,-0.00514705,-
 0.00278854,-0.00177504,-0.00005173,0.00028494,-0.00018467,-0.00012005,
 0.00012540,0.00037968,-0.02728780,0.03329150,0.01320121,0.00009016,-0.
 00001479,-0.00007586,-0.00000839,0.00000385,0.00000812,-0.00000525,-0.
 00000559,0.00001229,-0.00002268,-0.00000680,0.00000882,-0.00007729,0.0
 0001301,-0.00000880,0.00003106,-0.00000605,-0.00002309,0.00001282,0.00
 002873,0.00003104,0.00000122,-0.00000726,-0.00001148,0.00010180,-0.000
 05887,0.00002064,-0.00000804,0.00001191,-0.00001997,-0.00000648,-0.000
 01193,-0.00000071,-0.00001243,0.00000250,0.00000821,-0.08266627,0.0782
 0929,0.03374893,0.00484154,-0.00637996,-0.00127104,0.10527364,-0.00000
 329,-0.00006880,-0.00001503,-0.00001705,0.00000079,0.00001540,-0.00011
 246,-0.00003374,-0.00005930,-0.00033569,0.00013926,-0.00005645,0.00003
 627,0.00006716,-0.00003698,0.00001348,0.00000603,0.00000850,0.00000987
 ,0.00000027,-0.00000063,0.00001062,0.00000720,0.00000507,-0.00001234,-
 0.00001230,-0.00000061,-0.00000453,-0.00003398,-0.00006810,0.00023367,
 0.00012174,-0.00001096,0.00004809,-0.00000567,-0.00000269,0.00000655,0
 .00004184,0.00002979,0.00005617,-0.00004907,0.00004500,-0.00135795,0.0
 0218155,0.00075494,-0.00022318,0.00022503,-0.00005830,-0.00005888,-0.0
 0004994,-0.00003753,-0.00012109,0.00595992,0.00259436,-0.00003274,0.,0
 .00002193,0.00000311,-0.00000115,-0.00000350,0.00000118,0.00000226,-0.
 00000371,0.00000614,0.00000269,-0.00000161,-0.00002093,-0.00000155,-0.
 00000248,-0.00000885,0.00000399,0.00001164,-0.00001680,-0.00001696,-0.
 00004493,0.00000616,0.00000597,0.00000514,-0.00003587,0.00002311,0.000
 00127,0.00000307,-0.00000825,0.00000272,0.00000146,0.00000091,0.000001
 57,0.00000683,0.00000033,-0.00000181,0.08988700,-0.25586096,-0.0864627
 3,-0.00026244,-0.00053771,-0.00007149,-0.09640605,0.26686502,-0.000013
 21,-0.00002564,0.00002589,0.00000407,0.00000488,-0.00000287,-0.0000317
 7,-0.00004912,0.00001453,-0.00021072,-0.00001541,0.00044385,0.00007751
 ,0.00005494,0.00002636,0.00000459,0.,-0.00000184,0.00000260,0.00000101
 ,-0.00000210,0.00000914,0.00000575,0.00000025,-0.00003810,-0.00000381,
 -0.00002317,-0.00000948,-0.00001454,-0.00003426,-0.00002574,0.00004221
 ,-0.00001681,0.00000819,-0.00000130,-0.00000240,0.00000917,0.00002098,
 -0.00001048,0.00001568,-0.00002106,-0.00000052,-0.00094406,0.00059482,
 0.00059811,0.00010061,-0.00028544,-0.00002096,-0.00030653,0.00026118,0
 .00030558,-0.00199045,0.00498131,0.00243907,-0.00000678,-0.00000034,0.
 00000590,0.00000041,-0.00000012,-0.00000064,0.00000020,0.00000018,-0.0
 0000154,0.00000129,0.00000027,-0.00000018,-0.00001912,-0.00001625,0.00
 000727,0.00001238,0.00000236,-0.00000718,-0.00000799,-0.00001361,-0.00
 000007,0.00000051,0.00000048,0.00000167,-0.00001123,0.00001008,0.00000
 432,0.00000152,-0.00000241,0.00000049,0.00000175,-0.00000190,-0.000002
 41,0.00000226,-0.00000054,-0.00000042,0.03911344,-0.08729927,-0.090173
 37,0.01181559,-0.02717184,-0.00917663,-0.04008501,0.09345733,0.0877157
 9,0.00001234,0.00012691,0.00005095,0.00005779,-0.00000432,-0.00006666,
 0.00034651,0.00025062,0.00007397,0.00022990,0.00012354,-0.00017094,0.0
 0010608,-0.00018496,0.00020265,-0.00002038,0.00002184,0.00000457,-0.00
 001983,0.00000022,-0.00000303,-0.00001602,-0.00001103,-0.00001222,-0.0
 0016799,-0.00006766,-0.00003373,0.00009618,0.00001193,0.00022583,0.000
 00074,-0.00003595,-0.00014154,-0.00014372,0.00001213,0.00001709,-0.000
 03976,-0.00004960,-0.00006945,-0.00008423,0.00017328,-0.00009467,0.003
 74036,-0.00724326,-0.00073897,0.00027665,0.00183456,-0.00044229,-0.000
 45571,0.00073854,0.00027951,-0.03498858,-0.02750305,0.01695314,0.00008
 615,0.00000099,-0.00006973,-0.00001225,0.00000282,0.00000931,-0.000002
 02,-0.00000875,0.00001159,-0.00001723,-0.00000561,0.00000732,0.0001087
 9,-0.00003149,0.00002499,0.00000698,-0.00001030,-0.00002825,-0.0000126
 0,0.00008123,0.00012053,-0.00002566,-0.00001435,-0.00001652,0.00007209
 ,-0.00003492,-0.00001636,-0.00001602,0.00001949,-0.00001256,-0.0000132
 5,-0.00000232,0.00000231,-0.00000602,0.00000179,0.00000740,-0.07322529
 ,-0.05594002,0.04041631,0.00518394,0.00553189,-0.00238151,0.00630093,0
 .00870048,-0.00748073,0.09264111,0.00002010,0.00008540,0.00001127,0.00
 003530,-0.00000078,-0.00004101,0.00024083,0.00009387,0.00007576,0.0001
 8259,0.00054095,-0.00007972,-0.00002550,-0.00013410,0.00015489,-0.0000
 2960,0.00001425,0.00001473,-0.00001255,-0.00000034,0.00000173,-0.00001
 683,-0.00000755,-0.00000596,-0.00009936,-0.00006258,0.00001772,0.00005
 183,0.00002576,0.00011138,-0.00007457,-0.00024997,-0.00010933,-0.00008
 367,0.00000715,0.00001261,-0.00003593,-0.00003490,-0.00005382,-0.00006
 898,0.00010221,-0.00009621,0.00185629,0.00214304,-0.00226956,-0.001606
 97,0.00032910,0.00084767,-0.00008257,-0.00005713,0.00030958,-0.0075671
 1,0.00170570,-0.00146426,0.00005230,-0.00000406,-0.00003657,-0.0000058
 8,0.00000257,0.00000545,-0.00000302,-0.00000373,0.00000546,-0.00001071
 ,-0.00000429,0.00000393,0.00005055,-0.00001176,0.00001293,0.00000929,-
 0.00000241,-0.00001200,-0.00000501,0.00002544,0.00004714,-0.00001151,-
 0.00000871,-0.00000706,0.00006406,-0.00004023,-0.00000195,-0.00001087,
 0.00001424,-0.00001049,0.00000048,-0.00000437,0.00000405,-0.00000468,0
 .00000130,0.00000410,-0.06018413,-0.21063640,0.10544707,0.00201655,0.0
 0379049,-0.00232861,-0.00815605,-0.01897497,0.01548483,0.07351535,0.22
 135682,-0.00000420,-0.00001603,-0.00000758,0.00000773,0.00000050,0.000
 00841,-0.00002283,-0.00002240,0.00001734,0.00013457,-0.00025314,0.0000
 2055,0.00000210,0.00008630,-0.00000147,-0.00000892,-0.00000436,-0.0000
 0613,-0.00000059,0.00000097,-0.00000273,0.00000466,0.00000034,-0.00000
 168,0.00004788,0.00001934,0.00000011,-0.00003364,-0.00002392,-0.000023
 16,-0.00011704,-0.00005360,0.00002458,0.00000095,-0.00000085,-0.000001
 84,0.00000690,-0.00000768,0.00000030,-0.00002876,-0.00002885,-0.000019
 83,-0.00006178,0.00007577,0.00038573,0.00066994,-0.00015021,-0.0003358
 3,-0.00016998,0.00024139,-0.00038880,-0.00035821,-0.00602186,0.0079046
 8,0.,0.00000223,-0.00000210,0.00000042,-0.00000046,0.00000004,0.000000
 60,-0.00000035,0.00000069,0.00000006,-0.00000004,-0.00000016,-0.000016
 09,-0.00000022,0.00000133,0.00000055,-0.00000177,-0.00000292,-0.000000
 49,-0.00000580,-0.00000345,0.00000093,0.00000047,-0.00000017,0.0000029
 0,0.00000280,0.00000549,0.00000251,-0.00000137,0.00000167,0.00000564,-
 0.00000236,-0.00000428,-0.00000252,-0.00000191,-0.00000171,0.04201358,
 0.10644953,-0.12688789,0.00940662,0.02578912,-0.01584381,-0.00485519,-
 0.01001581,0.00788879,-0.04662829,-0.11605574,0.12727583\\0.00000054,0
 .00000437,0.00000606,0.00000257,0.00000139,-0.00000216,0.00000212,0.00
 000535,0.,0.00000617,0.00000952,0.00000006,-0.00000853,-0.00002036,-0.
 00000557,0.00000082,0.00000556,0.00000319,-0.00000142,0.00000479,0.000
 00953,-0.00000757,-0.00000529,0.00000306,0.00000267,0.00000080,-0.0000
 0353,-0.00000257,-0.00000061,-0.00000064,0.00000260,0.00000027,0.00000
 517,-0.00000194,0.00000093,0.00000785,0.00000244,-0.00000327,0.0000046
 9,-0.00000123,0.00000647,0.00000168,-0.00000661,0.00000773,-0.00000565
 ,0.00000154,-0.00000397,-0.00000675,0.00000604,0.00000076,-0.00000682,
 0.00000876,-0.00000618,-0.00000557,0.00000992,0.00000519,-0.00000144,0
 .00000322,0.00000456,0.00000522,0.00000333,0.00000458,0.00000784,0.000
 00081,0.00000340,0.00000827,-0.00000728,0.00000407,0.00000139,-0.00000
 271,-0.00000542,0.00000812,-0.00000368,-0.00000280,0.00000273,-0.00000
 641,-0.00000417,0.00000758,0.00000015,-0.00000473,-0.00000732,-0.00000
 272,-0.00000250,-0.00000407,0.00000226,-0.00000253,-0.00000298,-0.0000
 0068,-0.00000121,-0.00000012,-0.00000754,-0.00000219,-0.00000640,0.000
 00365,0.00000052,-0.00000773,0.,-0.00000257,-0.00000638,0.00000133,-0.
 00000248,-0.00000934\\\@


 A successful marriage requires falling in love
 many times, always with the same person.
                           -- Mignon McLaughlin
 Job cpu time:       0 days  3 hours 25 minutes 52.0 seconds.
 Elapsed time:       0 days  0 hours 53 minutes  7.7 seconds.
 File lengths (MBytes):  RWF=    376 Int=      0 D2E=      0 Chk=     16 Scr=      1
 Normal termination of Gaussian 16 at Fri May 24 09:32:24 2019.
