 Entering Gaussian System, Link 0=g16
 Input=clay-glucose_cation-006-b3lyp_d3bj-631gd-pcm_thf.gjf
 Output=clay-glucose_cation-006-b3lyp_d3bj-631gd-pcm_thf.out
 Initial command:
 /n/sw/g16_nehalem/g16/l1.exe "/scratch/Gau-193715.inp" -scrdir="/scratch/"
 Entering Link 1 = /n/sw/g16_nehalem/g16/l1.exe PID=    193717.
  
 Copyright (c) 1988,1990,1992,1993,1995,1998,2003,2009,2016,
            Gaussian, Inc.  All Rights Reserved.
  
 This is part of the Gaussian(R) 16 program.  It is based on
 the Gaussian(R) 09 system (copyright 2009, Gaussian, Inc.),
 the Gaussian(R) 03 system (copyright 2003, Gaussian, Inc.),
 the Gaussian(R) 98 system (copyright 1998, Gaussian, Inc.),
 the Gaussian(R) 94 system (copyright 1995, Gaussian, Inc.),
 the Gaussian 92(TM) system (copyright 1992, Gaussian, Inc.),
 the Gaussian 90(TM) system (copyright 1990, Gaussian, Inc.),
 the Gaussian 88(TM) system (copyright 1988, Gaussian, Inc.),
 the Gaussian 86(TM) system (copyright 1986, Carnegie Mellon
 University), and the Gaussian 82(TM) system (copyright 1983,
 Carnegie Mellon University). Gaussian is a federally registered
 trademark of Gaussian, Inc.
  
 This software contains proprietary and confidential information,
 including trade secrets, belonging to Gaussian, Inc.
  
 This software is provided under written license and may be
 used, copied, transmitted, or stored only in accord with that
 written license.
  
 The following legend is applicable only to US Government
 contracts under FAR:
  
                    RESTRICTED RIGHTS LEGEND
  
 Use, reproduction and disclosure by the US Government is
 subject to restrictions as set forth in subparagraphs (a)
 and (c) of the Commercial Computer Software - Restricted
 Rights clause in FAR 52.227-19.
  
 Gaussian, Inc.
 340 Quinnipiac St., Bldg. 40, Wallingford CT 06492
  
  
 ---------------------------------------------------------------
 Warning -- This program may not be used in any manner that
 competes with the business of Gaussian, Inc. or will provide
 assistance to any competitor of Gaussian, Inc.  The licensee
 of this program is prohibited from giving any competitor of
 Gaussian, Inc. access to this program.  By using this program,
 the user acknowledges that Gaussian, Inc. is engaged in the
 business of creating and licensing software in the field of
 computational chemistry and represents and warrants to the
 licensee that it is not a competitor of Gaussian, Inc. and that
 it will not use this program in any manner prohibited above.
 ---------------------------------------------------------------
  

 Cite this work as:
 Gaussian 16, Revision A.03,
 M. J. Frisch, G. W. Trucks, H. B. Schlegel, G. E. Scuseria, 
 M. A. Robb, J. R. Cheeseman, G. Scalmani, V. Barone, 
 G. A. Petersson, H. Nakatsuji, X. Li, M. Caricato, A. V. Marenich, 
 J. Bloino, B. G. Janesko, R. Gomperts, B. Mennucci, H. P. Hratchian, 
 J. V. Ortiz, A. F. Izmaylov, J. L. Sonnenberg, D. Williams-Young, 
 F. Ding, F. Lipparini, F. Egidi, J. Goings, B. Peng, A. Petrone, 
 T. Henderson, D. Ranasinghe, V. G. Zakrzewski, J. Gao, N. Rega, 
 G. Zheng, W. Liang, M. Hada, M. Ehara, K. Toyota, R. Fukuda, 
 J. Hasegawa, M. Ishida, T. Nakajima, Y. Honda, O. Kitao, H. Nakai, 
 T. Vreven, K. Throssell, J. A. Montgomery, Jr., J. E. Peralta, 
 F. Ogliaro, M. J. Bearpark, J. J. Heyd, E. N. Brothers, K. N. Kudin, 
 V. N. Staroverov, T. A. Keith, R. Kobayashi, J. Normand, 
 K. Raghavachari, A. P. Rendell, J. C. Burant, S. S. Iyengar, 
 J. Tomasi, M. Cossi, J. M. Millam, M. Klene, C. Adamo, R. Cammi, 
 J. W. Ochterski, R. L. Martin, K. Morokuma, O. Farkas, 
 J. B. Foresman, and D. J. Fox, Gaussian, Inc., Wallingford CT, 2016.
 
 ******************************************
 Gaussian 16:  ES64L-G16RevA.03 25-Dec-2016
                25-May-2019 
 ******************************************
 %nprocshared=8
 Will use up to    8 processors via shared memory.
 %mem=3GB
 ----------------------------------------------------------------------
 #p b3lyp 6-31g* opt=(maxstep=1,calcfc) freq=noraman scrf=(pcm,solvent=
 tetrahydrofuran)
 ----------------------------------------------------------------------
 1/8=1,10=4,18=20,19=15,26=3,38=1/1,3;
 2/9=110,12=2,17=6,18=5,40=1/2;
 3/5=1,6=6,7=1,11=2,25=1,30=1,70=2201,71=2,72=20,74=-5,140=1/1,2,3;
 4//1;
 5/5=2,38=5,53=20/2;
 8/6=4,10=90,11=11/1;
 11/6=1,8=1,9=11,15=111,16=1/1,2,10;
 10/6=1,13=1/2;
 6/7=2,8=2,9=2,10=2,28=1/1;
 7/10=1,18=20,25=1/1,2,3,16;
 1/8=1,10=4,18=20,19=15,26=3/3(2);
 2/9=110/2;
 99//99;
 2/9=110/2;
 3/5=1,6=6,7=1,11=2,25=1,30=1,70=2205,71=1,72=20,74=-5/1,2,3;
 4/5=5,16=3,69=1/1;
 5/5=2,38=5,53=20/2;
 7//1,2,3,16;
 1/8=1,18=20,19=15,26=3/3(-5);
 2/9=110/2;
 6/7=2,8=2,9=2,10=2,19=2,28=1/1;
 99/9=1/99;
 Leave Link    1 at Sat May 25 18:29:57 2019, MaxMem=   402653184 cpu:               0.8 elap:               0.1
 (Enter /n/sw/g16_nehalem/g16/l101.exe)
 -----
 title
 -----
 Symbolic Z-matrix:
 Charge =  1 Multiplicity = 1
 6                     1.16357   0.81467   0.50954 
 6                     1.94546  -0.23359  -0.30099 
 6                     1.35782  -0.18875  -1.68943 
 6                    -0.84904  -0.29547  -0.69109 
 6                    -0.37193   0.56652   0.50713 
 1                     1.93634  -0.15081  -2.61328 
 1                     3.00786   0.02267  -0.32466 
 1                     1.53415   0.83587   1.54189 
 1                    -0.85967  -1.35271  -0.42649 
 1                    -0.83469   1.5505    0.39578 
 8                     0.11671  -0.25496  -1.85788 
 8                     1.70538  -1.53825   0.18167 
 8                     1.46659   2.01191  -0.19036 
 8                    -0.92583   0.07573   1.70981 
 6                    -2.16533   0.179    -1.33882 
 1                    -2.47531  -0.54729  -2.10417 
 1                    -1.97664   1.13962  -1.82956 
 8                    -3.17187   0.40441  -0.38826 
 6                     2.76812  -2.48315  -0.04632 
 1                     2.45778  -3.3982    0.45856 
 1                     2.90721  -2.68431  -1.11355 
 1                     3.70391  -2.11718   0.38891 
 6                     1.34677   3.21229   0.57605 
 1                     1.645     4.02759  -0.08472 
 1                     0.31709   3.38151   0.91412 
 1                     2.01277   3.18077   1.44736 
 6                    -0.40944  -1.12442   2.29152 
 1                    -0.99426  -1.27191   3.20129 
 1                    -0.53786  -1.99661   1.64041 
 1                     0.6493   -1.0349    2.55353 
 6                    -3.79977  -0.77522   0.11036 
 1                    -4.65042  -0.44088   0.70735 
 1                    -4.1605   -1.40789  -0.71195 
 1                    -3.12727  -1.35779   0.75177 
 
 ITRead=  0  0  0  0  0  0  0  0  0  0  0  0  0  0  0  0  0  0  0  0
 ITRead=  0  0  0  0  0  0  0  0  0  0  0  0  0  0
 MicOpt= -1 -1 -1 -1 -1 -1 -1 -1 -1 -1 -1 -1 -1 -1 -1 -1 -1 -1 -1 -1
 MicOpt= -1 -1 -1 -1 -1 -1 -1 -1 -1 -1 -1 -1 -1 -1
 NAtoms=     34 NQM=       34 NQMF=       0 NMMI=      0 NMMIF=      0
                NMic=       0 NMicF=      0.
                    Isotopes and Nuclear Properties:
 (Nuclear quadrupole moments (NQMom) in fm**2, nuclear magnetic moments (NMagM)
  in nuclear magnetons)

  Atom         1           2           3           4           5           6           7           8           9          10
 IAtWgt=          12          12          12          12          12           1           1           1           1           1
 AtmWgt=  12.0000000  12.0000000  12.0000000  12.0000000  12.0000000   1.0078250   1.0078250   1.0078250   1.0078250   1.0078250
 NucSpn=           0           0           0           0           0           1           1           1           1           1
 AtZEff=   0.0000000   0.0000000   0.0000000   0.0000000   0.0000000   0.0000000   0.0000000   0.0000000   0.0000000   0.0000000
 NQMom=    0.0000000   0.0000000   0.0000000   0.0000000   0.0000000   0.0000000   0.0000000   0.0000000   0.0000000   0.0000000
 NMagM=    0.0000000   0.0000000   0.0000000   0.0000000   0.0000000   2.7928460   2.7928460   2.7928460   2.7928460   2.7928460
 AtZNuc=   6.0000000   6.0000000   6.0000000   6.0000000   6.0000000   1.0000000   1.0000000   1.0000000   1.0000000   1.0000000

  Atom        11          12          13          14          15          16          17          18          19          20
 IAtWgt=          16          16          16          16          12           1           1          16          12           1
 AtmWgt=  15.9949146  15.9949146  15.9949146  15.9949146  12.0000000   1.0078250   1.0078250  15.9949146  12.0000000   1.0078250
 NucSpn=           0           0           0           0           0           1           1           0           0           1
 AtZEff=   0.0000000   0.0000000   0.0000000   0.0000000   0.0000000   0.0000000   0.0000000   0.0000000   0.0000000   0.0000000
 NQMom=    0.0000000   0.0000000   0.0000000   0.0000000   0.0000000   0.0000000   0.0000000   0.0000000   0.0000000   0.0000000
 NMagM=    0.0000000   0.0000000   0.0000000   0.0000000   0.0000000   2.7928460   2.7928460   0.0000000   0.0000000   2.7928460
 AtZNuc=   8.0000000   8.0000000   8.0000000   8.0000000   6.0000000   1.0000000   1.0000000   8.0000000   6.0000000   1.0000000

  Atom        21          22          23          24          25          26          27          28          29          30
 IAtWgt=           1           1          12           1           1           1          12           1           1           1
 AtmWgt=   1.0078250   1.0078250  12.0000000   1.0078250   1.0078250   1.0078250  12.0000000   1.0078250   1.0078250   1.0078250
 NucSpn=           1           1           0           1           1           1           0           1           1           1
 AtZEff=   0.0000000   0.0000000   0.0000000   0.0000000   0.0000000   0.0000000   0.0000000   0.0000000   0.0000000   0.0000000
 NQMom=    0.0000000   0.0000000   0.0000000   0.0000000   0.0000000   0.0000000   0.0000000   0.0000000   0.0000000   0.0000000
 NMagM=    2.7928460   2.7928460   0.0000000   2.7928460   2.7928460   2.7928460   0.0000000   2.7928460   2.7928460   2.7928460
 AtZNuc=   1.0000000   1.0000000   6.0000000   1.0000000   1.0000000   1.0000000   6.0000000   1.0000000   1.0000000   1.0000000

  Atom        31          32          33          34
 IAtWgt=          12           1           1           1
 AtmWgt=  12.0000000   1.0078250   1.0078250   1.0078250
 NucSpn=           0           1           1           1
 AtZEff=   0.0000000   0.0000000   0.0000000   0.0000000
 NQMom=    0.0000000   0.0000000   0.0000000   0.0000000
 NMagM=    0.0000000   2.7928460   2.7928460   2.7928460
 AtZNuc=   6.0000000   1.0000000   1.0000000   1.0000000
 Leave Link  101 at Sat May 25 18:29:57 2019, MaxMem=   402653184 cpu:               1.1 elap:               0.2
 (Enter /n/sw/g16_nehalem/g16/l103.exe)

 GradGradGradGradGradGradGradGradGradGradGradGradGradGradGradGradGradGrad
 Berny optimization.
 Initialization pass.
                           ----------------------------
                           !    Initial Parameters    !
                           ! (Angstroms and Degrees)  !
 --------------------------                            --------------------------
 ! Name  Definition              Value          Derivative Info.                !
 --------------------------------------------------------------------------------
 ! R1    R(1,2)                  1.5386         calculate D2E/DX2 analytically  !
 ! R2    R(1,5)                  1.5554         calculate D2E/DX2 analytically  !
 ! R3    R(1,8)                  1.0971         calculate D2E/DX2 analytically  !
 ! R4    R(1,13)                 1.4195         calculate D2E/DX2 analytically  !
 ! R5    R(2,3)                  1.5083         calculate D2E/DX2 analytically  !
 ! R6    R(2,7)                  1.0931         calculate D2E/DX2 analytically  !
 ! R7    R(2,12)                 1.4116         calculate D2E/DX2 analytically  !
 ! R8    R(3,6)                  1.0907         calculate D2E/DX2 analytically  !
 ! R9    R(3,11)                 1.2542         calculate D2E/DX2 analytically  !
 ! R10   R(4,5)                  1.5513         calculate D2E/DX2 analytically  !
 ! R11   R(4,9)                  1.0899         calculate D2E/DX2 analytically  !
 ! R12   R(4,11)                 1.5152         calculate D2E/DX2 analytically  !
 ! R13   R(4,15)                 1.5418         calculate D2E/DX2 analytically  !
 ! R14   R(5,10)                 1.0931         calculate D2E/DX2 analytically  !
 ! R15   R(5,14)                 1.4121         calculate D2E/DX2 analytically  !
 ! R16   R(12,19)                1.4402         calculate D2E/DX2 analytically  !
 ! R17   R(13,23)                1.4292         calculate D2E/DX2 analytically  !
 ! R18   R(14,27)                1.4302         calculate D2E/DX2 analytically  !
 ! R19   R(15,16)                1.0997         calculate D2E/DX2 analytically  !
 ! R20   R(15,17)                1.0951         calculate D2E/DX2 analytically  !
 ! R21   R(15,18)                1.4027         calculate D2E/DX2 analytically  !
 ! R22   R(18,31)                1.4263         calculate D2E/DX2 analytically  !
 ! R23   R(19,20)                1.0902         calculate D2E/DX2 analytically  !
 ! R24   R(19,21)                1.0949         calculate D2E/DX2 analytically  !
 ! R25   R(19,22)                1.095          calculate D2E/DX2 analytically  !
 ! R26   R(23,24)                1.091          calculate D2E/DX2 analytically  !
 ! R27   R(23,25)                1.0969         calculate D2E/DX2 analytically  !
 ! R28   R(23,26)                1.0971         calculate D2E/DX2 analytically  !
 ! R29   R(27,28)                1.0915         calculate D2E/DX2 analytically  !
 ! R30   R(27,29)                1.096          calculate D2E/DX2 analytically  !
 ! R31   R(27,30)                1.0943         calculate D2E/DX2 analytically  !
 ! R32   R(31,32)                1.0917         calculate D2E/DX2 analytically  !
 ! R33   R(31,33)                1.0985         calculate D2E/DX2 analytically  !
 ! R34   R(31,34)                1.0968         calculate D2E/DX2 analytically  !
 ! A1    A(2,1,5)              113.0896         calculate D2E/DX2 analytically  !
 ! A2    A(2,1,8)              109.7089         calculate D2E/DX2 analytically  !
 ! A3    A(2,1,13)             101.9125         calculate D2E/DX2 analytically  !
 ! A4    A(5,1,8)              109.7557         calculate D2E/DX2 analytically  !
 ! A5    A(5,1,13)             110.1526         calculate D2E/DX2 analytically  !
 ! A6    A(8,1,13)             112.0588         calculate D2E/DX2 analytically  !
 ! A7    A(1,2,3)              105.4674         calculate D2E/DX2 analytically  !
 ! A8    A(1,2,7)              110.2181         calculate D2E/DX2 analytically  !
 ! A9    A(1,2,12)             111.2932         calculate D2E/DX2 analytically  !
 ! A10   A(3,2,7)              110.5933         calculate D2E/DX2 analytically  !
 ! A11   A(3,2,12)             106.0186         calculate D2E/DX2 analytically  !
 ! A12   A(7,2,12)             112.915          calculate D2E/DX2 analytically  !
 ! A13   A(2,3,6)              125.0358         calculate D2E/DX2 analytically  !
 ! A14   A(2,3,11)             120.5022         calculate D2E/DX2 analytically  !
 ! A15   A(6,3,11)             114.3893         calculate D2E/DX2 analytically  !
 ! A16   A(5,4,9)              110.7624         calculate D2E/DX2 analytically  !
 ! A17   A(5,4,11)             112.5772         calculate D2E/DX2 analytically  !
 ! A18   A(5,4,15)             114.5866         calculate D2E/DX2 analytically  !
 ! A19   A(9,4,11)             102.6569         calculate D2E/DX2 analytically  !
 ! A20   A(9,4,15)             113.0897         calculate D2E/DX2 analytically  !
 ! A21   A(11,4,15)            102.2633         calculate D2E/DX2 analytically  !
 ! A22   A(1,5,4)              113.171          calculate D2E/DX2 analytically  !
 ! A23   A(1,5,10)             105.9312         calculate D2E/DX2 analytically  !
 ! A24   A(1,5,14)             116.19           calculate D2E/DX2 analytically  !
 ! A25   A(4,5,10)             106.9372         calculate D2E/DX2 analytically  !
 ! A26   A(4,5,14)             110.1261         calculate D2E/DX2 analytically  !
 ! A27   A(10,5,14)            103.5068         calculate D2E/DX2 analytically  !
 ! A28   A(3,11,4)             121.9177         calculate D2E/DX2 analytically  !
 ! A29   A(2,12,19)            115.2606         calculate D2E/DX2 analytically  !
 ! A30   A(1,13,23)            115.2192         calculate D2E/DX2 analytically  !
 ! A31   A(5,14,27)            119.7644         calculate D2E/DX2 analytically  !
 ! A32   A(4,15,16)            109.2549         calculate D2E/DX2 analytically  !
 ! A33   A(4,15,17)            108.1257         calculate D2E/DX2 analytically  !
 ! A34   A(4,15,18)            112.1705         calculate D2E/DX2 analytically  !
 ! A35   A(16,15,17)           108.4238         calculate D2E/DX2 analytically  !
 ! A36   A(16,15,18)           112.0548         calculate D2E/DX2 analytically  !
 ! A37   A(17,15,18)           106.6408         calculate D2E/DX2 analytically  !
 ! A38   A(15,18,31)           114.8283         calculate D2E/DX2 analytically  !
 ! A39   A(12,19,20)           105.5043         calculate D2E/DX2 analytically  !
 ! A40   A(12,19,21)           111.628          calculate D2E/DX2 analytically  !
 ! A41   A(12,19,22)           110.3911         calculate D2E/DX2 analytically  !
 ! A42   A(20,19,21)           109.4723         calculate D2E/DX2 analytically  !
 ! A43   A(20,19,22)           109.8601         calculate D2E/DX2 analytically  !
 ! A44   A(21,19,22)           109.8927         calculate D2E/DX2 analytically  !
 ! A45   A(13,23,24)           106.2574         calculate D2E/DX2 analytically  !
 ! A46   A(13,23,25)           111.9346         calculate D2E/DX2 analytically  !
 ! A47   A(13,23,26)           110.5391         calculate D2E/DX2 analytically  !
 ! A48   A(24,23,25)           109.1465         calculate D2E/DX2 analytically  !
 ! A49   A(24,23,26)           109.6646         calculate D2E/DX2 analytically  !
 ! A50   A(25,23,26)           109.2388         calculate D2E/DX2 analytically  !
 ! A51   A(14,27,28)           105.0072         calculate D2E/DX2 analytically  !
 ! A52   A(14,27,29)           112.5731         calculate D2E/DX2 analytically  !
 ! A53   A(14,27,30)           112.2132         calculate D2E/DX2 analytically  !
 ! A54   A(28,27,29)           108.9567         calculate D2E/DX2 analytically  !
 ! A55   A(28,27,30)           109.26           calculate D2E/DX2 analytically  !
 ! A56   A(29,27,30)           108.7056         calculate D2E/DX2 analytically  !
 ! A57   A(18,31,32)           106.3141         calculate D2E/DX2 analytically  !
 ! A58   A(18,31,33)           111.0527         calculate D2E/DX2 analytically  !
 ! A59   A(18,31,34)           111.9497         calculate D2E/DX2 analytically  !
 ! A60   A(32,31,33)           109.2611         calculate D2E/DX2 analytically  !
 ! A61   A(32,31,34)           108.7009         calculate D2E/DX2 analytically  !
 ! A62   A(33,31,34)           109.4632         calculate D2E/DX2 analytically  !
 ! D1    D(5,1,2,3)             56.768          calculate D2E/DX2 analytically  !
 ! D2    D(5,1,2,7)            176.1627         calculate D2E/DX2 analytically  !
 ! D3    D(5,1,2,12)           -57.7604         calculate D2E/DX2 analytically  !
 ! D4    D(8,1,2,3)            179.6582         calculate D2E/DX2 analytically  !
 ! D5    D(8,1,2,7)            -60.9472         calculate D2E/DX2 analytically  !
 ! D6    D(8,1,2,12)            65.1298         calculate D2E/DX2 analytically  !
 ! D7    D(13,1,2,3)           -61.4419         calculate D2E/DX2 analytically  !
 ! D8    D(13,1,2,7)            57.9527         calculate D2E/DX2 analytically  !
 ! D9    D(13,1,2,12)         -175.9704         calculate D2E/DX2 analytically  !
 ! D10   D(2,1,5,4)            -22.1067         calculate D2E/DX2 analytically  !
 ! D11   D(2,1,5,10)          -138.9603         calculate D2E/DX2 analytically  !
 ! D12   D(2,1,5,14)           106.7673         calculate D2E/DX2 analytically  !
 ! D13   D(8,1,5,4)           -144.9709         calculate D2E/DX2 analytically  !
 ! D14   D(8,1,5,10)            98.1755         calculate D2E/DX2 analytically  !
 ! D15   D(8,1,5,14)           -16.0969         calculate D2E/DX2 analytically  !
 ! D16   D(13,1,5,4)            91.1894         calculate D2E/DX2 analytically  !
 ! D17   D(13,1,5,10)          -25.6643         calculate D2E/DX2 analytically  !
 ! D18   D(13,1,5,14)         -139.9367         calculate D2E/DX2 analytically  !
 ! D19   D(2,1,13,23)         -156.1151         calculate D2E/DX2 analytically  !
 ! D20   D(5,1,13,23)           83.596          calculate D2E/DX2 analytically  !
 ! D21   D(8,1,13,23)          -38.8974         calculate D2E/DX2 analytically  !
 ! D22   D(1,2,3,6)            133.0771         calculate D2E/DX2 analytically  !
 ! D23   D(1,2,3,11)           -50.2024         calculate D2E/DX2 analytically  !
 ! D24   D(7,2,3,6)             13.9315         calculate D2E/DX2 analytically  !
 ! D25   D(7,2,3,11)          -169.3481         calculate D2E/DX2 analytically  !
 ! D26   D(12,2,3,6)          -108.7943         calculate D2E/DX2 analytically  !
 ! D27   D(12,2,3,11)           67.9261         calculate D2E/DX2 analytically  !
 ! D28   D(1,2,12,19)         -152.9454         calculate D2E/DX2 analytically  !
 ! D29   D(3,2,12,19)           92.8694         calculate D2E/DX2 analytically  !
 ! D30   D(7,2,12,19)          -28.3728         calculate D2E/DX2 analytically  !
 ! D31   D(2,3,11,4)             3.8457         calculate D2E/DX2 analytically  !
 ! D32   D(6,3,11,4)          -179.1024         calculate D2E/DX2 analytically  !
 ! D33   D(9,4,5,1)             91.6351         calculate D2E/DX2 analytically  !
 ! D34   D(9,4,5,10)          -152.1049         calculate D2E/DX2 analytically  !
 ! D35   D(9,4,5,14)           -40.2888         calculate D2E/DX2 analytically  !
 ! D36   D(11,4,5,1)           -22.6585         calculate D2E/DX2 analytically  !
 ! D37   D(11,4,5,10)           93.6015         calculate D2E/DX2 analytically  !
 ! D38   D(11,4,5,14)         -154.5823         calculate D2E/DX2 analytically  !
 ! D39   D(15,4,5,1)          -138.9678         calculate D2E/DX2 analytically  !
 ! D40   D(15,4,5,10)          -22.7078         calculate D2E/DX2 analytically  !
 ! D41   D(15,4,5,14)           89.1084         calculate D2E/DX2 analytically  !
 ! D42   D(5,4,11,3)            35.2052         calculate D2E/DX2 analytically  !
 ! D43   D(9,4,11,3)           -83.9287         calculate D2E/DX2 analytically  !
 ! D44   D(15,4,11,3)          158.6752         calculate D2E/DX2 analytically  !
 ! D45   D(5,4,15,16)         -174.186          calculate D2E/DX2 analytically  !
 ! D46   D(5,4,15,17)           68.0005         calculate D2E/DX2 analytically  !
 ! D47   D(5,4,15,18)          -49.3074         calculate D2E/DX2 analytically  !
 ! D48   D(9,4,15,16)          -45.9536         calculate D2E/DX2 analytically  !
 ! D49   D(9,4,15,17)         -163.7671         calculate D2E/DX2 analytically  !
 ! D50   D(9,4,15,18)           78.925          calculate D2E/DX2 analytically  !
 ! D51   D(11,4,15,16)          63.7056         calculate D2E/DX2 analytically  !
 ! D52   D(11,4,15,17)         -54.1079         calculate D2E/DX2 analytically  !
 ! D53   D(11,4,15,18)        -171.4158         calculate D2E/DX2 analytically  !
 ! D54   D(1,5,14,27)          -55.4027         calculate D2E/DX2 analytically  !
 ! D55   D(4,5,14,27)           74.9322         calculate D2E/DX2 analytically  !
 ! D56   D(10,5,14,27)        -171.0437         calculate D2E/DX2 analytically  !
 ! D57   D(2,12,19,20)         175.206          calculate D2E/DX2 analytically  !
 ! D58   D(2,12,19,21)         -65.9694         calculate D2E/DX2 analytically  !
 ! D59   D(2,12,19,22)          56.5702         calculate D2E/DX2 analytically  !
 ! D60   D(1,13,23,24)         177.9697         calculate D2E/DX2 analytically  !
 ! D61   D(1,13,23,25)         -62.9693         calculate D2E/DX2 analytically  !
 ! D62   D(1,13,23,26)          59.0502         calculate D2E/DX2 analytically  !
 ! D63   D(5,14,27,28)         179.4092         calculate D2E/DX2 analytically  !
 ! D64   D(5,14,27,29)         -62.1877         calculate D2E/DX2 analytically  !
 ! D65   D(5,14,27,30)          60.8312         calculate D2E/DX2 analytically  !
 ! D66   D(4,15,18,31)         -77.3542         calculate D2E/DX2 analytically  !
 ! D67   D(16,15,18,31)         45.9652         calculate D2E/DX2 analytically  !
 ! D68   D(17,15,18,31)        164.4543         calculate D2E/DX2 analytically  !
 ! D69   D(15,18,31,32)       -171.2962         calculate D2E/DX2 analytically  !
 ! D70   D(15,18,31,33)        -52.5482         calculate D2E/DX2 analytically  !
 ! D71   D(15,18,31,34)         70.1396         calculate D2E/DX2 analytically  !
 --------------------------------------------------------------------------------
 Trust Radius=1.00D-02 FncErr=1.00D-07 GrdErr=1.00D-06 EigMax=2.50D+02 EigMin=1.00D-04
 Number of steps in this run=    177 maximum allowed number of steps=    204.
 GradGradGradGradGradGradGradGradGradGradGradGradGradGradGradGradGradGrad

 Leave Link  103 at Sat May 25 18:29:57 2019, MaxMem=   402653184 cpu:               0.3 elap:               0.1
 (Enter /n/sw/g16_nehalem/g16/l202.exe)
                          Input orientation:                          
 ---------------------------------------------------------------------
 Center     Atomic      Atomic             Coordinates (Angstroms)
 Number     Number       Type             X           Y           Z
 ---------------------------------------------------------------------
      1          6           0        1.163570    0.814667    0.509536
      2          6           0        1.945457   -0.233592   -0.300989
      3          6           0        1.357824   -0.188751   -1.689431
      4          6           0       -0.849038   -0.295471   -0.691092
      5          6           0       -0.371925    0.566515    0.507125
      6          1           0        1.936339   -0.150806   -2.613277
      7          1           0        3.007856    0.022674   -0.324664
      8          1           0        1.534150    0.835870    1.541888
      9          1           0       -0.859670   -1.352707   -0.426489
     10          1           0       -0.834691    1.550497    0.395778
     11          8           0        0.116705   -0.254959   -1.857884
     12          8           0        1.705376   -1.538248    0.181665
     13          8           0        1.466585    2.011911   -0.190355
     14          8           0       -0.925828    0.075730    1.709805
     15          6           0       -2.165328    0.179004   -1.338823
     16          1           0       -2.475309   -0.547293   -2.104166
     17          1           0       -1.976638    1.139617   -1.829559
     18          8           0       -3.171869    0.404405   -0.388255
     19          6           0        2.768122   -2.483145   -0.046315
     20          1           0        2.457776   -3.398201    0.458562
     21          1           0        2.907214   -2.684313   -1.113551
     22          1           0        3.703912   -2.117184    0.388910
     23          6           0        1.346766    3.212287    0.576049
     24          1           0        1.645000    4.027593   -0.084722
     25          1           0        0.317086    3.381510    0.914118
     26          1           0        2.012772    3.180773    1.447357
     27          6           0       -0.409435   -1.124423    2.291519
     28          1           0       -0.994264   -1.271911    3.201288
     29          1           0       -0.537858   -1.996606    1.640409
     30          1           0        0.649299   -1.034901    2.553525
     31          6           0       -3.799767   -0.775218    0.110357
     32          1           0       -4.650423   -0.440876    0.707350
     33          1           0       -4.160504   -1.407894   -0.711947
     34          1           0       -3.127270   -1.357793    0.751768
 ---------------------------------------------------------------------
                    Distance matrix (angstroms):
                    1          2          3          4          5
     1  C    0.000000
     2  C    1.538553   0.000000
     3  C    2.424879   1.508342   0.000000
     4  C    2.593165   2.822271   2.424523   0.000000
     5  C    1.555420   2.581371   2.896086   1.551251   0.000000
     6  H    3.358760   2.313787   1.090693   3.387336   3.947093
     7  H    2.173599   1.093126   2.151719   3.887302   3.522862
     8  H    1.097055   2.170050   3.394460   3.456258   2.185500
     9  H    3.109205   3.022732   2.804834   1.089897   2.189279
    10  H    2.132471   3.376045   3.490015   2.142216   1.093056
    11  O    2.800840   2.401814   1.254247   1.515158   2.550852
    12  O    2.436650   1.411638   2.333010   2.971739   2.975085
    13  O    1.419528   2.298661   2.664952   3.307092   2.440444
    14  O    2.520369   3.518984   4.103635   2.430636   1.412132
    15  C    3.860319   4.259799   3.559602   1.541850   2.602688
    16  H    4.682714   4.784666   3.872140   2.169090   3.533219
    17  H    3.929105   4.427760   3.592052   2.151062   2.891996
    18  O    4.446389   5.157682   4.750054   2.444807   2.944091
    19  C    3.709329   2.408760   3.154840   4.276155   4.412099
    20  H    4.407474   3.294562   4.015512   4.677997   4.871195
    21  H    4.232915   2.755225   2.993339   4.471517   4.893590
    22  H    3.881190   2.667591   3.680011   5.021394   4.881461
    23  C    2.405528   3.605788   4.086512   4.327998   3.155750
    24  H    3.302698   4.277235   4.520522   5.027603   4.049362
    25  H    2.732930   4.146931   4.539644   4.178126   2.926530
    26  H    2.683116   3.836552   4.649956   4.984696   3.661306
    27  C    3.067552   3.613889   4.454958   3.126720   2.458605
    28  H    4.031821   4.688924   5.533958   4.015613   3.320486
    29  H    3.475196   3.611661   4.236719   2.902859   2.807393
    30  H    2.804152   3.235795   4.384137   3.649563   2.791986
    31  C    5.227025   5.785340   5.493990   3.095041   3.702401
    32  H    5.951305   6.675728   6.473574   4.053062   4.400054
    33  H    5.897250   6.231423   5.735305   3.493383   4.442720
    34  H    4.815555   5.301385   5.238528   2.898399   3.369679
                    6          7          8          9         10
     6  H    0.000000
     7  H    2.532981   0.000000
     8  H    4.289602   2.513387   0.000000
     9  H    3.747569   4.106069   3.794042   0.000000
    10  H    4.430288   4.197433   2.726842   3.017506   0.000000
    11  O    1.972951   3.284296   3.841550   2.051158   3.040365
    12  O    3.128904   2.095066   2.741525   2.642676   4.004763
    13  O    3.281549   2.520043   2.094828   4.097301   2.419158
    14  O    5.189639   4.428967   2.580213   2.570712   1.977349
    15  C    4.307746   5.273973   4.734565   2.209804   2.580781
    16  H    4.458591   5.792805   5.593086   2.464464   3.652680
    17  H    4.194138   5.325171   4.876941   3.070489   2.534756
    18  O    5.599355   6.191830   5.104726   2.904336   2.718572
    19  C    3.566646   2.532603   3.880842   3.818808   5.426415
    20  H    4.500407   3.552241   4.466994   3.996600   5.944232
    21  H    3.100070   2.821392   4.618263   4.053966   5.849234
    22  H    4.000510   2.360651   3.841582   4.698466   5.835310
    23  C    4.672236   3.707308   2.572026   5.168425   2.748235
    24  H    4.892595   4.237254   3.584026   5.944561   3.537761
    25  H    5.248024   4.478460   2.890609   5.059130   2.224382
    26  H    5.253000   3.755508   2.395117   5.684599   3.445528
    27  C    5.523369   4.454001   2.860458   2.764488   3.306036
    28  H    6.607153   5.488648   3.686357   3.631172   3.982755
    29  H    5.255709   4.528917   3.510818   2.188661   3.770830
    30  H    5.397586   3.868492   2.303509   3.355365   3.679997
    31  C    6.380516   6.868013   5.752874   3.043989   3.779165
    32  H    7.382150   7.741393   6.369888   4.060398   4.315374
    33  H    6.508980   7.319966   6.522525   3.313614   4.586956
    34  H    6.198426   6.379982   5.212033   2.555450   3.720322
                   11         12         13         14         15
    11  O    0.000000
    12  O    2.886255   0.000000
    13  O    3.121142   3.577576   0.000000
    14  O    3.731573   3.444325   3.617049   0.000000
    15  C    2.380215   4.499243   4.227212   3.292591   0.000000
    16  H    2.620048   4.866738   5.074517   4.163583   1.099702
    17  H    2.515498   4.977269   3.911991   3.842285   1.095081
    18  O    3.661870   5.280741   4.913094   3.091049   1.402680
    19  C    3.908530   1.440220   4.681909   4.824631   5.752960
    20  H    4.552637   2.025390   5.538309   5.008251   6.115560
    21  H    3.773955   2.106054   4.998222   5.502853   5.829238
    22  H    4.624286   2.090996   4.731871   5.290381   6.534946
    23  C    4.411221   4.780348   1.429208   4.035849   5.020194
    24  H    4.880578   5.572539   2.026318   5.044473   5.559047
    25  H    4.576904   5.164093   2.101668   3.620240   4.636180
    26  H    5.130686   4.895470   2.084864   4.283169   5.850635
    27  C    4.272041   3.015818   4.417662   1.430182   4.238097
    28  H    5.278604   4.059201   5.323768   2.011303   4.908070
    29  H    3.962302   2.714797   4.841250   2.109482   4.032091
    30  H    4.511374   2.644688   4.180897   2.103899   4.954398
    31  C    4.414000   5.558228   5.965985   3.397333   2.383706
    32  H    5.416687   6.471225   6.651303   3.891581   3.278227
    33  H    4.575691   5.934988   6.605396   4.304550   2.625252
    34  H    4.306960   4.869502   5.774600   2.796278   2.767246
                   16         17         18         19         20
    16  H    0.000000
    17  H    1.780378   0.000000
    18  O    2.082132   2.011584   0.000000
    19  C    5.956160   6.230338   6.613498   0.000000
    20  H    6.247446   6.744725   6.846153   1.090203   0.000000
    21  H    5.875349   6.243967   6.857221   1.094901   1.784144
    22  H    6.845638   6.913538   7.364697   1.095012   1.788494
    23  C    5.993851   4.596512   5.406676   5.903011   6.704230
    24  H    6.479559   4.949861   6.035052   6.607010   7.489872
    25  H    5.687091   4.220784   4.767823   6.428389   7.124224
    26  H    6.830422   5.551566   6.161022   5.906063   6.667731
    27  C    4.891110   4.956338   4.141201   4.172345   4.092761
    28  H    5.555754   5.664799   4.520710   5.115619   4.894919
    29  H    4.458258   4.893533   4.101018   3.743162   3.512130
    30  H    5.629833   5.552972   5.032593   3.653216   3.639319
    31  C    2.590415   3.279278   1.426317   6.788131   6.793978
    32  H    3.556272   4.010361   2.025086   7.731344   7.702867
    33  H    2.349211   3.536685   2.089642   7.043088   7.009497
    34  H    3.039461   3.771506   2.099282   6.054668   5.953316
                   21         22         23         24         25
    21  H    0.000000
    22  H    1.792694   0.000000
    23  C    6.329268   5.830473   0.000000
    24  H    6.906617   6.497825   1.091002   0.000000
    25  H    6.900320   6.479357   1.096890   1.782824   0.000000
    26  H    6.462005   5.661149   1.097148   1.788750   1.788852
    27  C    5.002791   4.639517   4.983386   6.034111   4.767442
    28  H    5.986171   5.540471   5.699152   6.771139   5.348375
    29  H    4.463828   4.424184   5.640677   6.635655   5.493866
    30  H    4.611528   3.897121   4.736610   5.794878   4.722574
    31  C    7.079985   7.627822   6.527164   7.262956   5.905328
    32  H    8.091141   8.526800   7.023469   7.760602   6.271326
    33  H    7.193272   7.972705   7.303084   7.977582   6.755094
    34  H    6.453996   6.882833   6.397930   7.244078   5.860967
                   26         27         28         29         30
    26  H    0.000000
    27  C    5.011428   0.000000
    28  H    5.651985   1.091539   0.000000
    29  H    5.774793   1.095965   1.780402   0.000000
    30  H    4.566681   1.094340   1.782434   1.779887   0.000000
    31  C    7.157028   4.046451   4.203737   3.804326   5.082391
    32  H    7.619850   4.578516   4.503093   4.494896   5.643428
    33  H    7.989230   4.813697   5.035571   4.359326   5.825516
    34  H    6.892203   3.132399   3.249190   2.811195   4.196792
                   31         32         33         34
    31  C    0.000000
    32  H    1.091696   0.000000
    33  H    1.098451   1.785931   0.000000
    34  H    1.096838   1.778400   1.792357   0.000000
 Stoichiometry    C10H19O5(1+)
 Framework group  C1[X(C10H19O5)]
 Deg. of freedom    96
 Full point group                 C1      NOp   1
 Largest Abelian subgroup         C1      NOp   1
 Largest concise Abelian subgroup C1      NOp   1
                         Standard orientation:                         
 ---------------------------------------------------------------------
 Center     Atomic      Atomic             Coordinates (Angstroms)
 Number     Number       Type             X           Y           Z
 ---------------------------------------------------------------------
      1          6           0        1.163570    0.814667    0.509536
      2          6           0        1.945457   -0.233592   -0.300989
      3          6           0        1.357824   -0.188751   -1.689431
      4          6           0       -0.849038   -0.295471   -0.691092
      5          6           0       -0.371925    0.566515    0.507125
      6          1           0        1.936339   -0.150806   -2.613277
      7          1           0        3.007856    0.022675   -0.324664
      8          1           0        1.534150    0.835870    1.541888
      9          1           0       -0.859670   -1.352707   -0.426489
     10          1           0       -0.834691    1.550497    0.395778
     11          8           0        0.116705   -0.254959   -1.857884
     12          8           0        1.705376   -1.538248    0.181665
     13          8           0        1.466585    2.011911   -0.190355
     14          8           0       -0.925828    0.075730    1.709805
     15          6           0       -2.165328    0.179004   -1.338823
     16          1           0       -2.475309   -0.547293   -2.104166
     17          1           0       -1.976638    1.139617   -1.829559
     18          8           0       -3.171869    0.404404   -0.388255
     19          6           0        2.768122   -2.483145   -0.046315
     20          1           0        2.457777   -3.398201    0.458562
     21          1           0        2.907214   -2.684312   -1.113551
     22          1           0        3.703912   -2.117183    0.388910
     23          6           0        1.346765    3.212287    0.576049
     24          1           0        1.644999    4.027593   -0.084722
     25          1           0        0.317085    3.381510    0.914118
     26          1           0        2.012771    3.180773    1.447357
     27          6           0       -0.409435   -1.124423    2.291519
     28          1           0       -0.994264   -1.271911    3.201288
     29          1           0       -0.537858   -1.996606    1.640409
     30          1           0        0.649299   -1.034901    2.553525
     31          6           0       -3.799767   -0.775219    0.110357
     32          1           0       -4.650423   -0.440877    0.707350
     33          1           0       -4.160504   -1.407895   -0.711947
     34          1           0       -3.127270   -1.357794    0.751768
 ---------------------------------------------------------------------
 Rotational constants (GHZ):           0.7175668           0.4624617           0.4116153
 Leave Link  202 at Sat May 25 18:29:57 2019, MaxMem=   402653184 cpu:               0.8 elap:               0.1
 (Enter /n/sw/g16_nehalem/g16/l301.exe)
 Standard basis: 6-31G(d) (6D, 7F)
 Ernie: Thresh=  0.10000D-02 Tol=  0.10000D-05 Strict=F.
 There are   263 symmetry adapted cartesian basis functions of A   symmetry.
 There are   263 symmetry adapted basis functions of A   symmetry.
   263 basis functions,   496 primitive gaussians,   263 cartesian basis functions
    59 alpha electrons       59 beta electrons
       nuclear repulsion energy      1179.7173199895 Hartrees.
 IExCor=  402 DFT=T Ex+Corr=B3LYP ExCW=0 ScaHFX=  0.200000
 ScaDFX=  0.800000  0.720000  1.000000  0.810000 ScalE2=  1.000000  1.000000
 IRadAn=      5 IRanWt=     -1 IRanGd=            0 ICorTp=0 IEmpDi=  4
 NAtoms=   34 NActive=   34 NUniq=   34 SFac= 1.00D+00 NAtFMM=   60 NAOKFM=F Big=F
 Integral buffers will be    131072 words long.
 Raffenetti 2 integral format.
 Two-electron integral symmetry is turned on.
 Force inversion solution in PCM.
 ------------------------------------------------------------------------------
 Polarizable Continuum Model (PCM)
 =================================
 Model                : PCM.
 Atomic radii         : UFF (Universal Force Field).
 Polarization charges : Total charges.
 Charge compensation  : None.
 Solution method      : Matrix inversion.
 Cavity type          : Scaled VdW (van der Waals Surface) (Alpha=1.100).
 Cavity algorithm     : GePol (No added spheres)
                        Default sphere list used, NSphG=   34.
                        Lebedev-Laikov grids with approx.  5.0 points / Ang**2.
                        Smoothing algorithm: York/Karplus (Gamma=1.0000).
                        Polarization charges: spherical gaussians, with
                                              point-specific exponents (IZeta= 3).
                        Self-potential: point-specific (ISelfS= 7).
                        Self-field    : sphere-specific E.n sum rule (ISelfD= 2).
 1st derivatives      : Analytical E(r).r(x)/FMM algorithm (CHGder, D1EAlg=3).
                        Cavity 1st derivative terms included.
 2nd derivatives      : Analytical E(r).r(xy)/FMM algorithm (CHGder, D2EAlg=3).
                        Cavity 2nd derivative terms included.
 Solvent              : TetraHydroFuran, Eps=   7.425700 Eps(inf)=   1.974025
 ------------------------------------------------------------------------------
 GePol: Number of generator spheres                  =      34
 GePol: Total number of spheres                      =      34
 GePol: Number of exposed spheres                    =      34 (100.00%)
 GePol: Number of points                             =    2276
 GePol: Average weight of points                     =       0.13
 GePol: Minimum weight of points                     =   0.50D-09
 GePol: Maximum weight of points                     =    0.20577
 GePol: Number of points with low weight             =     137
 GePol: Fraction of low-weight points (<1% of avg)   =       6.02%
 GePol: Cavity surface area                          =    297.052 Ang**2
 GePol: Cavity volume                                =    319.892 Ang**3
 Leave Link  301 at Sat May 25 18:29:58 2019, MaxMem=   402653184 cpu:               0.9 elap:               0.2
 (Enter /n/sw/g16_nehalem/g16/l302.exe)
 NPDir=0 NMtPBC=     1 NCelOv=     1 NCel=       1 NClECP=     1 NCelD=      1
         NCelK=      1 NCelE2=     1 NClLst=     1 CellRange=     0.0.
 One-electron integrals computed using PRISM.
 One-electron integral symmetry used in STVInt
 NBasis=   263 RedAO= T EigKep=  1.56D-03  NBF=   263
 NBsUse=   263 1.00D-06 EigRej= -1.00D+00 NBFU=   263
 Precomputing XC quadrature grid using
 IXCGrd= 4 IRadAn=           5 IRanWt=          -1 IRanGd=           0 AccXCQ= 0.00D+00.
 Generated NRdTot=       0 NPtTot=           0 NUsed=           0 NTot=          32
 NSgBfM=   262   262   262   262   262 MxSgAt=    34 MxSgA2=    34.
 Leave Link  302 at Sat May 25 18:29:58 2019, MaxMem=   402653184 cpu:               3.5 elap:               0.5
 (Enter /n/sw/g16_nehalem/g16/l303.exe)
 DipDrv:  MaxL=1.
 Leave Link  303 at Sat May 25 18:29:58 2019, MaxMem=   402653184 cpu:               0.4 elap:               0.1
 (Enter /n/sw/g16_nehalem/g16/l401.exe)
 ExpMin= 1.61D-01 ExpMax= 5.48D+03 ExpMxC= 8.25D+02 IAcc=3 IRadAn=         5 AccDes= 0.00D+00
 Harris functional with IExCor=  402 and IRadAn=       5 diagonalized for initial guess.
 HarFok:  IExCor=  402 AccDes= 0.00D+00 IRadAn=         5 IDoV= 1 UseB2=F ITyADJ=14
 ICtDFT=  3500011 ScaDFX=  1.000000  1.000000  1.000000  1.000000
 FoFCou: FMM=F IPFlag=           0 FMFlag=      100000 FMFlg1=           0
         NFxFlg=           0 DoJE=T BraDBF=F KetDBF=T FulRan=T
         wScrn=  0.000000 ICntrl=       500 IOpCl=  0 I1Cent=   200000004 NGrid=           0
         NMat0=    1 NMatS0=      1 NMatT0=    0 NMatD0=    1 NMtDS0=    0 NMtDT0=    0
 Petite list used in FoFCou.
 Harris En= -768.249730551122    
 JPrj=0 DoOrth=F DoCkMO=F.
 Leave Link  401 at Sat May 25 18:30:02 2019, MaxMem=   402653184 cpu:              30.0 elap:               4.0
 (Enter /n/sw/g16_nehalem/g16/l502.exe)
 Integral symmetry usage will be decided dynamically.
 Closed shell SCF:
 Using DIIS extrapolation, IDIIS=  1040.
 NGot=   402653184 LenX=   402509577 LenY=   402439967
 Requested convergence on RMS density matrix=1.00D-08 within 128 cycles.
 Requested convergence on MAX density matrix=1.00D-06.
 Requested convergence on             energy=1.00D-06.
 No special actions if energy rises.
 Fock matrices will be formed incrementally for  20 cycles.

 Cycle   1  Pass 1  IDiag  1:
 FoFJK:  IHMeth= 1 ICntrl=       0 DoSepK=F KAlg= 0 I1Cent=           0 FoldK=F
 IRaf= 890000000 NMat=       1 IRICut=       1 DoRegI=T DoRafI=F ISym2E= 0 IDoP0=0 IntGTp=1.
 FoFCou: FMM=F IPFlag=           0 FMFlag=      100000 FMFlg1=           0
         NFxFlg=           0 DoJE=F BraDBF=F KetDBF=F FulRan=T
         wScrn=  0.000000 ICntrl=         0 IOpCl=  0 I1Cent=           0 NGrid=           0
         NMat0=    1 NMatS0=      1 NMatT0=    0 NMatD0=    1 NMtDS0=    0 NMtDT0=    0
 Symmetry not used in FoFCou.
 Inv3:  Mode=1 IEnd=    15540528.
 Iteration    1 A*A^-1 deviation from unit magnitude is 7.77D-15 for    716.
 Iteration    1 A*A^-1 deviation from orthogonality  is 2.44D-15 for    542    506.
 Iteration    1 A^-1*A deviation from unit magnitude is 7.33D-15 for    827.
 Iteration    1 A^-1*A deviation from orthogonality  is 3.12D-15 for   1966    835.
 E= -768.081133644169    
 DIIS: error= 2.21D-02 at cycle   1 NSaved=   1.
 NSaved= 1 IEnMin= 1 EnMin= -768.081133644169     IErMin= 1 ErrMin= 2.21D-02
 ErrMax= 2.21D-02  0.00D+00 EMaxC= 1.00D-01 BMatC= 2.52D-01 BMatP= 2.52D-01
 IDIUse=3 WtCom= 7.79D-01 WtEn= 2.21D-01
 Coeff-Com:  0.100D+01
 Coeff-En:   0.100D+01
 Coeff:      0.100D+01
 Gap=     0.016 Goal=   None    Shift=    0.000
 GapD=    0.016 DampG=0.250 DampE=0.500 DampFc=0.2500 IDamp=-1.
 Damping current iteration by 2.50D-01
 RMSDP=4.50D-03 MaxDP=1.02D-01              OVMax= 3.55D-01

 Cycle   2  Pass 1  IDiag  1:
 RMSU=  1.12D-03    CP:  9.95D-01
 E= -768.157236079998     Delta-E=       -0.076102435829 Rises=F Damp=T
 DIIS: error= 1.11D-02 at cycle   2 NSaved=   2.
 NSaved= 2 IEnMin= 2 EnMin= -768.157236079998     IErMin= 2 ErrMin= 1.11D-02
 ErrMax= 1.11D-02  0.00D+00 EMaxC= 1.00D-01 BMatC= 7.01D-02 BMatP= 2.52D-01
 IDIUse=3 WtCom= 8.89D-01 WtEn= 1.11D-01
 Coeff-Com: -0.767D+00 0.177D+01
 Coeff-En:   0.000D+00 0.100D+01
 Coeff:     -0.682D+00 0.168D+01
 Gap=     0.133 Goal=   None    Shift=    0.000
 RMSDP=1.34D-03 MaxDP=3.08D-02 DE=-7.61D-02 OVMax= 2.96D-01

 Cycle   3  Pass 1  IDiag  1:
 RMSU=  1.25D-03    CP:  9.86D-01  1.40D+00
 E= -768.291975098506     Delta-E=       -0.134739018508 Rises=F Damp=F
 DIIS: error= 7.08D-03 at cycle   3 NSaved=   3.
 NSaved= 3 IEnMin= 3 EnMin= -768.291975098506     IErMin= 3 ErrMin= 7.08D-03
 ErrMax= 7.08D-03  0.00D+00 EMaxC= 1.00D-01 BMatC= 3.01D-02 BMatP= 7.01D-02
 IDIUse=3 WtCom= 9.29D-01 WtEn= 7.08D-02
 Coeff-Com: -0.505D+00 0.991D+00 0.514D+00
 Coeff-En:   0.000D+00 0.000D+00 0.100D+01
 Coeff:     -0.469D+00 0.920D+00 0.549D+00
 Gap=     0.130 Goal=   None    Shift=    0.000
 RMSDP=7.10D-04 MaxDP=2.73D-02 DE=-1.35D-01 OVMax= 2.85D-02

 Cycle   4  Pass 1  IDiag  1:
 RMSU=  5.35D-04    CP:  9.89D-01  1.57D+00  6.65D-01
 E= -768.315361300709     Delta-E=       -0.023386202203 Rises=F Damp=F
 DIIS: error= 1.63D-03 at cycle   4 NSaved=   4.
 NSaved= 4 IEnMin= 4 EnMin= -768.315361300709     IErMin= 4 ErrMin= 1.63D-03
 ErrMax= 1.63D-03  0.00D+00 EMaxC= 1.00D-01 BMatC= 2.76D-03 BMatP= 3.01D-02
 IDIUse=3 WtCom= 9.84D-01 WtEn= 1.63D-02
 Coeff-Com: -0.191D+00 0.321D+00 0.249D+00 0.620D+00
 Coeff-En:   0.000D+00 0.000D+00 0.000D+00 0.100D+01
 Coeff:     -0.187D+00 0.316D+00 0.245D+00 0.627D+00
 Gap=     0.125 Goal=   None    Shift=    0.000
 RMSDP=1.98D-04 MaxDP=8.86D-03 DE=-2.34D-02 OVMax= 8.13D-03

 Cycle   5  Pass 1  IDiag  1:
 RMSU=  1.63D-04    CP:  9.89D-01  1.59D+00  7.26D-01  8.54D-01
 E= -768.317304140291     Delta-E=       -0.001942839582 Rises=F Damp=F
 DIIS: error= 8.52D-04 at cycle   5 NSaved=   5.
 NSaved= 5 IEnMin= 5 EnMin= -768.317304140291     IErMin= 5 ErrMin= 8.52D-04
 ErrMax= 8.52D-04  0.00D+00 EMaxC= 1.00D-01 BMatC= 5.33D-04 BMatP= 2.76D-03
 IDIUse=3 WtCom= 9.91D-01 WtEn= 8.52D-03
 Coeff-Com: -0.738D-01 0.112D+00 0.708D-01 0.342D+00 0.549D+00
 Coeff-En:   0.000D+00 0.000D+00 0.000D+00 0.836D-01 0.916D+00
 Coeff:     -0.731D-01 0.111D+00 0.701D-01 0.340D+00 0.552D+00
 Gap=     0.126 Goal=   None    Shift=    0.000
 RMSDP=8.33D-05 MaxDP=4.93D-03 DE=-1.94D-03 OVMax= 4.00D-03

 Cycle   6  Pass 1  IDiag  1:
 RMSU=  6.32D-05    CP:  9.89D-01  1.60D+00  7.29D-01  9.12D-01  7.35D-01
 E= -768.317653094079     Delta-E=       -0.000348953788 Rises=F Damp=F
 DIIS: error= 4.09D-04 at cycle   6 NSaved=   6.
 NSaved= 6 IEnMin= 6 EnMin= -768.317653094079     IErMin= 6 ErrMin= 4.09D-04
 ErrMax= 4.09D-04  0.00D+00 EMaxC= 1.00D-01 BMatC= 7.73D-05 BMatP= 5.33D-04
 IDIUse=3 WtCom= 9.96D-01 WtEn= 4.09D-03
 Coeff-Com: -0.236D-01 0.303D-01 0.662D-02 0.134D+00 0.345D+00 0.507D+00
 Coeff-En:   0.000D+00 0.000D+00 0.000D+00 0.000D+00 0.516D-01 0.948D+00
 Coeff:     -0.235D-01 0.302D-01 0.659D-02 0.134D+00 0.344D+00 0.509D+00
 Gap=     0.126 Goal=   None    Shift=    0.000
 RMSDP=2.87D-05 MaxDP=2.23D-03 DE=-3.49D-04 OVMax= 1.95D-03

 Cycle   7  Pass 1  IDiag  1:
 RMSU=  1.99D-05    CP:  9.89D-01  1.60D+00  7.29D-01  9.33D-01  8.07D-01
                    CP:  7.96D-01
 E= -768.317713615302     Delta-E=       -0.000060521223 Rises=F Damp=F
 DIIS: error= 1.05D-04 at cycle   7 NSaved=   7.
 NSaved= 7 IEnMin= 7 EnMin= -768.317713615302     IErMin= 7 ErrMin= 1.05D-04
 ErrMax= 1.05D-04  0.00D+00 EMaxC= 1.00D-01 BMatC= 5.62D-06 BMatP= 7.73D-05
 IDIUse=3 WtCom= 9.99D-01 WtEn= 1.05D-03
 Coeff-Com: -0.492D-02 0.455D-02-0.692D-02 0.329D-01 0.128D+00 0.273D+00
 Coeff-Com:  0.573D+00
 Coeff-En:   0.000D+00 0.000D+00 0.000D+00 0.000D+00 0.000D+00 0.000D+00
 Coeff-En:   0.100D+01
 Coeff:     -0.492D-02 0.454D-02-0.691D-02 0.328D-01 0.128D+00 0.273D+00
 Coeff:      0.574D+00
 Gap=     0.125 Goal=   None    Shift=    0.000
 RMSDP=1.08D-05 MaxDP=5.49D-04 DE=-6.05D-05 OVMax= 9.55D-04

 Cycle   8  Pass 1  IDiag  1:
 RMSU=  7.11D-06    CP:  9.89D-01  1.60D+00  7.30D-01  9.43D-01  8.32D-01
                    CP:  8.22D-01  8.27D-01
 E= -768.317718604547     Delta-E=       -0.000004989245 Rises=F Damp=F
 DIIS: error= 2.14D-05 at cycle   8 NSaved=   8.
 NSaved= 8 IEnMin= 8 EnMin= -768.317718604547     IErMin= 8 ErrMin= 2.14D-05
 ErrMax= 2.14D-05  0.00D+00 EMaxC= 1.00D-01 BMatC= 4.33D-07 BMatP= 5.62D-06
 IDIUse=1 WtCom= 1.00D+00 WtEn= 0.00D+00
 Coeff-Com:  0.498D-03-0.117D-02-0.368D-02-0.461D-02 0.455D-02 0.376D-01
 Coeff-Com:  0.247D+00 0.720D+00
 Coeff:      0.498D-03-0.117D-02-0.368D-02-0.461D-02 0.455D-02 0.376D-01
 Coeff:      0.247D+00 0.720D+00
 Gap=     0.125 Goal=   None    Shift=    0.000
 RMSDP=4.27D-06 MaxDP=1.20D-04 DE=-4.99D-06 OVMax= 5.96D-04

 Cycle   9  Pass 1  IDiag  1:
 RMSU=  2.66D-06    CP:  9.89D-01  1.60D+00  7.31D-01  9.47D-01  8.38D-01
                    CP:  8.53D-01  8.95D-01  9.32D-01
 E= -768.317719014384     Delta-E=       -0.000000409837 Rises=F Damp=F
 DIIS: error= 1.12D-05 at cycle   9 NSaved=   9.
 NSaved= 9 IEnMin= 9 EnMin= -768.317719014384     IErMin= 9 ErrMin= 1.12D-05
 ErrMax= 1.12D-05  0.00D+00 EMaxC= 1.00D-01 BMatC= 9.70D-08 BMatP= 4.33D-07
 IDIUse=1 WtCom= 1.00D+00 WtEn= 0.00D+00
 Coeff-Com:  0.453D-03-0.656D-03-0.125D-02-0.485D-02-0.779D-02-0.298D-02
 Coeff-Com:  0.887D-01 0.412D+00 0.516D+00
 Coeff:      0.453D-03-0.656D-03-0.125D-02-0.485D-02-0.779D-02-0.298D-02
 Coeff:      0.887D-01 0.412D+00 0.516D+00
 Gap=     0.125 Goal=   None    Shift=    0.000
 RMSDP=1.40D-06 MaxDP=4.72D-05 DE=-4.10D-07 OVMax= 1.46D-04

 Cycle  10  Pass 1  IDiag  1:
 RMSU=  8.31D-07    CP:  9.89D-01  1.60D+00  7.31D-01  9.47D-01  8.40D-01
                    CP:  8.58D-01  9.22D-01  9.97D-01  7.67D-01
 E= -768.317719102599     Delta-E=       -0.000000088215 Rises=F Damp=F
 DIIS: error= 2.04D-06 at cycle  10 NSaved=  10.
 NSaved=10 IEnMin=10 EnMin= -768.317719102599     IErMin=10 ErrMin= 2.04D-06
 ErrMax= 2.04D-06  0.00D+00 EMaxC= 1.00D-01 BMatC= 3.94D-09 BMatP= 9.70D-08
 IDIUse=1 WtCom= 1.00D+00 WtEn= 0.00D+00
 Coeff-Com:  0.165D-03-0.193D-03-0.133D-03-0.160D-02-0.395D-02-0.554D-02
 Coeff-Com:  0.886D-02 0.800D-01 0.197D+00 0.725D+00
 Coeff:      0.165D-03-0.193D-03-0.133D-03-0.160D-02-0.395D-02-0.554D-02
 Coeff:      0.886D-02 0.800D-01 0.197D+00 0.725D+00
 Gap=     0.125 Goal=   None    Shift=    0.000
 RMSDP=4.95D-07 MaxDP=1.33D-05 DE=-8.82D-08 OVMax= 8.00D-05

 Cycle  11  Pass 1  IDiag  1:
 RMSU=  2.86D-07    CP:  9.89D-01  1.60D+00  7.31D-01  9.47D-01  8.41D-01
                    CP:  8.60D-01  9.30D-01  1.02D+00  8.34D-01  9.96D-01
 E= -768.317719107360     Delta-E=       -0.000000004761 Rises=F Damp=F
 DIIS: error= 1.11D-06 at cycle  11 NSaved=  11.
 NSaved=11 IEnMin=11 EnMin= -768.317719107360     IErMin=11 ErrMin= 1.11D-06
 ErrMax= 1.11D-06  0.00D+00 EMaxC= 1.00D-01 BMatC= 1.02D-09 BMatP= 3.94D-09
 IDIUse=1 WtCom= 1.00D+00 WtEn= 0.00D+00
 Coeff-Com:  0.459D-04-0.486D-04 0.430D-04-0.310D-03-0.117D-02-0.222D-02
 Coeff-Com: -0.468D-02-0.313D-02 0.494D-01 0.393D+00 0.569D+00
 Coeff:      0.459D-04-0.486D-04 0.430D-04-0.310D-03-0.117D-02-0.222D-02
 Coeff:     -0.468D-02-0.313D-02 0.494D-01 0.393D+00 0.569D+00
 Gap=     0.125 Goal=   None    Shift=    0.000
 RMSDP=1.80D-07 MaxDP=5.63D-06 DE=-4.76D-09 OVMax= 2.25D-05

 Cycle  12  Pass 1  IDiag  1:
 RMSU=  1.09D-07    CP:  9.89D-01  1.60D+00  7.31D-01  9.47D-01  8.41D-01
                    CP:  8.60D-01  9.32D-01  1.03D+00  8.49D-01  1.05D+00
                    CP:  7.63D-01
 E= -768.317719108380     Delta-E=       -0.000000001020 Rises=F Damp=F
 DIIS: error= 2.69D-07 at cycle  12 NSaved=  12.
 NSaved=12 IEnMin=12 EnMin= -768.317719108380     IErMin=12 ErrMin= 2.69D-07
 ErrMax= 2.69D-07  0.00D+00 EMaxC= 1.00D-01 BMatC= 7.18D-11 BMatP= 1.02D-09
 IDIUse=1 WtCom= 1.00D+00 WtEn= 0.00D+00
 Coeff-Com: -0.426D-05 0.962D-05 0.404D-04 0.740D-04-0.330D-04-0.222D-03
 Coeff-Com: -0.348D-02-0.120D-01-0.258D-02 0.765D-01 0.247D+00 0.694D+00
 Coeff:     -0.426D-05 0.962D-05 0.404D-04 0.740D-04-0.330D-04-0.222D-03
 Coeff:     -0.348D-02-0.120D-01-0.258D-02 0.765D-01 0.247D+00 0.694D+00
 Gap=     0.125 Goal=   None    Shift=    0.000
 RMSDP=6.18D-08 MaxDP=1.83D-06 DE=-1.02D-09 OVMax= 9.02D-06

 Cycle  13  Pass 1  IDiag  1:
 RMSU=  2.92D-08    CP:  9.89D-01  1.60D+00  7.31D-01  9.47D-01  8.41D-01
                    CP:  8.61D-01  9.33D-01  1.03D+00  8.60D-01  1.08D+00
                    CP:  8.43D-01  9.24D-01
 E= -768.317719108472     Delta-E=       -0.000000000092 Rises=F Damp=F
 DIIS: error= 8.66D-08 at cycle  13 NSaved=  13.
 NSaved=13 IEnMin=13 EnMin= -768.317719108472     IErMin=13 ErrMin= 8.66D-08
 ErrMax= 8.66D-08  0.00D+00 EMaxC= 1.00D-01 BMatC= 9.26D-12 BMatP= 7.18D-11
 IDIUse=1 WtCom= 1.00D+00 WtEn= 0.00D+00
 Coeff-Com: -0.359D-05 0.506D-05 0.121D-04 0.553D-04 0.790D-04 0.114D-03
 Coeff-Com: -0.125D-02-0.528D-02-0.516D-02 0.302D-02 0.711D-01 0.338D+00
 Coeff-Com:  0.600D+00
 Coeff:     -0.359D-05 0.506D-05 0.121D-04 0.553D-04 0.790D-04 0.114D-03
 Coeff:     -0.125D-02-0.528D-02-0.516D-02 0.302D-02 0.711D-01 0.338D+00
 Coeff:      0.600D+00
 Gap=     0.125 Goal=   None    Shift=    0.000
 RMSDP=1.76D-08 MaxDP=5.79D-07 DE=-9.21D-11 OVMax= 1.89D-06

 Cycle  14  Pass 1  IDiag  1:
 RMSU=  1.23D-08    CP:  9.89D-01  1.60D+00  7.31D-01  9.47D-01  8.41D-01
                    CP:  8.61D-01  9.33D-01  1.03D+00  8.60D-01  1.08D+00
                    CP:  8.61D-01  9.89D-01  8.76D-01
 E= -768.317719108485     Delta-E=       -0.000000000013 Rises=F Damp=F
 DIIS: error= 3.37D-08 at cycle  14 NSaved=  14.
 NSaved=14 IEnMin=14 EnMin= -768.317719108485     IErMin=14 ErrMin= 3.37D-08
 ErrMax= 3.37D-08  0.00D+00 EMaxC= 1.00D-01 BMatC= 1.12D-12 BMatP= 9.26D-12
 IDIUse=1 WtCom= 1.00D+00 WtEn= 0.00D+00
 Coeff-Com: -0.174D-05 0.207D-05 0.513D-06 0.157D-04 0.380D-04 0.825D-04
 Coeff-Com: -0.930D-04-0.651D-03-0.195D-02-0.967D-02-0.597D-02 0.409D-01
 Coeff-Com:  0.282D+00 0.696D+00
 Coeff:     -0.174D-05 0.207D-05 0.513D-06 0.157D-04 0.380D-04 0.825D-04
 Coeff:     -0.930D-04-0.651D-03-0.195D-02-0.967D-02-0.597D-02 0.409D-01
 Coeff:      0.282D+00 0.696D+00
 Gap=     0.125 Goal=   None    Shift=    0.000
 RMSDP=6.56D-09 MaxDP=1.95D-07 DE=-1.34D-11 OVMax= 6.71D-07

 Error on total polarization charges =  0.01192
 SCF Done:  E(RB3LYP) =  -768.317719108     A.U. after   14 cycles
            NFock= 14  Conv=0.66D-08     -V/T= 2.0091
 KE= 7.613832920353D+02 PE=-4.134514338534D+03 EE= 1.425096007401D+03
 Leave Link  502 at Sat May 25 18:31:19 2019, MaxMem=   402653184 cpu:             607.0 elap:              77.1
 (Enter /n/sw/g16_nehalem/g16/l801.exe)
 DoSCS=F DFT=T ScalE2(SS,OS)=  1.000000  1.000000
 Range of M.O.s used for correlation:     1   263
 NBasis=   263 NAE=    59 NBE=    59 NFC=     0 NFV=     0
 NROrb=    263 NOA=    59 NOB=    59 NVA=   204 NVB=   204
 Leave Link  801 at Sat May 25 18:31:20 2019, MaxMem=   402653184 cpu:               0.4 elap:               0.1
 (Enter /n/sw/g16_nehalem/g16/l1101.exe)
 Using compressed storage, NAtomX=    34.
 Will process     35 centers per pass.
 Leave Link 1101 at Sat May 25 18:31:20 2019, MaxMem=   402653184 cpu:               4.5 elap:               0.7
 (Enter /n/sw/g16_nehalem/g16/l1102.exe)
 Symmetrizing basis deriv contribution to polar:
 IMax=3 JMax=2 DiffMx= 0.00D+00
 Leave Link 1102 at Sat May 25 18:31:20 2019, MaxMem=   402653184 cpu:               1.1 elap:               0.2
 (Enter /n/sw/g16_nehalem/g16/l1110.exe)
 Forming Gx(P) for the SCF density, NAtomX=    34.
 Integral derivatives from FoFJK, PRISM(SPDF).
 Do as many integral derivatives as possible in FoFJK.
 G2DrvN: MDV=     402650600.
 G2DrvN: will do    35 centers at a time, making    1 passes.
 Calling FoFCou, ICntrl=  3107 FMM=F I1Cent=   0 AccDes= 0.00D+00.
 FoFJK:  IHMeth= 1 ICntrl=    3107 DoSepK=F KAlg= 0 I1Cent=           0 FoldK=F
 IRaf=         0 NMat=       1 IRICut=       1 DoRegI=T DoRafI=F ISym2E= 0 IDoP0=0 IntGTp=1.
 FoFCou: FMM=F IPFlag=           0 FMFlag=      100000 FMFlg1=           0
         NFxFlg=           0 DoJE=F BraDBF=F KetDBF=F FulRan=T
         wScrn=  0.000000 ICntrl=      3107 IOpCl=  0 I1Cent=           0 NGrid=           0
         NMat0=    1 NMatS0=      1 NMatT0=    0 NMatD0=    1 NMtDS0=    0 NMtDT0=    0
 Symmetry not used in FoFCou.
 NEqPCM:  Using equilibrium solvation (IEInf=0, Eps=   7.4257, EpsInf=   1.9740)
 G2PCM: DoFxE=T DoFxN=T DoGrad=T DoDP/DQ/DG/TGxP=FFFF NFrqRd=   0 IEInf=0 SqF1=F DoCFld=F IF1Alg=4.
 GePol: Maximum number of non-zero 1st derivatives   =     224
 End of G2Drv F.D. properties file   721 does not exist.
 End of G2Drv F.D. properties file   722 does not exist.
 End of G2Drv F.D. properties file   788 does not exist.
 Leave Link 1110 at Sat May 25 18:34:46 2019, MaxMem=   402653184 cpu:            1619.9 elap:             205.6
 (Enter /n/sw/g16_nehalem/g16/l1002.exe)
 Minotr:  Closed shell wavefunction.
          IDoAtm=1111111111111111111111111111111111
 NEqPCM:  Using equilibrium solvation (IEInf=0, Eps=   7.4257, EpsInf=   1.9740)
          Direct CPHF calculation.
          Differentiating once with respect to nuclear coordinates.
          Requested convergence is 1.0D-08 RMS, and 1.0D-07 maximum.
          Secondary convergence is 1.0D-12 RMS, and 1.0D-12 maximum.
          NewPWx=T KeepS1=F KeepF1=F KeepIn=T MapXYZ=F SortEE=F KeepMc=T.
        10182 words used for storage of precomputed grid.
 Two-electron integrals replicated using symmetry.
          MDV=     402653184 using IRadAn=       1.
          Solving linear equations simultaneously, MaxMat=     384.
 FoF2E skips out because all densities are zero.
 CalDSu exits because no D1Ps are significant.
 FoFJK:  IHMeth= 1 ICntrl=       0 DoSepK=F KAlg= 0 I1Cent=           0 FoldK=F
 IRaf= 870000000 NMat=     102 IRICut=     255 DoRegI=T DoRafI=T ISym2E= 2 IDoP0=0 IntGTp=1.
          There are   105 degrees of freedom in the 1st order CPHF.  IDoFFX=6 NUNeed=     0.
     99 vectors produced by pass  0 Test12= 1.20D-14 1.00D-09 XBig12= 1.39D-01 1.28D-01.
 AX will form    99 AO Fock derivatives at one time.
     99 vectors produced by pass  1 Test12= 1.20D-14 1.00D-09 XBig12= 2.84D-02 2.39D-02.
     99 vectors produced by pass  2 Test12= 1.20D-14 1.00D-09 XBig12= 3.62D-04 3.78D-03.
     99 vectors produced by pass  3 Test12= 1.20D-14 1.00D-09 XBig12= 1.10D-06 1.05D-04.
     99 vectors produced by pass  4 Test12= 1.20D-14 1.00D-09 XBig12= 1.16D-09 3.21D-06.
     68 vectors produced by pass  5 Test12= 1.20D-14 1.00D-09 XBig12= 8.82D-13 7.41D-08.
      4 vectors produced by pass  6 Test12= 1.20D-14 1.00D-09 XBig12= 6.49D-16 2.32D-09.
 InvSVY:  IOpt=1 It=  1 EMax= 5.55D-16
 Solved reduced A of dimension   567 with   105 vectors.
 End of Minotr F.D. properties file   721 does not exist.
 End of Minotr F.D. properties file   722 does not exist.
 End of Minotr F.D. properties file   788 does not exist.
 Leave Link 1002 at Sat May 25 18:38:24 2019, MaxMem=   402653184 cpu:            1741.1 elap:             218.0
 (Enter /n/sw/g16_nehalem/g16/l601.exe)
 Copying SCF densities to generalized density rwf, IOpCl= 0 IROHF=0.

 **********************************************************************

            Population analysis using the SCF density.

 **********************************************************************

 Orbital symmetries:
       Occupied  (A) (A) (A) (A) (A) (A) (A) (A) (A) (A) (A) (A)
                 (A) (A) (A) (A) (A) (A) (A) (A) (A) (A) (A) (A)
                 (A) (A) (A) (A) (A) (A) (A) (A) (A) (A) (A) (A)
                 (A) (A) (A) (A) (A) (A) (A) (A) (A) (A) (A) (A)
                 (A) (A) (A) (A) (A) (A) (A) (A) (A) (A) (A)
       Virtual   (A) (A) (A) (A) (A) (A) (A) (A) (A) (A) (A) (A)
                 (A) (A) (A) (A) (A) (A) (A) (A) (A) (A) (A) (A)
                 (A) (A) (A) (A) (A) (A) (A) (A) (A) (A) (A) (A)
                 (A) (A) (A) (A) (A) (A) (A) (A) (A) (A) (A) (A)
                 (A) (A) (A) (A) (A) (A) (A) (A) (A) (A) (A) (A)
                 (A) (A) (A) (A) (A) (A) (A) (A) (A) (A) (A) (A)
                 (A) (A) (A) (A) (A) (A) (A) (A) (A) (A) (A) (A)
                 (A) (A) (A) (A) (A) (A) (A) (A) (A) (A) (A) (A)
                 (A) (A) (A) (A) (A) (A) (A) (A) (A) (A) (A) (A)
                 (A) (A) (A) (A) (A) (A) (A) (A) (A) (A) (A) (A)
                 (A) (A) (A) (A) (A) (A) (A) (A) (A) (A) (A) (A)
                 (A) (A) (A) (A) (A) (A) (A) (A) (A) (A) (A) (A)
                 (A) (A) (A) (A) (A) (A) (A) (A) (A) (A) (A) (A)
                 (A) (A) (A) (A) (A) (A) (A) (A) (A) (A) (A) (A)
                 (A) (A) (A) (A) (A) (A) (A) (A) (A) (A) (A) (A)
                 (A) (A) (A) (A) (A) (A) (A) (A) (A) (A) (A) (A)
                 (A) (A) (A) (A) (A) (A) (A) (A) (A) (A) (A) (A)
 The electronic state is 1-A.
 Alpha  occ. eigenvalues --  -19.33081 -19.22182 -19.19827 -19.18993 -19.18332
 Alpha  occ. eigenvalues --  -10.39671 -10.31591 -10.31505 -10.29544 -10.29202
 Alpha  occ. eigenvalues --  -10.27469 -10.26633 -10.25487 -10.24884 -10.24473
 Alpha  occ. eigenvalues --   -1.21779  -1.10092  -1.08037  -1.06918  -1.06222
 Alpha  occ. eigenvalues --   -0.86639  -0.85386  -0.76715  -0.75123  -0.73988
 Alpha  occ. eigenvalues --   -0.71534  -0.69070  -0.67887  -0.65956  -0.60932
 Alpha  occ. eigenvalues --   -0.60626  -0.58552  -0.57138  -0.54334  -0.53611
 Alpha  occ. eigenvalues --   -0.51991  -0.51340  -0.50985  -0.49704  -0.49529
 Alpha  occ. eigenvalues --   -0.48466  -0.47709  -0.46843  -0.46035  -0.45729
 Alpha  occ. eigenvalues --   -0.44070  -0.43418  -0.42542  -0.40928  -0.40333
 Alpha  occ. eigenvalues --   -0.39871  -0.37450  -0.36860  -0.34729  -0.34259
 Alpha  occ. eigenvalues --   -0.32859  -0.30985  -0.29409  -0.28142
 Alpha virt. eigenvalues --   -0.15595  -0.00212   0.04096   0.04933   0.05857
 Alpha virt. eigenvalues --    0.07602   0.08479   0.08780   0.10143   0.10855
 Alpha virt. eigenvalues --    0.10941   0.11556   0.11958   0.12582   0.13277
 Alpha virt. eigenvalues --    0.13770   0.13990   0.14550   0.14858   0.15221
 Alpha virt. eigenvalues --    0.15574   0.15993   0.16388   0.16996   0.17956
 Alpha virt. eigenvalues --    0.18000   0.20099   0.20450   0.21639   0.23133
 Alpha virt. eigenvalues --    0.24633   0.25456   0.26781   0.27833   0.29773
 Alpha virt. eigenvalues --    0.44759   0.45286   0.45852   0.47188   0.48017
 Alpha virt. eigenvalues --    0.49047   0.49602   0.50111   0.50798   0.51791
 Alpha virt. eigenvalues --    0.52539   0.52594   0.53584   0.54113   0.55046
 Alpha virt. eigenvalues --    0.56609   0.57536   0.58271   0.59278   0.60667
 Alpha virt. eigenvalues --    0.62561   0.64095   0.66521   0.69094   0.70615
 Alpha virt. eigenvalues --    0.71476   0.73327   0.75845   0.77078   0.79039
 Alpha virt. eigenvalues --    0.80221   0.80906   0.81324   0.81889   0.82524
 Alpha virt. eigenvalues --    0.82945   0.83583   0.84348   0.84853   0.85253
 Alpha virt. eigenvalues --    0.86176   0.87312   0.88499   0.89076   0.90618
 Alpha virt. eigenvalues --    0.91440   0.91909   0.92875   0.93108   0.95848
 Alpha virt. eigenvalues --    0.96319   0.97497   0.99389   1.00406   1.01181
 Alpha virt. eigenvalues --    1.03322   1.03985   1.07988   1.11975   1.12770
 Alpha virt. eigenvalues --    1.13406   1.15211   1.16194   1.19333   1.20294
 Alpha virt. eigenvalues --    1.22342   1.26601   1.28243   1.31497   1.31711
 Alpha virt. eigenvalues --    1.35107   1.37695   1.39579   1.40059   1.42076
 Alpha virt. eigenvalues --    1.43914   1.45560   1.46504   1.48554   1.50110
 Alpha virt. eigenvalues --    1.52367   1.54254   1.55998   1.58368   1.60470
 Alpha virt. eigenvalues --    1.61629   1.62410   1.65216   1.68085   1.68919
 Alpha virt. eigenvalues --    1.72082   1.75949   1.77106   1.80237   1.83337
 Alpha virt. eigenvalues --    1.83963   1.84964   1.88027   1.89447   1.91071
 Alpha virt. eigenvalues --    1.91268   1.93081   1.95604   1.97408   1.98921
 Alpha virt. eigenvalues --    2.01328   2.02261   2.03107   2.04522   2.05545
 Alpha virt. eigenvalues --    2.06371   2.07334   2.08711   2.09811   2.11241
 Alpha virt. eigenvalues --    2.12240   2.12841   2.14202   2.16425   2.17628
 Alpha virt. eigenvalues --    2.19928   2.21728   2.24125   2.24778   2.25494
 Alpha virt. eigenvalues --    2.28778   2.30596   2.32965   2.33441   2.34698
 Alpha virt. eigenvalues --    2.37815   2.38530   2.43295   2.44478   2.48303
 Alpha virt. eigenvalues --    2.49003   2.52352   2.54079   2.55701   2.57597
 Alpha virt. eigenvalues --    2.64694   2.65903   2.70660   2.72711   2.74321
 Alpha virt. eigenvalues --    2.78304   2.79659   2.83702   2.88227   2.90985
 Alpha virt. eigenvalues --    2.94659   2.95003   3.00946   3.05428   3.84759
 Alpha virt. eigenvalues --    3.87878   3.93619   4.02964   4.10813   4.19884
 Alpha virt. eigenvalues --    4.21820   4.23018   4.24993   4.28468   4.30126
 Alpha virt. eigenvalues --    4.31760   4.54520   4.55124   4.69350
          Condensed to atoms (all electrons):
               1          2          3          4          5          6
     1  C    5.068813   0.335405  -0.052808  -0.039163   0.267963   0.003320
     2  C    0.335405   5.024278   0.272707  -0.012474  -0.022662  -0.036277
     3  C   -0.052808   0.272707   4.809470  -0.033178  -0.024647   0.361203
     4  C   -0.039163  -0.012474  -0.033178   5.268278   0.256691   0.003001
     5  C    0.267963  -0.022662  -0.024647   0.256691   4.983167  -0.000095
     6  H    0.003320  -0.036277   0.361203   0.003001  -0.000095   0.426998
     7  H   -0.027093   0.359099  -0.043199   0.000587   0.004377  -0.000723
     8  H    0.370546  -0.037895   0.006954   0.004602  -0.052005  -0.000088
     9  H   -0.002661   0.000868  -0.002380   0.366921  -0.040028  -0.000127
    10  H   -0.046432   0.003438   0.001820  -0.056828   0.388133   0.000028
    11  O   -0.004940  -0.028685   0.401053   0.089736  -0.010812  -0.038877
    12  O   -0.040736   0.184478  -0.031892   0.002367   0.002250   0.002099
    13  O    0.170711  -0.057864   0.024499   0.003648  -0.039488  -0.000293
    14  O   -0.026100   0.001461   0.000157  -0.029289   0.233580   0.000002
    15  C    0.001370   0.000146   0.000979   0.297805  -0.029768  -0.000069
    16  H   -0.000039  -0.000018  -0.000110  -0.051590   0.005219   0.000014
    17  H   -0.000049  -0.000014   0.000596  -0.046568  -0.007682  -0.000015
    18  O    0.000412  -0.000007  -0.000033  -0.054405   0.008270   0.000000
    19  C    0.004012  -0.034066  -0.000538  -0.000043  -0.000193   0.000204
    20  H   -0.000130   0.004902  -0.000231   0.000002   0.000015   0.000003
    21  H   -0.000248  -0.005187   0.002678  -0.000029  -0.000001  -0.000790
    22  H    0.000122  -0.007251  -0.000656   0.000020   0.000000   0.000076
    23  C   -0.033290   0.005235  -0.000455   0.000102  -0.004368   0.000015
    24  H    0.004790  -0.000217  -0.000022  -0.000001  -0.000042  -0.000002
    25  H   -0.005061   0.000046  -0.000060  -0.000046   0.005011  -0.000002
    26  H   -0.008053  -0.000119   0.000133   0.000007  -0.000973   0.000001
    27  C   -0.006373  -0.000693   0.000099  -0.006909  -0.042270   0.000000
    28  H    0.000024  -0.000015   0.000001  -0.000006   0.004740   0.000000
    29  H   -0.001065   0.000240   0.000025   0.002769  -0.003787  -0.000001
    30  H    0.006679  -0.002076   0.000100  -0.000591  -0.006138  -0.000001
    31  C   -0.000016   0.000001   0.000004  -0.001791  -0.002245   0.000000
    32  H    0.000000   0.000000   0.000000  -0.000165   0.000021   0.000000
    33  H    0.000004   0.000000   0.000000  -0.002316   0.000306   0.000000
    34  H   -0.000013   0.000005   0.000003   0.006814  -0.001129   0.000000
               7          8          9         10         11         12
     1  C   -0.027093   0.370546  -0.002661  -0.046432  -0.004940  -0.040736
     2  C    0.359099  -0.037895   0.000868   0.003438  -0.028685   0.184478
     3  C   -0.043199   0.006954  -0.002380   0.001820   0.401053  -0.031892
     4  C    0.000587   0.004602   0.366921  -0.056828   0.089736   0.002367
     5  C    0.004377  -0.052005  -0.040028   0.388133  -0.010812   0.002250
     6  H   -0.000723  -0.000088  -0.000127   0.000028  -0.038877   0.002099
     7  H    0.512275  -0.006037   0.000032  -0.000155   0.002259  -0.026481
     8  H   -0.006037   0.528541  -0.000052   0.000526  -0.000111   0.001493
     9  H    0.000032  -0.000052   0.479807   0.003719  -0.023832   0.005178
    10  H   -0.000155   0.000526   0.003719   0.520507   0.001235   0.000031
    11  O    0.002259  -0.000111  -0.023832   0.001235   7.941548  -0.005337
    12  O   -0.026481   0.001493   0.005178   0.000031  -0.005337   8.251102
    13  O    0.004430  -0.025242   0.000016  -0.000250  -0.003161   0.001450
    14  O   -0.000076   0.002813  -0.003351  -0.035640   0.000993  -0.000182
    15  C    0.000017  -0.000124  -0.030216  -0.002407  -0.026258   0.000247
    16  H    0.000000   0.000002  -0.005031   0.000458   0.002661  -0.000002
    17  H   -0.000001   0.000002   0.004150   0.002938   0.001287  -0.000002
    18  O    0.000000   0.000001   0.000281   0.004032   0.000985   0.000000
    19  C   -0.005186   0.000096  -0.000020   0.000002   0.000127   0.219725
    20  H    0.000053  -0.000013  -0.000018   0.000000  -0.000006  -0.029707
    21  H   -0.000695   0.000015  -0.000060   0.000000   0.000289  -0.032225
    22  H    0.008855  -0.000049   0.000018   0.000000  -0.000012  -0.032648
    23  C    0.000106  -0.004020  -0.000001   0.003029   0.000029  -0.000053
    24  H   -0.000033  -0.000006   0.000000  -0.000230   0.000004   0.000000
    25  H    0.000040  -0.001482   0.000000   0.003022   0.000001   0.000003
    26  H   -0.000126   0.009792   0.000000   0.000229  -0.000004  -0.000002
    27  C    0.000007   0.000032   0.004250   0.005328   0.000070  -0.001483
    28  H    0.000001  -0.000102  -0.000203  -0.000168   0.000001   0.000320
    29  H   -0.000001   0.000510   0.004788  -0.000227  -0.000273   0.000809
    30  H    0.000090   0.001998  -0.000199  -0.000131   0.000016   0.003640
    31  C    0.000000   0.000000   0.002400  -0.000094   0.000001   0.000000
    32  H    0.000000   0.000000  -0.000042  -0.000006   0.000000   0.000000
    33  H    0.000000   0.000000   0.000027   0.000024   0.000006   0.000000
    34  H    0.000000  -0.000001  -0.000380  -0.000135  -0.000041  -0.000003
              13         14         15         16         17         18
     1  C    0.170711  -0.026100   0.001370  -0.000039  -0.000049   0.000412
     2  C   -0.057864   0.001461   0.000146  -0.000018  -0.000014  -0.000007
     3  C    0.024499   0.000157   0.000979  -0.000110   0.000596  -0.000033
     4  C    0.003648  -0.029289   0.297805  -0.051590  -0.046568  -0.054405
     5  C   -0.039488   0.233580  -0.029768   0.005219  -0.007682   0.008270
     6  H   -0.000293   0.000002  -0.000069   0.000014  -0.000015   0.000000
     7  H    0.004430  -0.000076   0.000017   0.000000  -0.000001   0.000000
     8  H   -0.025242   0.002813  -0.000124   0.000002   0.000002   0.000001
     9  H    0.000016  -0.003351  -0.030216  -0.005031   0.004150   0.000281
    10  H   -0.000250  -0.035640  -0.002407   0.000458   0.002938   0.004032
    11  O   -0.003161   0.000993  -0.026258   0.002661   0.001287   0.000985
    12  O    0.001450  -0.000182   0.000247  -0.000002  -0.000002   0.000000
    13  O    8.284852   0.001394  -0.000300   0.000001   0.000157   0.000000
    14  O    0.001394   8.198200  -0.001080  -0.000183   0.000105  -0.000541
    15  C   -0.000300  -0.001080   4.878341   0.362852   0.382263   0.268767
    16  H    0.000001  -0.000183   0.362852   0.572688  -0.031404  -0.031131
    17  H    0.000157   0.000105   0.382263  -0.031404   0.534780  -0.034241
    18  O    0.000000  -0.000541   0.268767  -0.031131  -0.034241   8.160157
    19  C   -0.000047   0.000004  -0.000004   0.000000   0.000000   0.000000
    20  H    0.000001  -0.000001   0.000000   0.000000   0.000000   0.000000
    21  H    0.000004   0.000000   0.000000   0.000000   0.000000   0.000000
    22  H   -0.000008   0.000000   0.000000   0.000000   0.000000   0.000000
    23  C    0.235263   0.000015  -0.000006   0.000000  -0.000001   0.000000
    24  H   -0.030537   0.000002   0.000000   0.000000   0.000000   0.000000
    25  H   -0.036261  -0.000428   0.000026   0.000000  -0.000010  -0.000006
    26  H   -0.034930   0.000045  -0.000001   0.000000   0.000001   0.000000
    27  C    0.000073   0.236547   0.000193   0.000001   0.000002  -0.000020
    28  H    0.000001  -0.032544   0.000001   0.000000   0.000000  -0.000003
    29  H   -0.000001  -0.037068   0.000103   0.000023  -0.000003  -0.000003
    30  H   -0.000038  -0.034663  -0.000026  -0.000001   0.000000  -0.000004
    31  C    0.000000   0.000141  -0.048134  -0.008155   0.005891   0.243346
    32  H    0.000000  -0.000035   0.005062  -0.000024  -0.000180  -0.031628
    33  H    0.000000   0.000064  -0.007693   0.012411   0.000064  -0.034978
    34  H    0.000000   0.004981  -0.005093  -0.001513  -0.000341  -0.038594
              19         20         21         22         23         24
     1  C    0.004012  -0.000130  -0.000248   0.000122  -0.033290   0.004790
     2  C   -0.034066   0.004902  -0.005187  -0.007251   0.005235  -0.000217
     3  C   -0.000538  -0.000231   0.002678  -0.000656  -0.000455  -0.000022
     4  C   -0.000043   0.000002  -0.000029   0.000020   0.000102  -0.000001
     5  C   -0.000193   0.000015  -0.000001   0.000000  -0.004368  -0.000042
     6  H    0.000204   0.000003  -0.000790   0.000076   0.000015  -0.000002
     7  H   -0.005186   0.000053  -0.000695   0.008855   0.000106  -0.000033
     8  H    0.000096  -0.000013   0.000015  -0.000049  -0.004020  -0.000006
     9  H   -0.000020  -0.000018  -0.000060   0.000018  -0.000001   0.000000
    10  H    0.000002   0.000000   0.000000   0.000000   0.003029  -0.000230
    11  O    0.000127  -0.000006   0.000289  -0.000012   0.000029   0.000004
    12  O    0.219725  -0.029707  -0.032225  -0.032648  -0.000053   0.000000
    13  O   -0.000047   0.000001   0.000004  -0.000008   0.235263  -0.030537
    14  O    0.000004  -0.000001   0.000000   0.000000   0.000015   0.000002
    15  C   -0.000004   0.000000   0.000000   0.000000  -0.000006   0.000000
    16  H    0.000000   0.000000   0.000000   0.000000   0.000000   0.000000
    17  H    0.000000   0.000000   0.000000   0.000000  -0.000001   0.000000
    18  O    0.000000   0.000000   0.000000   0.000000   0.000000   0.000000
    19  C    4.916054   0.385501   0.372081   0.372499   0.000002   0.000000
    20  H    0.385501   0.494352  -0.028915  -0.026060   0.000000   0.000000
    21  H    0.372081  -0.028915   0.555621  -0.039453   0.000000   0.000000
    22  H    0.372499  -0.026060  -0.039453   0.541644   0.000000   0.000000
    23  C    0.000002   0.000000   0.000000   0.000000   4.898755   0.385897
    24  H    0.000000   0.000000   0.000000   0.000000   0.385897   0.510468
    25  H    0.000000   0.000000   0.000000   0.000000   0.365668  -0.030030
    26  H    0.000000   0.000000   0.000000   0.000000   0.372628  -0.027982
    27  C    0.000103   0.000037   0.000006   0.000023   0.000003   0.000000
    28  H   -0.000013  -0.000007   0.000000   0.000000   0.000000   0.000000
    29  H    0.000029   0.000113  -0.000002   0.000007  -0.000001   0.000000
    30  H    0.000033   0.000008   0.000021  -0.000069   0.000000   0.000000
    31  C    0.000000   0.000000   0.000000   0.000000   0.000000   0.000000
    32  H    0.000000   0.000000   0.000000   0.000000   0.000000   0.000000
    33  H    0.000000   0.000000   0.000000   0.000000   0.000000   0.000000
    34  H    0.000000   0.000000   0.000000   0.000000   0.000000   0.000000
              25         26         27         28         29         30
     1  C   -0.005061  -0.008053  -0.006373   0.000024  -0.001065   0.006679
     2  C    0.000046  -0.000119  -0.000693  -0.000015   0.000240  -0.002076
     3  C   -0.000060   0.000133   0.000099   0.000001   0.000025   0.000100
     4  C   -0.000046   0.000007  -0.006909  -0.000006   0.002769  -0.000591
     5  C    0.005011  -0.000973  -0.042270   0.004740  -0.003787  -0.006138
     6  H   -0.000002   0.000001   0.000000   0.000000  -0.000001  -0.000001
     7  H    0.000040  -0.000126   0.000007   0.000001  -0.000001   0.000090
     8  H   -0.001482   0.009792   0.000032  -0.000102   0.000510   0.001998
     9  H    0.000000   0.000000   0.004250  -0.000203   0.004788  -0.000199
[...]
 025534,-0.00000656,-0.00003364,0.00030929,-0.00007551,-0.00004249,0.00
 000481,0.00002456,0.00005709,-0.00006366,-0.00000344,0.00007861,-0.000
 05044,-0.00000501,0.00004289,0.00015066,0.00009023,-0.00001797,-0.0000
 2127,0.00000490,-0.00000394,0.00003173,-0.00000543,-0.00000732,-0.0000
 0902,-0.00002425,-0.02947624,-0.20023127,-0.12171525,0.00052082,0.0056
 9215,0.00153175,0.02351287,0.22989549,-0.00013276,0.00011646,-0.000620
 26,0.00007583,0.00015719,-0.00031405,0.00064035,-0.00002422,0.00004112
 ,-0.00014305,-0.00009708,-0.00139801,0.00081684,0.00095828,0.00287696,
 -0.00004037,0.00001891,0.00002147,-0.00000156,0.00007701,-0.00002877,-
 0.00002034,-0.00005417,0.00008790,-0.00066036,0.00065232,-0.00166714,0
 .00001430,-0.00008848,-0.00020775,-0.00084427,-0.00015807,0.00128332,0
 .00099229,-0.00001991,-0.00051812,0.00008855,-0.00002580,0.00007650,0.
 00110923,0.01727644,0.01323291,-0.00002520,0.00010938,0.00009044,0.000
 01752,-0.00000706,0.00002568,-0.00002860,0.00004158,0.00001181,0.00015
 065,0.00012591,-0.00008531,0.00006703,0.00000205,-0.00001101,-0.000042
 88,0.00002007,0.00002153,0.00001130,-0.00000223,0.00000517,0.00001707,
 -0.00001385,-0.00000776,0.00002676,0.00000728,0.00001009,-0.00000158,-
 0.00000360,0.00000615,-0.00001201,-0.00000221,-0.00000670,0.00000331,0
 .00001381,-0.00000106,-0.02315387,-0.12544782,-0.15695059,-0.00559183,
 -0.02048767,-0.01480872,0.02655823,0.13215926,0.16242754,0.00000245,-0
 .00035511,-0.00134587,0.00007566,0.00038463,-0.00008236,-0.00029024,-0
 .00014040,-0.00018341,-0.00005237,0.00018556,0.00018034,-0.00032961,-0
 .00109474,0.00366841,0.00002293,0.00008368,0.00003094,0.00000955,-0.00
 001263,-0.00003524,0.00019312,-0.00073724,0.00031869,0.00003420,-0.000
 00235,0.00010160,0.00013432,0.00017220,-0.00020413,0.00032647,0.000018
 27,-0.00024170,-0.00128653,0.00023121,0.00197305,0.00067854,0.00015460
 ,0.00015593,-0.00818599,0.01121807,-0.00860182,0.00001355,-0.00001958,
 0.00020301,-0.00003564,-0.00002461,-0.00003138,-0.00000913,0.00000877,
 -0.00000081,-0.00019699,-0.00000935,-0.00023512,0.00000989,-0.00010720
 ,0.00025201,0.00003153,-0.00001756,-0.00004740,-0.00006939,0.00007748,
 -0.00000434,0.00000081,0.00000669,0.00001395,-0.00003976,-0.00004873,-
 0.00004022,0.00001212,0.00001377,0.00000976,0.00000602,-0.00002473,-0.
 00000031,0.00002042,0.00002774,0.00000519,-0.29736004,-0.03388676,-0.0
 5731551,-0.01433678,-0.00349442,-0.00409499,-0.00310920,-0.00147591,0.
 00043454,0.32357798,-0.00015474,0.00043395,0.00069293,-0.00033176,0.00
 004073,-0.00008761,-0.00003722,-0.00012524,-0.00024348,-0.00028359,-0.
 00087108,-0.00009724,0.00209162,0.00308045,-0.00328422,-0.00001836,0.0
 0004034,-0.00000039,-0.00008313,0.00007147,0.00009458,-0.00124129,-0.0
 0124288,0.00017018,-0.00010984,0.00002821,0.00016496,-0.00013796,-0.00
 008126,-0.00009392,0.00005989,0.00027881,0.00048116,-0.00025292,0.0000
 6253,0.00047492,0.00013192,-0.00014290,-0.00027277,0.03648735,-0.00773
 690,0.01444366,-0.00001943,0.00009001,-0.00018864,0.00002974,0.0000132
 1,0.00004525,-0.00001735,0.00001997,-0.00001238,0.00038881,0.00020392,
 0.00014539,0.00020926,-0.00023645,0.00002178,0.00001153,-0.00000356,-0
 .00003563,-0.00007456,0.00005869,0.00001781,-0.00003829,0.00001598,-0.
 00000052,0.00005861,0.00002019,0.00008620,-0.00000725,-0.00001116,-0.0
 0000513,-0.00001343,-0.00000698,-0.00000613,-0.00003181,-0.00000483,-0
 .00001570,-0.03765684,-0.05671855,-0.00748455,-0.00296881,0.00057482,-
 0.00197997,-0.02456267,-0.00078365,-0.00539303,0.02874279,0.06329833,0
 .00031616,0.00000984,-0.00049576,0.00041308,0.00045852,-0.00062294,-0.
 00061327,0.00002191,-0.00042501,-0.00010563,0.00016149,-0.00001340,-0.
 00307791,-0.00185138,0.00246886,0.00006793,0.00012084,0.00005669,0.000
 01070,-0.00012993,0.00001578,0.00013587,0.00040530,-0.00015173,-0.0000
 7936,-0.00006419,0.00019626,0.00015598,0.00006255,-0.00002269,0.000656
 95,-0.00005408,-0.00022929,0.00005587,0.00015461,0.00037607,-0.0001072
 8,-0.00041882,0.00023736,-0.01568973,0.00858784,-0.00583931,-0.0000320
 1,0.00004630,0.00016415,-0.00000332,-0.00002933,-0.00001972,-0.0000270
 0,0.00001758,-0.00001191,-0.00011701,0.00000213,-0.00020218,0.00045385
 ,-0.00056978,0.00005182,0.00001294,0.00003007,-0.00003437,-0.00016165,
 0.00014422,0.00003391,-0.00009816,0.00001876,-0.00001762,-0.00008061,0
 .00019916,0.00012983,0.00000497,-0.00003838,-0.00001935,0.00003564,-0.
 00002485,-0.00002202,0.00000409,-0.00001452,-0.00002088,-0.05326559,-0
 .00826214,-0.06619106,0.02619542,0.00309989,0.00904213,-0.02032411,-0.
 00443383,-0.00371256,0.06512664,0.00229454,0.06527377,-0.00046726,-0.0
 0031802,0.00033042,-0.00011264,0.00006881,-0.00019126,-0.00062571,0.00
 005530,-0.00060306,-0.00218149,-0.00167147,0.00171160,-0.00070314,-0.0
 0090101,-0.00030140,0.00019257,0.00008405,0.00006568,0.00007274,-0.000
 05495,0.00000830,0.00015540,0.00005887,0.00000648,0.00002050,-0.000046
 24,-0.00003428,-0.00027445,-0.00010389,-0.00004763,0.00249372,-0.00001
 301,-0.00016347,0.00034982,-0.00036225,0.00019251,0.00021941,0.0005128
 3,-0.00001755,0.00071115,-0.00030311,0.00049450,-0.02719690,-0.0263357
 0,0.01717118,0.00359000,0.00016481,-0.00293525,-0.00095988,0.00111379,
 0.00037312,-0.09517471,-0.03139138,0.03152719,-0.00028890,0.00032570,0
 .00005718,0.00002256,-0.00003914,0.00000491,0.00004635,-0.00002351,-0.
 00004699,0.00007259,-0.00002588,-0.00000794,-0.00002238,-0.00028103,-0
 .00017323,0.00001196,0.00004655,0.,-0.00000468,-0.00001127,0.00001367,
 0.00002224,0.00002467,0.00005239,-0.00020152,0.00066373,-0.00057139,-0
 .00001681,-0.00007574,0.00005337,0.00000987,0.00001546,0.00003913,0.00
 020086,-0.00010124,0.00013511,0.57636454,-0.00054757,-0.00028028,0.000
 56469,-0.00013172,0.00006242,-0.00035552,-0.00118810,0.00000483,-0.001
 24987,-0.00290578,0.00363688,-0.00288599,-0.00001523,-0.00010237,-0.00
 231042,0.00034958,0.00027701,0.00011964,0.00007884,-0.00006334,0.00007
 666,0.00026550,0.00010389,0.00005105,-0.00018514,-0.00006371,-0.000158
 02,-0.00048771,-0.00040641,-0.00015383,0.00590111,-0.00134003,-0.00016
 459,0.00037057,-0.00045269,0.00043419,0.00016762,0.00042903,0.00011663
 ,-0.00109080,-0.00171866,0.00129764,-0.00497315,0.00272962,0.00443591,
 0.00555998,0.00107998,-0.00407639,0.00255376,0.00183074,-0.00290870,-0
 .05904959,-0.18755084,0.04792208,-0.00035415,0.00038431,0.00008167,0.0
 0004686,-0.00005951,0.00000527,0.00004712,-0.00001577,-0.00006210,0.00
 008058,-0.00003790,-0.00001381,-0.00004552,-0.00027754,-0.00016564,0.0
 0000451,0.00004028,-0.00000245,-0.00000343,-0.00000782,0.00000354,0.00
 003246,0.00002442,0.00005832,0.00037254,0.00071884,0.00013542,0.000067
 49,-0.00002064,0.00025339,0.00031280,-0.00032812,-0.00014441,0.0000160
 3,-0.00033138,0.00001064,-0.06210843,0.49984222,0.00017453,0.00024418,
 -0.00017539,-0.00007074,-0.00002327,0.00007521,0.00027572,0.00000770,0
 .00045476,0.00119847,-0.00234787,0.00208643,-0.00050509,-0.00093301,0.
 00095905,-0.00013078,-0.00014073,-0.00002570,-0.00001908,0.00002841,-0
 .00001086,-0.00011006,-0.00003021,-0.00001940,-0.00013385,0.00052798,0
 .00053671,0.00033547,0.00048587,0.00008768,-0.00257246,0.00068291,0.00
 021413,-0.00002110,0.00009535,-0.00014547,-0.00001918,-0.00006755,-0.0
 0005727,0.00027069,0.00071094,-0.00051940,0.01897665,0.02424876,-0.021
 98099,0.00036549,0.00406698,0.00178843,0.00385181,-0.00117637,-0.00222
 161,0.02458856,0.01932678,-0.08563214,0.00006152,-0.00005584,-0.000008
 44,-0.00001468,0.00001705,0.00000097,-0.00000631,0.00000195,0.00000722
 ,-0.00001018,0.00000558,0.00000304,0.00003278,0.00006176,0.00004342,0.
 00000132,-0.00000642,-0.00000066,0.00000584,0.00001047,0.00001206,-0.0
 0001658,-0.00000116,-0.00001392,-0.00009124,-0.00048239,-0.00025976,-0
 .00004572,0.00002504,-0.00010523,-0.00024690,0.00033473,0.00010743,0.0
 0007067,0.00021695,0.00007003,-0.00129860,0.04572923,0.58401304,0.0000
 7031,0.00007139,-0.00007860,0.00004223,-0.00000808,0.00004544,0.000194
 79,0.00000447,0.00014957,0.00053222,0.00002556,0.00009032,0.00007174,0
 .00014425,0.00019512,-0.00003302,-0.00002308,-0.00001947,-0.00001583,0
 .00000806,-0.00000768,-0.00003193,-0.00001677,-0.00000479,0.00008706,-
 0.00007445,-0.00004342,0.00003438,0.00001308,0.00003148,-0.00055033,0.
 00009686,-0.00000109,-0.00009246,0.00007133,-0.00005995,-0.00003366,-0
 .00012312,-0.00001349,-0.00018989,-0.00008963,-0.00028467,0.00089116,-
 0.00278629,-0.00152702,-0.00003568,0.00018159,0.00018971,-0.00059290,0
 .00011094,0.00052187,-0.01433435,-0.00229211,0.01281009,0.00007218,-0.
 00007449,-0.00001201,-0.00000464,0.00000906,0.00000110,-0.00000930,0.0
 0000554,0.00000977,-0.00001854,0.00000445,0.00000117,-0.00000799,0.000
 07610,0.00004745,-0.00000071,-0.00001037,-0.00000133,0.00000585,-0.000
 00103,-0.00000401,-0.00000451,-0.00000727,-0.00001298,0.00009071,-0.00
 004140,0.00018046,-0.00000280,0.00001574,-0.00003353,0.00003907,-0.000
 06741,-0.00001690,-0.00002372,-0.00001872,-0.00002966,-0.21368429,0.07
 075102,0.11209483,0.23110764,0.00000559,0.00000757,-0.00003606,0.00000
 873,0.00000107,0.00003151,0.00005616,-0.00000905,0.00010238,0.00046063
 ,-0.00061191,0.00065505,-0.00008806,-0.00001919,0.00026339,-0.00002710
 ,-0.00005608,-0.00001048,-0.00000376,0.00000279,-0.00001185,-0.0000173
 8,-0.00000748,-0.00000639,-0.00025270,0.00014430,-0.00004836,0.0000386
 6,0.00002741,0.00004467,-0.00060298,0.00037886,-0.00000361,-0.00001768
 ,0.00003028,-0.00004103,0.00000061,-0.00001947,-0.00002063,0.00020609,
 0.00014433,-0.00000858,-0.00326231,-0.00426346,0.00110813,0.00009062,0
 .00010090,0.00031688,-0.00104055,0.00014556,0.00090464,-0.03045033,0.0
 0503049,0.02318041,0.00002158,-0.00002345,-0.00000789,-0.00000545,0.00
 000456,-0.00000170,-0.00000281,-0.00000095,0.00000593,-0.00000369,0.00
 000395,0.00000154,-0.00000317,0.00001773,0.00000916,0.00000071,-0.0000
 0142,0.00000014,0.00000185,-0.00000123,-0.00000089,-0.00000064,-0.0000
 0209,-0.00000327,-0.00003826,-0.00002043,-0.00010738,-0.00000284,0.000
 00447,0.00000145,-0.00004756,0.00004570,0.00001224,0.00001098,0.000024
 85,0.00001989,0.08074575,-0.08292934,-0.05742475,-0.07129670,0.0895811
 7,-0.00003263,-0.00001876,0.00004747,-0.00000261,-0.00000216,-0.000017
 33,-0.00014436,-0.00001903,-0.00007591,-0.00033564,0.00045567,-0.00025
 484,0.00011431,0.00002906,-0.00015612,0.00002427,0.00002149,0.00000544
 ,0.00000623,-0.00000516,0.00000521,0.00002402,0.00000839,0.00000402,0.
 00013602,-0.00013428,-0.00002809,-0.00003221,-0.00003966,-0.00002563,0
 .00049140,-0.00013577,-0.00004380,0.00002772,-0.00002544,0.00002975,0.
 00001485,0.00003789,0.00001070,-0.00009136,-0.00012741,0.00000326,0.00
 045752,0.00249820,0.00066429,-0.00015449,0.00011277,0.00038350,0.00078
 161,0.00011701,-0.00024992,0.01252763,0.00039532,-0.00937337,-0.000023
 39,0.00002387,0.00000579,0.00000263,-0.00000363,-0.00000022,0.00000254
 ,-0.00000164,-0.00000356,0.00000571,-0.00000200,-0.00000036,-0.0000026
 8,-0.00002427,-0.00001440,0.00000078,0.00000320,-0.00000067,-0.0000008
 0,-0.00000104,0.00000114,0.00000167,0.00000212,0.00000460,0.00001209,0
 .00005697,0.00007398,0.00000022,-0.00000394,-0.00000023,0.00005161,-0.
 00005747,-0.00001041,-0.00000231,-0.00003047,-0.00001573,0.11153816,-0
 .04931312,-0.13088500,-0.12900606,0.04851517,0.13885922,0.00003259,0.0
 0010596,0.00002983,-0.00000692,-0.00002865,0.00001257,-0.00002935,-0.0
 0002813,0.00007147,-0.00003032,0.00009923,0.00014433,0.00019975,0.0000
 8830,-0.00016383,-0.00001899,-0.00003653,-0.00000871,-0.00001028,0.000
 01110,0.00000588,0.00000170,-0.00000231,0.00000023,-0.00011112,-0.0000
 1972,-0.00009914,0.00006002,0.00007140,0.00003813,-0.00028762,0.000162
 29,0.00002918,-0.00003414,0.00006057,-0.00001165,-0.00003503,-0.000068
 16,0.00000956,-0.00042413,-0.00018834,-0.00009582,0.00216340,-0.002049
 88,-0.00475915,0.00005200,0.00080997,0.00078200,0.00009579,0.00019969,
 0.00021120,-0.00860584,-0.01748085,-0.00444009,0.00003692,-0.00004463,
 -0.00000880,-0.00000510,0.00000594,-0.00000374,-0.00000845,0.00000198,
 0.00000907,-0.00000708,0.00000544,0.00000229,0.00000668,0.00003699,0.0
 0002241,-0.00000208,-0.00000661,-0.00000017,0.00000037,0.00000304,-0.0
 0000076,-0.00000313,-0.00000323,-0.00000684,0.00012259,-0.00016809,0.0
 0016189,0.00000861,0.00001853,0.00001322,0.00003215,-0.00003050,-0.000
 01751,-0.00004607,-0.00000361,-0.00002378,-0.07888173,-0.03954697,-0.0
 6118775,0.01104858,0.01405377,0.01921708,0.07976447,0.00012459,0.00013
 952,-0.00008989,0.00000632,-0.00001473,0.00005456,0.00014102,-0.000012
 16,0.00017343,0.00028266,-0.00033745,0.00036155,0.00004064,-0.00021325
 ,0.00045820,-0.00004637,-0.00005456,-0.00001954,-0.00001658,0.00001561
 ,-0.00000570,-0.00004587,-0.00001722,-0.00000729,-0.00003359,0.0000030
 5,0.00000736,0.00013927,0.00016706,0.00002929,-0.00077558,0.00024642,-
 0.00001749,-0.00006606,0.00007375,-0.00006892,-0.00002567,-0.00008248,
 -0.00001524,0.00032473,0.00028902,-0.00013398,0.00487365,0.00034762,-0
 .00437119,-0.00078266,0.00105276,0.00134001,0.00019421,0.00018157,0.00
 029284,-0.02064190,-0.03165050,-0.01332675,0.00006534,-0.00006510,-0.0
 0001387,-0.00000609,0.00000938,0.00000044,-0.00000796,0.00000346,0.000
 01018,-0.00001464,0.00000429,0.00000153,0.00001636,0.00005363,0.000031
 65,-0.00000268,-0.00000869,0.00000084,0.00000018,0.00000491,0.00000069
 ,-0.00000700,-0.00000444,-0.00001096,-0.00005279,-0.00006112,-0.000011
 99,-0.00000736,0.00000555,-0.00004336,-0.00004573,0.00003822,0.0000153
 5,-0.00000308,0.00004061,-0.00000359,-0.04105422,-0.12350161,-0.103760
 50,-0.00284980,-0.00404636,-0.00836904,0.05495997,0.14540201,0.0000414
 4,-0.00000258,-0.00001327,0.00002094,-0.00002012,0.00001254,0.00008750
 ,-0.00000609,0.00001098,-0.00004064,-0.00015007,-0.00053005,0.00018698
 ,0.00037203,-0.00018714,-0.00000778,-0.00000277,-0.00000482,-0.0000102
 5,0.00000773,0.00000003,-0.00000336,-0.00000687,0.00000443,-0.00006738
 ,-0.00007083,-0.00008675,0.00004164,-0.00006208,0.00000602,-0.00002896
 ,-0.00003279,0.00002981,-0.00005266,0.00005987,-0.00000778,-0.00004941
 ,-0.00006970,0.00001680,-0.00054523,-0.00019873,-0.00009558,0.00041753
 ,0.00293068,0.00436838,-0.00168739,-0.00118494,-0.00000802,-0.00020778
 ,0.00009020,0.00032239,0.00761828,0.00989459,0.01288955,0.00004217,-0.
 00005191,-0.00000953,-0.00000371,0.00000522,-0.00000303,-0.00000830,0.
 00000348,0.00000904,-0.00000981,0.00000531,0.00000134,0.00000581,0.000
 03226,0.00001797,-0.00000273,-0.00000686,0.00000122,-0.00000268,0.0000
 0164,-0.00000405,-0.00000098,-0.00000347,-0.00000648,0.00014800,-0.000
 13396,0.00015690,0.00001724,0.00000285,0.00002905,0.00003990,-0.000043
 47,-0.00001542,-0.00004975,-0.00001711,-0.00001727,-0.06254652,-0.1085
 9308,-0.20890871,-0.00640870,-0.00773365,-0.01154164,0.06756591,0.1155
 8030,0.21659700,-0.00008849,-0.00000826,-0.00001279,0.00001906,-0.0000
 1058,-0.00003164,-0.00009329,-0.00003733,-0.00013630,-0.00154414,0.000
 85861,-0.00040360,-0.00010828,-0.00007602,0.00030294,0.00005795,0.0000
 1515,0.00000322,0.00000377,-0.00000279,0.00000063,0.00000435,-0.000013
 17,0.00000875,-0.00159854,-0.00050757,0.00076503,0.00003974,-0.0000112
 1,-0.00002046,0.00107390,-0.00002908,-0.00035041,0.00000950,-0.0000256
 4,0.00001183,0.00003823,0.00006131,-0.00001503,-0.00038280,-0.00005851
 ,-0.00009912,0.00347630,-0.00077758,0.00021944,-0.00042290,-0.00010374
 ,0.00012476,-0.00025782,0.00015662,0.00007755,0.01446556,-0.01409223,0
 .01359914,-0.00002093,0.00002785,0.00000153,0.00000250,-0.00000420,0.0
 0000217,0.00000552,-0.00000330,-0.00000367,0.00000396,-0.00000384,-0.0
 0000214,-0.00000282,-0.00002863,-0.00001872,0.00000007,0.00000381,0.00
 000100,-0.00000080,0.00000086,0.00000161,0.00000264,0.00000163,0.00000
 519,-0.00018699,0.00000735,-0.00024782,0.00000589,0.00001802,0.0000741
 2,-0.00036536,0.00035797,-0.00032984,0.00002104,-0.00004671,0.00005487
 ,-0.16375981,0.08565492,-0.09580405,-0.01462135,0.01146224,-0.01560951
 ,-0.00507824,0.00531674,-0.00449934,0.16930259,0.00002024,0.00000692,-
 0.00017739,0.00001548,0.00003773,0.00004409,0.00013914,-0.00002078,0.0
 0019530,-0.00030219,-0.00003763,0.00051818,-0.00038251,-0.00050899,0.0
 0121253,-0.00005126,-0.00005316,-0.00001400,-0.00000031,-0.00000496,-0
 .00002276,-0.00006730,-0.00002182,-0.00001041,-0.00030052,-0.00005432,
 0.00010656,0.00007439,0.00011014,-0.00000709,-0.00078011,0.00030076,-0
 .00014566,-0.00001577,-0.00000167,-0.00006301,0.00007074,0.00007254,-0
 .00007291,0.00139682,0.00070417,-0.00009669,0.00452344,-0.00077174,-0.
 00328626,-0.00065099,0.00018911,0.00044319,-0.00072066,0.00001286,0.00
 037733,0.00677516,-0.02828669,0.02433578,0.00000934,-0.00001071,-0.000
 00576,-0.00000248,0.00000355,0.00000233,0.00000185,-0.00000142,0.00000
 052,-0.00000470,0.00000193,0.00000100,0.00000602,-0.00002116,-0.000012
 45,0.00000480,0.00000594,0.00000038,0.00000162,-0.00000116,0.00000938,
 -0.00000507,0.00000311,0.00000098,-0.00056715,0.00102690,-0.00054627,-
 0.00004299,-0.00002899,-0.00004429,0.00031121,0.00015567,0.00020607,0.
 00010195,-0.00010025,0.00002872,0.08134116,-0.11167650,0.06962145,0.00
 819129,-0.00368408,0.00603716,-0.01098797,0.01199121,-0.01059508,-0.08
 810267,0.13066345,-0.00003948,0.00004457,-0.00002976,0.00004191,-0.000
 00046,-0.00000557,0.00004583,0.00001921,0.00007081,0.00029926,0.000406
 43,-0.00018323,0.00013880,0.00014251,-0.00006839,-0.00000778,0.0000454
 1,-0.00001267,-0.00000478,-0.00000508,-0.00000056,0.00000525,-0.000010
 23,0.00000897,0.00111581,-0.00007243,-0.00022077,-0.00008075,-0.000086
 13,-0.00005479,0.00000569,-0.00035698,0.00003767,-0.00004960,-0.000000
 98,0.00000180,0.00001204,-0.00004521,0.00000953,-0.00052622,-0.0004430
 0,-0.00038664,-0.00301029,0.00109993,0.00126745,-0.00004918,-0.0002044
 2,-0.00035259,0.00048413,-0.00002226,-0.00012140,0.00067860,0.01404272
 ,-0.00670065,0.00002850,-0.00002490,-0.00000383,0.00000231,0.00000098,
 0.00000333,-0.00000193,0.00000337,0.00000113,-0.00000938,-0.00000079,-
 0.00000096,-0.00001287,0.00002473,0.00001280,-0.00000161,-0.00000434,-
 0.00000044,0.00000235,-0.00000119,-0.00000499,0.00000230,-0.00000463,-
 0.00000279,-0.00002536,0.00015375,0.00037662,-0.00000200,-0.00001177,-
 0.00001528,-0.00020632,-0.00001348,0.00003761,-0.00002806,-0.00010140,
 -0.00003189,-0.09483631,0.07126197,-0.13948964,0.01119699,-0.00970606,
 0.01259885,-0.01749851,0.01191108,-0.01303392,0.10233066,-0.08804092,0
 .14629419\\0.00000117,0.00000020,-0.00000254,-0.00000087,0.00000109,-0
 .00000116,-0.00000133,-0.00000763,-0.00000302,-0.00000109,-0.00000122,
 0.00000251,0.00000005,0.00000227,0.00000001,-0.00000325,-0.00000776,-0
 .00000152,-0.00000099,-0.00000252,-0.00000322,0.00000294,0.00000431,-0
 .00000404,-0.00000036,-0.00000067,0.00000489,0.00000099,0.00000156,-0.
 00000483,-0.00000254,-0.00000583,0.00000069,-0.00000319,0.00000097,0.0
 0000448,0.00000239,-0.00000169,-0.00000850,0.00000093,0.00000380,0.,-0
 .00000167,-0.00000407,0.00000140,-0.00000323,-0.00000486,0.00000391,-0
 .00000144,-0.00000559,-0.00000113,-0.00000055,0.00000076,0.00000153,-0
 .00000187,-0.00000211,0.00000275,-0.00000115,-0.00000083,0.00000701,-0
 .00000144,-0.00000919,0.00000381,-0.00000033,-0.00000230,0.00000228,0.
 00000279,0.00000084,-0.00001134,0.00000199,-0.00000218,-0.00001378,0.0
 0000293,0.00000281,-0.00001074,0.00000347,0.00000283,-0.00001172,0.000
 00204,0.00000739,0.00000237,0.00000302,0.00000954,0.00000478,0.0000000
 4,0.00000447,0.00000507,0.00000200,0.00000609,0.00000199,-0.00000053,0
 .00000270,0.00000567,0.00000047,0.00000453,0.00000630,-0.00000185,0.00
 000016,0.00000857,0.00000045,0.00000215,0.00000752\\\@


 "THE TIME HAS COME", THE WALRUS SAID,
 "TO TALK OF MANY THINGS,
 OF SHOES AND SHIPS AND SEALING WAX,
 OF CABBAGES AND KINGS,
 AND WHY THE SEA IS BOILING HOT,
 AND WHETHER PIGS HAVE WINGS."
 Job cpu time:       0 days  1 hours 20 minutes  7.6 seconds.
 Elapsed time:       0 days  0 hours 10 minutes 14.1 seconds.
 File lengths (MBytes):  RWF=    383 Int=      0 D2E=      0 Chk=     21 Scr=      1
 Normal termination of Gaussian 16 at Sat May 25 18:54:17 2019.
