 Entering Gaussian System, Link 0=g16
 Input=clay-glucose_cation-072-b3lyp_d3bj-631gd-pcm_thf.gjf
 Output=clay-glucose_cation-072-b3lyp_d3bj-631gd-pcm_thf.out
 Initial command:
 /n/sw/g16_nehalem/g16/l1.exe "/scratch/Gau-7174.inp" -scrdir="/scratch/"
 Entering Link 1 = /n/sw/g16_nehalem/g16/l1.exe PID=      7177.
  
 Copyright (c) 1988,1990,1992,1993,1995,1998,2003,2009,2016,
            Gaussian, Inc.  All Rights Reserved.
  
 This is part of the Gaussian(R) 16 program.  It is based on
 the Gaussian(R) 09 system (copyright 2009, Gaussian, Inc.),
 the Gaussian(R) 03 system (copyright 2003, Gaussian, Inc.),
 the Gaussian(R) 98 system (copyright 1998, Gaussian, Inc.),
 the Gaussian(R) 94 system (copyright 1995, Gaussian, Inc.),
 the Gaussian 92(TM) system (copyright 1992, Gaussian, Inc.),
 the Gaussian 90(TM) system (copyright 1990, Gaussian, Inc.),
 the Gaussian 88(TM) system (copyright 1988, Gaussian, Inc.),
 the Gaussian 86(TM) system (copyright 1986, Carnegie Mellon
 University), and the Gaussian 82(TM) system (copyright 1983,
 Carnegie Mellon University). Gaussian is a federally registered
 trademark of Gaussian, Inc.
  
 This software contains proprietary and confidential information,
 including trade secrets, belonging to Gaussian, Inc.
  
 This software is provided under written license and may be
 used, copied, transmitted, or stored only in accord with that
 written license.
  
 The following legend is applicable only to US Government
 contracts under FAR:
  
                    RESTRICTED RIGHTS LEGEND
  
 Use, reproduction and disclosure by the US Government is
 subject to restrictions as set forth in subparagraphs (a)
 and (c) of the Commercial Computer Software - Restricted
 Rights clause in FAR 52.227-19.
  
 Gaussian, Inc.
 340 Quinnipiac St., Bldg. 40, Wallingford CT 06492
  
  
 ---------------------------------------------------------------
 Warning -- This program may not be used in any manner that
 competes with the business of Gaussian, Inc. or will provide
 assistance to any competitor of Gaussian, Inc.  The licensee
 of this program is prohibited from giving any competitor of
 Gaussian, Inc. access to this program.  By using this program,
 the user acknowledges that Gaussian, Inc. is engaged in the
 business of creating and licensing software in the field of
 computational chemistry and represents and warrants to the
 licensee that it is not a competitor of Gaussian, Inc. and that
 it will not use this program in any manner prohibited above.
 ---------------------------------------------------------------
  

 Cite this work as:
 Gaussian 16, Revision A.03,
 M. J. Frisch, G. W. Trucks, H. B. Schlegel, G. E. Scuseria, 
 M. A. Robb, J. R. Cheeseman, G. Scalmani, V. Barone, 
 G. A. Petersson, H. Nakatsuji, X. Li, M. Caricato, A. V. Marenich, 
 J. Bloino, B. G. Janesko, R. Gomperts, B. Mennucci, H. P. Hratchian, 
 J. V. Ortiz, A. F. Izmaylov, J. L. Sonnenberg, D. Williams-Young, 
 F. Ding, F. Lipparini, F. Egidi, J. Goings, B. Peng, A. Petrone, 
 T. Henderson, D. Ranasinghe, V. G. Zakrzewski, J. Gao, N. Rega, 
 G. Zheng, W. Liang, M. Hada, M. Ehara, K. Toyota, R. Fukuda, 
 J. Hasegawa, M. Ishida, T. Nakajima, Y. Honda, O. Kitao, H. Nakai, 
 T. Vreven, K. Throssell, J. A. Montgomery, Jr., J. E. Peralta, 
 F. Ogliaro, M. J. Bearpark, J. J. Heyd, E. N. Brothers, K. N. Kudin, 
 V. N. Staroverov, T. A. Keith, R. Kobayashi, J. Normand, 
 K. Raghavachari, A. P. Rendell, J. C. Burant, S. S. Iyengar, 
 J. Tomasi, M. Cossi, J. M. Millam, M. Klene, C. Adamo, R. Cammi, 
 J. W. Ochterski, R. L. Martin, K. Morokuma, O. Farkas, 
 J. B. Foresman, and D. J. Fox, Gaussian, Inc., Wallingford CT, 2016.
 
 ******************************************
 Gaussian 16:  ES64L-G16RevA.03 25-Dec-2016
                24-May-2019 
 ******************************************
 %nprocshared=4
 Will use up to    4 processors via shared memory.
 %mem=3GB
 -------------------------------------------------------------------
 #p b3lyp 6-31g* opt freq=noraman scrf=(pcm,solvent=tetrahydrofuran)
 -------------------------------------------------------------------
 1/18=20,19=15,26=3,38=1/1,3;
 2/9=110,12=2,17=6,18=5,40=1/2;
 3/5=1,6=6,7=1,11=2,25=1,30=1,70=2201,71=1,72=20,74=-5/1,2,3;
 4//1;
 5/5=2,38=5,53=20/2;
 6/7=2,8=2,9=2,10=2,28=1/1;
 7//1,2,3,16;
 1/18=20,19=15,26=3/3(2);
 2/9=110/2;
 99//99;
 2/9=110/2;
 3/5=1,6=6,7=1,11=2,25=1,30=1,70=2205,71=1,72=20,74=-5/1,2,3;
 4/5=5,16=3,69=1/1;
 5/5=2,38=5,53=20/2;
 7//1,2,3,16;
 1/18=20,19=15,26=3/3(-5);
 2/9=110/2;
 6/7=2,8=2,9=2,10=2,19=2,28=1/1;
 99/9=1/99;
 Leave Link    1 at Fri May 24 08:30:49 2019, MaxMem=   402653184 cpu:               0.2 elap:               0.1
 (Enter /n/sw/g16_nehalem/g16/l101.exe)
 -----
 title
 -----
 Symbolic Z-matrix:
 Charge =  1 Multiplicity = 1
 6                    -0.84448   0.0294    0.59135 
 6                    -0.65034  -0.86554  -0.67692 
 6                    -0.03525  -0.1215   -1.80589 
 6                     1.37776   1.1415   -0.31623 
 6                     0.29318   1.07752   0.78353 
 1                    -0.32031  -0.33357  -2.83844 
 1                     0.13532  -1.58819  -0.39585 
 1                    -1.7889    0.57567   0.47809 
 1                     1.6842    2.17437  -0.47687 
 1                     0.81046   0.76255   1.69282 
 8                     0.85001   0.76293  -1.68179 
 8                    -1.75241  -1.61169  -1.11455 
 8                    -0.87056  -0.7553    1.75618 
 8                    -0.20512   2.36651   1.09178 
 6                     2.61545   0.29383  -0.08005 
 1                     3.12648   0.71384   0.80024 
 1                     3.2968    0.38397  -0.93903 
 8                     2.22192  -1.0424    0.12912 
 6                    -2.94347  -0.87611  -1.43426 
 1                    -3.54656  -1.53934  -2.05524 
 1                    -3.50889  -0.61406  -0.53415 
 1                    -2.72163   0.03966  -1.99989 
 6                    -2.12671  -1.35926   2.07559 
 1                    -1.99806  -1.81868   3.05719 
 1                    -2.92054  -0.60292   2.13454 
 1                    -2.40345  -2.12926   1.34772 
 6                    -0.89506   3.06966   0.06098 
 1                    -1.17171   4.03353   0.49064 
 1                    -0.26021   3.24908  -0.81749 
 1                    -1.81035   2.55454  -0.26063 
 6                     3.32057  -1.9171    0.38653 
 1                     2.89963  -2.91243   0.53481 
 1                     4.016    -1.9344   -0.46292 
 1                     3.86108  -1.60914   1.29077 
 
 ITRead=  0  0  0  0  0  0  0  0  0  0  0  0  0  0  0  0  0  0  0  0
 ITRead=  0  0  0  0  0  0  0  0  0  0  0  0  0  0
 MicOpt= -1 -1 -1 -1 -1 -1 -1 -1 -1 -1 -1 -1 -1 -1 -1 -1 -1 -1 -1 -1
 MicOpt= -1 -1 -1 -1 -1 -1 -1 -1 -1 -1 -1 -1 -1 -1
 NAtoms=     34 NQM=       34 NQMF=       0 NMMI=      0 NMMIF=      0
                NMic=       0 NMicF=      0.
                    Isotopes and Nuclear Properties:
 (Nuclear quadrupole moments (NQMom) in fm**2, nuclear magnetic moments (NMagM)
  in nuclear magnetons)

  Atom         1           2           3           4           5           6           7           8           9          10
 IAtWgt=          12          12          12          12          12           1           1           1           1           1
 AtmWgt=  12.0000000  12.0000000  12.0000000  12.0000000  12.0000000   1.0078250   1.0078250   1.0078250   1.0078250   1.0078250
 NucSpn=           0           0           0           0           0           1           1           1           1           1
 AtZEff=   0.0000000   0.0000000   0.0000000   0.0000000   0.0000000   0.0000000   0.0000000   0.0000000   0.0000000   0.0000000
 NQMom=    0.0000000   0.0000000   0.0000000   0.0000000   0.0000000   0.0000000   0.0000000   0.0000000   0.0000000   0.0000000
 NMagM=    0.0000000   0.0000000   0.0000000   0.0000000   0.0000000   2.7928460   2.7928460   2.7928460   2.7928460   2.7928460
 AtZNuc=   6.0000000   6.0000000   6.0000000   6.0000000   6.0000000   1.0000000   1.0000000   1.0000000   1.0000000   1.0000000

  Atom        11          12          13          14          15          16          17          18          19          20
 IAtWgt=          16          16          16          16          12           1           1          16          12           1
 AtmWgt=  15.9949146  15.9949146  15.9949146  15.9949146  12.0000000   1.0078250   1.0078250  15.9949146  12.0000000   1.0078250
 NucSpn=           0           0           0           0           0           1           1           0           0           1
 AtZEff=   0.0000000   0.0000000   0.0000000   0.0000000   0.0000000   0.0000000   0.0000000   0.0000000   0.0000000   0.0000000
 NQMom=    0.0000000   0.0000000   0.0000000   0.0000000   0.0000000   0.0000000   0.0000000   0.0000000   0.0000000   0.0000000
 NMagM=    0.0000000   0.0000000   0.0000000   0.0000000   0.0000000   2.7928460   2.7928460   0.0000000   0.0000000   2.7928460
 AtZNuc=   8.0000000   8.0000000   8.0000000   8.0000000   6.0000000   1.0000000   1.0000000   8.0000000   6.0000000   1.0000000

  Atom        21          22          23          24          25          26          27          28          29          30
 IAtWgt=           1           1          12           1           1           1          12           1           1           1
 AtmWgt=   1.0078250   1.0078250  12.0000000   1.0078250   1.0078250   1.0078250  12.0000000   1.0078250   1.0078250   1.0078250
 NucSpn=           1           1           0           1           1           1           0           1           1           1
 AtZEff=   0.0000000   0.0000000   0.0000000   0.0000000   0.0000000   0.0000000   0.0000000   0.0000000   0.0000000   0.0000000
 NQMom=    0.0000000   0.0000000   0.0000000   0.0000000   0.0000000   0.0000000   0.0000000   0.0000000   0.0000000   0.0000000
 NMagM=    2.7928460   2.7928460   0.0000000   2.7928460   2.7928460   2.7928460   0.0000000   2.7928460   2.7928460   2.7928460
 AtZNuc=   1.0000000   1.0000000   6.0000000   1.0000000   1.0000000   1.0000000   6.0000000   1.0000000   1.0000000   1.0000000

  Atom        31          32          33          34
 IAtWgt=          12           1           1           1
 AtmWgt=  12.0000000   1.0078250   1.0078250   1.0078250
 NucSpn=           0           1           1           1
 AtZEff=   0.0000000   0.0000000   0.0000000   0.0000000
 NQMom=    0.0000000   0.0000000   0.0000000   0.0000000
 NMagM=    0.0000000   2.7928460   2.7928460   2.7928460
 AtZNuc=   6.0000000   1.0000000   1.0000000   1.0000000
 Leave Link  101 at Fri May 24 08:30:49 2019, MaxMem=   402653184 cpu:               0.6 elap:               0.2
 (Enter /n/sw/g16_nehalem/g16/l103.exe)

 GradGradGradGradGradGradGradGradGradGradGradGradGradGradGradGradGradGrad
 Berny optimization.
 Initialization pass.
                           ----------------------------
                           !    Initial Parameters    !
                           ! (Angstroms and Degrees)  !
 --------------------------                            --------------------------
 ! Name  Definition              Value          Derivative Info.                !
 --------------------------------------------------------------------------------
 ! R1    R(1,2)                  1.5643         estimate D2E/DX2                !
 ! R2    R(1,5)                  1.5588         estimate D2E/DX2                !
 ! R3    R(1,8)                  1.0969         estimate D2E/DX2                !
 ! R4    R(1,13)                 1.4047         estimate D2E/DX2                !
 ! R5    R(2,3)                  1.4854         estimate D2E/DX2                !
 ! R6    R(2,7)                  1.1038         estimate D2E/DX2                !
 ! R7    R(2,12)                 1.401          estimate D2E/DX2                !
 ! R8    R(3,6)                  1.092          estimate D2E/DX2                !
 ! R9    R(3,11)                 1.2575         estimate D2E/DX2                !
 ! R10   R(4,5)                  1.5459         estimate D2E/DX2                !
 ! R11   R(4,9)                  1.0893         estimate D2E/DX2                !
 ! R12   R(4,11)                 1.5121         estimate D2E/DX2                !
 ! R13   R(4,15)                 1.5186         estimate D2E/DX2                !
 ! R14   R(5,10)                 1.0925         estimate D2E/DX2                !
 ! R15   R(5,14)                 1.4159         estimate D2E/DX2                !
 ! R16   R(12,19)                1.4359         estimate D2E/DX2                !
 ! R17   R(13,23)                1.4299         estimate D2E/DX2                !
 ! R18   R(14,27)                1.4258         estimate D2E/DX2                !
 ! R19   R(15,16)                1.1011         estimate D2E/DX2                !
 ! R20   R(15,17)                1.1001         estimate D2E/DX2                !
 ! R21   R(15,18)                1.4086         estimate D2E/DX2                !
 ! R22   R(18,31)                1.4277         estimate D2E/DX2                !
 ! R23   R(19,20)                1.0905         estimate D2E/DX2                !
 ! R24   R(19,21)                1.0948         estimate D2E/DX2                !
 ! R25   R(19,22)                1.099          estimate D2E/DX2                !
 ! R26   R(23,24)                1.0914         estimate D2E/DX2                !
 ! R27   R(23,25)                1.098          estimate D2E/DX2                !
 ! R28   R(23,26)                1.0951         estimate D2E/DX2                !
 ! R29   R(27,28)                1.091          estimate D2E/DX2                !
 ! R30   R(27,29)                1.0986         estimate D2E/DX2                !
 ! R31   R(27,30)                1.0984         estimate D2E/DX2                !
 ! R32   R(31,32)                1.0908         estimate D2E/DX2                !
 ! R33   R(31,33)                1.0979         estimate D2E/DX2                !
 ! R34   R(31,34)                1.0976         estimate D2E/DX2                !
 ! A1    A(2,1,5)              113.2074         estimate D2E/DX2                !
 ! A2    A(2,1,8)              107.9421         estimate D2E/DX2                !
 ! A3    A(2,1,13)             110.7942         estimate D2E/DX2                !
 ! A4    A(5,1,8)              107.8337         estimate D2E/DX2                !
 ! A5    A(5,1,13)             106.6738         estimate D2E/DX2                !
 ! A6    A(8,1,13)             110.355          estimate D2E/DX2                !
 ! A7    A(1,2,3)              112.3969         estimate D2E/DX2                !
 ! A8    A(1,2,7)              104.8578         estimate D2E/DX2                !
 ! A9    A(1,2,12)             117.4073         estimate D2E/DX2                !
 ! A10   A(3,2,7)              103.1039         estimate D2E/DX2                !
 ! A11   A(3,2,12)             110.7985         estimate D2E/DX2                !
 ! A12   A(7,2,12)             106.9034         estimate D2E/DX2                !
 ! A13   A(2,3,6)              120.8839         estimate D2E/DX2                !
 ! A14   A(2,3,11)             124.6656         estimate D2E/DX2                !
 ! A15   A(6,3,11)             114.4369         estimate D2E/DX2                !
 ! A16   A(5,4,9)              109.9698         estimate D2E/DX2                !
 ! A17   A(5,4,11)             112.7813         estimate D2E/DX2                !
 ! A18   A(5,4,15)             115.9796         estimate D2E/DX2                !
 ! A19   A(9,4,11)             101.677          estimate D2E/DX2                !
 ! A20   A(9,4,15)             108.8407         estimate D2E/DX2                !
 ! A21   A(11,4,15)            106.5674         estimate D2E/DX2                !
 ! A22   A(1,5,4)              116.8824         estimate D2E/DX2                !
 ! A23   A(1,5,10)             104.7344         estimate D2E/DX2                !
 ! A24   A(1,5,14)             112.4653         estimate D2E/DX2                !
 ! A25   A(4,5,10)             105.7731         estimate D2E/DX2                !
 ! A26   A(4,5,14)             111.3516         estimate D2E/DX2                !
 ! A27   A(10,5,14)            104.3525         estimate D2E/DX2                !
 ! A28   A(3,11,4)             120.7238         estimate D2E/DX2                !
 ! A29   A(2,12,19)            116.6924         estimate D2E/DX2                !
 ! A30   A(1,13,23)            115.9429         estimate D2E/DX2                !
 ! A31   A(5,14,27)            117.5064         estimate D2E/DX2                !
 ! A32   A(4,15,16)            106.8378         estimate D2E/DX2                !
 ! A33   A(4,15,17)            109.7313         estimate D2E/DX2                !
 ! A34   A(4,15,18)            108.9603         estimate D2E/DX2                !
 ! A35   A(16,15,17)           107.7899         estimate D2E/DX2                !
 ! A36   A(16,15,18)           111.8878         estimate D2E/DX2                !
 ! A37   A(17,15,18)           111.5129         estimate D2E/DX2                !
 ! A38   A(15,18,31)           113.1396         estimate D2E/DX2                !
 ! A39   A(12,19,20)           105.8998         estimate D2E/DX2                !
 ! A40   A(12,19,21)           111.5891         estimate D2E/DX2                !
 ! A41   A(12,19,22)           111.9641         estimate D2E/DX2                !
 ! A42   A(20,19,21)           109.1556         estimate D2E/DX2                !
 ! A43   A(20,19,22)           108.9855         estimate D2E/DX2                !
 ! A44   A(21,19,22)           109.1452         estimate D2E/DX2                !
 ! A45   A(13,23,24)           105.9704         estimate D2E/DX2                !
 ! A46   A(13,23,25)           110.8641         estimate D2E/DX2                !
 ! A47   A(13,23,26)           111.7463         estimate D2E/DX2                !
 ! A48   A(24,23,25)           109.0802         estimate D2E/DX2                !
 ! A49   A(24,23,26)           109.3656         estimate D2E/DX2                !
 ! A50   A(25,23,26)           109.7131         estimate D2E/DX2                !
 ! A51   A(14,27,28)           105.8836         estimate D2E/DX2                !
 ! A52   A(14,27,29)           112.2721         estimate D2E/DX2                !
 ! A53   A(14,27,30)           112.5576         estimate D2E/DX2                !
 ! A54   A(28,27,29)           108.4921         estimate D2E/DX2                !
 ! A55   A(28,27,30)           108.5622         estimate D2E/DX2                !
 ! A56   A(29,27,30)           108.9045         estimate D2E/DX2                !
 ! A57   A(18,31,32)           106.6541         estimate D2E/DX2                !
 ! A58   A(18,31,33)           110.9508         estimate D2E/DX2                !
 ! A59   A(18,31,34)           110.8297         estimate D2E/DX2                !
 ! A60   A(32,31,33)           109.5861         estimate D2E/DX2                !
 ! A61   A(32,31,34)           109.5158         estimate D2E/DX2                !
 ! A62   A(33,31,34)           109.2623         estimate D2E/DX2                !
 ! D1    D(5,1,2,3)            -35.0735         estimate D2E/DX2                !
 ! D2    D(5,1,2,7)             76.2127         estimate D2E/DX2                !
 ! D3    D(5,1,2,12)          -165.3362         estimate D2E/DX2                !
 ! D4    D(8,1,2,3)             84.2068         estimate D2E/DX2                !
 ! D5    D(8,1,2,7)           -164.5071         estimate D2E/DX2                !
 ! D6    D(8,1,2,12)           -46.0559         estimate D2E/DX2                !
 ! D7    D(13,1,2,3)          -154.859          estimate D2E/DX2                !
 ! D8    D(13,1,2,7)           -43.5728         estimate D2E/DX2                !
 ! D9    D(13,1,2,12)           74.8783         estimate D2E/DX2                !
 ! D10   D(2,1,5,4)              3.3951         estimate D2E/DX2                !
 ! D11   D(2,1,5,10)          -113.2488         estimate D2E/DX2                !
 ! D12   D(2,1,5,14)           134.0384         estimate D2E/DX2                !
 ! D13   D(8,1,5,4)           -115.9475         estimate D2E/DX2                !
 ! D14   D(8,1,5,10)           127.4086         estimate D2E/DX2                !
 ! D15   D(8,1,5,14)            14.6958         estimate D2E/DX2                !
 ! D16   D(13,1,5,4)           125.5115         estimate D2E/DX2                !
 ! D17   D(13,1,5,10)            8.8675         estimate D2E/DX2                !
 ! D18   D(13,1,5,14)         -103.8453         estimate D2E/DX2                !
 ! D19   D(2,1,13,23)          -82.6999         estimate D2E/DX2                !
 ! D20   D(5,1,13,23)          153.6748         estimate D2E/DX2                !
 ! D21   D(8,1,13,23)           36.7956         estimate D2E/DX2                !
 ! D22   D(1,2,3,6)           -144.9731         estimate D2E/DX2                !
 ! D23   D(1,2,3,11)            36.4439         estimate D2E/DX2                !
 ! D24   D(7,2,3,6)            102.6506         estimate D2E/DX2                !
 ! D25   D(7,2,3,11)           -75.9324         estimate D2E/DX2                !
 ! D26   D(12,2,3,6)           -11.4136         estimate D2E/DX2                !
 ! D27   D(12,2,3,11)          170.0034         estimate D2E/DX2                !
 ! D28   D(1,2,12,19)           57.8325         estimate D2E/DX2                !
 ! D29   D(3,2,12,19)          -73.1678         estimate D2E/DX2                !
 ! D30   D(7,2,12,19)          175.1844         estimate D2E/DX2                !
 ! D31   D(2,3,11,4)             0.3391         estimate D2E/DX2                !
 ! D32   D(6,3,11,4)          -178.3252         estimate D2E/DX2                !
 ! D33   D(9,4,5,1)            143.0903         estimate D2E/DX2                !
 ! D34   D(9,4,5,10)          -100.8374         estimate D2E/DX2                !
 ! D35   D(9,4,5,14)            11.93           estimate D2E/DX2                !
 ! D36   D(11,4,5,1)            30.3738         estimate D2E/DX2                !
 ! D37   D(11,4,5,10)          146.4461         estimate D2E/DX2                !
 ! D38   D(11,4,5,14)         -100.7865         estimate D2E/DX2                !
 ! D39   D(15,4,5,1)           -92.903          estimate D2E/DX2                !
 ! D40   D(15,4,5,10)           23.1693         estimate D2E/DX2                !
 ! D41   D(15,4,5,14)          135.9367         estimate D2E/DX2                !
 ! D42   D(5,4,11,3)           -34.8247         estimate D2E/DX2                !
 ! D43   D(9,4,11,3)          -152.538          estimate D2E/DX2                !
 ! D44   D(15,4,11,3)           93.5377         estimate D2E/DX2                !
 ! D45   D(5,4,15,16)          -65.6892         estimate D2E/DX2                !
 ! D46   D(5,4,15,17)          177.7165         estimate D2E/DX2                !
 ! D47   D(5,4,15,18)           55.3619         estimate D2E/DX2                !
 ! D48   D(9,4,15,16)           58.9006         estimate D2E/DX2                !
 ! D49   D(9,4,15,17)          -57.6937         estimate D2E/DX2                !
 ! D50   D(9,4,15,18)          179.9517         estimate D2E/DX2                !
 ! D51   D(11,4,15,16)         167.8435         estimate D2E/DX2                !
 ! D52   D(11,4,15,17)          51.2492         estimate D2E/DX2                !
 ! D53   D(11,4,15,18)         -71.1053         estimate D2E/DX2                !
 ! D54   D(1,5,14,27)          -69.4898         estimate D2E/DX2                !
 ! D55   D(4,5,14,27)           63.9032         estimate D2E/DX2                !
 ! D56   D(10,5,14,27)         177.5621         estimate D2E/DX2                !
 ! D57   D(2,12,19,20)         161.2717         estimate D2E/DX2                !
 ! D58   D(2,12,19,21)         -80.0659         estimate D2E/DX2                !
 ! D59   D(2,12,19,22)          42.6108         estimate D2E/DX2                !
 ! D60   D(1,13,23,24)        -173.1685         estimate D2E/DX2                !
 ! D61   D(1,13,23,25)         -54.9424         estimate D2E/DX2                !
 ! D62   D(1,13,23,26)          67.787          estimate D2E/DX2                !
 ! D63   D(5,14,27,28)        -178.7512         estimate D2E/DX2                !
 ! D64   D(5,14,27,29)         -60.5292         estimate D2E/DX2                !
 ! D65   D(5,14,27,30)          62.786          estimate D2E/DX2                !
 ! D66   D(4,15,18,31)        -178.88           estimate D2E/DX2                !
 ! D67   D(16,15,18,31)        -60.9693         estimate D2E/DX2                !
 ! D68   D(17,15,18,31)         59.8463         estimate D2E/DX2                !
 ! D69   D(15,18,31,32)        179.794          estimate D2E/DX2                !
 ! D70   D(15,18,31,33)        -60.9176         estimate D2E/DX2                !
 ! D71   D(15,18,31,34)         60.6577         estimate D2E/DX2                !
 --------------------------------------------------------------------------------
 Trust Radius=3.00D-01 FncErr=1.00D-07 GrdErr=1.00D-06 EigMax=2.50D+02 EigMin=1.00D-04
 Number of steps in this run=    177 maximum allowed number of steps=    204.
 GradGradGradGradGradGradGradGradGradGradGradGradGradGradGradGradGradGrad

 Leave Link  103 at Fri May 24 08:30:49 2019, MaxMem=   402653184 cpu:               0.1 elap:               0.0
 (Enter /n/sw/g16_nehalem/g16/l202.exe)
                          Input orientation:                          
 ---------------------------------------------------------------------
 Center     Atomic      Atomic             Coordinates (Angstroms)
 Number     Number       Type             X           Y           Z
 ---------------------------------------------------------------------
      1          6           0       -0.844480    0.029396    0.591347
      2          6           0       -0.650339   -0.865543   -0.676916
      3          6           0       -0.035252   -0.121497   -1.805893
      4          6           0        1.377760    1.141500   -0.316226
      5          6           0        0.293175    1.077515    0.783534
      6          1           0       -0.320310   -0.333568   -2.838442
      7          1           0        0.135324   -1.588186   -0.395847
      8          1           0       -1.788896    0.575666    0.478089
      9          1           0        1.684197    2.174370   -0.476865
     10          1           0        0.810464    0.762554    1.692820
     11          8           0        0.850013    0.762927   -1.681788
     12          8           0       -1.752409   -1.611694   -1.114547
     13          8           0       -0.870558   -0.755299    1.756176
     14          8           0       -0.205117    2.366513    1.091781
     15          6           0        2.615445    0.293828   -0.080049
     16          1           0        3.126478    0.713839    0.800244
     17          1           0        3.296797    0.383970   -0.939028
     18          8           0        2.221919   -1.042397    0.129116
     19          6           0       -2.943466   -0.876108   -1.434256
     20          1           0       -3.546558   -1.539338   -2.055244
     21          1           0       -3.508886   -0.614060   -0.534147
     22          1           0       -2.721629    0.039656   -1.999894
     23          6           0       -2.126715   -1.359257    2.075590
     24          1           0       -1.998058   -1.818678    3.057194
     25          1           0       -2.920540   -0.602920    2.134535
     26          1           0       -2.403449   -2.129258    1.347724
     27          6           0       -0.895056    3.069663    0.060975
     28          1           0       -1.171710    4.033532    0.490636
     29          1           0       -0.260209    3.249080   -0.817494
     30          1           0       -1.810347    2.554543   -0.260629
     31          6           0        3.320566   -1.917101    0.386525
     32          1           0        2.899630   -2.912433    0.534809
     33          1           0        4.016001   -1.934395   -0.462923
     34          1           0        3.861078   -1.609142    1.290773
 ---------------------------------------------------------------------
                    Distance matrix (angstroms):
                    1          2          3          4          5
     1  C    0.000000
     2  C    1.564320   0.000000
     3  C    2.534636   1.485438   0.000000
     4  C    2.645527   2.876022   2.410575   0.000000
     5  C    1.558765   2.607414   2.872390   1.545927   0.000000
     6  H    3.488545   2.250358   1.091966   3.379473   3.935255
     7  H    2.133340   1.103847   2.041691   3.000195   2.919215
     8  H    1.096886   2.169662   2.962748   3.313429   2.163370
     9  H    3.483705   3.838118   3.161301   1.089279   2.174083
    10  H    2.118868   3.224949   3.706450   2.121719   1.092515
    11  O    2.928569   2.431612   1.257498   1.512149   2.546929
    12  O    2.535268   1.401007   2.376399   4.244450   3.875432
    13  O    1.404725   2.445524   3.713190   3.598282   2.378973
    14  O    2.474133   3.711159   3.823031   2.447170   1.415919
    15  C    3.534371   3.516495   3.190177   1.518615   2.598630
    16  H    4.034923   4.352102   4.181659   2.118352   2.856597
    17  H    4.429215   4.148478   3.479871   2.155096   3.531284
    18  O    3.281037   2.988450   3.112417   2.383346   2.939786
    19  C    3.054300   2.414976   3.027418   4.898339   4.383045
    20  H    4.094703   3.277480   3.794960   5.870263   5.445193
    21  H    2.963078   2.873137   3.731768   5.196998   4.365017
    22  H    3.199738   2.619141   2.698190   4.566595   4.232454
    23  C    2.403219   3.162235   4.579539   4.925029   3.669214
    24  H    3.290368   4.082694   5.512046   5.615938   4.336728
    25  H    2.662945   3.623126   4.907507   5.246391   3.870017
    26  H    2.768082   2.961340   4.425467   5.269168   4.227704
    27  C    3.086596   4.011261   3.795782   3.004295   2.429535
    28  H    4.018747   5.063195   4.881583   3.938867   3.312056
    29  H    3.562663   4.135467   3.519706   2.715899   2.754128
    30  H    2.834630   3.635368   3.563705   3.487665   2.774291
    31  C    4.602001   4.243203   4.392312   3.690988   4.276732
    32  H    4.761923   4.273209   4.677792   4.413017   4.772332
    33  H    5.347171   4.791969   4.637113   4.054993   4.948201
    34  H    5.031529   4.977713   5.194595   4.039226   4.495036
                    6          7          8          9         10
     6  H    0.000000
     7  H    2.783512   0.000000
     8  H    3.739362   3.024672   0.000000
     9  H    3.985580   4.069693   3.940833   0.000000
    10  H    4.797131   3.216259   2.875269   2.732063   0.000000
    11  O    1.977323   2.773474   3.415256   2.034668   3.374840
    12  O    2.579986   2.020054   2.705987   5.152784   4.481817
    13  O    4.646627   2.517281   2.061145   4.482879   2.265773
    14  O    4.769734   4.238936   2.468219   2.463144   1.991315
    15  C    4.076888   3.129330   4.448502   2.135679   2.573077
    16  H    5.120297   3.959413   4.927857   2.417505   2.482536
    17  H    4.148023   3.765549   5.282920   2.453488   3.640302
    18  O    3.971368   2.219764   4.338957   3.317220   2.774027
    19  C    3.024407   3.326304   2.664159   5.624703   5.153233
    20  H    3.532132   4.038841   3.739036   6.606338   6.191149
    21  H    3.944042   3.774694   2.323453   5.894636   5.050865
    22  H    2.570757   3.658554   2.701425   5.127175   5.160853
    23  C    5.335058   3.358159   2.531809   5.790043   3.643572
    24  H    6.307053   4.065457   3.525396   6.480201   4.051181
    25  H    5.618207   4.088017   2.326692   5.977989   3.997502
    26  H    5.008788   3.127006   2.906984   6.209605   4.337154
    27  C    4.507653   4.792278   2.681969   2.782691   3.300677
    28  H    5.556906   5.839341   3.512537   3.542421   4.009184
    29  H    4.113783   4.871691   3.341042   2.247609   3.691995
    30  H    4.148074   4.578878   2.112373   3.521807   3.727712
    31  C    5.115073   3.296370   5.685849   4.490354   3.897123
    32  H    5.328919   3.203301   5.843999   5.326943   4.383051
    33  H    5.197050   3.896667   6.393961   4.724347   4.711287
    34  H    6.013444   4.089788   6.111959   4.709386   3.884949
                   11         12         13         14         15
    11  O    0.000000
    12  O    3.568359   0.000000
    13  O    4.133397   3.122839   0.000000
    14  O    3.373051   4.805011   3.260359   0.000000
    15  C    2.429480   4.876407   4.077328   3.691176   0.000000
    16  H    3.368261   5.733940   4.364455   3.730395   1.101127
    17  H    2.584967   5.432123   5.092043   4.507556   1.100096
    18  O    2.901843   4.203104   3.506161   4.293937   1.408584
    19  C    4.139830   1.435938   3.806626   4.939029   5.839873
    20  H    4.976920   2.027096   4.722565   6.026995   6.725487
    21  H    4.713085   2.101749   3.496613   4.737335   6.207890
    22  H    3.657997   2.109546   4.262215   4.615794   5.677567
    23  C    5.242372   3.221925   1.429937   4.306017   5.465121
    24  H    6.101979   4.184090   2.023531   4.959164   5.965684
    25  H    5.535967   3.597039   2.090168   4.156728   6.029566
    26  H    5.303555   2.598943   2.098655   5.011001   5.753189
    27  C    3.376910   4.902245   4.183855   1.425832   4.477585
    28  H    4.416293   5.897661   4.962377   2.018571   5.352907
    29  H    2.856668   5.093331   4.799099   2.104113   4.188881
    30  H    3.508147   4.253242   3.988203   2.107399   4.973035
    31  C    4.190955   5.299204   4.559742   5.592600   2.367086
    32  H    4.756312   5.104289   4.512126   6.149548   3.277029
    33  H    4.334127   5.814061   5.494827   6.223564   2.659535
    34  H    4.850705   6.107111   4.830531   5.690288   2.655569
                   16         17         18         19         20
    16  H    0.000000
    17  H    1.778451   0.000000
    18  O    2.086386   2.081062   0.000000
    19  C    6.660716   6.385447   5.399351   0.000000
    20  H    7.600002   7.195593   6.188191   1.090514   0.000000
    21  H    6.897244   6.890378   5.784939   1.094790   1.780813
    22  H    6.518869   6.120902   5.490190   1.098991   1.782356
    23  C    5.789669   6.445250   4.774911   3.635868   4.371747
    24  H    6.145595   6.989774   5.194657   4.685654   5.349103
    25  H    6.330925   7.005428   5.537123   3.579305   4.338551
    26  H    6.242037   6.636140   4.905130   3.098615   3.637980
    27  C    4.719021   5.077852   5.160350   4.690502   5.722913
    28  H    5.439728   5.943971   6.116573   5.563173   6.571019
    29  H    4.529257   4.569017   5.047158   4.959581   5.938103
    30  H    5.374559   5.590575   5.417476   3.798779   4.795303
    31  C    2.670333   2.655670   1.427723   6.605831   7.298105
    32  H    3.643043   3.632659   2.030003   6.493505   7.081462
    33  H    3.065940   2.473610   2.089235   7.106169   7.738466
    34  H    2.485256   3.043505   2.087460   7.366474   8.128578
                   21         22         23         24         25
    21  H    0.000000
    22  H    1.787605   0.000000
    23  C    3.045725   4.349764   0.000000
    24  H    4.078166   5.436092   1.091406   0.000000
    25  H    2.732790   4.188791   1.098034   1.783351   0.000000
    26  H    2.656926   4.001496   1.095113   1.784121   1.793366
    27  C    4.555885   4.094447   5.019063   5.838649   4.678686
    28  H    5.302139   4.955405   5.701428   6.443480   5.220871
    29  H    5.055496   4.213913   5.752439   6.611770   5.534414
    30  H    3.605536   3.190632   4.569008   5.492563   4.115691
    31  C    7.013342   6.784690   5.730358   5.952304   6.613170
    32  H    6.891608   6.836527   5.481834   5.616589   6.462767
    33  H    7.640176   7.187128   6.671416   6.969471   7.525637
    34  H    7.657473   7.541820   6.044174   6.123204   6.907587
                   26         27         28         29         30
    26  H    0.000000
    27  C    5.564149   0.000000
    28  H    6.342851   1.090958   0.000000
    29  H    6.181275   1.098603   1.776908   0.000000
    30  H    4.987641   1.098424   1.777545   1.787570   0.000000
    31  C    5.808034   6.537986   7.456636   6.400081   6.836715
    32  H    5.421885   7.099974   8.051347   7.055321   7.259782
    33  H    6.672762   7.030899   7.964783   6.729049   7.357841
    34  H    6.286339   6.784131   7.603219   6.710597   7.204733
                   31         32         33         34
    31  C    0.000000
    32  H    1.090808   0.000000
    33  H    1.097948   1.788382   0.000000
    34  H    1.097568   1.787297   1.790318   0.000000
 Stoichiometry    C10H19O5(1+)
 Framework group  C1[X(C10H19O5)]
 Deg. of freedom    96
 Full point group                 C1      NOp   1
 Largest Abelian subgroup         C1      NOp   1
 Largest concise Abelian subgroup C1      NOp   1
                         Standard orientation:                         
 ---------------------------------------------------------------------
 Center     Atomic      Atomic             Coordinates (Angstroms)
 Number     Number       Type             X           Y           Z
 ---------------------------------------------------------------------
      1          6           0       -0.844480    0.029396    0.591347
      2          6           0       -0.650339   -0.865543   -0.676916
      3          6           0       -0.035252   -0.121497   -1.805893
      4          6           0        1.377760    1.141500   -0.316226
      5          6           0        0.293175    1.077515    0.783534
      6          1           0       -0.320310   -0.333568   -2.838442
      7          1           0        0.135324   -1.588186   -0.395847
      8          1           0       -1.788896    0.575666    0.478089
      9          1           0        1.684197    2.174370   -0.476865
     10          1           0        0.810464    0.762554    1.692820
     11          8           0        0.850013    0.762927   -1.681788
     12          8           0       -1.752409   -1.611694   -1.114547
     13          8           0       -0.870558   -0.755299    1.756176
     14          8           0       -0.205117    2.366513    1.091781
     15          6           0        2.615445    0.293828   -0.080049
     16          1           0        3.126478    0.713839    0.800244
     17          1           0        3.296797    0.383970   -0.939028
     18          8           0        2.221919   -1.042397    0.129116
     19          6           0       -2.943466   -0.876108   -1.434256
     20          1           0       -3.546558   -1.539338   -2.055244
     21          1           0       -3.508886   -0.614060   -0.534147
     22          1           0       -2.721629    0.039656   -1.999894
     23          6           0       -2.126715   -1.359257    2.075590
     24          1           0       -1.998058   -1.818678    3.057194
     25          1           0       -2.920540   -0.602920    2.134535
     26          1           0       -2.403449   -2.129258    1.347724
     27          6           0       -0.895056    3.069663    0.060975
     28          1           0       -1.171710    4.033532    0.490636
     29          1           0       -0.260209    3.249080   -0.817494
     30          1           0       -1.810347    2.554543   -0.260629
     31          6           0        3.320566   -1.917101    0.386525
     32          1           0        2.899630   -2.912433    0.534809
     33          1           0        4.016001   -1.934395   -0.462923
     34          1           0        3.861078   -1.609142    1.290773
 ---------------------------------------------------------------------
 Rotational constants (GHZ):           0.6531406           0.5026953           0.4358161
 Leave Link  202 at Fri May 24 08:30:49 2019, MaxMem=   402653184 cpu:               0.1 elap:               0.0
 (Enter /n/sw/g16_nehalem/g16/l301.exe)
 Standard basis: 6-31G(d) (6D, 7F)
 Ernie: Thresh=  0.10000D-02 Tol=  0.10000D-05 Strict=F.
 There are   263 symmetry adapted cartesian basis functions of A   symmetry.
 There are   263 symmetry adapted basis functions of A   symmetry.
   263 basis functions,   496 primitive gaussians,   263 cartesian basis functions
    59 alpha electrons       59 beta electrons
       nuclear repulsion energy      1181.6368635614 Hartrees.
 IExCor=  402 DFT=T Ex+Corr=B3LYP ExCW=0 ScaHFX=  0.200000
 ScaDFX=  0.800000  0.720000  1.000000  0.810000 ScalE2=  1.000000  1.000000
 IRadAn=      5 IRanWt=     -1 IRanGd=            0 ICorTp=0 IEmpDi=  4
 NAtoms=   34 NActive=   34 NUniq=   34 SFac= 1.00D+00 NAtFMM=   60 NAOKFM=F Big=F
 Integral buffers will be    131072 words long.
 Raffenetti 2 integral format.
 Two-electron integral symmetry is turned on.
 ------------------------------------------------------------------------------
 Polarizable Continuum Model (PCM)
 =================================
 Model                : PCM.
 Atomic radii         : UFF (Universal Force Field).
 Polarization charges : Total charges.
 Charge compensation  : None.
 Solution method      : On-the-fly selection.
 Cavity type          : Scaled VdW (van der Waals Surface) (Alpha=1.100).
 Cavity algorithm     : GePol (No added spheres)
                        Default sphere list used, NSphG=   34.
                        Lebedev-Laikov grids with approx.  5.0 points / Ang**2.
                        Smoothing algorithm: York/Karplus (Gamma=1.0000).
                        Polarization charges: spherical gaussians, with
                                              point-specific exponents (IZeta= 3).
                        Self-potential: point-specific (ISelfS= 7).
                        Self-field    : sphere-specific E.n sum rule (ISelfD= 2).
 1st derivatives      : Analytical E(r).r(x)/FMM algorithm (CHGder, D1EAlg=3).
                        Cavity 1st derivative terms included.
 Solvent              : TetraHydroFuran, Eps=   7.425700 Eps(inf)=   1.974025
 ------------------------------------------------------------------------------
 GePol: Number of generator spheres                  =      34
 GePol: Total number of spheres                      =      34
 GePol: Number of exposed spheres                    =      34 (100.00%)
 GePol: Number of points                             =    2246
 GePol: Average weight of points                     =       0.13
 GePol: Minimum weight of points                     =   0.15D-11
 GePol: Maximum weight of points                     =    0.20577
 GePol: Number of points with low weight             =     133
 GePol: Fraction of low-weight points (<1% of avg)   =       5.92%
 GePol: Cavity surface area                          =    295.336 Ang**2
 GePol: Cavity volume                                =    318.830 Ang**3
 Leave Link  301 at Fri May 24 08:30:49 2019, MaxMem=   402653184 cpu:               0.3 elap:               0.1
 (Enter /n/sw/g16_nehalem/g16/l302.exe)
 NPDir=0 NMtPBC=     1 NCelOv=     1 NCel=       1 NClECP=     1 NCelD=      1
         NCelK=      1 NCelE2=     1 NClLst=     1 CellRange=     0.0.
 One-electron integrals computed using PRISM.
 One-electron integral symmetry used in STVInt
 NBasis=   263 RedAO= T EigKep=  1.39D-03  NBF=   263
 NBsUse=   263 1.00D-06 EigRej= -1.00D+00 NBFU=   263
 Precomputing XC quadrature grid using
 IXCGrd= 4 IRadAn=           5 IRanWt=          -1 IRanGd=           0 AccXCQ= 0.00D+00.
 Generated NRdTot=       0 NPtTot=           0 NUsed=           0 NTot=          32
 NSgBfM=   262   262   262   262   262 MxSgAt=    34 MxSgA2=    34.
 Leave Link  302 at Fri May 24 08:30:50 2019, MaxMem=   402653184 cpu:               2.8 elap:               0.7
 (Enter /n/sw/g16_nehalem/g16/l303.exe)
 DipDrv:  MaxL=1.
 Leave Link  303 at Fri May 24 08:30:50 2019, MaxMem=   402653184 cpu:               0.2 elap:               0.1
 (Enter /n/sw/g16_nehalem/g16/l401.exe)
 ExpMin= 1.61D-01 ExpMax= 5.48D+03 ExpMxC= 8.25D+02 IAcc=3 IRadAn=         5 AccDes= 0.00D+00
 Harris functional with IExCor=  402 and IRadAn=       5 diagonalized for initial guess.
 HarFok:  IExCor=  402 AccDes= 0.00D+00 IRadAn=         5 IDoV= 1 UseB2=F ITyADJ=14
 ICtDFT=  3500011 ScaDFX=  1.000000  1.000000  1.000000  1.000000
 FoFCou: FMM=F IPFlag=           0 FMFlag=      100000 FMFlg1=           0
         NFxFlg=           0 DoJE=T BraDBF=F KetDBF=T FulRan=T
         wScrn=  0.000000 ICntrl=       500 IOpCl=  0 I1Cent=   200000004 NGrid=           0
         NMat0=    1 NMatS0=      1 NMatT0=    0 NMatD0=    1 NMtDS0=    0 NMtDT0=    0
 Petite list used in FoFCou.
 Harris En= -768.255050603137    
 JPrj=0 DoOrth=F DoCkMO=F.
 Leave Link  401 at Fri May 24 08:30:56 2019, MaxMem=   402653184 cpu:              21.4 elap:               5.4
 (Enter /n/sw/g16_nehalem/g16/l502.exe)
 Integral symmetry usage will be decided dynamically.
 Closed shell SCF:
 Using DIIS extrapolation, IDIIS=  1040.
 NGot=   402653184 LenX=   402510103 LenY=   402440493
 Requested convergence on RMS density matrix=1.00D-08 within 128 cycles.
 Requested convergence on MAX density matrix=1.00D-06.
 Requested convergence on             energy=1.00D-06.
 No special actions if energy rises.
 Fock matrices will be formed incrementally for  20 cycles.

 Cycle   1  Pass 1  IDiag  1:
 FoFJK:  IHMeth= 1 ICntrl=       0 DoSepK=F KAlg= 0 I1Cent=           0 FoldK=F
 IRaf= 900000000 NMat=       1 IRICut=       1 DoRegI=T DoRafI=F ISym2E= 0 IDoP0=0 IntGTp=1.
 FoFCou: FMM=F IPFlag=           0 FMFlag=      100000 FMFlg1=           0
         NFxFlg=           0 DoJE=F BraDBF=F KetDBF=F FulRan=T
         wScrn=  0.000000 ICntrl=         0 IOpCl=  0 I1Cent=           0 NGrid=           0
         NMat0=    1 NMatS0=      1 NMatT0=    0 NMatD0=    1 NMtDS0=    0 NMtDT0=    0
 Symmetry not used in FoFCou.
 Inv3:  Mode=1 IEnd=    15133548.
 Iteration    1 A*A^-1 deviation from unit magnitude is 5.66D-15 for   2243.
 Iteration    1 A*A^-1 deviation from orthogonality  is 2.61D-15 for   2128   1174.
 Iteration    1 A^-1*A deviation from unit magnitude is 5.66D-15 for   2243.
 Iteration    1 A^-1*A deviation from orthogonality  is 1.48D-15 for   1664    279.
 E= -768.083687243343    
 DIIS: error= 2.03D-02 at cycle   1 NSaved=   1.
 NSaved= 1 IEnMin= 1 EnMin= -768.083687243343     IErMin= 1 ErrMin= 2.03D-02
 ErrMax= 2.03D-02  0.00D+00 EMaxC= 1.00D-01 BMatC= 2.57D-01 BMatP= 2.57D-01
 IDIUse=3 WtCom= 7.97D-01 WtEn= 2.03D-01
 Coeff-Com:  0.100D+01
 Coeff-En:   0.100D+01
 Coeff:      0.100D+01
 Gap=     0.016 Goal=   None    Shift=    0.000
 GapD=    0.016 DampG=0.250 DampE=0.500 DampFc=0.2500 IDamp=-1.
 Damping current iteration by 2.50D-01
 RMSDP=4.71D-03 MaxDP=1.15D-01              OVMax= 4.11D-01

 Cycle   2  Pass 1  IDiag  1:
 RMSU=  1.17D-03    CP:  9.95D-01
 E= -768.159930250088     Delta-E=       -0.076243006745 Rises=F Damp=T
 DIIS: error= 9.94D-03 at cycle   2 NSaved=   2.
 NSaved= 2 IEnMin= 2 EnMin= -768.159930250088     IErMin= 2 ErrMin= 9.94D-03
 ErrMax= 9.94D-03  0.00D+00 EMaxC= 1.00D-01 BMatC= 7.06D-02 BMatP= 2.57D-01
 IDIUse=3 WtCom= 9.01D-01 WtEn= 9.94D-02
 Coeff-Com: -0.743D+00 0.174D+01
 Coeff-En:   0.000D+00 0.100D+01
 Coeff:     -0.669D+00 0.167D+01
 Gap=     0.128 Goal=   None    Shift=    0.000
 RMSDP=1.39D-03 MaxDP=3.11D-02 DE=-7.62D-02 OVMax= 2.67D-01

 Cycle   3  Pass 1  IDiag  1:
 RMSU=  1.32D-03    CP:  9.86D-01  1.31D+00
 E= -768.292114915432     Delta-E=       -0.132184665345 Rises=F Damp=F
 DIIS: error= 9.25D-03 at cycle   3 NSaved=   3.
 NSaved= 3 IEnMin= 3 EnMin= -768.292114915432     IErMin= 3 ErrMin= 9.25D-03
 ErrMax= 9.25D-03  0.00D+00 EMaxC= 1.00D-01 BMatC= 3.66D-02 BMatP= 7.06D-02
 IDIUse=3 WtCom= 9.08D-01 WtEn= 9.25D-02
 Coeff-Com: -0.515D+00 0.102D+01 0.493D+00
 Coeff-En:   0.000D+00 0.000D+00 0.100D+01
 Coeff:     -0.467D+00 0.927D+00 0.540D+00
 Gap=     0.139 Goal=   None    Shift=    0.000
 RMSDP=8.17D-04 MaxDP=3.29D-02 DE=-1.32D-01 OVMax= 4.52D-02

 Cycle   4  Pass 1  IDiag  1:
 RMSU=  5.90D-04    CP:  9.90D-01  1.53D+00  6.24D-01
 E= -768.321017481080     Delta-E=       -0.028902565648 Rises=F Damp=F
 DIIS: error= 2.17D-03 at cycle   4 NSaved=   4.
 NSaved= 4 IEnMin= 4 EnMin= -768.321017481080     IErMin= 4 ErrMin= 2.17D-03
 ErrMax= 2.17D-03  0.00D+00 EMaxC= 1.00D-01 BMatC= 2.92D-03 BMatP= 3.66D-02
 IDIUse=3 WtCom= 9.78D-01 WtEn= 2.17D-02
 Coeff-Com: -0.196D+00 0.332D+00 0.238D+00 0.626D+00
 Coeff-En:   0.000D+00 0.000D+00 0.000D+00 0.100D+01
 Coeff:     -0.192D+00 0.325D+00 0.232D+00 0.634D+00
 Gap=     0.133 Goal=   None    Shift=    0.000
 RMSDP=2.17D-04 MaxDP=1.10D-02 DE=-2.89D-02 OVMax= 1.35D-02

 Cycle   5  Pass 1  IDiag  1:
 RMSU=  1.73D-04    CP:  9.89D-01  1.54D+00  6.91D-01  8.38D-01
 E= -768.323071394990     Delta-E=       -0.002053913909 Rises=F Damp=F
 DIIS: error= 1.04D-03 at cycle   5 NSaved=   5.
 NSaved= 5 IEnMin= 5 EnMin= -768.323071394990     IErMin= 5 ErrMin= 1.04D-03
 ErrMax= 1.04D-03  0.00D+00 EMaxC= 1.00D-01 BMatC= 5.70D-04 BMatP= 2.92D-03
 IDIUse=3 WtCom= 9.90D-01 WtEn= 1.04D-02
 Coeff-Com: -0.698D-01 0.104D+00 0.538D-01 0.335D+00 0.577D+00
 Coeff-En:   0.000D+00 0.000D+00 0.000D+00 0.860D-01 0.914D+00
 Coeff:     -0.690D-01 0.103D+00 0.533D-01 0.332D+00 0.581D+00
 Gap=     0.132 Goal=   None    Shift=    0.000
 RMSDP=8.52D-05 MaxDP=3.81D-03 DE=-2.05D-03 OVMax= 4.79D-03

 Cycle   6  Pass 1  IDiag  1:
 RMSU=  6.17D-05    CP:  9.89D-01  1.55D+00  6.90D-01  9.17D-01  8.07D-01
 E= -768.323449390171     Delta-E=       -0.000377995181 Rises=F Damp=F
 DIIS: error= 2.92D-04 at cycle   6 NSaved=   6.
 NSaved= 6 IEnMin= 6 EnMin= -768.323449390171     IErMin= 6 ErrMin= 2.92D-04
 ErrMax= 2.92D-04  0.00D+00 EMaxC= 1.00D-01 BMatC= 7.99D-05 BMatP= 5.70D-04
 IDIUse=3 WtCom= 9.97D-01 WtEn= 2.92D-03
 Coeff-Com: -0.228D-01 0.284D-01-0.110D-02 0.132D+00 0.355D+00 0.508D+00
 Coeff-En:   0.000D+00 0.000D+00 0.000D+00 0.000D+00 0.000D+00 0.100D+01
 Coeff:     -0.227D-01 0.284D-01-0.109D-02 0.132D+00 0.354D+00 0.509D+00
 Gap=     0.132 Goal=   None    Shift=    0.000
 RMSDP=3.02D-05 MaxDP=1.79D-03 DE=-3.78D-04 OVMax= 2.23D-03

 Cycle   7  Pass 1  IDiag  1:
 RMSU=  2.27D-05    CP:  9.89D-01  1.56D+00  6.89D-01  9.41D-01  8.65D-01
                    CP:  8.47D-01
 E= -768.323511105492     Delta-E=       -0.000061715321 Rises=F Damp=F
 DIIS: error= 8.48D-05 at cycle   7 NSaved=   7.
 NSaved= 7 IEnMin= 7 EnMin= -768.323511105492     IErMin= 7 ErrMin= 8.48D-05
 ErrMax= 8.48D-05  0.00D+00 EMaxC= 1.00D-01 BMatC= 7.15D-06 BMatP= 7.99D-05
 IDIUse=1 WtCom= 1.00D+00 WtEn= 0.00D+00
 Coeff-Com: -0.480D-02 0.414D-02-0.102D-01 0.303D-01 0.129D+00 0.281D+00
 Coeff-Com:  0.571D+00
 Coeff:     -0.480D-02 0.414D-02-0.102D-01 0.303D-01 0.129D+00 0.281D+00
 Coeff:      0.571D+00
 Gap=     0.131 Goal=   None    Shift=    0.000
 RMSDP=1.20D-05 MaxDP=5.90D-04 DE=-6.17D-05 OVMax= 9.82D-04

 Cycle   8  Pass 1  IDiag  1:
 RMSU=  7.95D-06    CP:  9.89D-01  1.56D+00  6.89D-01  9.51D-01  8.93D-01
                    CP:  8.94D-01  8.29D-01
 E= -768.323517428808     Delta-E=       -0.000006323316 Rises=F Damp=F
 DIIS: error= 3.07D-05 at cycle   8 NSaved=   8.
 NSaved= 8 IEnMin= 8 EnMin= -768.323517428808     IErMin= 8 ErrMin= 3.07D-05
 ErrMax= 3.07D-05  0.00D+00 EMaxC= 1.00D-01 BMatC= 6.20D-07 BMatP= 7.15D-06
 IDIUse=1 WtCom= 1.00D+00 WtEn= 0.00D+00
 Coeff-Com:  0.777D-03-0.155D-02-0.471D-02-0.793D-02 0.565D-03 0.378D-01
 Coeff-Com:  0.255D+00 0.720D+00
 Coeff:      0.777D-03-0.155D-02-0.471D-02-0.793D-02 0.565D-03 0.378D-01
 Coeff:      0.255D+00 0.720D+00
 Gap=     0.131 Goal=   None    Shift=    0.000
 RMSDP=5.36D-06 MaxDP=1.28D-04 DE=-6.32D-06 OVMax= 8.19D-04

 Cycle   9  Pass 1  IDiag  1:
 RMSU=  2.72D-06    CP:  9.89D-01  1.56D+00  6.90D-01  9.55D-01  9.05D-01
                    CP:  9.26D-01  9.24D-01  9.56D-01
 E= -768.323518103162     Delta-E=       -0.000000674354 Rises=F Damp=F
 DIIS: error= 1.41D-05 at cycle   9 NSaved=   9.
 NSaved= 9 IEnMin= 9 EnMin= -768.323518103162     IErMin= 9 ErrMin= 1.41D-05
 ErrMax= 1.41D-05  0.00D+00 EMaxC= 1.00D-01 BMatC= 8.53D-08 BMatP= 6.20D-07
 IDIUse=1 WtCom= 1.00D+00 WtEn= 0.00D+00
 Coeff-Com:  0.473D-03-0.650D-03-0.139D-02-0.559D-02-0.904D-02-0.371D-02
 Coeff-Com:  0.752D-01 0.365D+00 0.580D+00
 Coeff:      0.473D-03-0.650D-03-0.139D-02-0.559D-02-0.904D-02-0.371D-02
 Coeff:      0.752D-01 0.365D+00 0.580D+00
 Gap=     0.131 Goal=   None    Shift=    0.000
 RMSDP=1.60D-06 MaxDP=4.27D-05 DE=-6.74D-07 OVMax= 2.03D-04

 Cycle  10  Pass 1  IDiag  1:
 RMSU=  1.03D-06    CP:  9.89D-01  1.55D+00  6.91D-01  9.55D-01  9.08D-01
                    CP:  9.37D-01  9.45D-01  1.01D+00  8.59D-01
 E= -768.323518186210     Delta-E=       -0.000000083048 Rises=F Damp=F
 DIIS: error= 2.21D-06 at cycle  10 NSaved=  10.
 NSaved=10 IEnMin=10 EnMin= -768.323518186210     IErMin=10 ErrMin= 2.21D-06
 ErrMax= 2.21D-06  0.00D+00 EMaxC= 1.00D-01 BMatC= 6.46D-09 BMatP= 8.53D-08
 IDIUse=1 WtCom= 1.00D+00 WtEn= 0.00D+00
 Coeff-Com:  0.209D-03-0.248D-03-0.103D-03-0.162D-02-0.440D-02-0.682D-02
 Coeff-Com: -0.516D-02 0.556D-01 0.234D+00 0.729D+00
 Coeff:      0.209D-03-0.248D-03-0.103D-03-0.162D-02-0.440D-02-0.682D-02
 Coeff:     -0.516D-02 0.556D-01 0.234D+00 0.729D+00
 Gap=     0.131 Goal=   None    Shift=    0.000
 RMSDP=6.96D-07 MaxDP=1.55D-05 DE=-8.30D-08 OVMax= 9.83D-05

 Cycle  11  Pass 1  IDiag  1:
 RMSU=  2.81D-07    CP:  9.89D-01  1.55D+00  6.91D-01  9.56D-01  9.09D-01
                    CP:  9.41D-01  9.55D-01  1.04D+00  9.21D-01  9.18D-01
 E= -768.323518195321     Delta-E=       -0.000000009111 Rises=F Damp=F
 DIIS: error= 7.06D-07 at cycle  11 NSaved=  11.
 NSaved=11 IEnMin=11 EnMin= -768.323518195321     IErMin=11 ErrMin= 7.06D-07
 ErrMax= 7.06D-07  0.00D+00 EMaxC= 1.00D-01 BMatC= 5.20D-10 BMatP= 6.46D-09
 IDIUse=1 WtCom= 1.00D+00 WtEn= 0.00D+00
 Coeff-Com:  0.335D-04-0.310D-04 0.640D-04-0.141D-03-0.881D-03-0.198D-02
 Coeff-Com: -0.821D-02-0.566D-02 0.442D-01 0.281D+00 0.692D+00
 Coeff:      0.335D-04-0.310D-04 0.640D-04-0.141D-03-0.881D-03-0.198D-02
 Coeff:     -0.821D-02-0.566D-02 0.442D-01 0.281D+00 0.692D+00
 Gap=     0.131 Goal=   None    Shift=    0.000
 RMSDP=1.83D-07 MaxDP=4.29D-06 DE=-9.11D-09 OVMax= 2.55D-05

 Cycle  12  Pass 1  IDiag  1:
 RMSU=  1.03D-07    CP:  9.89D-01  1.55D+00  6.91D-01  9.56D-01  9.09D-01
                    CP:  9.41D-01  9.56D-01  1.05D+00  9.47D-01  9.67D-01
                    CP:  8.99D-01
 E= -768.323518195943     Delta-E=       -0.000000000622 Rises=F Damp=F
 DIIS: error= 2.89D-07 at cycle  12 NSaved=  12.
 NSaved=12 IEnMin=12 EnMin= -768.323518195943     IErMin=12 ErrMin= 2.89D-07
 ErrMax= 2.89D-07  0.00D+00 EMaxC= 1.00D-01 BMatC= 1.12D-10 BMatP= 5.20D-10
 IDIUse=1 WtCom= 1.00D+00 WtEn= 0.00D+00
 Coeff-Com:  0.133D-05 0.804D-06 0.466D-04 0.119D-03 0.638D-04-0.169D-03
 Coeff-Com: -0.423D-02-0.114D-01-0.969D-02 0.464D-01 0.353D+00 0.626D+00
 Coeff:      0.133D-05 0.804D-06 0.466D-04 0.119D-03 0.638D-04-0.169D-03
 Coeff:     -0.423D-02-0.114D-01-0.969D-02 0.464D-01 0.353D+00 0.626D+00
 Gap=     0.131 Goal=   None    Shift=    0.000
 RMSDP=6.50D-08 MaxDP=1.98D-06 DE=-6.22D-10 OVMax= 6.63D-06

 Cycle  13  Pass 1  IDiag  1:
 RMSU=  3.20D-08    CP:  9.89D-01  1.55D+00  6.91D-01  9.56D-01  9.09D-01
                    CP:  9.42D-01  9.57D-01  1.05D+00  9.51D-01  9.86D-01
                    CP:  9.84D-01  7.70D-01
 E= -768.323518196050     Delta-E=       -0.000000000108 Rises=F Damp=F
 DIIS: error= 6.23D-08 at cycle  13 NSaved=  13.
 NSaved=13 IEnMin=13 EnMin= -768.323518196050     IErMin=13 ErrMin= 6.23D-08
 ErrMax= 6.23D-08  0.00D+00 EMaxC= 1.00D-01 BMatC= 4.23D-12 BMatP= 1.12D-10
 IDIUse=1 WtCom= 1.00D+00 WtEn= 0.00D+00
 Coeff-Com: -0.365D-05 0.473D-05 0.905D-05 0.529D-04 0.103D-03 0.158D-03
 Coeff-Com: -0.563D-03-0.258D-02-0.580D-02-0.592D-02 0.588D-01 0.211D+00
 Coeff-Com:  0.745D+00
 Coeff:     -0.365D-05 0.473D-05 0.905D-05 0.529D-04 0.103D-03 0.158D-03
 Coeff:     -0.563D-03-0.258D-02-0.580D-02-0.592D-02 0.588D-01 0.211D+00
 Coeff:      0.745D+00
 Gap=     0.131 Goal=   None    Shift=    0.000
 RMSDP=1.24D-08 MaxDP=3.85D-07 DE=-1.08D-10 OVMax= 1.38D-06

 Cycle  14  Pass 1  IDiag  1:
 RMSU=  8.56D-09    CP:  9.89D-01  1.55D+00  6.91D-01  9.56D-01  9.09D-01
                    CP:  9.42D-01  9.57D-01  1.05D+00  9.52D-01  9.87D-01
                    CP:  1.00D+00  8.28D-01  9.43D-01
 E= -768.323518196055     Delta-E=       -0.000000000005 Rises=F Damp=F
 DIIS: error= 2.80D-08 at cycle  14 NSaved=  14.
 NSaved=14 IEnMin=14 EnMin= -768.323518196055     IErMin=14 ErrMin= 2.80D-08
 ErrMax= 2.80D-08  0.00D+00 EMaxC= 1.00D-01 BMatC= 6.36D-13 BMatP= 4.23D-12
 IDIUse=1 WtCom= 1.00D+00 WtEn= 0.00D+00
 Coeff-Com: -0.110D-05 0.120D-05-0.964D-07 0.998D-05 0.322D-04 0.733D-04
 Coeff-Com:  0.120D-03-0.123D-03-0.170D-02-0.641D-02-0.582D-02 0.387D-01
 Coeff-Com:  0.334D+00 0.641D+00
 Coeff:     -0.110D-05 0.120D-05-0.964D-07 0.998D-05 0.322D-04 0.733D-04
 Coeff:      0.120D-03-0.123D-03-0.170D-02-0.641D-02-0.582D-02 0.387D-01
 Coeff:      0.334D+00 0.641D+00
 Gap=     0.131 Goal=   None    Shift=    0.000
 RMSDP=3.86D-09 MaxDP=1.19D-07 DE=-4.55D-12 OVMax= 3.53D-07

 Error on total polarization charges =  0.01310
 SCF Done:  E(RB3LYP) =  -768.323518196     A.U. after   14 cycles
            NFock= 14  Conv=0.39D-08     -V/T= 2.0091
 KE= 7.613886779765D+02 PE=-4.138049667920D+03 EE= 1.426700608186D+03
 Leave Link  502 at Fri May 24 08:33:20 2019, MaxMem=   402653184 cpu:             576.5 elap:             144.3
 (Enter /n/sw/g16_nehalem/g16/l601.exe)
 Copying SCF densities to generalized density rwf, IOpCl= 0 IROHF=0.

 **********************************************************************

            Population analysis using the SCF density.

 **********************************************************************

 Orbital symmetries:
       Occupied  (A) (A) (A) (A) (A) (A) (A) (A) (A) (A) (A) (A)
                 (A) (A) (A) (A) (A) (A) (A) (A) (A) (A) (A) (A)
                 (A) (A) (A) (A) (A) (A) (A) (A) (A) (A) (A) (A)
                 (A) (A) (A) (A) (A) (A) (A) (A) (A) (A) (A) (A)
                 (A) (A) (A) (A) (A) (A) (A) (A) (A) (A) (A)
       Virtual   (A) (A) (A) (A) (A) (A) (A) (A) (A) (A) (A) (A)
                 (A) (A) (A) (A) (A) (A) (A) (A) (A) (A) (A) (A)
                 (A) (A) (A) (A) (A) (A) (A) (A) (A) (A) (A) (A)
                 (A) (A) (A) (A) (A) (A) (A) (A) (A) (A) (A) (A)
                 (A) (A) (A) (A) (A) (A) (A) (A) (A) (A) (A) (A)
                 (A) (A) (A) (A) (A) (A) (A) (A) (A) (A) (A) (A)
                 (A) (A) (A) (A) (A) (A) (A) (A) (A) (A) (A) (A)
                 (A) (A) (A) (A) (A) (A) (A) (A) (A) (A) (A) (A)
                 (A) (A) (A) (A) (A) (A) (A) (A) (A) (A) (A) (A)
                 (A) (A) (A) (A) (A) (A) (A) (A) (A) (A) (A) (A)
                 (A) (A) (A) (A) (A) (A) (A) (A) (A) (A) (A) (A)
                 (A) (A) (A) (A) (A) (A) (A) (A) (A) (A) (A) (A)
                 (A) (A) (A) (A) (A) (A) (A) (A) (A) (A) (A) (A)
                 (A) (A) (A) (A) (A) (A) (A) (A) (A) (A) (A) (A)
                 (A) (A) (A) (A) (A) (A) (A) (A) (A) (A) (A) (A)
                 (A) (A) (A) (A) (A) (A) (A) (A) (A) (A) (A) (A)
                 (A) (A) (A) (A) (A) (A) (A) (A) (A) (A) (A) (A)
 The electronic state is 1-A.
 Alpha  occ. eigenvalues --  -19.32921 -19.20821 -19.19667 -19.19277 -19.18948
 Alpha  occ. eigenvalues --  -10.39532 -10.32249 -10.31262 -10.29907 -10.29708
 Alpha  occ. eigenvalues --  -10.28587 -10.26399 -10.25695 -10.25266 -10.24827
 Alpha  occ. eigenvalues --   -1.21665  -1.09512  -1.07999  -1.07650  -1.06546
 Alpha  occ. eigenvalues --   -0.87202  -0.85251  -0.77983  -0.75455  -0.74041
 Alpha  occ. eigenvalues --   -0.71969  -0.69422  -0.67793  -0.66718  -0.62080
 Alpha  occ. eigenvalues --   -0.59180  -0.58905  -0.57018  -0.54148  -0.53919
 Alpha  occ. eigenvalues --   -0.52571  -0.51699  -0.51285  -0.50737  -0.49022
 Alpha  occ. eigenvalues --   -0.48308  -0.48173  -0.46976  -0.46574  -0.45551
 Alpha  occ. eigenvalues --   -0.44238  -0.43353  -0.42979  -0.41719  -0.40853
 Alpha  occ. eigenvalues --   -0.39973  -0.37305  -0.36335  -0.35435  -0.35014
 Alpha  occ. eigenvalues --   -0.32859  -0.30439  -0.30021  -0.28305
 Alpha virt. eigenvalues --   -0.15163   0.00599   0.03481   0.05003   0.06015
 Alpha virt. eigenvalues --    0.06360   0.08301   0.08801   0.08993   0.09659
 Alpha virt. eigenvalues --    0.11179   0.11352   0.12149   0.12548   0.13243
 Alpha virt. eigenvalues --    0.13563   0.14023   0.14494   0.14878   0.15392
 Alpha virt. eigenvalues --    0.15884   0.16041   0.16148   0.16606   0.17212
 Alpha virt. eigenvalues --    0.18086   0.18712   0.21039   0.21862   0.23485
 Alpha virt. eigenvalues --    0.23797   0.26274   0.27313   0.28447   0.30057
 Alpha virt. eigenvalues --    0.42780   0.45199   0.46033   0.47750   0.48433
 Alpha virt. eigenvalues --    0.48578   0.49069   0.49544   0.49921   0.51202
 Alpha virt. eigenvalues --    0.52458   0.53298   0.54749   0.55263   0.55631
 Alpha virt. eigenvalues --    0.56788   0.57380   0.59602   0.61442   0.62840
 Alpha virt. eigenvalues --    0.63922   0.64953   0.67890   0.68174   0.72137
 Alpha virt. eigenvalues --    0.72809   0.74060   0.74814   0.76383   0.78056
 Alpha virt. eigenvalues --    0.78964   0.79391   0.80695   0.81087   0.81616
 Alpha virt. eigenvalues --    0.82444   0.83627   0.84300   0.84990   0.85945
 Alpha virt. eigenvalues --    0.86853   0.87209   0.87518   0.89352   0.90174
 Alpha virt. eigenvalues --    0.90727   0.92933   0.93647   0.94391   0.95326
 Alpha virt. eigenvalues --    0.96370   0.96829   0.97878   1.01074   1.02260
 Alpha virt. eigenvalues --    1.03950   1.06254   1.07661   1.10064   1.10864
 Alpha virt. eigenvalues --    1.12627   1.14194   1.15685   1.20213   1.22401
 Alpha virt. eigenvalues --    1.24080   1.26534   1.28348   1.29102   1.33154
 Alpha virt. eigenvalues --    1.34504   1.36498   1.38219   1.38740   1.41626
 Alpha virt. eigenvalues --    1.42468   1.44396   1.45971   1.46647   1.48388
 Alpha virt. eigenvalues --    1.51460   1.52059   1.54745   1.56893   1.58760
 Alpha virt. eigenvalues --    1.61267   1.62968   1.66027   1.68658   1.71411
 Alpha virt. eigenvalues --    1.73318   1.76160   1.77592   1.78311   1.80429
 Alpha virt. eigenvalues --    1.82605   1.83764   1.84722   1.87502   1.88448
 Alpha virt. eigenvalues --    1.90606   1.94211   1.95686   1.98540   1.99985
 Alpha virt. eigenvalues --    2.00536   2.00981   2.02615   2.03957   2.05213
 Alpha virt. eigenvalues --    2.05633   2.06142   2.07363   2.08289   2.11343
 Alpha virt. eigenvalues --    2.12493   2.14233   2.15086   2.16382   2.18383
 Alpha virt. eigenvalues --    2.19303   2.20130   2.22616   2.24121   2.25533
 Alpha virt. eigenvalues --    2.28814   2.31300   2.32102   2.34228   2.35580
 Alpha virt. eigenvalues --    2.37740   2.40206   2.43417   2.45272   2.46429
 Alpha virt. eigenvalues --    2.47662   2.50726   2.53886   2.55494   2.57704
 Alpha virt. eigenvalues --    2.63679   2.66114   2.68599   2.74333   2.76645
 Alpha virt. eigenvalues --    2.79056   2.81251   2.85895   2.89239   2.91239
 Alpha virt. eigenvalues --    2.93369   2.97266   2.99721   3.04317   3.79933
 Alpha virt. eigenvalues --    3.89215   3.91989   4.02757   4.09912   4.14647
 Alpha virt. eigenvalues --    4.21858   4.22590   4.23824   4.24875   4.34484
 Alpha virt. eigenvalues --    4.37810   4.45502   4.52028   4.74852
          Condensed to atoms (all electrons):
               1          2          3          4          5          6
     1  C    5.038123   0.239911  -0.031687  -0.037741   0.279411   0.002882
     2  C    0.239911   5.174307   0.238913   0.004288  -0.030369  -0.038197
     3  C   -0.031687   0.238913   4.909127  -0.044947  -0.002996   0.354641
     4  C   -0.037741   0.004288  -0.044947   5.189290   0.247639   0.003553
     5  C    0.279411  -0.030369  -0.002996   0.247639   4.996411  -0.000478
     6  H    0.002882  -0.038197   0.354641   0.003553  -0.000478   0.427567
     7  H   -0.025153   0.335794  -0.035431  -0.000378  -0.002280   0.001198
     8  H    0.361281  -0.052340  -0.001831   0.001553  -0.040900  -0.000175
     9  H    0.003586  -0.000163   0.002620   0.370165  -0.035979  -0.000075
    10  H   -0.043911   0.002273  -0.000364  -0.044419   0.376633   0.000012
    11  O   -0.004558  -0.025778   0.363203   0.120036  -0.023018  -0.034380
    12  O   -0.030977   0.232010  -0.032770   0.000094   0.002172   0.003508
    13  O    0.211722  -0.040465   0.003651   0.002016  -0.034741  -0.000046
    14  O   -0.033448   0.002534   0.000185  -0.038975   0.241026   0.000002
    15  C   -0.001618   0.000846  -0.003061   0.332375  -0.022175  -0.000265
    16  H    0.000299  -0.000226   0.000330  -0.032682  -0.006700   0.000008
    17  H   -0.000314   0.000142  -0.000621  -0.031105   0.005228  -0.000068
    18  O    0.001316  -0.016341   0.008155  -0.052597   0.002322   0.000086
    19  C   -0.004727  -0.042071  -0.007288   0.000009   0.000033   0.000489
    20  H    0.000056   0.004477   0.000001  -0.000001   0.000001  -0.000186
    21  H    0.002467  -0.003951  -0.000532   0.000007  -0.000153   0.000152
    22  H   -0.001530  -0.005470   0.008183  -0.000013  -0.000072   0.000238
    23  C   -0.033214  -0.002836   0.000120  -0.000197   0.004901   0.000002
    24  H    0.004740  -0.000145   0.000006   0.000002  -0.000098   0.000000
    25  H   -0.009216  -0.000746   0.000039  -0.000014  -0.000251  -0.000001
    26  H   -0.004300   0.002942  -0.000120   0.000026  -0.000151   0.000007
    27  C   -0.008446  -0.000241   0.000787  -0.005673  -0.044164   0.000013
    28  H    0.000001   0.000002   0.000001  -0.000171   0.004853   0.000000
    29  H   -0.001114   0.000226  -0.000177   0.009957  -0.008071  -0.000032
    30  H    0.006074  -0.001865   0.000666  -0.001688  -0.004499   0.000001
    31  C   -0.000079   0.000494  -0.000228   0.005686   0.000001   0.000000
    32  H    0.000005   0.000101   0.000021  -0.000240  -0.000014   0.000000
    33  H   -0.000006  -0.000006  -0.000060  -0.000092   0.000054  -0.000001
    34  H    0.000011  -0.000041   0.000021   0.000016  -0.000101   0.000000
               7          8          9         10         11         12
     1  C   -0.025153   0.361281   0.003586  -0.043911  -0.004558  -0.030977
     2  C    0.335794  -0.052340  -0.000163   0.002273  -0.025778   0.232010
     3  C   -0.035431  -0.001831   0.002620  -0.000364   0.363203  -0.032770
     4  C   -0.000378   0.001553   0.370165  -0.044419   0.120036   0.000094
     5  C   -0.002280  -0.040900  -0.035979   0.376633  -0.023018   0.002172
     6  H    0.001198  -0.000175  -0.000075   0.000012  -0.034380   0.003508
     7  H    0.439303   0.004428  -0.000029   0.000748  -0.000808  -0.026536
     8  H    0.004428   0.563577  -0.000168   0.003925   0.000716  -0.004693
     9  H   -0.000029  -0.000168   0.467199   0.000917  -0.029564   0.000002
    10  H    0.000748   0.003925   0.000917   0.494202   0.002325  -0.000053
    11  O   -0.000808   0.000716  -0.029564   0.002325   7.967942   0.001659
    12  O   -0.026536  -0.004693   0.000002  -0.000053   0.001659   8.194249
    13  O    0.000629  -0.033166  -0.000050   0.008564   0.000012   0.001709
    14  O   -0.000021  -0.002131   0.001371  -0.032387   0.000618  -0.000009
    15  C   -0.001542   0.000009  -0.028826  -0.000707  -0.033233  -0.000020
    16  H    0.000169  -0.000007   0.000897   0.000808   0.002830   0.000000
    17  H    0.000147   0.000005  -0.002123   0.000406  -0.001988   0.000000
    18  O    0.026358   0.000014   0.002398   0.002986  -0.000317   0.000120
    19  C    0.004382   0.005220   0.000000  -0.000001   0.000028   0.226727
    20  H   -0.000092   0.000007   0.000000   0.000000   0.000000  -0.030305
    21  H   -0.000143   0.001618   0.000000   0.000004   0.000019  -0.036315
    22  H   -0.000056   0.000042   0.000000  -0.000001  -0.000596  -0.034444
    23  C   -0.000051  -0.007251   0.000002  -0.000062  -0.000001  -0.002159
    24  H   -0.000079  -0.000059   0.000000  -0.000110   0.000000   0.000114
    25  H    0.000115   0.011869   0.000000   0.000105   0.000000   0.000089
    26  H    0.000007  -0.001203   0.000000   0.000042  -0.000002   0.007138
    27  C    0.000009   0.002763   0.000255   0.004978   0.000612   0.000005
    28  H    0.000000  -0.000092  -0.000285  -0.000122   0.000037   0.000000
    29  H    0.000000   0.000361   0.000540  -0.000099  -0.000336  -0.000001
    30  H    0.000004   0.004853   0.000488  -0.000216   0.000037   0.000024
    31  C   -0.000729   0.000001  -0.000152  -0.000122  -0.000005  -0.000004
    32  H   -0.000377   0.000000   0.000002   0.000005   0.000000  -0.000002
    33  H    0.000094   0.000000   0.000005   0.000015   0.000009   0.000000
    34  H    0.000135   0.000000   0.000009  -0.000042   0.000000   0.000000
              13         14         15         16         17         18
     1  C    0.211722  -0.033448  -0.001618   0.000299  -0.000314   0.001316
     2  C   -0.040465   0.002534   0.000846  -0.000226   0.000142  -0.016341
     3  C    0.003651   0.000185  -0.003061   0.000330  -0.000621   0.008155
     4  C    0.002016  -0.038975   0.332375  -0.032682  -0.031105  -0.052597
     5  C   -0.034741   0.241026  -0.022175  -0.006700   0.005228   0.002322
     6  H   -0.000046   0.000002  -0.000265   0.000008  -0.000068   0.000086
     7  H    0.000629  -0.000021  -0.001542   0.000169   0.000147   0.026358
     8  H   -0.033166  -0.002131   0.000009  -0.000007   0.000005   0.000014
     9  H   -0.000050   0.001371  -0.028826   0.000897  -0.002123   0.002398
    10  H    0.008564  -0.032387  -0.000707   0.000808   0.000406   0.002986
    11  O    0.000012   0.000618  -0.033233   0.002830  -0.001988  -0.000317
    12  O    0.001709  -0.000009  -0.000020   0.000000   0.000000   0.000120
    13  O    8.232721   0.000906   0.000180  -0.000008   0.000000  -0.000081
    14  O    0.000906   8.199480   0.002087   0.000057  -0.000055   0.000047
    15  C    0.000180   0.002087   4.882388   0.357412   0.358291   0.235848
    16  H   -0.000008   0.000057   0.357412   0.561213  -0.043384  -0.036441
    17  H    0.000000  -0.000055   0.358291  -0.043384   0.566327  -0.039476
    18  O   -0.000081   0.000047   0.235848  -0.036441  -0.039476   8.216779
    19  C   -0.000207  -0.000009   0.000000   0.000000   0.000000  -0.000002
    20  H   -0.000004   0.000000   0.000000   0.000000   0.000000   0.000000
    21  H   -0.000132   0.000005   0.000000   0.000000   0.000000   0.000000
    22  H    0.000025  -0.000003   0.000000   0.000000   0.000000   0.000000
    23  C    0.232405  -0.000184  -0.000001   0.000000   0.000000  -0.000006
    24  H   -0.031682   0.000003   0.000000   0.000000   0.000000   0.000000
    25  H   -0.034471   0.000016   0.000000   0.000000   0.000000   0.000000
    26  H   -0.034635   0.000002  -0.000001   0.000000   0.000000   0.000001
    27  C    0.000062   0.242489   0.000497  -0.000002   0.000001  -0.000002
    28  H   -0.000002  -0.031066   0.000001   0.000000   0.000000   0.000000
    29  H   -0.000006  -0.038034  -0.000052  -0.000016   0.000026  -0.000001
    30  H   -0.000026  -0.038220  -0.000012   0.000001  -0.000001   0.000000
    31  C    0.000030   0.000000  -0.039526  -0.003909  -0.003817   0.237837
    32  H    0.000003   0.000000   0.005277  -0.000125  -0.000129  -0.030650
    33  H    0.000000   0.000000  -0.006508  -0.001945   0.010267  -0.035584
    34  H    0.000000   0.000000  -0.007075   0.010272  -0.001979  -0.034999
              19         20         21         22         23         24
     1  C   -0.004727   0.000056   0.002467  -0.001530  -0.033214   0.004740
     2  C   -0.042071   0.004477  -0.003951  -0.005470  -0.002836  -0.000145
     3  C   -0.007288   0.000001  -0.000532   0.008183   0.000120   0.000006
     4  C    0.000009  -0.000001   0.000007  -0.000013  -0.000197   0.000002
     5  C    0.000033   0.000001  -0.000153  -0.000072   0.004901  -0.000098
     6  H    0.000489  -0.000186   0.000152   0.000238   0.000002   0.000000
     7  H    0.004382  -0.000092  -0.000143  -0.000056  -0.000051  -0.000079
     8  H    0.005220   0.000007   0.001618   0.000042  -0.007251  -0.000059
     9  H    0.000000   0.000000   0.000000   0.000000   0.000002   0.000000
    10  H   -0.000001   0.000000   0.000004  -0.000001  -0.000062  -0.000110
    11  O    0.000028   0.000000   0.000019  -0.000596  -0.000001   0.000000
    12  O    0.226727  -0.030305  -0.036315  -0.034444  -0.002159   0.000114
    13  O   -0.000207  -0.000004  -0.000132   0.000025   0.232405  -0.031682
    14  O   -0.000009   0.000000   0.000005  -0.000003  -0.000184   0.000003
    15  C    0.000000   0.000000   0.000000   0.000000  -0.000001   0.000000
    16  H    0.000000   0.000000   0.000000   0.000000   0.000000   0.000000
    17  H    0.000000   0.000000   0.000000   0.000000   0.000000   0.000000
    18  O   -0.000002   0.000000   0.000000   0.000000  -0.000006   0.000000
    19  C    4.944176   0.386504   0.371682   0.361508  -0.000782   0.000039
    20  H    0.386504   0.495161  -0.030713  -0.025770   0.000006   0.000000
    21  H    0.371682  -0.030713   0.557969  -0.042985   0.001796  -0.000071
    22  H    0.361508  -0.025770  -0.042985   0.578104   0.000017   0.000000
    23  C   -0.000782   0.000006   0.001796   0.000017   4.921942   0.383318
    24  H    0.000039   0.000000  -0.000071   0.000000   0.383318   0.517872
    25  H   -0.000435   0.000018   0.001021   0.000003   0.367373  -0.027720
    26  H   -0.000901  -0.000006  -0.000610   0.000195   0.365211  -0.030103
    27  C   -0.000118   0.000001  -0.000012   0.000022   0.000006   0.000000
    28  H    0.000001   0.000000   0.000000  -0.000001  -0.000001   0.000000
    29  H   -0.000002   0.000000  -0.000001   0.000001  -0.000001   0.000000
    30  H    0.000175   0.000001  -0.000049   0.000688   0.000038   0.000000
    31  C    0.000000   0.000000   0.000000   0.000000   0.000000   0.000000
    32  H    0.000000   0.000000   0.000000   0.000000   0.000000   0.000000
    33  H    0.000000   0.000000   0.000000   0.000000   0.000000   0.000000
    34  H    0.000000   0.000000   0.000000   0.000000   0.000000   0.000000
              25         26         27         28         29         30
     1  C   -0.009216  -0.004300  -0.008446   0.000001  -0.001114   0.006074
     2  C   -0.000746   0.002942  -0.000241   0.000002   0.000226  -0.001865
     3  C    0.000039  -0.000120   0.000787   0.000001  -0.000177   0.000666
     4  C   -0.000014   0.000026  -0.005673  -0.000171   0.009957  -0.001688
     5  C   -0.000251  -0.000151  -0.044164   0.004853  -0.008071  -0.004499
     6  H   -0.000001   0.000007   0.000013   0.000000  -0.000032   0.000001
     7  H    0.000115   0.000007   0.000009   0.000000   0.000000   0.000004
     8  H    0.011869  -0.001203   0.002763  -0.000092   0.000361   0.004853
     9  H    0.000000   0.000000   0.000255  -0.000285   0.000540   0.000488
    10  H    0.000105   0.000042   0.004978  -0.000122  -0.000099  -0.000216
    11  O    0.000000  -0.000002   0.000612   0.000037  -0.000336   0.000037
    12  O    0.000089   0.007138   0.000005   0.000000  -0.000001   0.000024
    13  O   -0.034471  -0.034635   0.000062  -0.000002  -0.000006  -0.000026
    14  O    0.000016   0.000002   0.242489  -0.031066  -0.038034  -0.038220
    15  C    0.000000  -0.000001   0.000497   0.000001  -0.000052  -0.000012
    16  H    0.000000   0.000000  -0.000002   0.000000  -0.000016   0.000001
    17  H    0.000000   0.000000   0.000001   0.000000   0.000026  -0.000001
    18  O    0.000000   0.000001  -0.000002   0.000000  -0.000001   0.000000
    19  C   -0.000435  -0.000901  -0.000118   0.000001  -0.000002   0.000175
    20  H    0.000018  -0.000006   0.000001   0.000000   0.000000   0.000001
    21  H    0.001021  -0.000610  -0.000012   0.000000  -0.000001  -0.000049
    22  H    0.000003   0.000195   0.000022  -0.000001   0.000001   0.000688
    23  C    0.367373   0.365211   0.000006  -0.000001  -0.000001   0.000038
    24  H   -0.027720  -0.030103   0.000000   0.000000   0.000000   0.000000
    25  H    0.573979  -0.042936  -0.000015   0.000001   0.000000   0.000013
    26  H   -0.042936   0.568358   0.000000   0.000000   0.000000  -0.000003
    27  C   -0.000015   0.000000   4.943470   0.389380   0.360560   0.359711
    28  H    0.000001   0.000000   0.389380   0.498521  -0.028839  -0.028750
    29  H    0.000000   0.000000   0.360560  -0.028839   0.593941  -0.047899
    30  H    0.000013  -0.000003   0.359711  -0.028750  -0.047899   0.588912
    31  C    0.000000   0.000000   0.000000   0.000000   0.000000   0.000000
    32  H    0.000000   0.000000   0.000000   0.000000   0.000000   0.000000
    33  H    0.000000   0.000000   0.000000   0.000000   0.000000   0.000000
    34  H    0.000000   0.000000   0.000000   0.000000   0.000000   0.000000
              31         32         33         34
     1  C   -0.000079   0.000005  -0.000006   0.000011
     2  C    0.000494   0.000101  -0.000006  -0.000041
     3  C   -0.000228   0.000021  -0.000060   0.000021
     4  C    0.005686  -0.000240  -0.000092   0.000016
     5  C    0.000001  -0.000014   0.000054  -0.000101
     6  H    0.000000   0.000000  -0.000001   0.000000
     7  H   -0.000729  -0.000377   0.000094   0.000135
     8  H    0.000001   0.000000   0.000000   0.000000
     9  H   -0.000152   0.000002   0.000005   0.000009
    10  H   -0.000122   0.000005   0.000015  -0.000042
    11  O   -0.000005   0.000000   0.000009   0.000000
    12  O   -0.000004  -0.000002   0.000000   0.000000
    13  O    0.000030   0.000003   0.000000   0.000000
    14  O    0.000000   0.000000   0.000000   0.000000
    15  C   -0.039526   0.005277  -0.006508  -0.007075
    16  H   -0.003909  -0.000125  -0.001945   0.010272
    17  H   -0.003817  -0.000129   0.010267  -0.001979
    18  O    0.237837  -0.030650  -0.035584  -0.034999
    19  C    0.000000   0.000000   0.000000   0.000000
    20  H    0.000000   0.000000   0.000000   0.000000
    21  H    0.000000   0.000000   0.000000   0.000000
    22  H    0.000000   0.000000   0.000000   0.000000
    23  C    0.000000   0.000000   0.000000   0.000000
    24  H    0.000000   0.000000   0.000000   0.000000
    25  H    0.000000   0.000000   0.000000   0.000000
    26  H    0.000000   0.000000   0.000000   0.000000
    27  C    0.000000   0.000000   0.000000   0.000000
    28  H    0.000000   0.000000   0.000000   0.000000
    29  H    0.000000   0.000000   0.000000   0.000000
    30  H    0.000000   0.000000   0.000000   0.000000
    31  C    4.891571   0.385418   0.369690   0.371857
    32  H    0.385418   0.514501  -0.029772  -0.029241
    33  H    0.369690  -0.029772   0.572973  -0.042656
    34  H    0.371857  -0.029241  -0.042656   0.567231
 Mulliken charges:
               1
     1  C    0.120153
     2  C    0.021992
     3  C    0.271446
     4  C    0.004222
     5  C    0.096527
     6  H    0.279545
     7  H    0.280185
     8  H    0.181776
     9  H    0.246955
    10  H    0.223668
    11  O   -0.305497
    12  O   -0.471332
    13  O   -0.484912
    14  O   -0.476286
    15  C   -0.030590
    16  H    0.191149
    17  H    0.184220
    18  O   -0.487769
    19  C   -0.244431
    20  H    0.200844
    21  H    0.178930
    22  H    0.161913
    23  C   -0.230393
    24  H    0.183974
    25  H    0.161165
    26  H    0.171045
    27  C   -0.246948
    28  H    0.196529
    29  H    0.159068
    30  H    0.161542
    31  C   -0.214014
    32  H    0.185215
    33  H    0.163525
    34  H    0.166582
 Sum of Mulliken charges =   1.00000
 Mulliken charges with hydrogens summed into heavy atoms:
               1
     1  C    0.301929
     2  C    0.302177
     3  C    0.550991
     4  C    0.251177
     5  C    0.320195
    11  O   -0.305497
[...]
 ,0.00001720,-0.00003348,0.00019549,-0.00001828,0.00001619,-0.00002244,
 -0.00005217,0.00003101,-0.00000838,-0.00008228,0.00011873,-0.00004559,
 -0.00002867,-0.00000545,0.00004242,0.00000564,-0.00000161,-0.00000561,
 0.00001639,0.00001006,-0.00001214,-0.00000352,0.00000485,0.00001388,0.
 00003413,0.00005274,-0.00000717,-0.00000261,-0.00000638,0.00000659,-0.
 00000799,-0.00000308,-0.00000453,-0.00000789,-0.00000793,-0.00000081,-
 0.02158143,-0.05953724,0.02432534,0.01771857,0.00707098,-0.02211532,0.
 02009845,0.05964601,-0.00057738,0.00011107,0.00001958,0.00006732,0.000
 07373,0.00007042,0.00022741,0.00008892,-0.00026836,0.00015936,0.001171
 52,0.00048959,0.00230060,-0.00533335,-0.00063248,-0.00000066,-0.000003
 20,0.00002533,-0.00000740,-0.00001763,-0.00001297,-0.00006864,-0.00000
 487,-0.00010577,-0.00047637,-0.00000033,-0.00010130,-0.00031394,0.0001
 7146,0.00016083,-0.00029778,-0.00042445,0.00035267,0.00012993,0.000112
 98,0.00018167,0.00024500,0.00019971,0.00000840,0.00273845,0.01527308,-
 0.02958396,-0.00046612,-0.00026122,0.00026908,0.00001149,0.00001181,-0
 .00000021,-0.00010346,0.00008931,-0.00002071,0.00009568,-0.00012167,0.
 00006239,-0.00006691,0.00005713,-0.00004473,0.00001180,-0.00000494,0.0
 0001204,0.00000109,-0.00000737,0.00000020,-0.00000038,-0.00001146,0.00
 000278,-0.00015593,-0.00006989,0.00002598,0.00002256,0.00001533,-0.000
 01983,0.00002136,-0.00000391,0.00000188,0.00002984,0.00002164,0.000009
 39,0.11892628,0.02593896,-0.20002613,0.00919514,0.00159521,-0.00865229
 ,-0.12752425,-0.03643290,0.22871034,-0.00085703,0.00099366,0.00018819,
 0.00018169,0.00050811,-0.00009895,-0.00259793,0.00132377,0.00041556,-0
 .00061394,0.00005718,-0.00045476,0.00101583,-0.00503612,-0.00110267,0.
 00001096,0.00005235,0.00001086,-0.00004369,-0.00003152,-0.00002635,0.0
 0011334,-0.00003922,-0.00034368,0.00031110,-0.00005253,-0.00006088,-0.
 00000493,0.00043642,0.00007747,0.00021637,0.00011195,0.00036833,0.0001
 3911,-0.00000157,0.00013654,0.00053012,-0.00056500,0.00048066,-0.01595
 142,0.00421553,-0.01519909,0.00008365,-0.00006460,0.00017430,0.0000383
 8,-0.00001664,0.00000962,-0.00006395,0.00005264,-0.00000145,-0.0000526
 6,0.00013447,0.00000447,0.00009415,0.00044798,0.00000049,-0.00001056,-
 0.00006878,0.00003149,0.00001291,-0.00001387,0.00000109,-0.00055363,-0
 .00091432,0.00018821,0.00014647,0.00019491,-0.00007950,-0.00000315,-0.
 00001478,0.00001442,-0.00003555,0.00000204,-0.00002592,-0.00001098,0.0
 0000064,-0.00000298,-0.22264755,-0.10424299,-0.05042505,0.00862424,0.0
 0311722,0.00291201,-0.01511167,-0.01181340,-0.00412848,0.24700871,-0.0
 0007176,-0.00071679,0.00026506,-0.00055691,0.00006401,0.00034031,0.001
 73241,-0.00095155,0.00017660,0.00023255,-0.00039460,-0.00010907,0.0012
 9231,0.00280977,-0.00015403,-0.00000500,0.00001148,0.00001066,0.000021
 57,0.00004063,0.00005642,-0.00029694,-0.00206682,0.00127722,0.00003279
 ,0.00001937,0.00002114,-0.00021069,-0.00015051,-0.00001651,0.00018554,
 0.00020728,0.00016454,0.00026483,-0.00013720,0.00000486,0.00052546,0.0
 0040801,-0.00002010,0.01922539,0.01046288,0.00917491,0.00008843,-0.000
 02782,-0.00002577,-0.00000858,0.00001223,0.00000173,0.00000747,-0.0000
 0459,0.00001279,-0.00005125,0.00006456,-0.00001319,-0.00010646,-0.0000
 3558,-0.00006688,-0.00001343,-0.00002832,0.00002877,-0.00000995,-0.000
 01756,-0.00000857,-0.00092744,-0.00167016,-0.00140610,-0.00012120,0.00
 001265,-0.00004885,0.00003099,0.00001279,-0.00000490,0.00001544,-0.000
 00488,0.00000772,0.00001734,0.00001034,0.00000306,-0.10541264,-0.11995
 271,-0.03446219,-0.02451540,-0.01222796,-0.00582688,-0.00261321,-0.001
 10040,-0.00216483,0.11123131,0.12536597,-0.00111676,0.00124783,-0.0003
 7256,0.00033756,-0.00011688,-0.00004741,-0.00009734,-0.00013357,0.0004
 0836,0.00026139,0.00076314,-0.00029429,0.00166762,-0.00402546,-0.00017
 382,0.00000561,0.00001517,0.00000363,0.00001605,-0.00005590,-0.0000858
 3,0.00016639,0.00066307,-0.00100809,-0.00004721,-0.00002433,-0.0001290
 2,0.00002703,0.00031874,0.00000238,0.00000783,0.00037128,0.00028039,0.
 00021275,0.00014065,0.00019482,0.00036891,-0.00016093,0.00016852,-0.02
 933832,-0.00406591,-0.01545906,-0.00017508,-0.00014619,0.00019764,0.00
 002187,0.00000053,0.00000236,-0.00007047,0.00006158,-0.00000070,-0.000
 00811,0.00002704,0.00002527,-0.00013928,0.00001469,0.00020214,0.000002
 43,-0.00003886,0.00001043,0.00002162,0.00001134,-0.00002182,0.00038065
 ,-0.00043738,-0.00090531,-0.00011237,0.00008033,-0.00000825,0.00002782
 ,0.00000293,-0.00001063,0.00001660,-0.00000814,-0.00000875,0.00001938,
 -0.00000070,0.00000381,-0.04947740,-0.03228877,-0.06889282,-0.01131844
 ,-0.00742616,-0.00214334,0.02139451,0.01247139,0.00905249,0.06692524,0
 .03277845,0.07899793,-0.00025812,-0.00020697,0.00056230,-0.00065240,-0
 .00070878,-0.00074258,-0.00166331,-0.00044016,-0.00031800,-0.00177440,
 -0.00484912,-0.00034739,-0.00114195,0.00118733,0.00106195,-0.00000753,
 0.00022913,-0.00005669,-0.00149173,-0.00000469,-0.00026883,0.00015875,
 0.00000780,-0.00012129,0.00139411,-0.00084970,0.00061025,-0.00013505,0
 .00018252,0.00032023,0.00131384,0.00044152,-0.00005259,0.00098693,0.00
 021175,0.00033041,0.00068852,0.00041407,-0.00067804,0.00087777,-0.0009
 6159,-0.00010572,0.00653419,0.00354020,0.00057276,0.00091010,-0.005630
 83,0.00081338,0.00094429,-0.00610141,0.00095548,-0.17423600,0.07926984
 ,-0.02407176,-0.00040686,0.00025842,-0.00007935,0.00008689,0.00000150,
 0.00003488,0.00004014,-0.00005267,-0.00001652,-0.00000408,-0.00001473,
 0.00000273,-0.00056368,-0.00023067,0.00019518,0.00005855,0.00005276,-0
 .00006559,0.00012476,-0.00000920,0.00000936,0.00008504,0.00002895,0.00
 002769,-0.00040659,0.00019780,-0.00033178,0.00008337,-0.00008621,-0.00
 000006,0.00002009,0.00006240,0.00000518,0.00005652,0.00003442,0.000036
 89,0.51524221,0.00072145,-0.00010661,-0.00077041,-0.00009728,0.0000972
 3,0.00026010,0.00152417,-0.00062043,0.00149472,-0.00095388,-0.00523627
 ,0.00139361,0.00046889,-0.00100049,-0.00038752,0.00009017,-0.00012323,
 -0.00001245,0.00174895,0.00139389,0.00018881,-0.00014988,0.00000330,0.
 00016309,0.00083480,-0.00015011,-0.00002124,0.00016612,-0.00019764,-0.
 00046855,-0.00093121,0.00039378,-0.00024093,-0.00147053,0.00016801,-0.
 00047507,-0.00064885,-0.00038465,0.00068669,-0.00055242,0.00080623,-0.
 00010372,0.03027715,-0.04468290,0.00981622,0.00155154,0.00424221,0.000
 58259,0.00125251,0.00445860,-0.00125841,0.03758527,-0.12545008,0.01429
 651,0.00034393,-0.00043863,0.00004221,-0.00014267,0.00003370,-0.000049
 53,-0.00005851,0.00006690,0.00001619,0.00001522,0.00003758,-0.00000849
 ,0.00054974,0.00031131,-0.00019415,-0.00006006,-0.00003870,0.00007874,
 -0.00013169,-0.00001937,-0.00000464,-0.00009904,-0.00002576,-0.0000515
 7,0.00025102,-0.00018499,0.00035637,-0.00005367,0.00007920,-0.00003577
 ,-0.00000667,-0.00001051,-0.00007208,-0.00002249,-0.00002534,-0.000051
 90,0.08383593,0.57440665,-0.00034409,-0.00007212,0.00004512,-0.0002386
 8,-0.00025059,0.00007114,0.00031962,-0.00026558,0.00003832,-0.00033487
 ,-0.00015670,-0.00112037,-0.00041856,0.00034844,0.00032298,0.00001132,
 0.00000586,-0.00001084,-0.00057019,-0.00006517,-0.00021505,0.00006733,
 0.00003921,-0.00003261,0.00001480,-0.00005061,0.00045230,-0.00007677,0
 .00020390,0.00034591,0.00024967,0.00074535,0.00039015,0.00016726,0.000
 06411,0.00009601,0.00021845,0.00013276,-0.00019275,0.00022105,-0.00026
 684,0.00010417,-0.00437234,0.00749215,-0.00623330,0.00178163,-0.003111
 48,0.00212692,-0.00233273,0.00107986,0.00119946,-0.01736277,0.01897155
 ,-0.06726579,-0.00007747,0.00005471,-0.00000552,0.00001627,-0.00000104
 ,0.00001027,0.00000546,-0.00000984,-0.00000556,0.00000275,0.00000363,0
 .00000024,-0.00014115,-0.00010307,0.00006615,0.00002376,0.00002010,-0.
 00002639,0.00004243,0.00001250,-0.00000232,0.00002884,0.00001046,0.000
 00702,-0.00007742,0.00002051,-0.00013921,0.00003625,-0.00003368,0.0000
 2030,0.00000019,0.00001661,0.00001440,0.00001633,0.00000593,0.00001610
 ,-0.02013682,0.00852402,0.57542410,-0.00002007,0.00008817,-0.00003739,
 0.00007281,-0.00001808,0.00018677,0.00024001,0.00021682,-0.00015296,0.
 00073248,0.00177462,-0.00016411,0.00019586,-0.00013020,-0.00013966,-0.
 00002333,-0.00001181,0.00000852,-0.00009844,0.00004706,-0.00004810,-0.
 00000730,-0.00000765,0.00000268,-0.00046682,0.00020747,-0.00013545,0.0
 0000204,-0.00000337,0.00000168,-0.00012754,-0.00020270,0.00004931,0.00
 001156,-0.00004667,0.00000190,-0.00001639,-0.00006867,0.00002905,-0.00
 008116,0.00005190,0.00002035,-0.00382840,0.00268919,-0.00084427,-0.000
 05461,0.00026572,0.00019222,0.00008220,0.00028879,-0.00033077,0.008521
 47,0.03520328,-0.00577403,0.00000447,0.00001444,0.00000031,0.00000313,
 -0.00000223,-0.00000063,0.00000321,-0.00000027,-0.00000031,-0.00000233
 ,-0.00000453,0.00000234,0.00001414,0.00000276,0.00000579,-0.00000553,-
 0.00000220,0.00000412,-0.00000002,-0.00000287,-0.00000157,-0.00000889,
 -0.00000240,-0.00000294,0.00003985,-0.00000271,0.00000820,-0.00000989,
 0.00000389,0.00000452,-0.00000417,-0.00000895,0.00001238,-0.00000908,-
 0.00000293,0.00000074,-0.10083606,-0.11490588,0.01712901,0.10593909,-0
 .00007497,-0.00007789,0.00014638,-0.00000504,-0.00005507,-0.00013289,-
 0.00031202,-0.00023488,0.00002407,-0.00081792,-0.00121355,0.00001238,-
 0.00021041,0.00016414,0.00024387,0.00000437,0.00004590,-0.00001075,-0.
 00007831,-0.00019440,0.00002701,0.00001977,0.00001024,-0.00001856,0.00
 038856,-0.00018392,0.00012174,-0.00001791,0.00000158,0.00003889,0.0003
 3127,0.00020411,0.00002188,0.00014265,0.00004066,0.00004132,0.00006869
 ,0.00013732,-0.00012862,0.00017684,-0.00014985,-0.00004578,0.00448637,
 0.00104400,0.00027161,-0.00003907,0.00001318,-0.00012919,-0.00014293,-
 0.00006767,0.00017420,-0.00149570,-0.02576543,0.00469061,-0.00004367,0
 .00003136,-0.00000090,0.00001231,-0.00000047,0.00000505,0.00000437,-0.
 00000696,-0.00000192,0.00000027,0.00000299,-0.00000240,-0.00006421,-0.
 00002995,0.00001387,0.00001591,0.00000618,-0.00001647,0.00000924,0.000
 00715,0.00000102,0.00002002,0.00000313,0.00000976,-0.00008136,0.000031
 24,-0.00005229,0.00001499,-0.00001297,-0.00000139,0.00000435,0.0000128
 0,-0.00000437,0.00001404,0.00000689,0.00000620,-0.10173959,-0.27301957
 ,0.03200084,0.10444687,0.30220212,0.00001576,-0.00000096,0.00003945,0.
 00001658,-0.00001665,0.00004415,0.00011126,0.00005766,-0.00000819,0.00
 016930,0.00046798,0.00038992,0.00003372,-0.00002132,-0.00006723,-0.000
 01585,0.00000830,-0.00000101,-0.00004837,0.00003734,0.00005940,-0.0000
 0641,-0.00000161,-0.00000787,-0.00011705,0.00004359,-0.00005129,-0.000
 01522,0.00000149,-0.00000280,0.00000203,-0.00007074,0.00003127,-0.0000
 0540,-0.00001896,-0.00002154,-0.00004173,0.00000687,-0.00000894,-0.000
 05455,0.00004334,0.00001337,-0.00118678,0.00017159,0.00017441,0.000064
 91,0.00042454,0.00013506,-0.00006193,-0.00031845,0.00014637,0.00105638
 ,0.00783015,-0.00111788,-0.00000391,0.00000350,0.00000156,-0.00000188,
 -0.00000036,-0.00000069,0.00000321,-0.00000170,-0.00000130,-0.00000064
 ,-0.00000143,0.00000136,0.00002398,0.00001044,0.00000070,0.00000235,-0
 .00000177,-0.00000310,-0.00000626,0.00000196,-0.00000207,-0.00000387,-
 0.00000408,0.00000020,0.00002120,-0.00000923,0.00001927,-0.00000380,0.
 00000289,-0.00000009,0.00000093,-0.00000372,-0.00000014,-0.00000416,-0
 .00000180,-0.00000185,0.01469926,0.03087795,-0.05742868,-0.01432047,-0
 .03816415,0.05350241,0.00023732,-0.00002897,-0.00009944,0.00008124,0.0
 0008579,0.00002006,0.00012981,-0.00004666,0.00029706,0.00051720,0.0002
 3848,0.00004698,0.00035784,-0.00040696,-0.00011255,0.00000044,-0.00002
 335,-0.00000315,0.00041885,0.00026041,0.00017652,-0.00004633,-0.000009
 58,0.00002937,-0.00015904,0.00008673,-0.00013372,0.00003866,-0.0001028
 6,-0.00016031,-0.00013605,-0.00009201,-0.00006869,-0.00030581,0.000014
 83,-0.00013353,-0.00020011,-0.00007059,0.00014583,-0.00015747,0.000218
 20,-0.00006855,-0.00037206,-0.00538257,0.00058451,0.00009742,0.0006977
 5,-0.00005073,0.00052727,0.00138216,-0.00064652,-0.02993776,0.01440948
 ,0.01635001,0.00008381,-0.00009579,0.00001618,-0.00003216,0.00000552,-
 0.00001050,-0.00001053,0.00001345,0.00000258,0.00000275,0.00000883,-0.
 00000139,0.00014776,0.00008402,-0.00005518,-0.00001305,-0.00001304,0.0
 0001598,-0.00003920,-0.00000137,-0.00000086,-0.00002287,-0.00001016,-0
 .00000813,0.00007673,-0.00003758,0.00009822,-0.00002079,0.00002254,-0.
 00000946,-0.00000334,-0.00000685,-0.00001023,-0.00001069,-0.00000798,-
 0.00001158,-0.14209267,-0.00356954,0.12007465,-0.00589338,-0.00057774,
 0.01033343,0.16466511,-0.00015668,0.00004198,0.00008821,-0.00000732,-0
 .00000023,0.00002568,-0.00001927,0.00010802,-0.00015239,-0.00020958,-0
 .00011398,0.00017033,-0.00022173,0.00008255,-0.00007152,-0.00000547,0.
 00000254,0.00000218,-0.00016941,-0.00017563,-0.00006374,0.00001164,0.0
 0000195,-0.00001722,0.00007684,-0.00005006,0.00010110,-0.00001893,0.00
 003459,0.00010066,-0.00000275,-0.00000705,-0.00000579,0.00012447,-0.00
 002217,0.00004713,0.00006408,0.00003950,-0.00006612,0.00004965,-0.0000
 6181,0.00006759,0.00317453,0.00440857,-0.00373771,-0.00017809,-0.00045
 121,0.00009751,-0.00113610,-0.00008788,0.00110204,0.02351131,-0.007950
 40,-0.01436655,-0.00002589,0.00004274,-0.00000150,0.00001255,-0.000004
 06,0.00000436,0.00000522,-0.00000603,-0.00000138,-0.00000178,-0.000003
 54,0.00000083,-0.00004321,-0.00004098,0.00002123,0.00000763,0.00000295
 ,-0.00001033,0.00001405,0.00000682,-0.00000120,0.00001188,0.00000297,0
 .00000622,-0.00001256,0.00000248,-0.00003821,0.00000940,-0.00000885,0.
 00000697,0.00000207,0.00000199,0.00000429,0.00000395,0.00000205,0.0000
 0517,-0.00662468,-0.05430146,0.00425099,-0.01738642,0.00310583,0.02373
 451,-0.00631227,0.05377879,0.00001905,-0.00000786,-0.00003018,-0.00003
 331,-0.00001206,-0.00003062,-0.00011405,0.00001078,-0.00005094,-0.0002
 8469,-0.00018332,0.00014625,-0.00004677,0.00015529,-0.00000224,0.00000
 477,0.00000371,-0.00000049,-0.00003996,0.00000551,-0.00000780,0.000009
 99,0.00000003,0.00000029,0.00006616,-0.00003274,-0.00001429,-0.0000171
 8,0.00002782,-0.00001508,0.00005776,-0.00002031,0.00002963,0.00003519,
 0.00000420,0.00001910,0.00003866,-0.00001044,0.00001034,-0.00000524,-0
 .00001822,0.00002047,-0.00111126,-0.00029023,0.00187128,0.00000802,0.0
 0014112,-0.00054342,0.00065824,-0.00114075,-0.00053867,-0.00514475,-0.
 00045078,0.01291796,-0.00001728,0.00001174,-0.00000892,0.00000362,0.00
 000045,0.00000140,0.00000052,-0.00000147,0.00000007,-0.00000051,-0.000
 00267,0.00000120,-0.00003165,-0.00000922,0.00000630,-0.00000353,0.0000
 0056,0.00000264,0.00000792,-0.00000491,0.00000152,0.00000180,0.0000032
 5,0.00000029,-0.00001240,0.00000959,-0.00000721,0.00000105,-0.00000137
 ,-0.00000249,-0.00000057,0.00000036,0.00000090,0.00000005,0.00000119,0
 .00000024,0.12363079,0.00254240,-0.21751914,0.00077161,-0.00014731,-0.
 00172616,-0.13505354,-0.00198900,0.22549238,0.00013383,-0.00002302,-0.
 00026840,0.00002457,0.00000561,0.00009447,0.00044324,-0.00018057,0.000
 39797,0.00023391,0.00011733,0.00018871,0.00018795,-0.00023184,-0.00021
 610,0.00001324,-0.00002201,0.00000140,0.00046226,0.00030728,-0.0000200
 5,-0.00002875,0.00000862,0.00005126,-0.00013494,0.00006655,-0.00005821
 ,0.00000448,-0.00000943,-0.00005183,-0.00005827,0.00003945,0.00014220,
 -0.00037722,0.00005436,-0.00010343,-0.00010930,-0.00009645,0.00020287,
 -0.00013123,0.00017636,0.00004396,-0.00035218,-0.00506213,0.00104359,0
 .00055013,0.00129153,0.00043381,0.00012044,0.00068254,-0.00006896,-0.0
 2581753,0.00562117,-0.02667689,0.00009746,-0.00011304,0.00001184,-0.00
 003561,0.00000824,-0.00001078,-0.00001842,0.00001813,0.00000462,0.0000
 0407,0.00001034,-0.00000284,0.00011338,0.00004849,-0.00004460,-0.00001
 770,-0.00001200,0.00001936,-0.00002328,-0.00000098,-0.00000103,-0.0000
 1565,-0.00000069,-0.00000859,0.00006731,-0.00003717,0.00005200,-0.0000
 1311,0.00001516,-0.00000124,-0.00000639,-0.00000843,-0.00000296,-0.000
 00510,-0.00000646,-0.00000651,-0.10393562,-0.03736259,-0.09394321,-0.0
 0436892,-0.00446005,-0.01065603,0.01207110,0.00545284,0.01660148,0.120
 92185,-0.00006895,0.00004357,0.00006967,0.00006093,0.00001891,0.000034
 90,-0.00013466,0.00009844,-0.00028081,0.00011245,0.00020113,0.00006644
 ,-0.00004165,0.00007874,0.00000901,0.00000022,-0.00002085,0.00000342,-
 0.00020230,-0.00022103,0.00004779,0.00000625,-0.00000577,-0.00001160,0
 .00004436,-0.00004179,-0.00002197,0.00001405,0.00000294,-0.00000262,-0
 .00013398,-0.00015944,-0.00010479,0.00015094,-0.00003486,0.00005007,0.
 00003943,0.00001789,-0.00004032,0.00001043,-0.00003550,0.00000526,0.00
 254163,0.00518065,0.00295436,-0.00102218,0.00057078,-0.00113258,-0.000
 12513,-0.00053083,-0.00010975,0.01973615,0.00051115,0.02242807,-0.0000
 1414,0.00004588,-0.00000197,0.00001642,-0.00000507,0.00000386,0.000005
 20,-0.00000500,-0.00000007,-0.00000351,-0.00000411,-0.00000013,-0.0000
 3973,-0.00002317,0.00000600,0.00000182,0.00000074,-0.00000325,0.000009
 12,0.00000144,0.00000151,0.00000808,0.00000203,0.00000576,-0.00000995,
 0.00000736,-0.00001054,0.00000211,-0.00000272,0.00000048,0.00000216,-0
 .00000020,0.00000235,-0.00000035,0.00000187,0.00000156,-0.04144535,-0.
 08048186,-0.06961677,-0.01249043,-0.00605823,-0.02508717,-0.00073233,0
 .00161903,0.00140466,0.03370287,0.07922787,0.00005689,-0.00000929,-0.0
 0010513,0.00003843,-0.00000924,0.00007487,0.00020211,-0.00013224,0.000
 16147,0.00023374,0.00034913,0.00016252,0.00011851,-0.00012750,-0.00006
 930,0.00000749,-0.00000248,0.00000176,0.00016611,0.00012404,-0.0000273
 3,-0.00001499,0.00000573,0.00002369,-0.00010629,0.00005061,-0.00005471
 ,-0.00000723,-0.00002995,-0.00004264,0.00008573,-0.00001535,0.00012260
 ,-0.00015816,0.00002461,-0.00003836,-0.00006108,-0.00003740,0.00008838
 ,-0.00006348,0.00009039,0.00000389,-0.00022153,-0.00177241,0.00097377,
 -0.00007600,0.00146216,-0.00037082,0.00019403,-0.00003119,-0.00048820,
 -0.00881333,0.00618062,0.00015711,0.00005317,-0.00005105,0.00000825,-0
 .00001348,0.00000301,-0.00000533,-0.00000871,0.00000875,0.00000343,0.0
 0000088,0.00000474,-0.00000260,0.00005668,0.00002466,-0.00002445,-0.00
 000652,-0.00000607,0.00000809,-0.00001388,0.00000074,-0.00000072,-0.00
 000694,-0.00000063,-0.00000311,0.00002567,-0.00001317,0.00002563,-0.00
 000785,0.00000835,-0.00000100,-0.00000276,-0.00000522,-0.00000151,-0.0
 0000145,-0.00000166,-0.00000296,-0.09647570,-0.06711379,-0.23055352,0.
 00352115,0.00100628,0.00589194,-0.01155333,-0.00931435,-0.02002463,0.1
 1285213,0.06932918,0.24410891\\-0.00001272,0.00002467,0.00000572,0.000
 00458,-0.00000018,0.00000117,0.00001034,-0.00000134,-0.00000867,0.0000
 1510,0.00001052,0.00000209,-0.00000436,-0.00001791,0.00000507,0.000008
 32,0.00000243,-0.00000473,0.00000331,-0.00001078,-0.00000036,0.0000021
 4,-0.00000436,-0.00000742,0.00000769,-0.00000065,0.00000142,-0.0000025
 2,-0.00000093,-0.00000206,-0.00000129,0.00000105,-0.00001041,-0.000002
 37,0.00000025,-0.00000419,-0.00000300,-0.00001540,-0.00000514,0.000018
 17,0.00001569,-0.00000371,-0.00000723,-0.00001085,0.00001431,0.,0.0000
 0228,0.00000921,0.00000207,-0.00001061,0.00000685,-0.00000523,-0.00000
 853,0.00000761,-0.00000236,0.00000121,0.00000326,0.00000294,0.00000380
 ,-0.00000581,-0.00000074,0.00001121,-0.00001338,0.00000478,0.00000354,
 -0.00000254,-0.00001177,0.00000096,0.00000101,-0.00001232,0.00001063,0
 .00000097,-0.00000864,0.00000768,-0.00000746,-0.00000536,0.00000408,-0
 .00000123,-0.00000146,-0.00000252,-0.00000161,0.00000071,0.00000414,-0
 .00000278,0.00001630,0.00000138,-0.00000336,-0.00000311,0.00000514,-0.
 00001251,-0.00000155,-0.00000649,0.00000496,-0.00000650,-0.00000603,0.
 00000841,-0.00000062,-0.00000827,0.00001208,-0.00000330,-0.00000581,0.
 00001324\\\@


 NATURE REVEALS EVERY SECRET ONCE.
                    - RALPH WALDO EMERSON
 Job cpu time:       0 days  1 hours 19 minutes 12.1 seconds.
 Elapsed time:       0 days  0 hours 19 minutes 49.4 seconds.
 File lengths (MBytes):  RWF=    374 Int=      0 D2E=      0 Chk=     16 Scr=      1
 Normal termination of Gaussian 16 at Fri May 24 08:53:35 2019.
