 Entering Gaussian System, Link 0=g16
 Input=clay-glucose_cation-209-b3lyp_d3bj-631gd-pcm_thf.gjf
 Output=clay-glucose_cation-209-b3lyp_d3bj-631gd-pcm_thf.out
 Initial command:
 /n/sw/g16_nehalem/g16/l1.exe "/scratch/Gau-60770.inp" -scrdir="/scratch/"
 Entering Link 1 = /n/sw/g16_nehalem/g16/l1.exe PID=     60783.
  
 Copyright (c) 1988,1990,1992,1993,1995,1998,2003,2009,2016,
            Gaussian, Inc.  All Rights Reserved.
  
 This is part of the Gaussian(R) 16 program.  It is based on
 the Gaussian(R) 09 system (copyright 2009, Gaussian, Inc.),
 the Gaussian(R) 03 system (copyright 2003, Gaussian, Inc.),
 the Gaussian(R) 98 system (copyright 1998, Gaussian, Inc.),
 the Gaussian(R) 94 system (copyright 1995, Gaussian, Inc.),
 the Gaussian 92(TM) system (copyright 1992, Gaussian, Inc.),
 the Gaussian 90(TM) system (copyright 1990, Gaussian, Inc.),
 the Gaussian 88(TM) system (copyright 1988, Gaussian, Inc.),
 the Gaussian 86(TM) system (copyright 1986, Carnegie Mellon
 University), and the Gaussian 82(TM) system (copyright 1983,
 Carnegie Mellon University). Gaussian is a federally registered
 trademark of Gaussian, Inc.
  
 This software contains proprietary and confidential information,
 including trade secrets, belonging to Gaussian, Inc.
  
 This software is provided under written license and may be
 used, copied, transmitted, or stored only in accord with that
 written license.
  
 The following legend is applicable only to US Government
 contracts under FAR:
  
                    RESTRICTED RIGHTS LEGEND
  
 Use, reproduction and disclosure by the US Government is
 subject to restrictions as set forth in subparagraphs (a)
 and (c) of the Commercial Computer Software - Restricted
 Rights clause in FAR 52.227-19.
  
 Gaussian, Inc.
 340 Quinnipiac St., Bldg. 40, Wallingford CT 06492
  
  
 ---------------------------------------------------------------
 Warning -- This program may not be used in any manner that
 competes with the business of Gaussian, Inc. or will provide
 assistance to any competitor of Gaussian, Inc.  The licensee
 of this program is prohibited from giving any competitor of
 Gaussian, Inc. access to this program.  By using this program,
 the user acknowledges that Gaussian, Inc. is engaged in the
 business of creating and licensing software in the field of
 computational chemistry and represents and warrants to the
 licensee that it is not a competitor of Gaussian, Inc. and that
 it will not use this program in any manner prohibited above.
 ---------------------------------------------------------------
  

 Cite this work as:
 Gaussian 16, Revision A.03,
 M. J. Frisch, G. W. Trucks, H. B. Schlegel, G. E. Scuseria, 
 M. A. Robb, J. R. Cheeseman, G. Scalmani, V. Barone, 
 G. A. Petersson, H. Nakatsuji, X. Li, M. Caricato, A. V. Marenich, 
 J. Bloino, B. G. Janesko, R. Gomperts, B. Mennucci, H. P. Hratchian, 
 J. V. Ortiz, A. F. Izmaylov, J. L. Sonnenberg, D. Williams-Young, 
 F. Ding, F. Lipparini, F. Egidi, J. Goings, B. Peng, A. Petrone, 
 T. Henderson, D. Ranasinghe, V. G. Zakrzewski, J. Gao, N. Rega, 
 G. Zheng, W. Liang, M. Hada, M. Ehara, K. Toyota, R. Fukuda, 
 J. Hasegawa, M. Ishida, T. Nakajima, Y. Honda, O. Kitao, H. Nakai, 
 T. Vreven, K. Throssell, J. A. Montgomery, Jr., J. E. Peralta, 
 F. Ogliaro, M. J. Bearpark, J. J. Heyd, E. N. Brothers, K. N. Kudin, 
 V. N. Staroverov, T. A. Keith, R. Kobayashi, J. Normand, 
 K. Raghavachari, A. P. Rendell, J. C. Burant, S. S. Iyengar, 
 J. Tomasi, M. Cossi, J. M. Millam, M. Klene, C. Adamo, R. Cammi, 
 J. W. Ochterski, R. L. Martin, K. Morokuma, O. Farkas, 
 J. B. Foresman, and D. J. Fox, Gaussian, Inc., Wallingford CT, 2016.
 
 ******************************************
 Gaussian 16:  ES64L-G16RevA.03 25-Dec-2016
                24-May-2019 
 ******************************************
 %nprocshared=4
 Will use up to    4 processors via shared memory.
 %mem=3GB
 -------------------------------------------------------------------
 #p b3lyp 6-31g* opt freq=noraman scrf=(pcm,solvent=tetrahydrofuran)
 -------------------------------------------------------------------
 1/18=20,19=15,26=3,38=1/1,3;
 2/9=110,12=2,17=6,18=5,40=1/2;
 3/5=1,6=6,7=1,11=2,25=1,30=1,70=2201,71=1,72=20,74=-5/1,2,3;
 4//1;
 5/5=2,38=5,53=20/2;
 6/7=2,8=2,9=2,10=2,28=1/1;
 7//1,2,3,16;
 1/18=20,19=15,26=3/3(2);
 2/9=110/2;
 99//99;
 2/9=110/2;
 3/5=1,6=6,7=1,11=2,25=1,30=1,70=2205,71=1,72=20,74=-5/1,2,3;
 4/5=5,16=3,69=1/1;
 5/5=2,38=5,53=20/2;
 7//1,2,3,16;
 1/18=20,19=15,26=3/3(-5);
 2/9=110/2;
 6/7=2,8=2,9=2,10=2,19=2,28=1/1;
 99/9=1/99;
 Leave Link    1 at Fri May 24 08:32:16 2019, MaxMem=   402653184 cpu:               0.4 elap:               0.1
 (Enter /n/sw/g16_nehalem/g16/l101.exe)
 -----
 title
 -----
 Symbolic Z-matrix:
 Charge =  1 Multiplicity = 1
 6                     0.74291   0.60091   0.57611 
 6                     1.46151   0.56959  -0.81815 
 6                     0.84656  -0.35988  -1.81327 
 6                    -1.19339  -0.6404   -0.55375 
 6                    -0.29422  -0.53574   0.66994 
 1                     1.40978  -0.63449  -2.70718 
 1                     1.2375    1.5506   -1.2791 
 1                     1.50972   0.43576   1.34361 
 1                    -1.71559  -1.59681  -0.53644 
 1                    -0.94725  -0.35694   1.53237 
 8                    -0.32373  -0.81597  -1.77308 
 8                     2.8578    0.46671  -0.84112 
 8                     0.08513   1.826     0.78777 
 8                     0.39661  -1.77045   0.7507 
 6                    -2.17746   0.51275  -0.8262 
 1                    -2.64478   0.35865  -1.80778 
 1                    -1.65232   1.46942  -0.82464 
 8                    -3.12544   0.55092   0.21515 
 6                     3.41387  -0.75806  -0.33629 
 1                     4.48482  -0.69157  -0.52905 
 1                     3.24595  -0.86649   0.73992 
 1                     3.00633  -1.63513  -0.85486 
 6                     0.94997   2.90175   1.15935 
 1                     1.48671   2.66521   2.08692 
 1                     1.68017   3.12758   0.37061 
 1                     0.31025   3.7713    1.31516 
 6                     0.67798  -2.21308   2.08213 
 1                    -0.25207  -2.38683   2.6368 
 1                     1.22586  -3.15126   1.98314 
 1                     1.29543  -1.49167   2.63147 
 6                    -4.27182  -0.27495   0.00648 
 1                    -4.01449  -1.34148  -0.04205 
 1                    -4.92822  -0.11      0.86275 
 1                    -4.79613   0.0091   -0.91517 
 
 ITRead=  0  0  0  0  0  0  0  0  0  0  0  0  0  0  0  0  0  0  0  0
 ITRead=  0  0  0  0  0  0  0  0  0  0  0  0  0  0
 MicOpt= -1 -1 -1 -1 -1 -1 -1 -1 -1 -1 -1 -1 -1 -1 -1 -1 -1 -1 -1 -1
 MicOpt= -1 -1 -1 -1 -1 -1 -1 -1 -1 -1 -1 -1 -1 -1
 NAtoms=     34 NQM=       34 NQMF=       0 NMMI=      0 NMMIF=      0
                NMic=       0 NMicF=      0.
                    Isotopes and Nuclear Properties:
 (Nuclear quadrupole moments (NQMom) in fm**2, nuclear magnetic moments (NMagM)
  in nuclear magnetons)

  Atom         1           2           3           4           5           6           7           8           9          10
 IAtWgt=          12          12          12          12          12           1           1           1           1           1
 AtmWgt=  12.0000000  12.0000000  12.0000000  12.0000000  12.0000000   1.0078250   1.0078250   1.0078250   1.0078250   1.0078250
 NucSpn=           0           0           0           0           0           1           1           1           1           1
 AtZEff=   0.0000000   0.0000000   0.0000000   0.0000000   0.0000000   0.0000000   0.0000000   0.0000000   0.0000000   0.0000000
 NQMom=    0.0000000   0.0000000   0.0000000   0.0000000   0.0000000   0.0000000   0.0000000   0.0000000   0.0000000   0.0000000
 NMagM=    0.0000000   0.0000000   0.0000000   0.0000000   0.0000000   2.7928460   2.7928460   2.7928460   2.7928460   2.7928460
 AtZNuc=   6.0000000   6.0000000   6.0000000   6.0000000   6.0000000   1.0000000   1.0000000   1.0000000   1.0000000   1.0000000

  Atom        11          12          13          14          15          16          17          18          19          20
 IAtWgt=          16          16          16          16          12           1           1          16          12           1
 AtmWgt=  15.9949146  15.9949146  15.9949146  15.9949146  12.0000000   1.0078250   1.0078250  15.9949146  12.0000000   1.0078250
 NucSpn=           0           0           0           0           0           1           1           0           0           1
 AtZEff=   0.0000000   0.0000000   0.0000000   0.0000000   0.0000000   0.0000000   0.0000000   0.0000000   0.0000000   0.0000000
 NQMom=    0.0000000   0.0000000   0.0000000   0.0000000   0.0000000   0.0000000   0.0000000   0.0000000   0.0000000   0.0000000
 NMagM=    0.0000000   0.0000000   0.0000000   0.0000000   0.0000000   2.7928460   2.7928460   0.0000000   0.0000000   2.7928460
 AtZNuc=   8.0000000   8.0000000   8.0000000   8.0000000   6.0000000   1.0000000   1.0000000   8.0000000   6.0000000   1.0000000

  Atom        21          22          23          24          25          26          27          28          29          30
 IAtWgt=           1           1          12           1           1           1          12           1           1           1
 AtmWgt=   1.0078250   1.0078250  12.0000000   1.0078250   1.0078250   1.0078250  12.0000000   1.0078250   1.0078250   1.0078250
 NucSpn=           1           1           0           1           1           1           0           1           1           1
 AtZEff=   0.0000000   0.0000000   0.0000000   0.0000000   0.0000000   0.0000000   0.0000000   0.0000000   0.0000000   0.0000000
 NQMom=    0.0000000   0.0000000   0.0000000   0.0000000   0.0000000   0.0000000   0.0000000   0.0000000   0.0000000   0.0000000
 NMagM=    2.7928460   2.7928460   0.0000000   2.7928460   2.7928460   2.7928460   0.0000000   2.7928460   2.7928460   2.7928460
 AtZNuc=   1.0000000   1.0000000   6.0000000   1.0000000   1.0000000   1.0000000   6.0000000   1.0000000   1.0000000   1.0000000

  Atom        31          32          33          34
 IAtWgt=          12           1           1           1
 AtmWgt=  12.0000000   1.0078250   1.0078250   1.0078250
 NucSpn=           0           1           1           1
 AtZEff=   0.0000000   0.0000000   0.0000000   0.0000000
 NQMom=    0.0000000   0.0000000   0.0000000   0.0000000
 NMagM=    0.0000000   2.7928460   2.7928460   2.7928460
 AtZNuc=   6.0000000   1.0000000   1.0000000   1.0000000
 Leave Link  101 at Fri May 24 08:32:17 2019, MaxMem=   402653184 cpu:               2.3 elap:               0.8
 (Enter /n/sw/g16_nehalem/g16/l103.exe)

 GradGradGradGradGradGradGradGradGradGradGradGradGradGradGradGradGradGrad
 Berny optimization.
 Initialization pass.
                           ----------------------------
                           !    Initial Parameters    !
                           ! (Angstroms and Degrees)  !
 --------------------------                            --------------------------
 ! Name  Definition              Value          Derivative Info.                !
 --------------------------------------------------------------------------------
 ! R1    R(1,2)                  1.5689         estimate D2E/DX2                !
 ! R2    R(1,5)                  1.5416         estimate D2E/DX2                !
 ! R3    R(1,8)                  1.0974         estimate D2E/DX2                !
 ! R4    R(1,13)                 1.4065         estimate D2E/DX2                !
 ! R5    R(2,3)                  1.4941         estimate D2E/DX2                !
 ! R6    R(2,7)                  1.1068         estimate D2E/DX2                !
 ! R7    R(2,12)                 1.4003         estimate D2E/DX2                !
 ! R8    R(3,6)                  1.0917         estimate D2E/DX2                !
 ! R9    R(3,11)                 1.2567         estimate D2E/DX2                !
 ! R10   R(4,5)                  1.5221         estimate D2E/DX2                !
 ! R11   R(4,9)                  1.0898         estimate D2E/DX2                !
 ! R12   R(4,11)                 1.5079         estimate D2E/DX2                !
 ! R13   R(4,15)                 1.5403         estimate D2E/DX2                !
 ! R14   R(5,10)                 1.0965         estimate D2E/DX2                !
 ! R15   R(5,14)                 1.4171         estimate D2E/DX2                !
 ! R16   R(12,19)                1.4367         estimate D2E/DX2                !
 ! R17   R(13,23)                1.4294         estimate D2E/DX2                !
 ! R18   R(14,27)                1.431          estimate D2E/DX2                !
 ! R19   R(15,16)                1.098          estimate D2E/DX2                !
 ! R20   R(15,17)                1.0913         estimate D2E/DX2                !
 ! R21   R(15,18)                1.4087         estimate D2E/DX2                !
 ! R22   R(18,31)                1.4282         estimate D2E/DX2                !
 ! R23   R(19,20)                1.0902         estimate D2E/DX2                !
 ! R24   R(19,21)                1.0946         estimate D2E/DX2                !
 ! R25   R(19,22)                1.0974         estimate D2E/DX2                !
 ! R26   R(23,24)                1.0975         estimate D2E/DX2                !
 ! R27   R(23,25)                1.0983         estimate D2E/DX2                !
 ! R28   R(23,26)                1.0907         estimate D2E/DX2                !
 ! R29   R(27,28)                1.0967         estimate D2E/DX2                !
 ! R30   R(27,29)                1.0909         estimate D2E/DX2                !
 ! R31   R(27,30)                1.097          estimate D2E/DX2                !
 ! R32   R(31,32)                1.0982         estimate D2E/DX2                !
 ! R33   R(31,33)                1.0915         estimate D2E/DX2                !
 ! R34   R(31,34)                1.0977         estimate D2E/DX2                !
 ! A1    A(2,1,5)              110.3362         estimate D2E/DX2                !
 ! A2    A(2,1,8)              107.3662         estimate D2E/DX2                !
 ! A3    A(2,1,13)             111.428          estimate D2E/DX2                !
 ! A4    A(5,1,8)              108.4554         estimate D2E/DX2                !
 ! A5    A(5,1,13)             108.5678         estimate D2E/DX2                !
 ! A6    A(8,1,13)             110.6474         estimate D2E/DX2                !
 ! A7    A(1,2,3)              114.5698         estimate D2E/DX2                !
 ! A8    A(1,2,7)              105.0537         estimate D2E/DX2                !
 ! A9    A(1,2,12)             118.2154         estimate D2E/DX2                !
 ! A10   A(3,2,7)              100.9936         estimate D2E/DX2                !
 ! A11   A(3,2,12)             110.7189         estimate D2E/DX2                !
 ! A12   A(7,2,12)             105.0764         estimate D2E/DX2                !
 ! A13   A(2,3,6)              119.3093         estimate D2E/DX2                !
 ! A14   A(2,3,11)             125.9993         estimate D2E/DX2                !
 ! A15   A(6,3,11)             114.5421         estimate D2E/DX2                !
 ! A16   A(5,4,9)              109.3071         estimate D2E/DX2                !
 ! A17   A(5,4,11)             108.5047         estimate D2E/DX2                !
 ! A18   A(5,4,15)             117.9139         estimate D2E/DX2                !
 ! A19   A(9,4,11)             100.7784         estimate D2E/DX2                !
 ! A20   A(9,4,15)             110.7138         estimate D2E/DX2                !
 ! A21   A(11,4,15)            108.2159         estimate D2E/DX2                !
 ! A22   A(1,5,4)              113.5284         estimate D2E/DX2                !
 ! A23   A(1,5,10)             109.167          estimate D2E/DX2                !
 ! A24   A(1,5,14)             108.537          estimate D2E/DX2                !
 ! A25   A(4,5,10)             106.9617         estimate D2E/DX2                !
 ! A26   A(4,5,14)             105.8954         estimate D2E/DX2                !
 ! A27   A(10,5,14)            112.8048         estimate D2E/DX2                !
 ! A28   A(3,11,4)             121.378          estimate D2E/DX2                !
 ! A29   A(2,12,19)            116.284          estimate D2E/DX2                !
 ! A30   A(1,13,23)            114.3092         estimate D2E/DX2                !
 ! A31   A(5,14,27)            114.7318         estimate D2E/DX2                !
 ! A32   A(4,15,16)            108.9641         estimate D2E/DX2                !
 ! A33   A(4,15,17)            110.4026         estimate D2E/DX2                !
 ! A34   A(4,15,18)            108.6304         estimate D2E/DX2                !
 ! A35   A(16,15,17)           109.2147         estimate D2E/DX2                !
 ! A36   A(16,15,18)           112.2232         estimate D2E/DX2                !
 ! A37   A(17,15,18)           107.3978         estimate D2E/DX2                !
 ! A38   A(15,18,31)           114.6121         estimate D2E/DX2                !
 ! A39   A(12,19,20)           105.4322         estimate D2E/DX2                !
 ! A40   A(12,19,21)           111.7493         estimate D2E/DX2                !
 ! A41   A(12,19,22)           111.8115         estimate D2E/DX2                !
 ! A42   A(20,19,21)           109.3038         estimate D2E/DX2                !
 ! A43   A(20,19,22)           109.2693         estimate D2E/DX2                !
 ! A44   A(21,19,22)           109.1752         estimate D2E/DX2                !
 ! A45   A(13,23,24)           110.6952         estimate D2E/DX2                !
 ! A46   A(13,23,25)           111.7343         estimate D2E/DX2                !
 ! A47   A(13,23,26)           106.3947         estimate D2E/DX2                !
 ! A48   A(24,23,25)           109.0342         estimate D2E/DX2                !
 ! A49   A(24,23,26)           109.7515         estimate D2E/DX2                !
 ! A50   A(25,23,26)           109.1846         estimate D2E/DX2                !
 ! A51   A(14,27,28)           110.6596         estimate D2E/DX2                !
 ! A52   A(14,27,29)           106.2796         estimate D2E/DX2                !
 ! A53   A(14,27,30)           111.9114         estimate D2E/DX2                !
 ! A54   A(28,27,29)           109.6047         estimate D2E/DX2                !
 ! A55   A(28,27,30)           109.1611         estimate D2E/DX2                !
 ! A56   A(29,27,30)           109.1651         estimate D2E/DX2                !
 ! A57   A(18,31,32)           112.3307         estimate D2E/DX2                !
 ! A58   A(18,31,33)           106.3027         estimate D2E/DX2                !
 ! A59   A(18,31,34)           110.8801         estimate D2E/DX2                !
 ! A60   A(32,31,33)           108.8056         estimate D2E/DX2                !
 ! A61   A(32,31,34)           109.0331         estimate D2E/DX2                !
 ! A62   A(33,31,34)           109.4099         estimate D2E/DX2                !
 ! D1    D(5,1,2,3)             10.0951         estimate D2E/DX2                !
 ! D2    D(5,1,2,7)            119.9782         estimate D2E/DX2                !
 ! D3    D(5,1,2,12)          -123.2796         estimate D2E/DX2                !
 ! D4    D(8,1,2,3)            128.1063         estimate D2E/DX2                !
 ! D5    D(8,1,2,7)           -122.0106         estimate D2E/DX2                !
 ! D6    D(8,1,2,12)            -5.2685         estimate D2E/DX2                !
 ! D7    D(13,1,2,3)          -110.5865         estimate D2E/DX2                !
 ! D8    D(13,1,2,7)            -0.7034         estimate D2E/DX2                !
 ! D9    D(13,1,2,12)          116.0388         estimate D2E/DX2                !
 ! D10   D(2,1,5,4)            -47.2124         estimate D2E/DX2                !
 ! D11   D(2,1,5,10)          -166.4349         estimate D2E/DX2                !
 ! D12   D(2,1,5,14)            70.243          estimate D2E/DX2                !
 ! D13   D(8,1,5,4)           -164.5523         estimate D2E/DX2                !
 ! D14   D(8,1,5,10)            76.2252         estimate D2E/DX2                !
 ! D15   D(8,1,5,14)           -47.0969         estimate D2E/DX2                !
 ! D16   D(13,1,5,4)            75.1661         estimate D2E/DX2                !
 ! D17   D(13,1,5,10)          -44.0564         estimate D2E/DX2                !
 ! D18   D(13,1,5,14)         -167.3785         estimate D2E/DX2                !
 ! D19   D(2,1,13,23)          -77.6476         estimate D2E/DX2                !
 ! D20   D(5,1,13,23)          160.6393         estimate D2E/DX2                !
 ! D21   D(8,1,13,23)           41.7283         estimate D2E/DX2                !
 ! D22   D(1,2,3,6)           -164.8637         estimate D2E/DX2                !
 ! D23   D(1,2,3,11)            19.8326         estimate D2E/DX2                !
 ! D24   D(7,2,3,6)             82.8188         estimate D2E/DX2                !
 ! D25   D(7,2,3,11)           -92.4848         estimate D2E/DX2                !
 ! D26   D(12,2,3,6)           -28.0832         estimate D2E/DX2                !
 ! D27   D(12,2,3,11)          156.6131         estimate D2E/DX2                !
 ! D28   D(1,2,12,19)           65.5244         estimate D2E/DX2                !
 ! D29   D(3,2,12,19)          -69.5028         estimate D2E/DX2                !
 ! D30   D(7,2,12,19)         -177.7456         estimate D2E/DX2                !
 ! D31   D(2,3,11,4)           -10.261          estimate D2E/DX2                !
 ! D32   D(6,3,11,4)           174.2405         estimate D2E/DX2                !
 ! D33   D(9,4,5,1)            165.6823         estimate D2E/DX2                !
 ! D34   D(9,4,5,10)           -73.8416         estimate D2E/DX2                !
 ! D35   D(9,4,5,14)            46.7013         estimate D2E/DX2                !
 ! D36   D(11,4,5,1)            56.6434         estimate D2E/DX2                !
 ! D37   D(11,4,5,10)          177.1194         estimate D2E/DX2                !
 ! D38   D(11,4,5,14)          -62.3376         estimate D2E/DX2                !
 ! D39   D(15,4,5,1)           -66.7481         estimate D2E/DX2                !
 ! D40   D(15,4,5,10)           53.7279         estimate D2E/DX2                !
 ! D41   D(15,4,5,14)          174.2709         estimate D2E/DX2                !
 ! D42   D(5,4,11,3)           -28.0322         estimate D2E/DX2                !
 ! D43   D(9,4,11,3)          -142.7805         estimate D2E/DX2                !
 ! D44   D(15,4,11,3)          101.0074         estimate D2E/DX2                !
 ! D45   D(5,4,15,16)          172.0298         estimate D2E/DX2                !
 ! D46   D(5,4,15,17)           52.0892         estimate D2E/DX2                !
 ! D47   D(5,4,15,18)          -65.4304         estimate D2E/DX2                !
 ! D48   D(9,4,15,16)          -61.0747         estimate D2E/DX2                !
 ! D49   D(9,4,15,17)          178.9847         estimate D2E/DX2                !
 ! D50   D(9,4,15,18)           61.465          estimate D2E/DX2                !
 ! D51   D(11,4,15,16)          48.4934         estimate D2E/DX2                !
 ! D52   D(11,4,15,17)         -71.4472         estimate D2E/DX2                !
 ! D53   D(11,4,15,18)         171.0331         estimate D2E/DX2                !
 ! D54   D(1,5,14,27)           91.2912         estimate D2E/DX2                !
 ! D55   D(4,5,14,27)         -146.4819         estimate D2E/DX2                !
 ! D56   D(10,5,14,27)         -29.816          estimate D2E/DX2                !
 ! D57   D(2,12,19,20)         174.3949         estimate D2E/DX2                !
 ! D58   D(2,12,19,21)         -66.9618         estimate D2E/DX2                !
 ! D59   D(2,12,19,22)          55.7599         estimate D2E/DX2                !
 ! D60   D(1,13,23,24)         -59.3398         estimate D2E/DX2                !
 ! D61   D(1,13,23,25)          62.3894         estimate D2E/DX2                !
 ! D62   D(1,13,23,26)        -178.5299         estimate D2E/DX2                !
 ! D63   D(5,14,27,28)          62.369          estimate D2E/DX2                !
 ! D64   D(5,14,27,29)        -178.7048         estimate D2E/DX2                !
 ! D65   D(5,14,27,30)         -59.6204         estimate D2E/DX2                !
 ! D66   D(4,15,18,31)         -88.1835         estimate D2E/DX2                !
 ! D67   D(16,15,18,31)         32.3608         estimate D2E/DX2                !
 ! D68   D(17,15,18,31)        152.3993         estimate D2E/DX2                !
 ! D69   D(15,18,31,32)         63.5261         estimate D2E/DX2                !
 ! D70   D(15,18,31,33)       -177.5775         estimate D2E/DX2                !
 ! D71   D(15,18,31,34)        -58.7516         estimate D2E/DX2                !
 --------------------------------------------------------------------------------
 Trust Radius=3.00D-01 FncErr=1.00D-07 GrdErr=1.00D-06 EigMax=2.50D+02 EigMin=1.00D-04
 Number of steps in this run=    177 maximum allowed number of steps=    204.
 GradGradGradGradGradGradGradGradGradGradGradGradGradGradGradGradGradGrad

 Leave Link  103 at Fri May 24 08:32:17 2019, MaxMem=   402653184 cpu:               0.5 elap:               0.2
 (Enter /n/sw/g16_nehalem/g16/l202.exe)
                          Input orientation:                          
 ---------------------------------------------------------------------
 Center     Atomic      Atomic             Coordinates (Angstroms)
 Number     Number       Type             X           Y           Z
 ---------------------------------------------------------------------
      1          6           0        0.742911    0.600912    0.576114
      2          6           0        1.461513    0.569593   -0.818145
      3          6           0        0.846560   -0.359882   -1.813265
      4          6           0       -1.193390   -0.640404   -0.553748
      5          6           0       -0.294223   -0.535742    0.669936
      6          1           0        1.409784   -0.634490   -2.707182
      7          1           0        1.237503    1.550603   -1.279103
      8          1           0        1.509716    0.435757    1.343609
      9          1           0       -1.715593   -1.596813   -0.536438
     10          1           0       -0.947248   -0.356937    1.532371
     11          8           0       -0.323731   -0.815970   -1.773077
     12          8           0        2.857795    0.466710   -0.841117
     13          8           0        0.085127    1.825996    0.787770
     14          8           0        0.396608   -1.770445    0.750700
     15          6           0       -2.177457    0.512752   -0.826201
     16          1           0       -2.644784    0.358646   -1.807784
     17          1           0       -1.652319    1.469422   -0.824641
     18          8           0       -3.125442    0.550919    0.215147
     19          6           0        3.413869   -0.758056   -0.336288
     20          1           0        4.484815   -0.691568   -0.529046
     21          1           0        3.245951   -0.866492    0.739921
     22          1           0        3.006331   -1.635131   -0.854858
     23          6           0        0.949973    2.901754    1.159345
     24          1           0        1.486706    2.665211    2.086919
     25          1           0        1.680171    3.127575    0.370607
     26          1           0        0.310251    3.771300    1.315157
     27          6           0        0.677976   -2.213077    2.082130
     28          1           0       -0.252070   -2.386828    2.636798
     29          1           0        1.225860   -3.151257    1.983142
     30          1           0        1.295427   -1.491673    2.631471
     31          6           0       -4.271818   -0.274952    0.006479
     32          1           0       -4.014488   -1.341480   -0.042047
     33          1           0       -4.928224   -0.109998    0.862749
     34          1           0       -4.796128    0.009099   -0.915174
 ---------------------------------------------------------------------
                    Distance matrix (angstroms):
                    1          2          3          4          5
     1  C    0.000000
     2  C    1.568862   0.000000
     3  C    2.577402   1.494107   0.000000
     4  C    2.562560   2.929592   2.413809   0.000000
     5  C    1.541568   2.553186   2.738357   1.522123   0.000000
     6  H    3.570850   2.240748   1.091659   3.378436   3.783955
     7  H    2.142047   1.106817   2.021910   3.351998   3.240027
     8  H    1.097413   2.166429   3.322450   3.473452   2.156813
     9  H    3.480231   3.855733   3.118479   1.089823   2.145111
    10  H    2.165304   3.490775   3.796187   2.119630   1.096452
    11  O    2.943464   2.453319   1.256667   1.507943   2.459209
    12  O    2.549370   1.400256   2.381888   4.209558   3.636401
    13  O    1.406524   2.460071   3.481842   3.085029   2.394911
    14  O    2.402861   3.011823   2.960754   2.346630   1.417132
    15  C    3.240804   3.639423   3.298555   1.540256   2.623802
    16  H    4.149475   4.229132   3.564519   2.162695   3.530462
    17  H    2.907499   3.241247   3.250866   2.176089   2.845851
    18  O    3.885480   4.701935   4.552012   2.396513   3.066507
    19  C    3.132617   2.409675   2.988491   4.613888   3.848617
    20  H    4.110198   3.288535   3.872484   5.678489   4.929609
    21  H    2.906083   2.770222   3.540126   4.629519   3.556280
    22  H    3.488644   2.692326   2.685035   4.326408   3.798330
    23  C    2.382626   3.100180   4.414224   4.480578   3.688350
    24  H    2.664037   3.582129   4.977189   5.008306   3.927550
    25  H    2.702724   2.829172   4.198400   4.827986   4.172256
    26  H    3.284013   4.015882   5.209733   5.021641   4.396852
    27  C    3.192309   4.094970   4.317042   3.594880   2.398524
    28  H    3.763376   4.859364   5.011842   3.757082   2.701267
    29  H    4.036303   4.663418   4.727404   4.311956   3.297890
    30  H    2.984741   4.021971   4.608482   4.130919   2.699706
    31  C    5.122414   5.853575   5.432907   3.150258   4.040971
    32  H    5.175698   5.851591   5.265979   2.951599   3.872532
    33  H    5.722703   6.641987   6.369586   4.029489   4.657510
    34  H    5.766727   6.283442   5.725613   3.678614   4.803808
                    6          7          8          9         10
     6  H    0.000000
     7  H    2.616051   0.000000
     8  H    4.190981   2.862796   0.000000
     9  H    3.925070   4.379333   4.250710   0.000000
    10  H    4.858646   4.039336   2.588565   2.531327   0.000000
    11  O    1.977514   2.877869   3.826497   2.018978   3.394918
    12  O    2.606065   1.997999   2.567353   5.026613   4.559626
    13  O    4.474751   2.382389   2.066682   4.088000   2.526940
    14  O    3.778077   3.982030   2.541235   2.479570   2.101181
    15  C    4.209816   3.597806   4.278931   2.178886   2.798685
    16  H    4.270218   4.095414   5.215083   2.510684   3.814489
    17  H    4.164959   2.926465   3.970924   3.080400   3.064020
    18  O    5.523900   4.718839   4.771937   2.676809   2.702556
    19  C    3.106890   3.309891   2.805894   5.201438   4.761525
    20  H    3.768733   4.016834   3.691736   6.266146   5.819684
    21  H    3.912525   3.735327   2.252732   5.174880   4.297737
    22  H    2.642224   3.668465   3.370711   4.732803   4.792017
    23  C    5.259893   2.802554   2.535430   5.497093   3.789151
    24  H    5.820425   3.554512   2.350214   5.941512   3.919826
    25  H    4.868165   2.324723   2.867346   5.888445   4.516066
    26  H    6.066232   3.538570   3.544767   6.029020   4.320975
    27  C    5.095585   5.077031   2.872895   3.600813   2.527616
    28  H    5.864347   5.749476   3.569764   3.582660   2.413191
    29  H    5.326076   5.722750   3.654620   4.173335   3.568447
    30  H    5.408240   4.954936   2.327981   4.371835   2.743217
    31  C    6.306649   5.944577   5.976551   2.928543   3.658939
    32  H    6.084859   6.121916   5.966192   2.365277   3.585537
    33  H    7.293137   6.735081   6.478900   3.806487   4.044446
    34  H    6.491444   6.238059   6.711766   3.494580   4.575843
                   11         12         13         14         15
    11  O    0.000000
    12  O    3.554705   0.000000
    13  O    3.702038   3.491220   0.000000
    14  O    2.792734   3.687301   3.610095   0.000000
    15  C    2.469489   5.035485   3.073890   3.784893   0.000000
    16  H    2.601579   5.587889   4.042577   4.508762   1.098020
    17  H    2.808504   4.620263   2.397026   4.144459   1.091325
    18  O    3.697432   6.076340   3.501638   4.252103   1.408736
    19  C    4.004669   1.436705   4.361348   3.363085   5.754815
    20  H    4.968421   2.021433   5.237307   4.417597   6.776766
    21  H    4.365815   2.104228   4.152420   2.989315   5.811059
    22  H    3.550136   2.107128   4.817786   3.067048   5.611228
    23  C    4.903355   3.683894   1.429434   4.722568   4.408009
    24  H    5.504169   3.909819   2.087222   4.759080   5.152227
    25  H    4.915542   3.152027   2.100547   5.077657   4.811543
    26  H    5.566163   4.696788   2.028060   5.571087   4.625175
    27  C    4.221131   4.525289   4.282633   1.431013   4.903267
    28  H    4.681851   5.468988   4.613078   2.087601   4.909892
    29  H    4.686574   4.871277   5.244353   2.028106   5.735847
    30  H    4.741128   4.281953   3.983841   2.103067   5.294727
    31  C    4.364277   7.218023   4.899731   4.958283   2.387505
    32  H    4.110269   7.150968   5.246746   4.502247   2.725391
    33  H    5.352320   7.991110   5.374698   5.578842   3.287414
    34  H    4.628074   7.667948   5.479761   5.736412   2.668149
                   16         17         18         19         20
    16  H    0.000000
    17  H    1.784763   0.000000
    18  O    2.088121   2.023585   0.000000
    19  C    6.334003   5.555754   6.691792   0.000000
    20  H    7.319105   6.513192   7.746845   1.090184   0.000000
    21  H    6.533952   5.647778   6.548213   1.094614   1.782038
    22  H    6.067810   5.598409   6.597148   1.097389   1.783923
    23  C    5.309758   3.572072   4.798640   4.658531   5.315801
    24  H    6.128472   4.445286   5.407927   4.615696   5.205756
    25  H    5.578314   3.909422   5.455020   4.313182   4.822993
    26  H    5.489189   3.705274   4.835790   5.733653   6.383201
    27  C    5.725899   5.238358   5.058783   3.930769   4.860582
    28  H    5.746044   5.367767   4.769803   4.993120   5.944288
    29  H    6.455418   6.125213   5.980447   3.986797   4.793949
    30  H    6.217389   5.422361   5.436441   3.719353   4.560837
    31  C    2.517983   3.255054   1.428210   7.708480   8.782880
    32  H    2.807908   3.754127   2.106591   7.457040   8.538015
    33  H    3.544781   4.009165   2.026382   8.452703   9.533133
    34  H    2.355253   3.467604   2.088633   8.266056   9.315360
                   21         22         23         24         25
    21  H    0.000000
    22  H    1.786489   0.000000
    23  C    4.432506   5.372983   0.000000
    24  H    4.169205   5.427362   1.097465   0.000000
    25  H    4.305883   5.093509   1.098313   1.787998   0.000000
    26  H    5.518908   6.419292   1.090702   1.789719   1.784163
    27  C    3.195201   3.792250   5.204518   4.944872   5.697040
    28  H    4.259779   4.834655   5.621110   5.371109   6.267202
    29  H    3.293405   3.677358   6.115039   5.823239   6.498492
    30  H    2.788074   3.886163   4.646364   4.196762   5.157227
    31  C    7.576589   7.454089   6.219941   6.792156   6.865563
    32  H    7.317859   7.073810   6.640350   7.130863   7.250647
    33  H    8.210025   8.260349   6.611491   7.095893   7.375294
    34  H    8.257181   7.974051   6.759346   7.452617   7.302094
                   26         27         28         29         30
    26  H    0.000000
    27  C    6.044521   0.000000
    28  H    6.323407   1.096737   0.000000
    29  H    7.014723   1.090943   1.787707   0.000000
    30  H    5.513813   1.097016   1.787758   1.783084   0.000000
    31  C    6.251412   5.706585   5.247568   6.511896   6.274170
    32  H    6.832707   5.224082   4.735478   5.902367   5.946886
    33  H    6.535348   6.110590   5.495236   6.955378   6.615983
    34  H    6.723365   6.624780   6.245433   7.392728   7.206806
                   31         32         33         34
    31  C    0.000000
    32  H    1.098206   0.000000
    33  H    1.091456   1.780482   0.000000
    34  H    1.097739   1.788121   1.786797   0.000000
 Stoichiometry    C10H19O5(1+)
 Framework group  C1[X(C10H19O5)]
 Deg. of freedom    96
 Full point group                 C1      NOp   1
 Largest Abelian subgroup         C1      NOp   1
 Largest concise Abelian subgroup C1      NOp   1
                         Standard orientation:                         
 ---------------------------------------------------------------------
 Center     Atomic      Atomic             Coordinates (Angstroms)
 Number     Number       Type             X           Y           Z
 ---------------------------------------------------------------------
      1          6           0        0.742911    0.600912    0.576114
      2          6           0        1.461513    0.569593   -0.818145
      3          6           0        0.846560   -0.359882   -1.813265
      4          6           0       -1.193390   -0.640404   -0.553748
      5          6           0       -0.294223   -0.535742    0.669936
      6          1           0        1.409784   -0.634490   -2.707182
      7          1           0        1.237503    1.550603   -1.279103
      8          1           0        1.509716    0.435757    1.343609
      9          1           0       -1.715593   -1.596813   -0.536438
     10          1           0       -0.947248   -0.356937    1.532371
     11          8           0       -0.323731   -0.815970   -1.773077
     12          8           0        2.857795    0.466710   -0.841117
     13          8           0        0.085127    1.825996    0.787770
     14          8           0        0.396608   -1.770445    0.750700
     15          6           0       -2.177457    0.512752   -0.826201
     16          1           0       -2.644784    0.358646   -1.807784
     17          1           0       -1.652319    1.469422   -0.824641
     18          8           0       -3.125442    0.550919    0.215147
     19          6           0        3.413869   -0.758056   -0.336288
     20          1           0        4.484815   -0.691568   -0.529046
     21          1           0        3.245951   -0.866492    0.739921
     22          1           0        3.006331   -1.635131   -0.854858
     23          6           0        0.949973    2.901754    1.159345
     24          1           0        1.486706    2.665211    2.086919
     25          1           0        1.680171    3.127575    0.370607
     26          1           0        0.310251    3.771300    1.315157
     27          6           0        0.677976   -2.213077    2.082130
     28          1           0       -0.252070   -2.386828    2.636798
     29          1           0        1.225860   -3.151257    1.983142
     30          1           0        1.295427   -1.491673    2.631471
     31          6           0       -4.271818   -0.274952    0.006479
     32          1           0       -4.014488   -1.341480   -0.042047
     33          1           0       -4.928224   -0.109998    0.862749
     34          1           0       -4.796128    0.009099   -0.915174
 ---------------------------------------------------------------------
 Rotational constants (GHZ):           0.7913932           0.4289705           0.3920876
 Leave Link  202 at Fri May 24 08:32:18 2019, MaxMem=   402653184 cpu:               0.9 elap:               0.4
 (Enter /n/sw/g16_nehalem/g16/l301.exe)
 Standard basis: 6-31G(d) (6D, 7F)
 Ernie: Thresh=  0.10000D-02 Tol=  0.10000D-05 Strict=F.
 There are   263 symmetry adapted cartesian basis functions of A   symmetry.
 There are   263 symmetry adapted basis functions of A   symmetry.
   263 basis functions,   496 primitive gaussians,   263 cartesian basis functions
    59 alpha electrons       59 beta electrons
       nuclear repulsion energy      1173.7767194475 Hartrees.
 IExCor=  402 DFT=T Ex+Corr=B3LYP ExCW=0 ScaHFX=  0.200000
 ScaDFX=  0.800000  0.720000  1.000000  0.810000 ScalE2=  1.000000  1.000000
 IRadAn=      5 IRanWt=     -1 IRanGd=            0 ICorTp=0 IEmpDi=  4
 NAtoms=   34 NActive=   34 NUniq=   34 SFac= 1.00D+00 NAtFMM=   60 NAOKFM=F Big=F
 Integral buffers will be    131072 words long.
 Raffenetti 2 integral format.
 Two-electron integral symmetry is turned on.
 ------------------------------------------------------------------------------
 Polarizable Continuum Model (PCM)
 =================================
 Model                : PCM.
 Atomic radii         : UFF (Universal Force Field).
 Polarization charges : Total charges.
 Charge compensation  : None.
 Solution method      : On-the-fly selection.
 Cavity type          : Scaled VdW (van der Waals Surface) (Alpha=1.100).
 Cavity algorithm     : GePol (No added spheres)
                        Default sphere list used, NSphG=   34.
                        Lebedev-Laikov grids with approx.  5.0 points / Ang**2.
                        Smoothing algorithm: York/Karplus (Gamma=1.0000).
                        Polarization charges: spherical gaussians, with
                                              point-specific exponents (IZeta= 3).
                        Self-potential: point-specific (ISelfS= 7).
                        Self-field    : sphere-specific E.n sum rule (ISelfD= 2).
 1st derivatives      : Analytical E(r).r(x)/FMM algorithm (CHGder, D1EAlg=3).
                        Cavity 1st derivative terms included.
 Solvent              : TetraHydroFuran, Eps=   7.425700 Eps(inf)=   1.974025
 ------------------------------------------------------------------------------
 GePol: Number of generator spheres                  =      34
 GePol: Total number of spheres                      =      34
 GePol: Number of exposed spheres                    =      34 (100.00%)
 GePol: Number of points                             =    2255
 GePol: Average weight of points                     =       0.13
 GePol: Minimum weight of points                     =   0.81D-09
 GePol: Maximum weight of points                     =    0.20577
 GePol: Number of points with low weight             =     139
 GePol: Fraction of low-weight points (<1% of avg)   =       6.16%
 GePol: Cavity surface area                          =    297.646 Ang**2
 GePol: Cavity volume                                =    320.442 Ang**3
 Leave Link  301 at Fri May 24 08:32:18 2019, MaxMem=   402653184 cpu:               0.5 elap:               0.2
 (Enter /n/sw/g16_nehalem/g16/l302.exe)
 NPDir=0 NMtPBC=     1 NCelOv=     1 NCel=       1 NClECP=     1 NCelD=      1
         NCelK=      1 NCelE2=     1 NClLst=     1 CellRange=     0.0.
 One-electron integrals computed using PRISM.
 One-electron integral symmetry used in STVInt
 NBasis=   263 RedAO= T EigKep=  1.72D-03  NBF=   263
 NBsUse=   263 1.00D-06 EigRej= -1.00D+00 NBFU=   263
 Precomputing XC quadrature grid using
 IXCGrd= 4 IRadAn=           5 IRanWt=          -1 IRanGd=           0 AccXCQ= 0.00D+00.
 Generated NRdTot=       0 NPtTot=           0 NUsed=           0 NTot=          32
 NSgBfM=   262   262   262   262   262 MxSgAt=    34 MxSgA2=    34.
 Leave Link  302 at Fri May 24 08:32:22 2019, MaxMem=   402653184 cpu:              13.8 elap:               4.3
 (Enter /n/sw/g16_nehalem/g16/l303.exe)
 DipDrv:  MaxL=1.
 Leave Link  303 at Fri May 24 08:32:22 2019, MaxMem=   402653184 cpu:               0.3 elap:               0.1
 (Enter /n/sw/g16_nehalem/g16/l401.exe)
 ExpMin= 1.61D-01 ExpMax= 5.48D+03 ExpMxC= 8.25D+02 IAcc=3 IRadAn=         5 AccDes= 0.00D+00
 Harris functional with IExCor=  402 and IRadAn=       5 diagonalized for initial guess.
 HarFok:  IExCor=  402 AccDes= 0.00D+00 IRadAn=         5 IDoV= 1 UseB2=F ITyADJ=14
 ICtDFT=  3500011 ScaDFX=  1.000000  1.000000  1.000000  1.000000
 FoFCou: FMM=F IPFlag=           0 FMFlag=      100000 FMFlg1=           0
         NFxFlg=           0 DoJE=T BraDBF=F KetDBF=T FulRan=T
         wScrn=  0.000000 ICntrl=       500 IOpCl=  0 I1Cent=   200000004 NGrid=           0
         NMat0=    1 NMatS0=      1 NMatT0=    0 NMatD0=    1 NMtDS0=    0 NMtDT0=    0
 Petite list used in FoFCou.
 Harris En= -768.257433133033    
 JPrj=0 DoOrth=F DoCkMO=F.
 Leave Link  401 at Fri May 24 08:32:34 2019, MaxMem=   402653184 cpu:              45.3 elap:              11.4
 (Enter /n/sw/g16_nehalem/g16/l502.exe)
 Integral symmetry usage will be decided dynamically.
 Closed shell SCF:
 Using DIIS extrapolation, IDIIS=  1040.
 NGot=   402653184 LenX=   402510103 LenY=   402440493
 Requested convergence on RMS density matrix=1.00D-08 within 128 cycles.
 Requested convergence on MAX density matrix=1.00D-06.
 Requested convergence on             energy=1.00D-06.
 No special actions if energy rises.
 Fock matrices will be formed incrementally for  20 cycles.

 Cycle   1  Pass 1  IDiag  1:
 FoFJK:  IHMeth= 1 ICntrl=       0 DoSepK=F KAlg= 0 I1Cent=           0 FoldK=F
 IRaf= 890000000 NMat=       1 IRICut=       1 DoRegI=T DoRafI=F ISym2E= 0 IDoP0=0 IntGTp=1.
 FoFCou: FMM=F IPFlag=           0 FMFlag=      100000 FMFlg1=           0
         NFxFlg=           0 DoJE=F BraDBF=F KetDBF=F FulRan=T
         wScrn=  0.000000 ICntrl=         0 IOpCl=  0 I1Cent=           0 NGrid=           0
         NMat0=    1 NMatS0=      1 NMatT0=    0 NMatD0=    1 NMtDS0=    0 NMtDT0=    0
 Symmetry not used in FoFCou.
 Inv3:  Mode=1 IEnd=    15255075.
 Iteration    1 A*A^-1 deviation from unit magnitude is 4.66D-15 for   2226.
 Iteration    1 A*A^-1 deviation from orthogonality  is 4.31D-15 for   2251    421.
 Iteration    1 A^-1*A deviation from unit magnitude is 4.66D-15 for   2226.
 Iteration    1 A^-1*A deviation from orthogonality  is 1.82D-15 for   2220    933.
 E= -768.090079033739    
 DIIS: error= 2.37D-02 at cycle   1 NSaved=   1.
 NSaved= 1 IEnMin= 1 EnMin= -768.090079033739     IErMin= 1 ErrMin= 2.37D-02
 ErrMax= 2.37D-02  0.00D+00 EMaxC= 1.00D-01 BMatC= 2.53D-01 BMatP= 2.53D-01
 IDIUse=3 WtCom= 7.63D-01 WtEn= 2.37D-01
 Coeff-Com:  0.100D+01
 Coeff-En:   0.100D+01
 Coeff:      0.100D+01
 Gap=     0.036 Goal=   None    Shift=    0.000
 GapD=    0.036 DampG=0.250 DampE=0.500 DampFc=0.2500 IDamp=-1.
 Damping current iteration by 2.50D-01
 RMSDP=4.50D-03 MaxDP=1.13D-01              OVMax= 3.14D-01

 Cycle   2  Pass 1  IDiag  1:
 RMSU=  1.12D-03    CP:  9.95D-01
 E= -768.166846296230     Delta-E=       -0.076767262490 Rises=F Damp=T
 DIIS: error= 1.19D-02 at cycle   2 NSaved=   2.
 NSaved= 2 IEnMin= 2 EnMin= -768.166846296230     IErMin= 2 ErrMin= 1.19D-02
 ErrMax= 1.19D-02  0.00D+00 EMaxC= 1.00D-01 BMatC= 7.04D-02 BMatP= 2.53D-01
 IDIUse=3 WtCom= 8.81D-01 WtEn= 1.19D-01
 Coeff-Com: -0.776D+00 0.178D+01
 Coeff-En:   0.000D+00 0.100D+01
 Coeff:     -0.684D+00 0.168D+01
 Gap=     0.160 Goal=   None    Shift=    0.000
 RMSDP=1.33D-03 MaxDP=3.06D-02 DE=-7.68D-02 OVMax= 3.55D-01

 Cycle   3  Pass 1  IDiag  1:
 RMSU=  1.23D-03    CP:  9.86D-01  1.41D+00
 E= -768.302548014272     Delta-E=       -0.135701718043 Rises=F Damp=F
 DIIS: error= 8.19D-03 at cycle   3 NSaved=   3.
 NSaved= 3 IEnMin= 3 EnMin= -768.302548014272     IErMin= 3 ErrMin= 8.19D-03
 ErrMax= 8.19D-03  0.00D+00 EMaxC= 1.00D-01 BMatC= 2.84D-02 BMatP= 7.04D-02
 IDIUse=3 WtCom= 9.18D-01 WtEn= 8.19D-02
 Coeff-Com: -0.498D+00 0.980D+00 0.517D+00
 Coeff-En:   0.000D+00 0.000D+00 0.100D+01
 Coeff:     -0.457D+00 0.900D+00 0.557D+00
 Gap=     0.141 Goal=   None    Shift=    0.000
 RMSDP=7.09D-04 MaxDP=3.01D-02 DE=-1.36D-01 OVMax= 3.60D-02

 Cycle   4  Pass 1  IDiag  1:
 RMSU=  5.20D-04    CP:  9.90D-01  1.59D+00  6.50D-01
 E= -768.324780128664     Delta-E=       -0.022232114392 Rises=F Damp=F
 DIIS: error= 2.36D-03 at cycle   4 NSaved=   4.
 NSaved= 4 IEnMin= 4 EnMin= -768.324780128664     IErMin= 4 ErrMin= 2.36D-03
 ErrMax= 2.36D-03  0.00D+00 EMaxC= 1.00D-01 BMatC= 2.69D-03 BMatP= 2.84D-02
 IDIUse=3 WtCom= 9.76D-01 WtEn= 2.36D-02
 Coeff-Com: -0.182D+00 0.307D+00 0.251D+00 0.624D+00
 Coeff-En:   0.000D+00 0.000D+00 0.000D+00 0.100D+01
 Coeff:     -0.178D+00 0.300D+00 0.245D+00 0.633D+00
 Gap=     0.143 Goal=   None    Shift=    0.000
 RMSDP=1.93D-04 MaxDP=1.05D-02 DE=-2.22D-02 OVMax= 1.13D-02

 Cycle   5  Pass 1  IDiag  1:
 RMSU=  1.47D-04    CP:  9.89D-01  1.61D+00  7.11D-01  8.13D-01
 E= -768.326739528080     Delta-E=       -0.001959399415 Rises=F Damp=F
 DIIS: error= 1.13D-03 at cycle   5 NSaved=   5.
 NSaved= 5 IEnMin= 5 EnMin= -768.326739528080     IErMin= 5 ErrMin= 1.13D-03
 ErrMax= 1.13D-03  0.00D+00 EMaxC= 1.00D-01 BMatC= 4.02D-04 BMatP= 2.69D-03
 IDIUse=3 WtCom= 9.89D-01 WtEn= 1.13D-02
 Coeff-Com: -0.626D-01 0.934D-01 0.600D-01 0.318D+00 0.591D+00
 Coeff-En:   0.000D+00 0.000D+00 0.000D+00 0.347D-01 0.965D+00
 Coeff:     -0.619D-01 0.924D-01 0.593D-01 0.315D+00 0.595D+00
 Gap=     0.140 Goal=   None    Shift=    0.000
 RMSDP=7.49D-05 MaxDP=3.31D-03 DE=-1.96D-03 OVMax= 4.90D-03

 Cycle   6  Pass 1  IDiag  1:
 RMSU=  5.66D-05    CP:  9.89D-01  1.61D+00  7.12D-01  8.78D-01  7.65D-01
 E= -768.327000604129     Delta-E=       -0.000261076050 Rises=F Damp=F
 DIIS: error= 3.03D-04 at cycle   6 NSaved=   6.
 NSaved= 6 IEnMin= 6 EnMin= -768.327000604129     IErMin= 6 ErrMin= 3.03D-04
 ErrMax= 3.03D-04  0.00D+00 EMaxC= 1.00D-01 BMatC= 5.32D-05 BMatP= 4.02D-04
 IDIUse=3 WtCom= 9.97D-01 WtEn= 3.03D-03
 Coeff-Com: -0.195D-01 0.244D-01 0.299D-02 0.121D+00 0.353D+00 0.519D+00
 Coeff-En:   0.000D+00 0.000D+00 0.000D+00 0.000D+00 0.412D-02 0.996D+00
 Coeff:     -0.194D-01 0.243D-01 0.298D-02 0.120D+00 0.352D+00 0.520D+00
 Gap=     0.140 Goal=   None    Shift=    0.000
 RMSDP=2.46D-05 MaxDP=1.52D-03 DE=-2.61D-04 OVMax= 1.30D-03

 Cycle   7  Pass 1  IDiag  1:
 RMSU=  1.69D-05    CP:  9.89D-01  1.62D+00  7.10D-01  8.95D-01  8.26D-01
                    CP:  7.78D-01
 E= -768.327042458677     Delta-E=       -0.000041854548 Rises=F Damp=F
 DIIS: error= 1.25D-04 at cycle   7 NSaved=   7.
 NSaved= 7 IEnMin= 7 EnMin= -768.327042458677     IErMin= 7 ErrMin= 1.25D-04
 ErrMax= 1.25D-04  0.00D+00 EMaxC= 1.00D-01 BMatC= 5.50D-06 BMatP= 5.32D-05
 IDIUse=3 WtCom= 9.99D-01 WtEn= 1.25D-03
 Coeff-Com: -0.508D-02 0.486D-02-0.707D-02 0.346D-01 0.146D+00 0.300D+00
 Coeff-Com:  0.526D+00
 Coeff-En:   0.000D+00 0.000D+00 0.000D+00 0.000D+00 0.000D+00 0.000D+00
 Coeff-En:   0.100D+01
 Coeff:     -0.507D-02 0.486D-02-0.706D-02 0.345D-01 0.146D+00 0.300D+00
 Coeff:      0.527D+00
 Gap=     0.139 Goal=   None    Shift=    0.000
 RMSDP=9.21D-06 MaxDP=5.61D-04 DE=-4.19D-05 OVMax= 5.67D-04

 Cycle   8  Pass 1  IDiag  1:
 RMSU=  6.23D-06    CP:  9.89D-01  1.62D+00  7.11D-01  9.03D-01  8.45D-01
                    CP:  8.02D-01  7.53D-01
 E= -768.327046851010     Delta-E=       -0.000004392332 Rises=F Damp=F
 DIIS: error= 2.60D-05 at cycle   8 NSaved=   8.
 NSaved= 8 IEnMin= 8 EnMin= -768.327046851010     IErMin= 8 ErrMin= 2.60D-05
 ErrMax= 2.60D-05  0.00D+00 EMaxC= 1.00D-01 BMatC= 4.59D-07 BMatP= 5.50D-06
 IDIUse=1 WtCom= 1.00D+00 WtEn= 0.00D+00
 Coeff-Com:  0.222D-03-0.752D-03-0.377D-02-0.445D-02 0.675D-02 0.381D-01
 Coeff-Com:  0.244D+00 0.720D+00
 Coeff:      0.222D-03-0.752D-03-0.377D-02-0.445D-02 0.675D-02 0.381D-01
 Coeff:      0.244D+00 0.720D+00
 Gap=     0.139 Goal=   None    Shift=    0.000
 RMSDP=3.23D-06 MaxDP=1.39D-04 DE=-4.39D-06 OVMax= 4.10D-04

 Cycle   9  Pass 1  IDiag  1:
 RMSU=  1.94D-06    CP:  9.89D-01  1.62D+00  7.11D-01  9.05D-01  8.53D-01
                    CP:  8.23D-01  8.25D-01  9.10D-01
 E= -768.327047229787     Delta-E=       -0.000000378778 Rises=F Damp=F
 DIIS: error= 1.12D-05 at cycle   9 NSaved=   9.
 NSaved= 9 IEnMin= 9 EnMin= -768.327047229787     IErMin= 9 ErrMin= 1.12D-05
 ErrMax= 1.12D-05  0.00D+00 EMaxC= 1.00D-01 BMatC= 6.33D-08 BMatP= 4.59D-07
 IDIUse=1 WtCom= 1.00D+00 WtEn= 0.00D+00
 Coeff-Com:  0.236D-03-0.373D-03-0.137D-02-0.439D-02-0.620D-02-0.296D-02
 Coeff-Com:  0.923D-01 0.386D+00 0.537D+00
 Coeff:      0.236D-03-0.373D-03-0.137D-02-0.439D-02-0.620D-02-0.296D-02
 Coeff:      0.923D-01 0.386D+00 0.537D+00
 Gap=     0.139 Goal=   None    Shift=    0.000
 RMSDP=1.05D-06 MaxDP=4.08D-05 DE=-3.79D-07 OVMax= 1.04D-04

 Cycle  10  Pass 1  IDiag  1:
 RMSU=  7.32D-07    CP:  9.89D-01  1.62D+00  7.11D-01  9.05D-01  8.54D-01
                    CP:  8.28D-01  8.47D-01  9.50D-01  7.70D-01
 E= -768.327047281312     Delta-E=       -0.000000051524 Rises=F Damp=F
 DIIS: error= 1.88D-06 at cycle  10 NSaved=  10.
 NSaved=10 IEnMin=10 EnMin= -768.327047281312     IErMin=10 ErrMin= 1.88D-06
 ErrMax= 1.88D-06  0.00D+00 EMaxC= 1.00D-01 BMatC= 3.30D-09 BMatP= 6.33D-08
 IDIUse=1 WtCom= 1.00D+00 WtEn= 0.00D+00
 Coeff-Com:  0.113D-03-0.140D-03-0.238D-03-0.151D-02-0.350D-02-0.617D-02
 Coeff-Com:  0.105D-01 0.723D-01 0.215D+00 0.713D+00
 Coeff:      0.113D-03-0.140D-03-0.238D-03-0.151D-02-0.350D-02-0.617D-02
 Coeff:      0.105D-01 0.723D-01 0.215D+00 0.713D+00
 Gap=     0.139 Goal=   None    Shift=    0.000
 RMSDP=3.68D-07 MaxDP=9.32D-06 DE=-5.15D-08 OVMax= 3.48D-05

 Cycle  11  Pass 1  IDiag  1:
 RMSU=  2.25D-07    CP:  9.89D-01  1.62D+00  7.12D-01  9.05D-01  8.55D-01
                    CP:  8.30D-01  8.55D-01  9.63D-01  8.17D-01  8.95D-01
 E= -768.327047284806     Delta-E=       -0.000000003495 Rises=F Damp=F
 DIIS: error= 5.63D-07 at cycle  11 NSaved=  11.
 NSaved=11 IEnMin=11 EnMin= -768.327047284806     IErMin=11 ErrMin= 5.63D-07
 ErrMax= 5.63D-07  0.00D+00 EMaxC= 1.00D-01 BMatC= 3.39D-10 BMatP= 3.30D-09
 IDIUse=1 WtCom= 1.00D+00 WtEn= 0.00D+00
 Coeff-Com:  0.217D-04-0.209D-04-0.135D-04-0.339D-03-0.101D-02-0.250D-02
 Coeff-Com: -0.213D-02 0.451D-02 0.584D-01 0.322D+00 0.621D+00
 Coeff:      0.217D-04-0.209D-04-0.135D-04-0.339D-03-0.101D-02-0.250D-02
 Coeff:     -0.213D-02 0.451D-02 0.584D-01 0.322D+00 0.621D+00
 Gap=     0.139 Goal=   None    Shift=    0.000
 RMSDP=1.14D-07 MaxDP=3.28D-06 DE=-3.49D-09 OVMax= 9.99D-06

 Cycle  12  Pass 1  IDiag  1:
 RMSU=  7.39D-08    CP:  9.89D-01  1.62D+00  7.12D-01  9.05D-01  8.55D-01
                    CP:  8.30D-01  8.55D-01  9.69D-01  8.37D-01  9.51D-01
                    CP:  8.23D-01
 E= -768.327047285121     Delta-E=       -0.000000000314 Rises=F Damp=F
 DIIS: error= 2.19D-07 at cycle  12 NSaved=  12.
 NSaved=12 IEnMin=12 EnMin= -768.327047285121     IErMin=12 ErrMin= 2.19D-07
 ErrMax= 2.19D-07  0.00D+00 EMaxC= 1.00D-01 BMatC= 4.57D-11 BMatP= 3.39D-10
 IDIUse=1 WtCom= 1.00D+00 WtEn= 0.00D+00
 Coeff-Com: -0.260D-06 0.291D-05 0.215D-04 0.977D-05-0.792D-04-0.549D-03
 Coeff-Com: -0.288D-02-0.758D-02 0.251D-02 0.710D-01 0.309D+00 0.629D+00
 Coeff:     -0.260D-06 0.291D-05 0.215D-04 0.977D-05-0.792D-04-0.549D-03
 Coeff:     -0.288D-02-0.758D-02 0.251D-02 0.710D-01 0.309D+00 0.629D+00
 Gap=     0.139 Goal=   None    Shift=    0.000
 RMSDP=3.81D-08 MaxDP=9.16D-07 DE=-3.14D-10 OVMax= 3.83D-06

 Cycle  13  Pass 1  IDiag  1:
 RMSU=  2.15D-08    CP:  9.89D-01  1.62D+00  7.12D-01  9.05D-01  8.55D-01
                    CP:  8.30D-01  8.56D-01  9.69D-01  8.42D-01  9.67D-01
                    CP:  9.13D-01  8.64D-01
 E= -768.327047285196     Delta-E=       -0.000000000075 Rises=F Damp=F
 DIIS: error= 5.84D-08 at cycle  13 NSaved=  13.
 NSaved=13 IEnMin=13 EnMin= -768.327047285196     IErMin=13 ErrMin= 5.84D-08
 ErrMax= 5.84D-08  0.00D+00 EMaxC= 1.00D-01 BMatC= 2.49D-12 BMatP= 4.57D-11
 IDIUse=1 WtCom= 1.00D+00 WtEn= 0.00D+00
 Coeff-Com: -0.210D-05 0.302D-05 0.810D-05 0.306D-04 0.589D-04 0.122D-04
 Coeff-Com: -0.976D-03-0.301D-02-0.337D-02 0.105D-02 0.683D-01 0.236D+00
 Coeff-Com:  0.702D+00
 Coeff:     -0.210D-05 0.302D-05 0.810D-05 0.306D-04 0.589D-04 0.122D-04
 Coeff:     -0.976D-03-0.301D-02-0.337D-02 0.105D-02 0.683D-01 0.236D+00
 Coeff:      0.702D+00
 Gap=     0.139 Goal=   None    Shift=    0.000
 RMSDP=1.16D-08 MaxDP=3.75D-07 DE=-7.50D-11 OVMax= 1.57D-06

 Cycle  14  Pass 1  IDiag  1:
 RMSU=  7.96D-09    CP:  9.89D-01  1.62D+00  7.12D-01  9.05D-01  8.55D-01
                    CP:  8.30D-01  8.56D-01  9.70D-01  8.44D-01  9.70D-01
                    CP:  9.29D-01  9.37D-01  1.01D+00
 E= -768.327047285226     Delta-E=       -0.000000000030 Rises=F Damp=F
 DIIS: error= 3.83D-08 at cycle  14 NSaved=  14.
 NSaved=14 IEnMin=14 EnMin= -768.327047285226     IErMin=14 ErrMin= 3.83D-08
 ErrMax= 3.83D-08  0.00D+00 EMaxC= 1.00D-01 BMatC= 6.97D-13 BMatP= 2.49D-12
 IDIUse=1 WtCom= 1.00D+00 WtEn= 0.00D+00
 Coeff-Com: -0.124D-05 0.153D-05 0.175D-05 0.142D-04 0.386D-04 0.687D-04
 Coeff-Com: -0.180D-03-0.583D-03-0.186D-02-0.727D-02-0.394D-02 0.409D-01
 Coeff-Com:  0.386D+00 0.587D+00
 Coeff:     -0.124D-05 0.153D-05 0.175D-05 0.142D-04 0.386D-04 0.687D-04
 Coeff:     -0.180D-03-0.583D-03-0.186D-02-0.727D-02-0.394D-02 0.409D-01
 Coeff:      0.386D+00 0.587D+00
 Gap=     0.139 Goal=   None    Shift=    0.000
 RMSDP=4.41D-09 MaxDP=1.59D-07 DE=-2.98D-11 OVMax= 4.98D-07

 Error on total polarization charges =  0.01227
 SCF Done:  E(RB3LYP) =  -768.327047285     A.U. after   14 cycles
            NFock= 14  Conv=0.44D-08     -V/T= 2.0091
 KE= 7.614016582445D+02 PE=-4.122421312435D+03 EE= 1.418915887458D+03
 Leave Link  502 at Fri May 24 08:38:00 2019, MaxMem=   402653184 cpu:            1304.7 elap:             326.4
 (Enter /n/sw/g16_nehalem/g16/l601.exe)
 Copying SCF densities to generalized density rwf, IOpCl= 0 IROHF=0.

 **********************************************************************

            Population analysis using the SCF density.

 **********************************************************************

 Orbital symmetries:
       Occupied  (A) (A) (A) (A) (A) (A) (A) (A) (A) (A) (A) (A)
                 (A) (A) (A) (A) (A) (A) (A) (A) (A) (A) (A) (A)
                 (A) (A) (A) (A) (A) (A) (A) (A) (A) (A) (A) (A)
                 (A) (A) (A) (A) (A) (A) (A) (A) (A) (A) (A) (A)
                 (A) (A) (A) (A) (A) (A) (A) (A) (A) (A) (A)
       Virtual   (A) (A) (A) (A) (A) (A) (A) (A) (A) (A) (A) (A)
                 (A) (A) (A) (A) (A) (A) (A) (A) (A) (A) (A) (A)
                 (A) (A) (A) (A) (A) (A) (A) (A) (A) (A) (A) (A)
                 (A) (A) (A) (A) (A) (A) (A) (A) (A) (A) (A) (A)
                 (A) (A) (A) (A) (A) (A) (A) (A) (A) (A) (A) (A)
                 (A) (A) (A) (A) (A) (A) (A) (A) (A) (A) (A) (A)
                 (A) (A) (A) (A) (A) (A) (A) (A) (A) (A) (A) (A)
                 (A) (A) (A) (A) (A) (A) (A) (A) (A) (A) (A) (A)
                 (A) (A) (A) (A) (A) (A) (A) (A) (A) (A) (A) (A)
                 (A) (A) (A) (A) (A) (A) (A) (A) (A) (A) (A) (A)
                 (A) (A) (A) (A) (A) (A) (A) (A) (A) (A) (A) (A)
                 (A) (A) (A) (A) (A) (A) (A) (A) (A) (A) (A) (A)
                 (A) (A) (A) (A) (A) (A) (A) (A) (A) (A) (A) (A)
                 (A) (A) (A) (A) (A) (A) (A) (A) (A) (A) (A) (A)
                 (A) (A) (A) (A) (A) (A) (A) (A) (A) (A) (A) (A)
                 (A) (A) (A) (A) (A) (A) (A) (A) (A) (A) (A) (A)
                 (A) (A) (A) (A) (A) (A) (A) (A) (A) (A) (A) (A)
 The electronic state is 1-A.
 Alpha  occ. eigenvalues --  -19.32924 -19.20908 -19.19883 -19.19657 -19.18846
 Alpha  occ. eigenvalues --  -10.39631 -10.31916 -10.31650 -10.29750 -10.29539
 Alpha  occ. eigenvalues --  -10.27834 -10.26172 -10.25646 -10.25453 -10.24929
 Alpha  occ. eigenvalues --   -1.21657  -1.09612  -1.08356  -1.07400  -1.06833
 Alpha  occ. eigenvalues --   -0.87017  -0.85256  -0.77699  -0.75137  -0.74386
 Alpha  occ. eigenvalues --   -0.71339  -0.69396  -0.68463  -0.66397  -0.61936
 Alpha  occ. eigenvalues --   -0.59251  -0.58774  -0.56699  -0.54314  -0.53963
 Alpha  occ. eigenvalues --   -0.52866  -0.51641  -0.50906  -0.50300  -0.49294
 Alpha  occ. eigenvalues --   -0.48589  -0.47504  -0.47213  -0.46485  -0.45777
 Alpha  occ. eigenvalues --   -0.44670  -0.43332  -0.42285  -0.41525  -0.41152
 Alpha  occ. eigenvalues --   -0.39706  -0.36950  -0.36807  -0.35859  -0.34621
 Alpha  occ. eigenvalues --   -0.32879  -0.30689  -0.29500  -0.29042
 Alpha virt. eigenvalues --   -0.15094   0.00462   0.03533   0.04430   0.06694
 Alpha virt. eigenvalues --    0.06828   0.07392   0.09046   0.09947   0.10284
 Alpha virt. eigenvalues --    0.11036   0.11783   0.12257   0.12708   0.13039
 Alpha virt. eigenvalues --    0.13271   0.14231   0.14397   0.14619   0.14801
 Alpha virt. eigenvalues --    0.15158   0.16161   0.16577   0.17166   0.17989
 Alpha virt. eigenvalues --    0.18408   0.19105   0.20013   0.21767   0.22305
 Alpha virt. eigenvalues --    0.22573   0.24473   0.28375   0.29203   0.30764
 Alpha virt. eigenvalues --    0.43803   0.45690   0.46649   0.46840   0.47774
 Alpha virt. eigenvalues --    0.48396   0.48704   0.50294   0.51449   0.52366
 Alpha virt. eigenvalues --    0.52645   0.52754   0.53474   0.54190   0.55923
 Alpha virt. eigenvalues --    0.56690   0.57211   0.59772   0.60608   0.61289
 Alpha virt. eigenvalues --    0.63372   0.64520   0.65750   0.68649   0.69622
 Alpha virt. eigenvalues --    0.70857   0.74105   0.76279   0.78331   0.78962
 Alpha virt. eigenvalues --    0.79834   0.80353   0.80703   0.81495   0.82828
 Alpha virt. eigenvalues --    0.82913   0.83506   0.84376   0.85312   0.85680
 Alpha virt. eigenvalues --    0.85778   0.87350   0.87680   0.88157   0.89653
 Alpha virt. eigenvalues --    0.91231   0.91863   0.93034   0.93868   0.95172
 Alpha virt. eigenvalues --    0.95751   0.96314   0.98838   0.99309   1.00866
 Alpha virt. eigenvalues --    1.03139   1.04556   1.08299   1.09555   1.11499
 Alpha virt. eigenvalues --    1.11893   1.14853   1.16674   1.17501   1.19924
 Alpha virt. eigenvalues --    1.23808   1.26618   1.28182   1.30816   1.33573
 Alpha virt. eigenvalues --    1.34298   1.36795   1.37142   1.39730   1.41583
 Alpha virt. eigenvalues --    1.43757   1.44523   1.47057   1.49466   1.49830
 Alpha virt. eigenvalues --    1.52396   1.54235   1.54686   1.57589   1.59099
 Alpha virt. eigenvalues --    1.60613   1.65440   1.67777   1.68712   1.70516
 Alpha virt. eigenvalues --    1.71713   1.74086   1.78671   1.79575   1.81100
 Alpha virt. eigenvalues --    1.82537   1.85281   1.85645   1.87662   1.89885
 Alpha virt. eigenvalues --    1.91249   1.94140   1.95526   1.98681   1.99665
 Alpha virt. eigenvalues --    2.00737   2.00931   2.02235   2.04980   2.05500
 Alpha virt. eigenvalues --    2.06175   2.07966   2.08110   2.09315   2.10124
 Alpha virt. eigenvalues --    2.11100   2.11916   2.13915   2.15821   2.16811
 Alpha virt. eigenvalues --    2.18647   2.20485   2.21704   2.24699   2.25477
 Alpha virt. eigenvalues --    2.26809   2.29188   2.30829   2.34653   2.36827
 Alpha virt. eigenvalues --    2.37266   2.40158   2.40861   2.43912   2.47398
 Alpha virt. eigenvalues --    2.49182   2.50478   2.52581   2.56561   2.58041
 Alpha virt. eigenvalues --    2.65473   2.68066   2.69194   2.73367   2.75904
 Alpha virt. eigenvalues --    2.77200   2.79155   2.84735   2.88724   2.90530
 Alpha virt. eigenvalues --    2.95808   2.96040   3.01615   3.08903   3.83161
 Alpha virt. eigenvalues --    3.86199   3.94379   3.98807   4.09879   4.12262
 Alpha virt. eigenvalues --    4.21229   4.23123   4.24171   4.25074   4.26065
 Alpha virt. eigenvalues --    4.35061   4.51990   4.62884   4.67705
          Condensed to atoms (all electrons):
               1          2          3          4          5          6
     1  C    5.050585   0.238233  -0.038235  -0.027887   0.293054   0.003119
     2  C    0.238233   5.121790   0.270733  -0.025077  -0.019906  -0.043332
     3  C   -0.038235   0.270733   4.858495  -0.043864  -0.002430   0.357544
     4  C   -0.027887  -0.025077  -0.043864   5.149547   0.321744   0.002652
     5  C    0.293054  -0.019906  -0.002430   0.321744   5.031035  -0.000143
     6  H    0.003119  -0.043332   0.357544   0.002652  -0.000143   0.434020
     7  H   -0.039753   0.359907  -0.036181   0.001892   0.001208  -0.000882
     8  H    0.374172  -0.061704   0.003135   0.005058  -0.038096  -0.000154
     9  H    0.004807  -0.000051   0.002102   0.373986  -0.040904  -0.000086
    10  H   -0.039810   0.004658   0.000537  -0.040997   0.353255   0.000021
    11  O   -0.006942  -0.019765   0.369214   0.110331  -0.024376  -0.034962
    12  O   -0.027943   0.234957  -0.031888   0.000205   0.001924   0.004136
    13  O    0.185491  -0.040942   0.003120   0.000234  -0.036741  -0.000077
    14  O   -0.048870   0.002528   0.008229  -0.045531   0.185157  -0.000038
    15  C    0.000119   0.001066  -0.000238   0.289085  -0.037939  -0.000087
    16  H   -0.000459   0.000081   0.000213  -0.047721   0.005408  -0.000018
    17  H    0.001559  -0.001996   0.002449  -0.038699  -0.011406  -0.000004
    18  O   -0.000479   0.000007  -0.000013  -0.044271  -0.001500   0.000001
    19  C   -0.005287  -0.048508  -0.004941   0.000069  -0.000753  -0.000378
    20  H   -0.000017   0.005023  -0.000049  -0.000001   0.000008  -0.000115
    21  H    0.005509  -0.003605  -0.000533  -0.000010  -0.001322   0.000213
    22  H   -0.000916  -0.007028   0.008842  -0.000052  -0.000023  -0.000277
    23  C   -0.034490  -0.002903   0.000275  -0.000137   0.004442  -0.000001
    24  H   -0.007846  -0.001679   0.000002   0.000012   0.000010   0.000000
    25  H   -0.007170   0.008361  -0.000041  -0.000043  -0.000107   0.000012
    26  H    0.004715  -0.000143   0.000005   0.000017  -0.000138   0.000000
    27  C   -0.003438   0.000085  -0.000247   0.004353  -0.033723   0.000000
    28  H   -0.000567  -0.000005   0.000026   0.000267  -0.007662   0.000000
    29  H   -0.000121   0.000008   0.000005  -0.000273   0.005141   0.000000
    30  H    0.002882  -0.000141  -0.000012   0.000025  -0.004779   0.000000
    31  C    0.000015   0.000000   0.000006  -0.003534  -0.000382   0.000000
    32  H   -0.000004   0.000000  -0.000001   0.003117   0.000545   0.000000
    33  H    0.000000   0.000000   0.000000  -0.000084  -0.000006   0.000000
    34  H   -0.000001   0.000000   0.000001  -0.000956   0.000013   0.000000
               7          8          9         10         11         12
     1  C   -0.039753   0.374172   0.004807  -0.039810  -0.006942  -0.027943
     2  C    0.359907  -0.061704  -0.000051   0.004658  -0.019765   0.234957
     3  C   -0.036181   0.003135   0.002102   0.000537   0.369214  -0.031888
     4  C    0.001892   0.005058   0.373986  -0.040997   0.110331   0.000205
     5  C    0.001208  -0.038096  -0.040904   0.353255  -0.024376   0.001924
     6  H   -0.000882  -0.000154  -0.000086   0.000021  -0.034962   0.004136
     7  H    0.465071   0.002414  -0.000010  -0.000126  -0.000315  -0.030456
     8  H    0.002414   0.548305  -0.000120  -0.005058  -0.000001   0.002011
     9  H   -0.000010  -0.000120   0.480796  -0.001423  -0.028678   0.000004
    10  H   -0.000126  -0.005058  -0.001423   0.526258   0.002695  -0.000070
    11  O   -0.000315  -0.000001  -0.028678   0.002695   7.958250   0.001577
    12  O   -0.030456   0.002011   0.000004  -0.000070   0.001577   8.180810
    13  O    0.002447  -0.029417  -0.000103   0.005793  -0.000042   0.001310
    14  O    0.000199  -0.001967   0.004165  -0.025133  -0.003141  -0.000501
    15  C   -0.000001  -0.000008  -0.030489  -0.002202  -0.020757   0.000001
    16  H   -0.000023   0.000005  -0.005868   0.000325   0.002857   0.000000
    17  H    0.000906   0.000232   0.003883  -0.000058   0.000810   0.000014
    18  O   -0.000006  -0.000011  -0.001020   0.010436   0.001142   0.000000
    19  C    0.005129   0.001306  -0.000002   0.000018  -0.000057   0.233838
    20  H   -0.000129  -0.000075   0.000000   0.000001   0.000001  -0.030127
    21  H   -0.000185   0.001626  -0.000001   0.000064   0.000040  -0.035976
    22  H   -0.000120   0.000380   0.000001   0.000002  -0.000731  -0.035738
    23  C    0.001955  -0.005265   0.000005   0.000041  -0.000008  -0.000065
    24  H    0.000320   0.011576   0.000000  -0.000097   0.000000   0.000110
    25  H    0.000887  -0.001609   0.000000   0.000041  -0.000001  -0.000002
    26  H   -0.000277  -0.000022   0.000000  -0.000018   0.000000   0.000015
    27  C   -0.000010   0.002109   0.000081  -0.003863   0.000071  -0.000001
    28  H    0.000001  -0.000028  -0.000107   0.008201  -0.000005  -0.000001
    29  H    0.000000  -0.000177  -0.000047  -0.000025   0.000007  -0.000001
    30  H    0.000000   0.003888   0.000060  -0.000951  -0.000005   0.000015
    31  C    0.000000   0.000000   0.003281   0.000056   0.000016   0.000000
    32  H    0.000000   0.000000   0.002401  -0.000178  -0.000154   0.000000
    33  H    0.000000   0.000000  -0.000131  -0.000032   0.000001   0.000000
    34  H    0.000000   0.000000  -0.000058   0.000050   0.000015   0.000000
              13         14         15         16         17         18
     1  C    0.185491  -0.048870   0.000119  -0.000459   0.001559  -0.000479
     2  C   -0.040942   0.002528   0.001066   0.000081  -0.001996   0.000007
     3  C    0.003120   0.008229  -0.000238   0.000213   0.002449  -0.000013
     4  C    0.000234  -0.045531   0.289085  -0.047721  -0.038699  -0.044271
     5  C   -0.036741   0.185157  -0.037939   0.005408  -0.011406  -0.001500
     6  H   -0.000077  -0.000038  -0.000087  -0.000018  -0.000004   0.000001
     7  H    0.002447   0.000199  -0.000001  -0.000023   0.000906  -0.000006
     8  H   -0.029417  -0.001967  -0.000008   0.000005   0.000232  -0.000011
     9  H   -0.000103   0.004165  -0.030489  -0.005868   0.003883  -0.001020
    10  H    0.005793  -0.025133  -0.002202   0.000325  -0.000058   0.010436
    11  O   -0.000042  -0.003141  -0.020757   0.002857   0.000810   0.001142
    12  O    0.001310  -0.000501   0.000001   0.000000   0.000014   0.000000
    13  O    8.250710   0.001471  -0.006645   0.000272   0.016816  -0.000006
    14  O    0.001471   8.277600   0.002845  -0.000051   0.000022   0.000015
    15  C   -0.006645   0.002845   4.925911   0.356192   0.369526   0.250167
    16  H    0.000272  -0.000051   0.356192   0.566593  -0.030530  -0.027136
    17  H    0.016816   0.000022   0.369526  -0.030530   0.520270  -0.032082
    18  O   -0.000006   0.000015   0.250167  -0.027136  -0.032082   8.172043
    19  C    0.000077   0.002991  -0.000001   0.000000   0.000001   0.000000
    20  H    0.000001   0.000115   0.000000   0.000000   0.000000   0.000000
    21  H   -0.000021   0.000221   0.000000   0.000000   0.000000   0.000000
    22  H   -0.000001   0.001254   0.000001   0.000000   0.000000   0.000000
    23  C    0.232160  -0.000074   0.000179  -0.000007  -0.000151   0.000002
    24  H   -0.034470  -0.000003  -0.000017   0.000000   0.000075   0.000000
    25  H   -0.036203   0.000003   0.000037   0.000000  -0.000127   0.000000
    26  H   -0.030044   0.000001   0.000010   0.000000  -0.000097   0.000001
    27  C    0.000025   0.234420  -0.000125   0.000003  -0.000001   0.000009
    28  H    0.000014  -0.034808  -0.000019   0.000000   0.000001  -0.000005
    29  H    0.000001  -0.030614   0.000001   0.000000   0.000000   0.000000
    30  H   -0.000239  -0.035943   0.000019   0.000000   0.000000   0.000000
    31  C   -0.000005  -0.000010  -0.044594  -0.008571   0.005295   0.239832
    32  H    0.000000  -0.000013  -0.003515  -0.000542  -0.000349  -0.037787
    33  H    0.000000   0.000000   0.005359  -0.000044  -0.000179  -0.031209
    34  H    0.000000   0.000000  -0.010194   0.010704   0.000244  -0.034229
              19         20         21         22         23         24
     1  C   -0.005287  -0.000017   0.005509  -0.000916  -0.034490  -0.007846
     2  C   -0.048508   0.005023  -0.003605  -0.007028  -0.002903  -0.001679
     3  C   -0.004941  -0.000049  -0.000533   0.008842   0.000275   0.000002
     4  C    0.000069  -0.000001  -0.000010  -0.000052  -0.000137   0.000012
     5  C   -0.000753   0.000008  -0.001322  -0.000023   0.004442   0.000010
     6  H   -0.000378  -0.000115   0.000213  -0.000277  -0.000001   0.000000
     7  H    0.005129  -0.000129  -0.000185  -0.000120   0.001955   0.000320
     8  H    0.001306  -0.000075   0.001626   0.000380  -0.005265   0.011576
     9  H   -0.000002   0.000000  -0.000001   0.000001   0.000005   0.000000
    10  H    0.000018   0.000001   0.000064   0.000002   0.000041  -0.000097
    11  O   -0.000057   0.000001   0.000040  -0.000731  -0.000008   0.000000
    12  O    0.233838  -0.030127  -0.035976  -0.035738  -0.000065   0.000110
    13  O    0.000077   0.000001  -0.000021  -0.000001   0.232160  -0.034470
    14  O    0.002991   0.000115   0.000221   0.001254  -0.000074  -0.000003
    15  C   -0.000001   0.000000   0.000000   0.000001   0.000179  -0.000017
    16  H    0.000000   0.000000   0.000000   0.000000  -0.000007   0.000000
    17  H    0.000001   0.000000   0.000000   0.000000  -0.000151   0.000075
    18  O    0.000000   0.000000   0.000000   0.000000   0.000002   0.000000
    19  C    4.941211   0.383292   0.367306   0.365441  -0.000005   0.000002
    20  H    0.383292   0.500077  -0.028799  -0.027237   0.000000   0.000001
    21  H    0.367306  -0.028799   0.561910  -0.043119  -0.000015  -0.000009
    22  H    0.365441  -0.027237  -0.043119   0.572478   0.000000   0.000000
    23  C   -0.000005   0.000000  -0.000015   0.000000   4.912278   0.370709
    24  H    0.000002   0.000001  -0.000009   0.000000   0.370709   0.563608
    25  H   -0.000031  -0.000004   0.000011   0.000003   0.364340  -0.043380
    26  H    0.000000   0.000000   0.000000   0.000000   0.385764  -0.027826
    27  C   -0.000133  -0.000010   0.000881  -0.000044  -0.000001  -0.000010
    28  H    0.000034   0.000000   0.000017   0.000004  -0.000001   0.000000
    29  H   -0.000019  -0.000004   0.000085   0.000007   0.000000   0.000000
    30  H   -0.000290  -0.000013   0.000642  -0.000001   0.000016   0.000027
    31  C    0.000000   0.000000   0.000000   0.000000   0.000000   0.000000
    32  H    0.000000   0.000000   0.000000   0.000000   0.000000   0.000000
    33  H    0.000000   0.000000   0.000000   0.000000   0.000000   0.000000
    34  H    0.000000   0.000000   0.000000   0.000000   0.000000   0.000000
              25         26         27         28         29         30
     1  C   -0.007170   0.004715  -0.003438  -0.000567  -0.000121   0.002882
     2  C    0.008361  -0.000143   0.000085  -0.000005   0.000008  -0.000141
     3  C   -0.000041   0.000005  -0.000247   0.000026   0.000005  -0.000012
     4  C   -0.000043   0.000017   0.004353   0.000267  -0.000273   0.000025
     5  C   -0.000107  -0.000138  -0.033723  -0.007662   0.005141  -0.004779
     6  H    0.000012   0.000000   0.000000   0.000000   0.000000   0.000000
     7  H    0.000887  -0.000277  -0.000010   0.000001   0.000000   0.000000
     8  H   -0.001609  -0.000022   0.002109  -0.000028  -0.000177   0.003888
     9  H    0.000000   0.000000   0.000081  -0.000107  -0.000047   0.000060
    10  H    0.000041  -0.000018  -0.003863   0.008201  -0.000025  -0.000951
    11  O   -0.000001   0.000000   0.000071  -0.000005   0.000007  -0.000005
    12  O   -0.000002   0.000015  -0.000001  -0.000001  -0.000001   0.000015
    13  O   -0.036203  -0.030044   0.000025   0.000014   0.000001  -0.000239
    14  O    0.000003   0.000001   0.234420  -0.034808  -0.030614  -0.035943
    15  C    0.000037   0.000010  -0.000125  -0.000019   0.000001   0.000019
    16  H    0.000000   0.000000   0.000003   0.000000   0.000000   0.000000
    17  H   -0.000127  -0.000097  -0.000001   0.000001   0.000000   0.000000
    18  O    0.000000   0.000001   0.000009  -0.000005   0.000000   0.000000
    19  C   -0.000031   0.000000  -0.000133   0.000034  -0.000019  -0.000290
    20  H   -0.000004   0.000000  -0.000010   0.000000  -0.000004  -0.000013
    21  H    0.000011   0.000000   0.000881   0.000017   0.000085   0.000642
    22  H    0.000003   0.000000  -0.000044   0.000004   0.000007  -0.000001
    23  C    0.364340   0.385764  -0.000001  -0.000001   0.000000   0.000016
    24  H   -0.043380  -0.027826  -0.000010   0.000000   0.000000   0.000027
    25  H    0.580966  -0.029902   0.000001   0.000000   0.000000  -0.000002
    26  H   -0.029902   0.507920   0.000000   0.000000   0.000000  -0.000001
    27  C    0.000001   0.000000   4.901571   0.374015   0.385640   0.363973
    28  H    0.000000   0.000000   0.374015   0.558994  -0.028360  -0.042379
    29  H    0.000000   0.000000   0.385640  -0.028360   0.510702  -0.030345
    30  H   -0.000002  -0.000001   0.363973  -0.042379  -0.030345   0.579818
    31  C    0.000000   0.000000   0.000000   0.000002   0.000000   0.000000
    32  H    0.000000   0.000000  -0.000002   0.000003   0.000000   0.000000
    33  H    0.000000   0.000000   0.000000   0.000000   0.000000   0.000000
    34  H    0.000000   0.000000   0.000000   0.000000   0.000000   0.000000
              31         32         33         34
     1  C    0.000015  -0.000004   0.000000  -0.000001
     2  C    0.000000   0.000000   0.000000   0.000000
     3  C    0.000006  -0.000001   0.000000   0.000001
     4  C   -0.003534   0.003117  -0.000084  -0.000956
     5  C   -0.000382   0.000545  -0.000006   0.000013
     6  H    0.000000   0.000000   0.000000   0.000000
     7  H    0.000000   0.000000   0.000000   0.000000
     8  H    0.000000   0.000000   0.000000   0.000000
     9  H    0.003281   0.002401  -0.000131  -0.000058
    10  H    0.000056  -0.000178  -0.000032   0.000050
    11  O    0.000016  -0.000154   0.000001   0.000015
    12  O    0.000000   0.000000   0.000000   0.000000
    13  O   -0.000005   0.000000   0.000000   0.000000
    14  O   -0.000010  -0.000013   0.000000   0.000000
    15  C   -0.044594  -0.003515   0.005359  -0.010194
    16  H   -0.008571  -0.000542  -0.000044   0.010704
    17  H    0.005295  -0.000349  -0.000179   0.000244
    18  O    0.239832  -0.037787  -0.031209  -0.034229
    19  C    0.000000   0.000000   0.000000   0.000000
    20  H    0.000000   0.000000   0.000000   0.000000
    21  H    0.000000   0.000000   0.000000   0.000000
    22  H    0.000000   0.000000   0.000000   0.000000
    23  C    0.000000   0.000000   0.000000   0.000000
    24  H    0.000000   0.000000   0.000000   0.000000
    25  H    0.000000   0.000000   0.000000   0.000000
    26  H    0.000000   0.000000   0.000000   0.000000
    27  C    0.000000  -0.000002   0.000000   0.000000
    28  H    0.000002   0.000003   0.000000   0.000000
    29  H    0.000000   0.000000   0.000000   0.000000
    30  H    0.000000   0.000000   0.000000   0.000000
    31  C    4.914193   0.363027   0.386805   0.370086
    32  H    0.363027   0.593394  -0.031642  -0.044853
    33  H    0.386805  -0.031642   0.514804  -0.028233
    34  H    0.370086  -0.044853  -0.028233   0.573537
 Mulliken charges:
               1
     1  C    0.125974
     2  C    0.029348
     3  C    0.273740
     4  C    0.056543
     5  C    0.059392
     6  H    0.278838
     7  H    0.266139
     8  H    0.187496
     9  H    0.233526
    10  H    0.207589
    11  O   -0.307088
    12  O   -0.468161
    13  O   -0.484984
    14  O   -0.494540
    15  C   -0.043685
    16  H    0.178316
    17  H    0.193576
    18  O   -0.463901
    19  C   -0.240308
    20  H    0.198063
    21  H    0.175071
    22  H    0.166875
    23  C   -0.229045
    24  H    0.168885
    25  H    0.163958
    26  H    0.190022
    27  C   -0.225628
    28  H    0.172368
    29  H    0.188387
    30  H    0.163734
    31  C   -0.225517
    32  H    0.156552
    33  H    0.184591
    34  H    0.163874
 Sum of Mulliken charges =   1.00000
 Mulliken charges with hydrogens summed into heavy atoms:
               1
     1  C    0.313470
     2  C    0.295487
[...]
 0.00025254,0.00008106,-0.00007278,0.00001170,-0.00000937,-0.00000348,-
 0.00001819,0.00015449,0.00001188,-0.00004237,0.00004872,-0.00010896,0.
 00013028,-0.00000594,0.00001049,-0.00001023,0.00000735,-0.00007329,-0.
 00006639,0.00000902,0.00001811,0.00001367,0.00014225,0.00013486,0.0000
 2371,-0.00002314,-0.00000812,-0.00000588,-0.00002412,-0.00001654,0.000
 00945,-0.00001188,-0.00003750,-0.00001145,0.11805306,-0.25529260,-0.02
 798275,-0.00347721,0.00718942,-0.00038925,-0.13152806,0.27306383,-0.00
 093502,-0.00004923,-0.00022264,-0.00016500,0.00004500,0.00009432,-0.00
 008007,-0.00000970,0.00011804,-0.00075545,0.00172721,0.00021887,-0.000
 77914,0.00101701,-0.00534145,0.00001455,0.00000378,0.00000054,0.000014
 04,-0.00000248,0.00003279,0.00018433,0.00013552,0.00002312,0.00002155,
 -0.00002743,0.00000890,-0.00027272,0.00009040,-0.00004379,0.00008660,-
 0.00005394,0.00005518,0.00018111,-0.00010671,-0.00001844,0.00035353,0.
 00049453,0.00016569,-0.02120233,0.03675341,-0.00543398,0.00002432,-0.0
 0032849,-0.00062493,-0.00017990,0.00015327,-0.00002136,0.00001832,-0.0
 0001479,0.00002022,-0.00016299,-0.00003611,0.00008696,-0.00004234,0.00
 012784,-0.00002574,0.00000328,-0.00000980,0.00000170,0.00001682,-0.000
 01636,-0.00000087,-0.00000277,-0.00001392,-0.00001223,-0.00016086,-0.0
 0004550,-0.00007420,0.00002906,0.00001295,0.00002462,0.00002614,0.0000
 1513,0.00000151,0.00002470,0.00004525,0.00001968,0.02305619,-0.0393218
 4,-0.05325920,0.00589988,-0.01352942,0.00027483,-0.01399211,0.02480586
 ,0.06367151,-0.00020440,0.00033175,0.00006431,0.00012616,0.00001131,0.
 00005648,-0.00009596,-0.00019950,0.00021605,-0.00027103,0.00021252,0.0
 0008012,0.00092497,-0.00262486,-0.00003849,0.00001206,0.00002331,0.000
 01105,0.00001442,0.00000372,0.00003777,0.00008725,-0.00018550,0.000122
 34,0.00005994,0.00005886,0.00008289,-0.00048829,0.00009920,0.00006351,
 0.00001516,0.00004952,0.00007944,-0.00004266,0.00005641,-0.00004292,0.
 00009448,0.00019510,-0.00002655,-0.00070663,0.00215056,-0.01009570,0.0
 0006935,-0.00005702,-0.00015550,-0.00003803,0.00003524,-0.00000680,-0.
 00002300,0.00001474,-0.00001240,-0.00003975,0.00000929,0.00002235,0.00
 008973,-0.00010910,0.00023435,0.00001255,0.00004629,-0.00006693,-0.000
 05828,-0.00013712,0.00029366,-0.00001795,0.00002288,0.00002127,-0.0000
 5911,0.00004255,-0.00007992,0.00001395,-0.00000304,0.00002077,0.000007
 26,0.00000202,0.00001686,0.00001378,0.00001160,0.00000803,-0.13558988,
 -0.09878741,-0.06424508,-0.01459904,-0.02077445,-0.01268334,0.01135151
 ,0.01084974,0.00870143,0.13931966,-0.00055651,0.00027128,0.00083373,-0
 .00006307,0.00000132,-0.00011756,0.00009299,0.00006907,0.00010429,0.00
 016315,-0.00008002,-0.00012682,0.00149557,0.00204072,-0.00004301,0.000
 01077,-0.00003210,0.00001466,-0.00000472,-0.00000516,0.00001874,-0.000
 66095,-0.00028474,-0.00018899,-0.00001790,-0.00003839,-0.00004957,0.00
 004683,-0.00003999,0.00013064,-0.00006294,-0.00006598,-0.00012845,0.00
 017562,-0.00012837,0.00006718,0.00005369,0.00061585,-0.00017075,0.0085
 4951,0.01222319,0.00921898,0.00002061,-0.00007424,0.00005697,-0.000003
 25,-0.00000811,-0.00000218,0.00000743,-0.00001180,0.00000947,-0.000064
 14,0.00002431,0.00000484,-0.00004108,0.00004602,-0.00017664,0.00000682
 ,0.00000766,0.00002846,0.00011003,-0.00022455,0.00007721,0.00002444,0.
 00001686,0.00002131,-0.00016704,-0.00009793,-0.00006872,0.00002399,-0.
 00000675,-0.00000468,0.00003237,0.00002871,-0.00000926,0.00002149,0.00
 003742,0.00000474,-0.09918075,-0.17605728,-0.08239723,-0.00151155,-0.0
 0209478,-0.00233449,-0.01716741,-0.01664443,-0.01191188,0.10865070,0.1
 8050791,-0.00108390,0.00025121,-0.00045857,-0.00015734,0.00006493,0.00
 009095,-0.00050458,-0.00051164,0.00027739,-0.00053767,0.00069329,0.000
 28588,0.00214960,-0.00523986,0.00108031,0.00002848,0.00004145,0.000013
 43,0.00004392,-0.00001251,0.00008740,0.00060706,0.00032093,0.00062318,
 0.00025467,0.00007505,0.00021509,-0.00017717,0.00063534,0.00016621,0.0
 0026986,0.00026543,-0.00001261,0.00032945,-0.00019575,0.00018360,0.000
 57670,0.00016064,0.00024517,-0.02236892,-0.01283169,-0.03344410,0.0002
 5141,-0.00015782,-0.00048959,-0.00013063,0.00012618,-0.00002599,-0.000
 05196,0.00004484,-0.00001586,-0.00016656,-0.00004779,0.00006693,-0.000
 15727,0.00010547,-0.00052278,-0.00000513,0.00001786,0.00013097,0.00042
 079,0.00004608,-0.00025979,-0.00000961,0.00002995,0.00012751,-0.000073
 75,0.00010521,-0.00010655,0.00000178,0.00000782,0.00002679,0.00001548,
 0.00001098,0.00000694,0.00002293,0.00002798,0.00001796,-0.06397519,-0.
 07797033,-0.10327411,0.00842410,0.00991610,0.01027849,-0.00139996,-0.0
 0316548,0.00025738,0.07731274,0.08713725,0.12442737,-0.00000742,-0.000
 48913,-0.00023970,-0.00067208,0.00035677,0.00014055,-0.00124836,-0.000
 77949,-0.00098328,-0.00279931,0.00068465,0.00040804,-0.00075198,0.0004
 8956,-0.00078151,0.00012681,0.00053050,-0.00013282,0.00010036,-0.00012
 856,0.00016230,0.00012768,0.00008996,0.00011223,-0.00041568,0.00035690
 ,-0.00008343,-0.00066378,-0.00002714,-0.00077517,0.00415183,-0.0012841
 6,0.00008215,0.00075414,-0.00023591,0.00014975,0.00056753,0.00074690,0
 .00039234,0.00095685,-0.00102490,0.00102175,-0.03926624,-0.01569459,0.
 00601319,0.00522144,-0.00058402,-0.00425504,0.00062816,0.00149049,-0.0
 0086419,-0.15758322,-0.06268160,0.00006982,-0.00016045,0.00033568,-0.0
 0015441,0.00006056,-0.00002497,0.00000088,-0.00003457,-0.00004678,0.00
 001945,-0.00002808,-0.00000720,0.00003004,-0.00033183,-0.00060338,-0.0
 0020801,0.00011556,0.00005532,0.00008251,0.00009010,0.00007242,0.00000
 334,-0.00000591,0.00006601,0.00001795,-0.00004156,0.00027706,-0.000837
 20,-0.00005376,0.00002165,0.00011148,0.00005855,-0.00009260,0.00011223
 ,0.00003542,0.00002669,0.00013027,0.50617393,-0.00038005,-0.00017978,-
 0.00014539,-0.00036184,0.00004040,-0.00000702,-0.00113767,-0.00074646,
 -0.00057189,0.00075042,0.00466530,-0.00226043,-0.00031554,0.00006596,0
 .00001498,0.00011489,0.00039235,-0.00012505,-0.00005621,-0.00007223,0.
 00004955,0.00004867,0.00000333,0.00005215,0.00124999,-0.00048364,-0.00
 063220,-0.00028218,0.00009952,-0.00055451,0.00429377,-0.00180841,-0.00
 070550,0.00041183,-0.00013233,0.00006615,0.00048062,0.00041391,0.00028
 500,0.00057217,-0.00075918,0.00059078,-0.00460241,-0.00436943,0.008237
 78,0.00088507,-0.00014071,-0.00310987,0.00021952,0.00109937,0.00054813
 ,-0.07574351,-0.11704307,-0.01949629,-0.00008801,0.00020571,-0.0000903
 7,0.00003132,-0.00001604,0.00000156,-0.00001596,-0.00002342,0.00001278
 ,-0.00001413,-0.00000887,0.00001096,-0.00017329,-0.00038839,-0.0001175
 0,0.00007726,0.00004519,0.00005212,0.00006206,0.00005202,-0.00000738,-
 0.00000622,0.00003005,0.00000368,0.00004507,0.00014150,-0.00048550,-0.
 00003649,0.00002528,0.00010254,0.00003743,-0.00005625,0.00007567,-0.00
 001255,-0.00000088,0.00006477,-0.06318346,0.53673870,0.00001385,-0.000
 03060,-0.00007456,-0.00021307,0.00006716,0.00001052,-0.00057342,-0.000
 20230,-0.00013162,-0.00049157,0.00118373,-0.00005428,-0.00009532,0.000
 14958,-0.00053156,0.00004684,0.00007355,-0.00000762,-0.00005010,-0.000
 04797,0.00002157,0.00002130,0.00003096,0.00002294,0.00009226,-0.000057
 64,0.00013166,-0.00003763,-0.00014991,0.00014418,0.00104417,-0.0002180
 9,-0.00009365,0.00015760,-0.00006489,0.00003665,0.00011487,0.00005694,
 0.00026835,0.00009551,-0.00019102,0.00031851,0.02934392,0.02044331,-0.
 00373856,0.00404737,0.00159922,0.00167461,0.00493312,-0.00016344,-0.00
 423359,-0.03497476,-0.03806436,-0.08679483,-0.00002989,0.00008000,-0.0
 0002894,0.00001330,-0.00000891,0.00000216,-0.00000562,-0.00001005,0.00
 000347,-0.00000674,-0.00000462,0.00000340,-0.00007923,-0.00013689,0.00
 000701,0.00003011,0.00002933,0.00001722,0.00000884,0.00000571,-0.00000
 596,0.00000017,0.00001605,0.00000572,0.00001576,0.00002821,-0.00011876
 ,-0.00000513,-0.00000209,0.00002058,0.00001142,-0.00001769,0.00002255,
 0.00000429,0.00000263,0.00002459,-0.03808229,-0.00197586,0.61307830,-0
 .00000970,-0.00004935,0.00005428,0.00005213,-0.00003126,-0.00002191,-0
 .00011747,-0.00011163,-0.00004432,-0.00122661,0.00041725,0.00003715,0.
 00019443,0.00002617,0.00011982,0.00005536,-0.00002067,0.00000992,-0.00
 002275,0.00001158,-0.00002238,-0.00000221,0.00000480,-0.00001718,-0.00
 175119,0.00024506,0.00052410,0.00004781,-0.00001911,0.00000324,0.00092
 490,0.00027310,-0.00053871,-0.00003990,0.00001876,-0.00001744,-0.00004
 927,-0.00003223,-0.00002882,-0.00002480,0.00003027,-0.00004134,0.00431
 538,-0.00199411,-0.00208249,-0.00044777,0.00013134,0.00035507,-0.00040
 695,0.00020947,0.00062954,-0.00077074,-0.03824371,-0.00289097,0.000006
 75,-0.00001843,0.00000946,-0.00000355,0.00000177,-0.00000080,0.0000010
 2,0.00000269,-0.00000202,0.00000326,-0.00000055,-0.00000104,0.00001655
 ,0.00004368,0.00001334,-0.00000870,-0.00000403,-0.00000670,-0.00000553
 ,-0.00000516,-0.00000140,0.00000176,-0.00000203,-0.00000129,-0.0000017
 3,-0.00000069,0.00000908,0.00000009,-0.00000175,0.00000105,-0.00000171
 ,0.00000175,-0.00000327,-0.00000360,-0.00000301,-0.00000145,-0.0747249
 6,0.07335249,0.00469917,0.07942385,0.00014052,-0.00006675,0.00008403,0
 .00003699,-0.00000272,0.00000454,0.00012895,0.00002857,0.00013644,0.00
 037531,-0.00071837,0.00041270,0.00001787,0.00007209,-0.00014553,-0.000
 00651,-0.00012145,0.00005687,0.00001190,0.00001946,-0.00001435,0.00000
 112,0.00003019,-0.00001004,-0.00010066,0.00040282,0.00003067,0.0000854
 1,-0.00001762,0.00012722,-0.00084963,0.00066389,0.00003219,-0.00006338
 ,0.00003158,-0.00001430,-0.00013498,-0.00004391,-0.00007297,-0.0000884
 0,0.00013446,-0.00007434,0.00318868,-0.00006444,-0.00347481,-0.0001404
 2,0.00009302,0.00068641,-0.00058083,0.00008297,0.00049032,-0.01300738,
 -0.02180924,-0.00252983,0.00001265,-0.00003992,0.00001673,-0.00000462,
 0.00000387,-0.00000109,0.00000128,0.00000332,-0.00000311,0.00000320,0.
 00000341,0.00000056,0.00003036,0.00008022,0.00002060,-0.00001875,-0.00
 000937,-0.00001516,-0.00001270,-0.00001233,0.00000223,0.00000411,0.000
 00188,0.00000221,-0.00002108,-0.00002183,0.00006798,0.00000887,-0.0000
 0426,-0.00002343,-0.00000317,0.00000697,-0.00001100,0.00000974,0.00000
 394,-0.00000573,0.07036524,-0.28211886,-0.00749502,-0.06672688,0.31379
 499,0.00000802,0.00000726,-0.00000843,0.00006445,-0.00002654,-0.000014
 31,0.00015462,0.00010900,0.00009736,0.00013740,-0.00034839,0.00035299,
 0.00002332,0.00000615,0.00015678,-0.00000489,-0.00005346,0.00001594,-0
 .00000699,0.00001215,-0.00001344,-0.00000895,-0.00000649,-0.00001051,0
 .00067771,-0.00001683,-0.00059822,-0.00002023,-0.00004142,-0.00005181,
 -0.00038508,0.00009386,-0.00005905,-0.00005494,0.00001641,-0.00002624,
 -0.00005160,-0.00004354,-0.00004801,-0.00003338,0.00009043,-0.00012974
 ,-0.00001003,0.00087499,-0.00040171,-0.00021390,0.00029150,-0.00010773
 ,-0.00013094,-0.00003233,-0.00000953,-0.00015599,-0.00750133,0.0024998
 0,0.00001363,-0.00002780,0.00001759,-0.00000431,0.00000253,-0.00000103
 ,0.00000078,0.00000276,-0.00000358,0.00000220,0.00000044,-0.00000086,0
 .00001782,0.00004419,0.00001456,-0.00001023,-0.00000608,-0.00000762,-0
 .00000501,-0.00000491,-0.00000211,0.00000137,-0.00000364,-0.00000054,-
 0.00004261,-0.00002785,0.00008854,0.00000833,0.00000321,-0.00002970,0.
 00000148,0.00000660,-0.00001325,0.00000747,0.00000285,-0.00001391,0.00
 253749,-0.00720203,-0.05503690,-0.00150628,0.01196928,0.04982540,0.000
 00702,0.00005647,0.00001943,0.00014996,-0.00004177,-0.00001195,0.00027
 997,0.00016938,0.00012282,0.00034582,-0.00073639,0.00030842,0.00007958
 ,-0.00012039,0.00023567,-0.00001026,-0.00008914,0.00002057,0.00000262,
 0.00002648,-0.00002433,-0.00002604,-0.00002259,-0.00002187,0.00011629,
 0.00000847,-0.00001206,0.00002806,0.00000905,0.00004247,-0.00061317,0.
 00028434,0.00000864,-0.00013300,0.00004181,-0.00003943,-0.00011283,-0.
 00012203,-0.00014002,-0.00011945,0.00016124,-0.00020846,-0.00248630,-0
 .00315329,-0.00244098,-0.00000643,0.00000168,0.00015500,-0.00108789,0.
 00018926,0.00098681,-0.02680078,-0.00200861,0.02324957,0.00002789,-0.0
 0006188,0.00003265,-0.00001059,0.00000520,-0.00000110,0.00000478,0.000
 00812,-0.00000533,0.00000482,0.00000097,-0.00000478,0.00005398,0.00011
 641,0.00003379,-0.00002705,-0.00001569,-0.00001721,-0.00001222,-0.0000
 1285,-0.00000318,-0.00000027,-0.00001647,-0.00000064,-0.00001246,-0.00
 004918,0.00015540,0.00001389,0.00000359,-0.00002360,-0.00000498,0.0000
 1410,-0.00002218,-0.00000591,-0.00000302,-0.00002237,-0.13926463,0.027
 88232,0.12135369,-0.00350461,0.00273675,0.00715717,0.16136062,0.000063
 43,-0.00001603,0.00006106,0.00003518,-0.00000989,0.00000190,0.00012949
 ,0.00004360,0.00002681,-0.00007301,-0.00066156,0.00027812,0.00005687,0
 .00008644,-0.00001477,-0.00000429,-0.00003980,0.00001574,0.00001380,0.
 00001257,-0.00000380,0.00000314,0.00001160,-0.00000520,-0.00040277,0.0
 0027204,0.00006342,0.00001573,0.00000179,0.00000701,-0.00036354,0.0002
 9109,0.00004760,-0.00003108,0.00001286,-0.00000689,-0.00005411,-0.0000
 3822,-0.00006624,-0.00004461,0.00004190,-0.00005477,-0.00354302,-0.001
 87443,-0.00054657,0.00011608,-0.00011706,-0.00006222,-0.00084387,0.000
 08013,0.00062795,-0.01913887,0.00133321,0.01865800,0.00000488,-0.00001
 609,0.00000589,-0.00000252,0.00000192,-0.00000049,0.00000097,0.0000024
 3,-0.00000070,0.00000137,0.00000094,-0.00000066,0.00001244,0.00004803,
 0.00000552,-0.00000984,-0.00000847,-0.00000621,-0.00000439,-0.00000555
 ,0.00000016,-0.00000047,-0.00000528,-0.00000053,0.00000247,0.00000271,
 0.00001129,-0.00000013,-0.00000109,-0.00000099,-0.00000325,0.00000304,
 -0.00000432,-0.00000219,-0.00000102,-0.00000191,0.03415184,-0.05979368
 ,-0.04242569,0.01840748,-0.00314685,-0.02541808,-0.02259119,0.06099690
 ,-0.00002252,-0.00001360,-0.00000691,-0.00002123,0.00002471,0.00000390
 ,-0.00008747,-0.00001050,-0.00001361,0.00002051,-0.00014725,0.00019790
 ,-0.00002903,-0.00004876,-0.00004157,0.00000865,-0.00000745,0.00000476
 ,0.00000598,-0.00000601,0.00000439,0.00000704,0.00000185,0.00000059,0.
 00004207,0.00003283,-0.00002026,-0.00003219,0.00000840,-0.00002951,0.0
 0007729,0.00008078,0.00000791,0.00002799,-0.00000858,0.00000243,0.0000
 4921,0.00005064,0.00002901,0.00005888,-0.00004487,0.00006587,-0.002149
 08,-0.00030948,0.00147526,-0.00011661,-0.00005197,0.00049714,0.0000400
 1,-0.00003584,0.00029611,-0.00396698,0.00195606,0.00699656,-0.00000583
 ,0.00001002,-0.00000464,0.00000228,-0.00000093,-0.00000070,-0.00000197
 ,-0.00000186,0.00000042,-0.00000013,-0.00000023,0.00000180,-0.00001335
 ,-0.00003834,-0.00000859,0.00000751,0.00000480,0.00000479,0.00000502,0
 .00000518,0.00000038,-0.00000010,0.00000455,0.00000047,-0.00000092,0.0
 0000891,-0.00004321,-0.00000279,0.00000099,0.00000327,0.00000288,-0.00
 000473,0.00000661,0.00000364,0.00000249,0.00000733,0.13091073,-0.03637
 973,-0.22937351,-0.00103094,0.00020837,0.00105709,-0.13942739,0.040336
 68,0.23759487,0.00001854,0.00007702,0.00000515,0.00010679,-0.00001313,
 -0.00001575,0.00006212,0.00012610,0.00014489,0.00021170,-0.00008617,0.
 00051589,0.00017053,-0.00022976,-0.00001169,-0.00000452,-0.00010458,0.
 00002751,-0.00001460,0.00001451,-0.00002981,-0.00002186,-0.00001805,-0
 .00002051,0.00004492,-0.00001506,-0.00003109,0.00010680,-0.00003467,0.
 00019701,-0.00051030,0.00035543,-0.00000464,-0.00012010,0.00003096,-0.
 00002068,-0.00010423,-0.00014228,-0.00003486,-0.00013689,0.00013253,-0
 .00005166,0.00368494,0.00036884,-0.00700921,0.00001948,0.00040867,0.00
 151335,0.00011917,-0.00000720,0.00012247,-0.02907663,-0.00551648,-0.02
 294988,0.00002517,-0.00005066,0.00002564,-0.00000966,0.00000296,-0.000
 00046,0.00000550,0.00000695,-0.00000300,0.00000445,-0.00000057,-0.0000
 0567,0.00004935,0.00010403,0.00004157,-0.00001754,-0.00000907,-0.00001
 130,-0.00001961,-0.00001384,0.00000045,0.00000121,-0.00001116,-0.00000
 478,0.00002462,-0.00004800,0.00012212,0.00000804,-0.00000546,-0.000014
 66,-0.00000796,0.00001258,-0.00001192,-0.00000415,-0.00000537,-0.00001
 575,-0.10111510,0.03589463,-0.09140279,-0.00191953,0.00460047,-0.00816
 790,0.01176359,-0.00590201,0.01563884,0.11665578,0.00006064,0.00000274
 ,0.00001275,0.00003256,-0.00000067,-0.00000042,0.00011088,0.00007157,0
 .00004772,0.00022896,-0.00071344,0.00020861,0.00000469,-0.00002822,-0.
 00008197,-0.00000283,-0.00004840,0.00002116,0.00000439,0.00000697,-0.0
 0000595,-0.00000736,0.00000091,-0.00000703,-0.00006715,0.00010572,0.00
 011779,0.00005088,-0.00003558,0.00013756,-0.00038448,0.00026227,0.0000
 5575,-0.00004367,0.00001291,-0.00000775,-0.00008817,-0.00007111,-0.000
 03582,-0.00007799,0.00010521,-0.00003528,0.00212393,0.00055062,-0.0031
 3091,0.00076482,0.00033301,0.00058796,0.00015410,-0.00005895,-0.000244
 55,-0.02112786,0.00345466,-0.02043275,0.00000970,-0.00002054,0.0000123
 6,-0.00000314,0.00000174,-0.00000003,0.00000163,0.00000194,-0.00000223
 ,0.00000061,0.00000060,-0.00000144,0.00001594,0.00006182,0.00002163,-0
 .00001218,-0.00000779,-0.00000780,-0.00001082,-0.00000986,-0.00000092,
 0.00000124,-0.00000490,-0.00000095,-0.00001396,-0.00002452,0.00007712,
 0.00000685,-0.00000315,-0.00002153,-0.00000174,0.00000567,-0.00000990,
 0.00000568,0.00000225,-0.00000826,0.03677023,-0.07587696,0.06750067,0.
 01408697,-0.00725971,0.02722712,-0.00267117,0.00249181,-0.00562713,-0.
 02992218,0.07669136,0.00001960,0.00008712,0.00001326,0.00008478,-0.000
 03852,-0.00001143,0.00019499,0.00008986,0.00007522,-0.00000380,-0.0001
 2372,-0.00036692,0.00017922,-0.00006467,0.00010833,-0.00001959,-0.0000
 3206,0.00000229,-0.00000181,0.00001412,-0.00001430,-0.00001528,-0.0000
 1746,-0.00000772,-0.00000883,-0.00000850,0.00000680,0.00008331,-0.0000
 2225,0.00009340,-0.00037801,0.00004108,-0.00000750,-0.00008918,0.00002
 509,-0.00000576,-0.00006133,-0.00008610,-0.00003584,-0.00013250,0.0001
 3407,-0.00013551,0.00319027,-0.00030081,0.00208120,-0.00162620,0.00004
 867,0.00081766,-0.00010484,0.00001346,0.00053559,-0.00804545,-0.005105
 79,-0.00113515,0.00001829,-0.00003536,0.00001346,-0.00000755,0.0000027
 0,0.00000058,0.00000533,0.00000553,-0.00000050,0.00000254,0.00000034,-
 0.00000467,0.00004655,0.00007955,0.00002569,-0.00001124,-0.00000834,-0
 .00000680,-0.00001410,-0.00000921,0.00000200,0.00000023,-0.00000937,-0
 .00000557,0.00001648,-0.00002812,0.00009204,0.00000329,-0.00000517,-0.
 00000760,-0.00000997,0.00001345,-0.00001293,-0.00000718,-0.00000625,-0
 .00001702,-0.09511144,0.06369794,-0.23558963,0.00179551,-0.00045861,0.
 00246219,-0.01145522,0.00847289,-0.01871633,0.11146313,-0.06636555,0.2
 4975149\\-0.00000431,0.00000519,-0.00000158,-0.00001302,-0.00001004,-0
 .00000185,0.00000776,-0.00001570,0.00000911,-0.00001099,-0.00000371,0.
 00000597,0.00000224,0.00001935,0.00000417,0.00000270,-0.00001103,0.000
 00339,-0.00000126,-0.00000322,-0.00001101,0.00000120,0.00000802,-0.000
 00374,0.00000274,-0.00000698,0.00000746,-0.00000206,0.00000148,0.00000
 008,0.00000211,-0.00001086,-0.00000561,0.00000341,-0.00000227,0.000003
 20,-0.00000159,0.00000233,-0.00001154,0.00000809,-0.00000631,0.0000118
 2,0.00002055,-0.00000808,-0.00002451,-0.00000224,-0.00001443,0.0000016
 0,-0.00000471,-0.00000558,-0.00000775,-0.00000882,-0.00000626,0.000012
 67,0.00000396,0.00000042,-0.00000325,0.00000317,0.00000059,0.00000810,
 -0.00000123,0.00000893,0.00000721,0.00000273,0.00000011,0.00001544,-0.
 00000420,0.00000693,-0.00001610,-0.00000544,0.00001258,-0.00001363,-0.
 00000292,0.00000424,-0.00001508,-0.00000523,0.00000655,-0.00002141,0.0
 0000028,0.00001495,0.00000599,0.00000212,0.00001366,0.00001549,0.00000
 196,0.00001129,0.00001812,0.00000232,0.00001471,0.00001103,-0.00000101
 ,-0.00000523,-0.00000437,0.00000270,-0.00000632,0.00000592,-0.00000109
 ,-0.00000169,-0.00000271,0.00000007,-0.00001361,-0.00000262\\\@


 EVERYTHING'S GOT A MORAL, IF ONLY YOU CAN FIND IT.

                                    -- LEWIS CARROL, ALICE IN WONDERLAND
 Job cpu time:       0 days  3 hours 18 minutes 45.2 seconds.
 Elapsed time:       0 days  0 hours 49 minutes 45.4 seconds.
 File lengths (MBytes):  RWF=    374 Int=      0 D2E=      0 Chk=     16 Scr=      1
 Normal termination of Gaussian 16 at Fri May 24 09:29:06 2019.
