 Entering Gaussian System, Link 0=g16
 Input=clay-glucose_cation-031-b3lyp_d3bj-631gd-pcm_thf.gjf
 Output=clay-glucose_cation-031-b3lyp_d3bj-631gd-pcm_thf.out
 Initial command:
 /n/sw/g16_nehalem/g16/l1.exe "/scratch/Gau-28103.inp" -scrdir="/scratch/"
 Entering Link 1 = /n/sw/g16_nehalem/g16/l1.exe PID=     28106.
  
 Copyright (c) 1988,1990,1992,1993,1995,1998,2003,2009,2016,
            Gaussian, Inc.  All Rights Reserved.
  
 This is part of the Gaussian(R) 16 program.  It is based on
 the Gaussian(R) 09 system (copyright 2009, Gaussian, Inc.),
 the Gaussian(R) 03 system (copyright 2003, Gaussian, Inc.),
 the Gaussian(R) 98 system (copyright 1998, Gaussian, Inc.),
 the Gaussian(R) 94 system (copyright 1995, Gaussian, Inc.),
 the Gaussian 92(TM) system (copyright 1992, Gaussian, Inc.),
 the Gaussian 90(TM) system (copyright 1990, Gaussian, Inc.),
 the Gaussian 88(TM) system (copyright 1988, Gaussian, Inc.),
 the Gaussian 86(TM) system (copyright 1986, Carnegie Mellon
 University), and the Gaussian 82(TM) system (copyright 1983,
 Carnegie Mellon University). Gaussian is a federally registered
 trademark of Gaussian, Inc.
  
 This software contains proprietary and confidential information,
 including trade secrets, belonging to Gaussian, Inc.
  
 This software is provided under written license and may be
 used, copied, transmitted, or stored only in accord with that
 written license.
  
 The following legend is applicable only to US Government
 contracts under FAR:
  
                    RESTRICTED RIGHTS LEGEND
  
 Use, reproduction and disclosure by the US Government is
 subject to restrictions as set forth in subparagraphs (a)
 and (c) of the Commercial Computer Software - Restricted
 Rights clause in FAR 52.227-19.
  
 Gaussian, Inc.
 340 Quinnipiac St., Bldg. 40, Wallingford CT 06492
  
  
 ---------------------------------------------------------------
 Warning -- This program may not be used in any manner that
 competes with the business of Gaussian, Inc. or will provide
 assistance to any competitor of Gaussian, Inc.  The licensee
 of this program is prohibited from giving any competitor of
 Gaussian, Inc. access to this program.  By using this program,
 the user acknowledges that Gaussian, Inc. is engaged in the
 business of creating and licensing software in the field of
 computational chemistry and represents and warrants to the
 licensee that it is not a competitor of Gaussian, Inc. and that
 it will not use this program in any manner prohibited above.
 ---------------------------------------------------------------
  

 Cite this work as:
 Gaussian 16, Revision A.03,
 M. J. Frisch, G. W. Trucks, H. B. Schlegel, G. E. Scuseria, 
 M. A. Robb, J. R. Cheeseman, G. Scalmani, V. Barone, 
 G. A. Petersson, H. Nakatsuji, X. Li, M. Caricato, A. V. Marenich, 
 J. Bloino, B. G. Janesko, R. Gomperts, B. Mennucci, H. P. Hratchian, 
 J. V. Ortiz, A. F. Izmaylov, J. L. Sonnenberg, D. Williams-Young, 
 F. Ding, F. Lipparini, F. Egidi, J. Goings, B. Peng, A. Petrone, 
 T. Henderson, D. Ranasinghe, V. G. Zakrzewski, J. Gao, N. Rega, 
 G. Zheng, W. Liang, M. Hada, M. Ehara, K. Toyota, R. Fukuda, 
 J. Hasegawa, M. Ishida, T. Nakajima, Y. Honda, O. Kitao, H. Nakai, 
 T. Vreven, K. Throssell, J. A. Montgomery, Jr., J. E. Peralta, 
 F. Ogliaro, M. J. Bearpark, J. J. Heyd, E. N. Brothers, K. N. Kudin, 
 V. N. Staroverov, T. A. Keith, R. Kobayashi, J. Normand, 
 K. Raghavachari, A. P. Rendell, J. C. Burant, S. S. Iyengar, 
 J. Tomasi, M. Cossi, J. M. Millam, M. Klene, C. Adamo, R. Cammi, 
 J. W. Ochterski, R. L. Martin, K. Morokuma, O. Farkas, 
 J. B. Foresman, and D. J. Fox, Gaussian, Inc., Wallingford CT, 2016.
 
 ******************************************
 Gaussian 16:  ES64L-G16RevA.03 25-Dec-2016
                24-May-2019 
 ******************************************
 %nprocshared=4
 Will use up to    4 processors via shared memory.
 %mem=3GB
 -------------------------------------------------------------------
 #p b3lyp 6-31g* opt freq=noraman scrf=(pcm,solvent=tetrahydrofuran)
 -------------------------------------------------------------------
 1/18=20,19=15,26=3,38=1/1,3;
 2/9=110,12=2,17=6,18=5,40=1/2;
 3/5=1,6=6,7=1,11=2,25=1,30=1,70=2201,71=1,72=20,74=-5/1,2,3;
 4//1;
 5/5=2,38=5,53=20/2;
 6/7=2,8=2,9=2,10=2,28=1/1;
 7//1,2,3,16;
 1/18=20,19=15,26=3/3(2);
 2/9=110/2;
 99//99;
 2/9=110/2;
 3/5=1,6=6,7=1,11=2,25=1,30=1,70=2205,71=1,72=20,74=-5/1,2,3;
 4/5=5,16=3,69=1/1;
 5/5=2,38=5,53=20/2;
 7//1,2,3,16;
 1/18=20,19=15,26=3/3(-5);
 2/9=110/2;
 6/7=2,8=2,9=2,10=2,19=2,28=1/1;
 99/9=1/99;
 Leave Link    1 at Fri May 24 08:30:14 2019, MaxMem=   402653184 cpu:               0.4 elap:               0.1
 (Enter /n/sw/g16_nehalem/g16/l101.exe)
 -----
 title
 -----
 Symbolic Z-matrix:
 Charge =  1 Multiplicity = 1
 6                     0.73246   0.89151   0.43978 
 6                     1.66368   0.31309  -0.64383 
 6                     1.07578  -0.79494  -1.45954 
 6                    -1.04701  -0.82209  -0.27128 
 6                    -0.41242  -0.06329   0.8956 
 1                     1.67815  -1.27257  -2.2318 
 1                     1.959     1.13699  -1.30482 
 1                     1.35011   1.12529   1.31614 
 1                    -1.5101   -1.74446   0.07791 
 1                    -1.21847   0.57738   1.26466 
 8                    -0.03322  -1.35174  -1.25448 
 8                     2.78522  -0.36575  -0.09554 
 8                     0.18529   2.06368  -0.14358 
 8                    -0.0995   -0.87691   2.00729 
 6                    -2.04796   0.00264  -1.11648 
 1                    -2.35939  -0.58945  -1.98699 
 1                    -1.56243   0.9202   -1.4583 
 8                    -3.13829   0.38015  -0.31394 
 6                     4.05868  -0.00582  -0.66351 
 1                     4.23627   1.06751  -0.53539 
 1                     4.80113  -0.58084  -0.11018 
 1                     4.11083  -0.26596  -1.72651 
 6                    -0.21861   3.0665    0.79183 
 1                     0.62574   3.36672   1.42509 
 1                    -0.55269   3.9181    0.19731 
 1                    -1.04618   2.73015   1.42817 
 6                     0.78011  -1.9883    1.82708 
 1                     0.85071  -2.46775   2.80497 
 1                     0.37549  -2.72162   1.11559 
 1                     1.77972  -1.67864   1.50542 
 6                    -4.19579  -0.57874  -0.25041 
 1                    -4.98061  -0.12879   0.35995 
 1                    -4.58917  -0.79179  -1.25266 
 1                    -3.87762  -1.51925   0.21807 
 
 ITRead=  0  0  0  0  0  0  0  0  0  0  0  0  0  0  0  0  0  0  0  0
 ITRead=  0  0  0  0  0  0  0  0  0  0  0  0  0  0
 MicOpt= -1 -1 -1 -1 -1 -1 -1 -1 -1 -1 -1 -1 -1 -1 -1 -1 -1 -1 -1 -1
 MicOpt= -1 -1 -1 -1 -1 -1 -1 -1 -1 -1 -1 -1 -1 -1
 NAtoms=     34 NQM=       34 NQMF=       0 NMMI=      0 NMMIF=      0
                NMic=       0 NMicF=      0.
                    Isotopes and Nuclear Properties:
 (Nuclear quadrupole moments (NQMom) in fm**2, nuclear magnetic moments (NMagM)
  in nuclear magnetons)

  Atom         1           2           3           4           5           6           7           8           9          10
 IAtWgt=          12          12          12          12          12           1           1           1           1           1
 AtmWgt=  12.0000000  12.0000000  12.0000000  12.0000000  12.0000000   1.0078250   1.0078250   1.0078250   1.0078250   1.0078250
 NucSpn=           0           0           0           0           0           1           1           1           1           1
 AtZEff=   0.0000000   0.0000000   0.0000000   0.0000000   0.0000000   0.0000000   0.0000000   0.0000000   0.0000000   0.0000000
 NQMom=    0.0000000   0.0000000   0.0000000   0.0000000   0.0000000   0.0000000   0.0000000   0.0000000   0.0000000   0.0000000
 NMagM=    0.0000000   0.0000000   0.0000000   0.0000000   0.0000000   2.7928460   2.7928460   2.7928460   2.7928460   2.7928460
 AtZNuc=   6.0000000   6.0000000   6.0000000   6.0000000   6.0000000   1.0000000   1.0000000   1.0000000   1.0000000   1.0000000

  Atom        11          12          13          14          15          16          17          18          19          20
 IAtWgt=          16          16          16          16          12           1           1          16          12           1
 AtmWgt=  15.9949146  15.9949146  15.9949146  15.9949146  12.0000000   1.0078250   1.0078250  15.9949146  12.0000000   1.0078250
 NucSpn=           0           0           0           0           0           1           1           0           0           1
 AtZEff=   0.0000000   0.0000000   0.0000000   0.0000000   0.0000000   0.0000000   0.0000000   0.0000000   0.0000000   0.0000000
 NQMom=    0.0000000   0.0000000   0.0000000   0.0000000   0.0000000   0.0000000   0.0000000   0.0000000   0.0000000   0.0000000
 NMagM=    0.0000000   0.0000000   0.0000000   0.0000000   0.0000000   2.7928460   2.7928460   0.0000000   0.0000000   2.7928460
 AtZNuc=   8.0000000   8.0000000   8.0000000   8.0000000   6.0000000   1.0000000   1.0000000   8.0000000   6.0000000   1.0000000

  Atom        21          22          23          24          25          26          27          28          29          30
 IAtWgt=           1           1          12           1           1           1          12           1           1           1
 AtmWgt=   1.0078250   1.0078250  12.0000000   1.0078250   1.0078250   1.0078250  12.0000000   1.0078250   1.0078250   1.0078250
 NucSpn=           1           1           0           1           1           1           0           1           1           1
 AtZEff=   0.0000000   0.0000000   0.0000000   0.0000000   0.0000000   0.0000000   0.0000000   0.0000000   0.0000000   0.0000000
 NQMom=    0.0000000   0.0000000   0.0000000   0.0000000   0.0000000   0.0000000   0.0000000   0.0000000   0.0000000   0.0000000
 NMagM=    2.7928460   2.7928460   0.0000000   2.7928460   2.7928460   2.7928460   0.0000000   2.7928460   2.7928460   2.7928460
 AtZNuc=   1.0000000   1.0000000   6.0000000   1.0000000   1.0000000   1.0000000   6.0000000   1.0000000   1.0000000   1.0000000

  Atom        31          32          33          34
 IAtWgt=          12           1           1           1
 AtmWgt=  12.0000000   1.0078250   1.0078250   1.0078250
 NucSpn=           0           1           1           1
 AtZEff=   0.0000000   0.0000000   0.0000000   0.0000000
 NQMom=    0.0000000   0.0000000   0.0000000   0.0000000
 NMagM=    0.0000000   2.7928460   2.7928460   2.7928460
 AtZNuc=   6.0000000   1.0000000   1.0000000   1.0000000
 Leave Link  101 at Fri May 24 08:30:14 2019, MaxMem=   402653184 cpu:               0.8 elap:               0.3
 (Enter /n/sw/g16_nehalem/g16/l103.exe)

 GradGradGradGradGradGradGradGradGradGradGradGradGradGradGradGradGradGrad
 Berny optimization.
 Initialization pass.
                           ----------------------------
                           !    Initial Parameters    !
                           ! (Angstroms and Degrees)  !
 --------------------------                            --------------------------
 ! Name  Definition              Value          Derivative Info.                !
 --------------------------------------------------------------------------------
 ! R1    R(1,2)                  1.5414         estimate D2E/DX2                !
 ! R2    R(1,5)                  1.5589         estimate D2E/DX2                !
 ! R3    R(1,8)                  1.0973         estimate D2E/DX2                !
 ! R4    R(1,13)                 1.419          estimate D2E/DX2                !
 ! R5    R(2,3)                  1.4962         estimate D2E/DX2                !
 ! R6    R(2,7)                  1.0968         estimate D2E/DX2                !
 ! R7    R(2,12)                 1.421          estimate D2E/DX2                !
 ! R8    R(3,6)                  1.0897         estimate D2E/DX2                !
 ! R9    R(3,11)                 1.2577         estimate D2E/DX2                !
 ! R10   R(4,5)                  1.5297         estimate D2E/DX2                !
 ! R11   R(4,9)                  1.0896         estimate D2E/DX2                !
 ! R12   R(4,11)                 1.5083         estimate D2E/DX2                !
 ! R13   R(4,15)                 1.548          estimate D2E/DX2                !
 ! R14   R(5,10)                 1.0938         estimate D2E/DX2                !
 ! R15   R(5,14)                 1.4127         estimate D2E/DX2                !
 ! R16   R(12,19)                1.4401         estimate D2E/DX2                !
 ! R17   R(13,23)                1.4296         estimate D2E/DX2                !
 ! R18   R(14,27)                1.4288         estimate D2E/DX2                !
 ! R19   R(15,16)                1.0979         estimate D2E/DX2                !
 ! R20   R(15,17)                1.0929         estimate D2E/DX2                !
 ! R21   R(15,18)                1.4055         estimate D2E/DX2                !
 ! R22   R(18,31)                1.4289         estimate D2E/DX2                !
 ! R23   R(19,20)                1.0954         estimate D2E/DX2                !
 ! R24   R(19,21)                1.09           estimate D2E/DX2                !
 ! R25   R(19,22)                1.0956         estimate D2E/DX2                !
 ! R26   R(23,24)                1.0973         estimate D2E/DX2                !
 ! R27   R(23,25)                1.091          estimate D2E/DX2                !
 ! R28   R(23,26)                1.0968         estimate D2E/DX2                !
 ! R29   R(27,28)                1.0914         estimate D2E/DX2                !
 ! R30   R(27,29)                1.099          estimate D2E/DX2                !
 ! R31   R(27,30)                1.0948         estimate D2E/DX2                !
 ! R32   R(31,32)                1.0913         estimate D2E/DX2                !
 ! R33   R(31,33)                1.0976         estimate D2E/DX2                !
 ! R34   R(31,34)                1.0978         estimate D2E/DX2                !
 ! A1    A(2,1,5)              114.7968         estimate D2E/DX2                !
 ! A2    A(2,1,8)              107.5379         estimate D2E/DX2                !
 ! A3    A(2,1,13)             104.7093         estimate D2E/DX2                !
 ! A4    A(5,1,8)              108.0804         estimate D2E/DX2                !
 ! A5    A(5,1,13)             110.0563         estimate D2E/DX2                !
 ! A6    A(8,1,13)             111.6765         estimate D2E/DX2                !
 ! A7    A(1,2,3)              115.073          estimate D2E/DX2                !
 ! A8    A(1,2,7)              107.7252         estimate D2E/DX2                !
 ! A9    A(1,2,12)             112.633          estimate D2E/DX2                !
 ! A10   A(3,2,7)              109.4835         estimate D2E/DX2                !
 ! A11   A(3,2,12)              99.5957         estimate D2E/DX2                !
 ! A12   A(7,2,12)             112.2641         estimate D2E/DX2                !
 ! A13   A(2,3,6)              119.5879         estimate D2E/DX2                !
 ! A14   A(2,3,11)             125.8313         estimate D2E/DX2                !
 ! A15   A(6,3,11)             114.1375         estimate D2E/DX2                !
 ! A16   A(5,4,9)              110.5957         estimate D2E/DX2                !
 ! A17   A(5,4,11)             113.1157         estimate D2E/DX2                !
 ! A18   A(5,4,15)             114.8627         estimate D2E/DX2                !
 ! A19   A(9,4,11)             101.3796         estimate D2E/DX2                !
 ! A20   A(9,4,15)             110.5587         estimate D2E/DX2                !
 ! A21   A(11,4,15)            105.4126         estimate D2E/DX2                !
 ! A22   A(1,5,4)              112.6711         estimate D2E/DX2                !
 ! A23   A(1,5,10)             106.327          estimate D2E/DX2                !
 ! A24   A(1,5,14)             114.8444         estimate D2E/DX2                !
 ! A25   A(4,5,10)             104.0173         estimate D2E/DX2                !
 ! A26   A(4,5,14)             113.9837         estimate D2E/DX2                !
 ! A27   A(10,5,14)            103.5949         estimate D2E/DX2                !
 ! A28   A(3,11,4)             122.9197         estimate D2E/DX2                !
 ! A29   A(2,12,19)            115.2364         estimate D2E/DX2                !
 ! A30   A(1,13,23)            114.7956         estimate D2E/DX2                !
 ! A31   A(5,14,27)            119.0191         estimate D2E/DX2                !
 ! A32   A(4,15,16)            109.2091         estimate D2E/DX2                !
 ! A33   A(4,15,17)            109.3167         estimate D2E/DX2                !
 ! A34   A(4,15,18)            109.4469         estimate D2E/DX2                !
 ! A35   A(16,15,17)           109.3174         estimate D2E/DX2                !
 ! A36   A(16,15,18)           112.1815         estimate D2E/DX2                !
 ! A37   A(17,15,18)           107.3201         estimate D2E/DX2                !
 ! A38   A(15,18,31)           114.788          estimate D2E/DX2                !
 ! A39   A(12,19,20)           110.0064         estimate D2E/DX2                !
 ! A40   A(12,19,21)           105.6806         estimate D2E/DX2                !
 ! A41   A(12,19,22)           111.4328         estimate D2E/DX2                !
 ! A42   A(20,19,21)           110.3098         estimate D2E/DX2                !
 ! A43   A(20,19,22)           109.78           estimate D2E/DX2                !
 ! A44   A(21,19,22)           109.5638         estimate D2E/DX2                !
 ! A45   A(13,23,24)           110.6176         estimate D2E/DX2                !
 ! A46   A(13,23,25)           106.111          estimate D2E/DX2                !
 ! A47   A(13,23,26)           112.1904         estimate D2E/DX2                !
 ! A48   A(24,23,25)           109.6666         estimate D2E/DX2                !
 ! A49   A(24,23,26)           109.2487         estimate D2E/DX2                !
 ! A50   A(25,23,26)           108.9349         estimate D2E/DX2                !
 ! A51   A(14,27,28)           105.5764         estimate D2E/DX2                !
 ! A52   A(14,27,29)           111.9656         estimate D2E/DX2                !
 ! A53   A(14,27,30)           112.2819         estimate D2E/DX2                !
 ! A54   A(28,27,29)           108.1058         estimate D2E/DX2                !
 ! A55   A(28,27,30)           109.1747         estimate D2E/DX2                !
 ! A56   A(29,27,30)           109.5542         estimate D2E/DX2                !
 ! A57   A(18,31,32)           106.2851         estimate D2E/DX2                !
 ! A58   A(18,31,33)           110.7883         estimate D2E/DX2                !
 ! A59   A(18,31,34)           112.2953         estimate D2E/DX2                !
 ! A60   A(32,31,33)           109.451          estimate D2E/DX2                !
 ! A61   A(32,31,34)           108.8421         estimate D2E/DX2                !
 ! A62   A(33,31,34)           109.1022         estimate D2E/DX2                !
 ! D1    D(5,1,2,3)             22.3546         estimate D2E/DX2                !
 ! D2    D(5,1,2,7)            144.7749         estimate D2E/DX2                !
 ! D3    D(5,1,2,12)           -90.8777         estimate D2E/DX2                !
 ! D4    D(8,1,2,3)            142.6553         estimate D2E/DX2                !
 ! D5    D(8,1,2,7)            -94.9243         estimate D2E/DX2                !
 ! D6    D(8,1,2,12)            29.4231         estimate D2E/DX2                !
 ! D7    D(13,1,2,3)           -98.433          estimate D2E/DX2                !
 ! D8    D(13,1,2,7)            23.9873         estimate D2E/DX2                !
 ! D9    D(13,1,2,12)          148.3347         estimate D2E/DX2                !
 ! D10   D(2,1,5,4)            -40.8712         estimate D2E/DX2                !
 ! D11   D(2,1,5,10)          -154.1927         estimate D2E/DX2                !
 ! D12   D(2,1,5,14)            91.8823         estimate D2E/DX2                !
 ! D13   D(8,1,5,4)           -160.872          estimate D2E/DX2                !
 ! D14   D(8,1,5,10)            85.8066         estimate D2E/DX2                !
 ! D15   D(8,1,5,14)           -28.1185         estimate D2E/DX2                !
 ! D16   D(13,1,5,4)            76.9315         estimate D2E/DX2                !
 ! D17   D(13,1,5,10)          -36.39           estimate D2E/DX2                !
 ! D18   D(13,1,5,14)         -150.315          estimate D2E/DX2                !
 ! D19   D(2,1,13,23)         -153.7351         estimate D2E/DX2                !
 ! D20   D(5,1,13,23)           82.3855         estimate D2E/DX2                !
 ! D21   D(8,1,13,23)          -37.6568         estimate D2E/DX2                !
 ! D22   D(1,2,3,6)           -178.649          estimate D2E/DX2                !
 ! D23   D(1,2,3,11)            -6.7578         estimate D2E/DX2                !
 ! D24   D(7,2,3,6)             59.8799         estimate D2E/DX2                !
 ! D25   D(7,2,3,11)          -128.2288         estimate D2E/DX2                !
 ! D26   D(12,2,3,6)           -57.986          estimate D2E/DX2                !
 ! D27   D(12,2,3,11)          113.9052         estimate D2E/DX2                !
 ! D28   D(1,2,12,19)         -131.5379         estimate D2E/DX2                !
 ! D29   D(3,2,12,19)          106.0413         estimate D2E/DX2                !
 ! D30   D(7,2,12,19)           -9.7269         estimate D2E/DX2                !
 ! D31   D(2,3,11,4)            10.3616         estimate D2E/DX2                !
 ! D32   D(6,3,11,4)          -177.363          estimate D2E/DX2                !
 ! D33   D(9,4,5,1)            155.9478         estimate D2E/DX2                !
 ! D34   D(9,4,5,10)           -89.3254         estimate D2E/DX2                !
 ! D35   D(9,4,5,14)            22.7748         estimate D2E/DX2                !
 ! D36   D(11,4,5,1)            43.0188         estimate D2E/DX2                !
 ! D37   D(11,4,5,10)          157.7455         estimate D2E/DX2                !
 ! D38   D(11,4,5,14)          -90.1542         estimate D2E/DX2                !
 ! D39   D(15,4,5,1)           -78.0651         estimate D2E/DX2                !
 ! D40   D(15,4,5,10)           36.6617         estimate D2E/DX2                !
 ! D41   D(15,4,5,14)          148.762          estimate D2E/DX2                !
 ! D42   D(5,4,11,3)           -29.1338         estimate D2E/DX2                !
 ! D43   D(9,4,11,3)          -147.5623         estimate D2E/DX2                !
 ! D44   D(15,4,11,3)           97.1568         estimate D2E/DX2                !
 ! D45   D(5,4,15,16)          173.7285         estimate D2E/DX2                !
 ! D46   D(5,4,15,17)           54.1688         estimate D2E/DX2                !
 ! D47   D(5,4,15,18)          -63.1096         estimate D2E/DX2                !
 ! D48   D(9,4,15,16)          -60.2653         estimate D2E/DX2                !
 ! D49   D(9,4,15,17)         -179.8249         estimate D2E/DX2                !
 ! D50   D(9,4,15,18)           62.8966         estimate D2E/DX2                !
 ! D51   D(11,4,15,16)          48.5178         estimate D2E/DX2                !
 ! D52   D(11,4,15,17)         -71.0418         estimate D2E/DX2                !
 ! D53   D(11,4,15,18)         171.6798         estimate D2E/DX2                !
 ! D54   D(1,5,14,27)          -74.1741         estimate D2E/DX2                !
 ! D55   D(4,5,14,27)           57.9604         estimate D2E/DX2                !
 ! D56   D(10,5,14,27)         170.3147         estimate D2E/DX2                !
 ! D57   D(2,12,19,20)          58.7569         estimate D2E/DX2                !
 ! D58   D(2,12,19,21)         177.8268         estimate D2E/DX2                !
 ! D59   D(2,12,19,22)         -63.2368         estimate D2E/DX2                !
 ! D60   D(1,13,23,24)          57.5714         estimate D2E/DX2                !
 ! D61   D(1,13,23,25)         176.4494         estimate D2E/DX2                !
 ! D62   D(1,13,23,26)         -64.6956         estimate D2E/DX2                !
 ! D63   D(5,14,27,28)        -178.8095         estimate D2E/DX2                !
 ! D64   D(5,14,27,29)         -61.4026         estimate D2E/DX2                !
 ! D65   D(5,14,27,30)          62.3279         estimate D2E/DX2                !
 ! D66   D(4,15,18,31)         -87.1311         estimate D2E/DX2                !
 ! D67   D(16,15,18,31)         34.2525         estimate D2E/DX2                !
 ! D68   D(17,15,18,31)        154.3421         estimate D2E/DX2                !
 ! D69   D(15,18,31,32)       -177.2489         estimate D2E/DX2                !
 ! D70   D(15,18,31,33)        -58.434          estimate D2E/DX2                !
 ! D71   D(15,18,31,34)         63.8412         estimate D2E/DX2                !
 --------------------------------------------------------------------------------
 Trust Radius=3.00D-01 FncErr=1.00D-07 GrdErr=1.00D-06 EigMax=2.50D+02 EigMin=1.00D-04
 Number of steps in this run=    177 maximum allowed number of steps=    204.
 GradGradGradGradGradGradGradGradGradGradGradGradGradGradGradGradGradGrad

 Leave Link  103 at Fri May 24 08:30:14 2019, MaxMem=   402653184 cpu:               0.1 elap:               0.0
 (Enter /n/sw/g16_nehalem/g16/l202.exe)
                          Input orientation:                          
 ---------------------------------------------------------------------
 Center     Atomic      Atomic             Coordinates (Angstroms)
 Number     Number       Type             X           Y           Z
 ---------------------------------------------------------------------
      1          6           0        0.732462    0.891508    0.439784
      2          6           0        1.663676    0.313087   -0.643829
      3          6           0        1.075775   -0.794943   -1.459535
      4          6           0       -1.047014   -0.822085   -0.271275
      5          6           0       -0.412423   -0.063292    0.895596
      6          1           0        1.678150   -1.272565   -2.231801
      7          1           0        1.958996    1.136989   -1.304823
      8          1           0        1.350112    1.125291    1.316144
      9          1           0       -1.510103   -1.744461    0.077909
     10          1           0       -1.218469    0.577380    1.264655
     11          8           0       -0.033215   -1.351738   -1.254483
     12          8           0        2.785219   -0.365753   -0.095538
     13          8           0        0.185288    2.063679   -0.143584
     14          8           0       -0.099497   -0.876905    2.007293
     15          6           0       -2.047956    0.002636   -1.116485
     16          1           0       -2.359390   -0.589448   -1.986992
     17          1           0       -1.562434    0.920200   -1.458301
     18          8           0       -3.138287    0.380146   -0.313942
     19          6           0        4.058678   -0.005819   -0.663511
     20          1           0        4.236270    1.067515   -0.535385
     21          1           0        4.801131   -0.580837   -0.110184
     22          1           0        4.110828   -0.265958   -1.726509
     23          6           0       -0.218612    3.066499    0.791825
     24          1           0        0.625743    3.366717    1.425091
     25          1           0       -0.552688    3.918098    0.197305
     26          1           0       -1.046177    2.730150    1.428170
     27          6           0        0.780113   -1.988295    1.827077
     28          1           0        0.850707   -2.467746    2.804973
     29          1           0        0.375488   -2.721616    1.115585
     30          1           0        1.779720   -1.678642    1.505419
     31          6           0       -4.195788   -0.578742   -0.250414
     32          1           0       -4.980614   -0.128794    0.359954
     33          1           0       -4.589172   -0.791789   -1.252657
     34          1           0       -3.877624   -1.519249    0.218070
 ---------------------------------------------------------------------
                    Distance matrix (angstroms):
                    1          2          3          4          5
     1  C    0.000000
     2  C    1.541411   0.000000
     3  C    2.563083   1.496240   0.000000
     4  C    2.570708   2.962305   2.432885   0.000000
     5  C    1.558900   2.611834   2.880397   1.529726   0.000000
     6  H    3.565796   2.244138   1.089667   3.387198   3.951386
     7  H    2.146695   1.096787   2.129877   3.733937   3.450528
     8  H    1.097339   2.144643   3.386289   3.472519   2.167053
     9  H    3.479710   3.850621   3.154692   1.089568   2.167912
    10  H    2.141313   3.466832   3.816810   2.084941   1.093789
    11  O    2.913581   2.454380   1.257746   1.508317   2.535100
    12  O    2.465986   1.421023   2.228652   3.863306   3.361360
    13  O    1.419050   2.345303   3.270537   3.140463   2.441549
    14  O    2.505299   3.399016   3.661540   2.468333   1.412713
    15  C    3.307989   3.754463   3.242146   1.548041   2.593797
    16  H    4.200241   4.336325   3.481494   2.172587   3.518073
    17  H    2.978271   3.382268   3.146723   2.170310   2.798323
    18  O    3.976467   4.813748   4.522337   2.412593   3.014955
    19  C    3.617481   2.416221   3.186547   5.185386   4.735490
    20  H    3.641237   2.683125   3.783059   5.617244   4.993674
    21  H    4.361689   3.305677   3.967980   5.855335   5.334847
    22  H    4.176830   2.737890   3.092353   5.387979   5.232237
    23  C    2.399804   3.631169   4.653471   4.115521   3.137503
    24  H    2.666248   3.831761   5.083602   4.818904   3.622584
    25  H    3.297067   4.314612   5.254500   4.788868   4.044595
    26  H    2.742457   4.180751   5.026709   3.937828   2.913520
    27  C    3.196892   3.490332   3.509035   3.016873   2.448558
    28  H    4.110072   4.504241   4.586388   3.971504   3.320033
    29  H    3.693075   3.736896   3.291461   2.748656   2.781346
    30  H    2.972877   2.932528   3.172919   3.446847   2.790471
    31  C    5.188994   5.939988   5.412771   3.158232   3.986587
    32  H    5.804018   6.734198   6.358785   4.043799   4.599953
    33  H    5.832464   6.378835   5.668724   3.675719   4.752992
    34  H    5.207091   5.899689   5.279691   2.955985   3.819224
                    6          7          8          9         10
     6  H    0.000000
     7  H    2.596943   0.000000
     8  H    4.294792   2.690789   0.000000
     9  H    3.965149   4.716922   4.236689   0.000000
    10  H    4.902846   4.124520   2.626874   2.623807   0.000000
    11  O    1.972356   3.188291   3.828497   2.027486   3.387090
    12  O    2.571289   2.098392   2.505113   4.514500   4.332337
    13  O    4.209491   2.313714   2.090022   4.174367   2.482490
    14  O    4.613729   4.388995   2.566679   2.542634   1.979534
    15  C    4.093157   4.168680   4.327228   2.183623   2.586157
    16  H    4.102232   4.700468   5.254659   2.513794   3.638186
    17  H    3.988472   3.531433   4.027720   3.076215   2.765922
    18  O    5.441296   5.247566   4.833027   2.705270   2.493305
    19  C    3.119470   2.475067   3.540448   5.880808   5.648560
    20  H    3.859764   2.404753   3.429491   6.426830   5.764942
    21  H    3.838327   3.529280   4.105462   6.420364   6.282295
    22  H    2.680765   2.603164   4.337610   6.085783   6.169253
    23  C    5.618496   3.586212   2.550313   5.032192   2.723783
    24  H    6.000280   3.768512   2.358086   5.700954   3.347724
    25  H    6.149811   4.037265   3.559806   5.744169   3.569719
    26  H    6.069520   4.363310   2.886230   4.696869   2.165835
    27  C    4.218202   4.578860   3.206301   2.892081   3.300506
    28  H    5.242348   5.577889   3.921216   3.678783   3.990847
    29  H    3.873199   4.822313   3.973513   2.363696   3.666919
    30  H    3.760589   3.982132   2.842961   3.586789   3.759886
    31  C    6.237823   6.475869   6.009562   2.946116   3.535036
    32  H    7.236335   7.247888   6.524195   3.838538   3.933307
    33  H    6.361540   6.826523   6.749002   3.486926   4.424152
    34  H    6.076952   6.590974   5.960586   2.382335   3.544333
                   11         12         13         14         15
    11  O    0.000000
    12  O    3.202950   0.000000
    13  O    3.598182   3.558664   0.000000
    14  O    3.296823   3.606211   3.654368   0.000000
    15  C    2.431574   4.953547   3.190895   3.785244   0.000000
    16  H    2.555141   5.485858   4.112496   4.598267   1.097878
    17  H    2.746226   4.734225   2.467905   4.168946   1.092929
    18  O    3.677705   5.974277   3.729538   4.025240   1.405493
    19  C    4.347911   1.440085   4.422250   5.018207   6.123417
    20  H    4.959676   2.086450   4.190025   5.389328   6.400245
    21  H    5.027386   2.027406   5.319830   5.346730   6.947163
    22  H    4.309851   2.104107   4.831431   5.660510   6.194747
    23  C    4.872634   4.646587   1.429606   4.128194   4.046653
    24  H    5.466092   4.572415   2.086301   4.344337   4.992526
    25  H    5.490784   5.438636   2.024768   5.145240   4.392347
    26  H    4.988440   5.156151   2.105018   3.773915   3.862404
    27  C    3.250034   3.217070   4.544867   1.428768   4.541623
    28  H    4.301857   4.071078   5.447071   2.017413   5.466522
    29  H    2.767820   3.581021   4.951841   2.103262   4.275133
    30  H    3.318231   2.301688   4.389350   2.103834   4.934793
    31  C    4.351171   6.985972   5.117385   4.686762   2.387731
    32  H    5.345910   7.782788   5.634450   5.205641   3.285975
    33  H    4.590239   7.476769   5.672672   5.549027   2.665977
    34  H    4.120188   6.769223   5.429127   4.229441   2.728526
                   16         17         18         19         20
    16  H    0.000000
    17  H    1.787090   0.000000
    18  O    2.084680   2.021022   0.000000
    19  C    6.579044   5.752052   7.215779   0.000000
    20  H    6.953806   5.873538   7.409832   1.095446   0.000000
    21  H    7.402401   6.675739   7.999960   1.089978   1.793580
    22  H    6.483534   5.802138   7.413667   1.095608   1.792390
    23  C    5.066626   3.387554   4.118703   5.463730   5.059980
    24  H    6.017023   4.368926   5.109967   5.246075   4.708046
    25  H    5.324781   3.570436   4.411780   6.115785   5.621101
    26  H    4.940404   3.445890   3.596442   6.157938   5.875725
    27  C    5.134236   4.973990   5.054437   4.569708   5.183071
    28  H    6.065942   5.956252   5.809492   5.327527   5.926053
    29  H    4.653137   4.862433   4.900111   4.909850   5.655869
    30  H    5.524085   5.167941   5.633425   3.563179   4.211994
    31  C    2.527484   3.261958   1.428919   8.284630   8.595986
    32  H    3.548404   4.011283   2.026654   9.097879   9.337223
    33  H    2.356293   3.483438   2.087986   8.703456   9.047647
    34  H    2.834054   3.757823   2.106504   8.127272   8.549522
                   21         22         23         24         25
    21  H    0.000000
    22  H    1.785546   0.000000
    23  C    6.270128   6.015923   0.000000
    24  H    5.947614   5.939253   1.097311   0.000000
    25  H    6.999882   6.554065   1.091000   1.788904   0.000000
    26  H    6.893488   6.747100   1.096781   1.789006   1.780388
    27  C    4.680011   5.166051   5.255487   5.372297   6.270406
    28  H    5.259697   6.000882   5.985322   5.999637   7.039066
    29  H    5.066731   5.297218   5.827525   6.101329   6.766872
    30  H    3.597815   4.227895   5.197972   5.176269   6.202805
    31  C    8.998012   8.442545   5.494722   6.451444   5.804671
    32  H    9.803464   9.328797   5.750919   6.692111   6.000860
    33  H    9.461899   8.728748   6.178033   7.187409   6.370136
    34  H    8.735511   8.316700   5.894629   6.753509   6.373411
                   26         27         28         29         30
    26  H    0.000000
    27  C    5.075252   0.000000
    28  H    5.701919   1.091392   0.000000
    29  H    5.642747   1.098955   1.773222   0.000000
    30  H    5.237281   1.094789   1.781738   1.792103   0.000000
    31  C    4.866874   5.573365   6.194420   5.230146   6.324510
    32  H    4.979402   6.228657   6.741893   5.998461   7.029668
    33  H    5.669542   6.304412   6.990385   5.829293   6.996876
    34  H    5.247745   4.950093   5.472552   4.510009   5.804155
                   31         32         33         34
    31  C    0.000000
    32  H    1.091308   0.000000
    33  H    1.097557   1.786982   0.000000
    34  H    1.097843   1.780473   1.788445   0.000000
 Stoichiometry    C10H19O5(1+)
 Framework group  C1[X(C10H19O5)]
 Deg. of freedom    96
 Full point group                 C1      NOp   1
 Largest Abelian subgroup         C1      NOp   1
 Largest concise Abelian subgroup C1      NOp   1
                         Standard orientation:                         
 ---------------------------------------------------------------------
 Center     Atomic      Atomic             Coordinates (Angstroms)
 Number     Number       Type             X           Y           Z
 ---------------------------------------------------------------------
      1          6           0        0.732462    0.891508    0.439784
      2          6           0        1.663676    0.313087   -0.643829
      3          6           0        1.075775   -0.794943   -1.459535
      4          6           0       -1.047014   -0.822085   -0.271275
      5          6           0       -0.412423   -0.063292    0.895596
      6          1           0        1.678150   -1.272565   -2.231801
      7          1           0        1.958996    1.136989   -1.304823
      8          1           0        1.350112    1.125291    1.316144
      9          1           0       -1.510103   -1.744461    0.077909
     10          1           0       -1.218469    0.577380    1.264655
     11          8           0       -0.033215   -1.351738   -1.254483
     12          8           0        2.785219   -0.365753   -0.095538
     13          8           0        0.185288    2.063679   -0.143584
     14          8           0       -0.099497   -0.876905    2.007293
     15          6           0       -2.047956    0.002636   -1.116485
     16          1           0       -2.359390   -0.589448   -1.986992
     17          1           0       -1.562434    0.920200   -1.458301
     18          8           0       -3.138287    0.380146   -0.313942
     19          6           0        4.058678   -0.005819   -0.663511
     20          1           0        4.236270    1.067515   -0.535385
     21          1           0        4.801131   -0.580837   -0.110184
     22          1           0        4.110828   -0.265958   -1.726509
     23          6           0       -0.218612    3.066499    0.791825
     24          1           0        0.625743    3.366717    1.425091
     25          1           0       -0.552688    3.918098    0.197305
     26          1           0       -1.046177    2.730150    1.428170
     27          6           0        0.780113   -1.988295    1.827077
     28          1           0        0.850707   -2.467746    2.804973
     29          1           0        0.375488   -2.721616    1.115585
     30          1           0        1.779720   -1.678642    1.505419
     31          6           0       -4.195788   -0.578742   -0.250414
     32          1           0       -4.980614   -0.128794    0.359954
     33          1           0       -4.589172   -0.791789   -1.252657
     34          1           0       -3.877624   -1.519249    0.218070
 ---------------------------------------------------------------------
 Rotational constants (GHZ):           0.8291649           0.4194858           0.3790530
 Leave Link  202 at Fri May 24 08:30:15 2019, MaxMem=   402653184 cpu:               0.5 elap:               0.2
 (Enter /n/sw/g16_nehalem/g16/l301.exe)
 Standard basis: 6-31G(d) (6D, 7F)
 Ernie: Thresh=  0.10000D-02 Tol=  0.10000D-05 Strict=F.
 There are   263 symmetry adapted cartesian basis functions of A   symmetry.
 There are   263 symmetry adapted basis functions of A   symmetry.
   263 basis functions,   496 primitive gaussians,   263 cartesian basis functions
    59 alpha electrons       59 beta electrons
       nuclear repulsion energy      1170.6727078528 Hartrees.
 IExCor=  402 DFT=T Ex+Corr=B3LYP ExCW=0 ScaHFX=  0.200000
 ScaDFX=  0.800000  0.720000  1.000000  0.810000 ScalE2=  1.000000  1.000000
 IRadAn=      5 IRanWt=     -1 IRanGd=            0 ICorTp=0 IEmpDi=  4
 NAtoms=   34 NActive=   34 NUniq=   34 SFac= 1.00D+00 NAtFMM=   60 NAOKFM=F Big=F
 Integral buffers will be    131072 words long.
 Raffenetti 2 integral format.
 Two-electron integral symmetry is turned on.
 ------------------------------------------------------------------------------
 Polarizable Continuum Model (PCM)
 =================================
 Model                : PCM.
 Atomic radii         : UFF (Universal Force Field).
 Polarization charges : Total charges.
 Charge compensation  : None.
 Solution method      : On-the-fly selection.
 Cavity type          : Scaled VdW (van der Waals Surface) (Alpha=1.100).
 Cavity algorithm     : GePol (No added spheres)
                        Default sphere list used, NSphG=   34.
                        Lebedev-Laikov grids with approx.  5.0 points / Ang**2.
                        Smoothing algorithm: York/Karplus (Gamma=1.0000).
                        Polarization charges: spherical gaussians, with
                                              point-specific exponents (IZeta= 3).
                        Self-potential: point-specific (ISelfS= 7).
                        Self-field    : sphere-specific E.n sum rule (ISelfD= 2).
 1st derivatives      : Analytical E(r).r(x)/FMM algorithm (CHGder, D1EAlg=3).
                        Cavity 1st derivative terms included.
 Solvent              : TetraHydroFuran, Eps=   7.425700 Eps(inf)=   1.974025
 ------------------------------------------------------------------------------
 GePol: Number of generator spheres                  =      34
 GePol: Total number of spheres                      =      34
 GePol: Number of exposed spheres                    =      34 (100.00%)
 GePol: Number of points                             =    2291
 GePol: Average weight of points                     =       0.13
 GePol: Minimum weight of points                     =   0.18D-10
 GePol: Maximum weight of points                     =    0.20577
 GePol: Number of points with low weight             =     151
 GePol: Fraction of low-weight points (<1% of avg)   =       6.59%
 GePol: Cavity surface area                          =    298.518 Ang**2
 GePol: Cavity volume                                =    320.117 Ang**3
 Leave Link  301 at Fri May 24 08:30:15 2019, MaxMem=   402653184 cpu:               0.5 elap:               0.2
 (Enter /n/sw/g16_nehalem/g16/l302.exe)
 NPDir=0 NMtPBC=     1 NCelOv=     1 NCel=       1 NClECP=     1 NCelD=      1
         NCelK=      1 NCelE2=     1 NClLst=     1 CellRange=     0.0.
 One-electron integrals computed using PRISM.
 One-electron integral symmetry used in STVInt
 NBasis=   263 RedAO= T EigKep=  1.96D-03  NBF=   263
 NBsUse=   263 1.00D-06 EigRej= -1.00D+00 NBFU=   263
 Precomputing XC quadrature grid using
 IXCGrd= 4 IRadAn=           5 IRanWt=          -1 IRanGd=           0 AccXCQ= 0.00D+00.
 Generated NRdTot=       0 NPtTot=           0 NUsed=           0 NTot=          32
 NSgBfM=   262   262   262   262   262 MxSgAt=    34 MxSgA2=    34.
 Leave Link  302 at Fri May 24 08:30:17 2019, MaxMem=   402653184 cpu:               4.5 elap:               1.7
 (Enter /n/sw/g16_nehalem/g16/l303.exe)
 DipDrv:  MaxL=1.
 Leave Link  303 at Fri May 24 08:30:17 2019, MaxMem=   402653184 cpu:               0.6 elap:               0.2
 (Enter /n/sw/g16_nehalem/g16/l401.exe)
 ExpMin= 1.61D-01 ExpMax= 5.48D+03 ExpMxC= 8.25D+02 IAcc=3 IRadAn=         5 AccDes= 0.00D+00
 Harris functional with IExCor=  402 and IRadAn=       5 diagonalized for initial guess.
 HarFok:  IExCor=  402 AccDes= 0.00D+00 IRadAn=         5 IDoV= 1 UseB2=F ITyADJ=14
 ICtDFT=  3500011 ScaDFX=  1.000000  1.000000  1.000000  1.000000
 FoFCou: FMM=F IPFlag=           0 FMFlag=      100000 FMFlg1=           0
         NFxFlg=           0 DoJE=T BraDBF=F KetDBF=T FulRan=T
         wScrn=  0.000000 ICntrl=       500 IOpCl=  0 I1Cent=   200000004 NGrid=           0
         NMat0=    1 NMatS0=      1 NMatT0=    0 NMatD0=    1 NMtDS0=    0 NMtDT0=    0
 Petite list used in FoFCou.
 Harris En= -768.254574966683    
 JPrj=0 DoOrth=F DoCkMO=F.
 Leave Link  401 at Fri May 24 08:30:22 2019, MaxMem=   402653184 cpu:              19.9 elap:               5.0
 (Enter /n/sw/g16_nehalem/g16/l502.exe)
 Integral symmetry usage will be decided dynamically.
 Closed shell SCF:
 Using DIIS extrapolation, IDIIS=  1040.
 NGot=   402653184 LenX=   402510103 LenY=   402440493
 Requested convergence on RMS density matrix=1.00D-08 within 128 cycles.
 Requested convergence on MAX density matrix=1.00D-06.
 Requested convergence on             energy=1.00D-06.
 No special actions if energy rises.
 Fock matrices will be formed incrementally for  20 cycles.

 Cycle   1  Pass 1  IDiag  1:
 FoFJK:  IHMeth= 1 ICntrl=       0 DoSepK=F KAlg= 0 I1Cent=           0 FoldK=F
 IRaf= 880000000 NMat=       1 IRICut=       1 DoRegI=T DoRafI=F ISym2E= 0 IDoP0=0 IntGTp=1.
 FoFCou: FMM=F IPFlag=           0 FMFlag=      100000 FMFlg1=           0
         NFxFlg=           0 DoJE=F BraDBF=F KetDBF=F FulRan=T
         wScrn=  0.000000 ICntrl=         0 IOpCl=  0 I1Cent=           0 NGrid=           0
         NMat0=    1 NMatS0=      1 NMatT0=    0 NMatD0=    1 NMtDS0=    0 NMtDT0=    0
 Symmetry not used in FoFCou.
 Inv3:  Mode=1 IEnd=    15746043.
 Iteration    1 A*A^-1 deviation from unit magnitude is 7.77D-15 for   1146.
 Iteration    1 A*A^-1 deviation from orthogonality  is 2.38D-15 for   1613    571.
 Iteration    1 A^-1*A deviation from unit magnitude is 7.33D-15 for   1146.
 Iteration    1 A^-1*A deviation from orthogonality  is 2.62D-15 for   2283    460.
 E= -768.085435575337    
 DIIS: error= 1.82D-02 at cycle   1 NSaved=   1.
 NSaved= 1 IEnMin= 1 EnMin= -768.085435575337     IErMin= 1 ErrMin= 1.82D-02
 ErrMax= 1.82D-02  0.00D+00 EMaxC= 1.00D-01 BMatC= 2.51D-01 BMatP= 2.51D-01
 IDIUse=3 WtCom= 8.18D-01 WtEn= 1.82D-01
 Coeff-Com:  0.100D+01
 Coeff-En:   0.100D+01
 Coeff:      0.100D+01
 Gap=     0.019 Goal=   None    Shift=    0.000
 GapD=    0.019 DampG=0.250 DampE=0.500 DampFc=0.2500 IDamp=-1.
 Damping current iteration by 2.50D-01
 RMSDP=4.38D-03 MaxDP=9.98D-02              OVMax= 3.09D-01

 Cycle   2  Pass 1  IDiag  1:
 RMSU=  1.09D-03    CP:  9.95D-01
 E= -768.163130245947     Delta-E=       -0.077694670610 Rises=F Damp=T
 DIIS: error= 9.27D-03 at cycle   2 NSaved=   2.
 NSaved= 2 IEnMin= 2 EnMin= -768.163130245947     IErMin= 2 ErrMin= 9.27D-03
 ErrMax= 9.27D-03  0.00D+00 EMaxC= 1.00D-01 BMatC= 7.02D-02 BMatP= 2.51D-01
 IDIUse=3 WtCom= 9.07D-01 WtEn= 9.27D-02
 Coeff-Com: -0.773D+00 0.177D+01
 Coeff-En:   0.000D+00 0.100D+01
 Coeff:     -0.701D+00 0.170D+01
 Gap=     0.137 Goal=   None    Shift=    0.000
 RMSDP=1.32D-03 MaxDP=3.21D-02 DE=-7.77D-02 OVMax= 2.57D-01

 Cycle   3  Pass 1  IDiag  1:
 RMSU=  1.21D-03    CP:  9.86D-01  1.45D+00
 E= -768.294483791109     Delta-E=       -0.131353545162 Rises=F Damp=F
 DIIS: error= 6.39D-03 at cycle   3 NSaved=   3.
 NSaved= 3 IEnMin= 3 EnMin= -768.294483791109     IErMin= 3 ErrMin= 6.39D-03
 ErrMax= 6.39D-03  0.00D+00 EMaxC= 1.00D-01 BMatC= 3.17D-02 BMatP= 7.02D-02
 IDIUse=3 WtCom= 9.36D-01 WtEn= 6.39D-02
 Coeff-Com: -0.522D+00 0.101D+01 0.510D+00
 Coeff-En:   0.000D+00 0.000D+00 0.100D+01
 Coeff:     -0.488D+00 0.947D+00 0.541D+00
 Gap=     0.135 Goal=   None    Shift=    0.000
 RMSDP=7.16D-04 MaxDP=2.58D-02 DE=-1.31D-01 OVMax= 3.86D-02

 Cycle   4  Pass 1  IDiag  1:
 RMSU=  4.83D-04    CP:  9.89D-01  1.65D+00  6.09D-01
 E= -768.318834373124     Delta-E=       -0.024350582015 Rises=F Damp=F
 DIIS: error= 1.77D-03 at cycle   4 NSaved=   4.
 NSaved= 4 IEnMin= 4 EnMin= -768.318834373124     IErMin= 4 ErrMin= 1.77D-03
 ErrMax= 1.77D-03  0.00D+00 EMaxC= 1.00D-01 BMatC= 3.35D-03 BMatP= 3.17D-02
 IDIUse=3 WtCom= 9.82D-01 WtEn= 1.77D-02
 Coeff-Com: -0.201D+00 0.340D+00 0.267D+00 0.594D+00
 Coeff-En:   0.000D+00 0.000D+00 0.000D+00 0.100D+01
 Coeff:     -0.197D+00 0.334D+00 0.262D+00 0.601D+00
 Gap=     0.129 Goal=   None    Shift=    0.000
 RMSDP=2.23D-04 MaxDP=1.11D-02 DE=-2.44D-02 OVMax= 1.33D-02

 Cycle   5  Pass 1  IDiag  1:
 RMSU=  1.63D-04    CP:  9.89D-01  1.67D+00  6.74D-01  7.37D-01
 E= -768.321118108307     Delta-E=       -0.002283735182 Rises=F Damp=F
 DIIS: error= 1.01D-03 at cycle   5 NSaved=   5.
 NSaved= 5 IEnMin= 5 EnMin= -768.321118108307     IErMin= 5 ErrMin= 1.01D-03
 ErrMax= 1.01D-03  0.00D+00 EMaxC= 1.00D-01 BMatC= 6.09D-04 BMatP= 3.35D-03
 IDIUse=3 WtCom= 9.90D-01 WtEn= 1.01D-02
 Coeff-Com: -0.787D-01 0.121D+00 0.854D-01 0.341D+00 0.532D+00
 Coeff-En:   0.000D+00 0.000D+00 0.000D+00 0.106D+00 0.894D+00
 Coeff:     -0.779D-01 0.120D+00 0.846D-01 0.338D+00 0.535D+00
 Gap=     0.132 Goal=   None    Shift=    0.000
 RMSDP=9.07D-05 MaxDP=4.23D-03 DE=-2.28D-03 OVMax= 5.46D-03

 Cycle   6  Pass 1  IDiag  1:
 RMSU=  6.09D-05    CP:  9.89D-01  1.68D+00  6.73D-01  8.09D-01  6.53D-01
 E= -768.321527758298     Delta-E=       -0.000409649991 Rises=F Damp=F
 DIIS: error= 2.89D-04 at cycle   6 NSaved=   6.
 NSaved= 6 IEnMin= 6 EnMin= -768.321527758298     IErMin= 6 ErrMin= 2.89D-04
 ErrMax= 2.89D-04  0.00D+00 EMaxC= 1.00D-01 BMatC= 7.78D-05 BMatP= 6.09D-04
 IDIUse=3 WtCom= 9.97D-01 WtEn= 2.89D-03
 Coeff-Com: -0.239D-01 0.313D-01 0.111D-01 0.130D+00 0.329D+00 0.522D+00
 Coeff-En:   0.000D+00 0.000D+00 0.000D+00 0.000D+00 0.422D-01 0.958D+00
 Coeff:     -0.239D-01 0.312D-01 0.110D-01 0.130D+00 0.328D+00 0.523D+00
 Gap=     0.132 Goal=   None    Shift=    0.000
 RMSDP=2.71D-05 MaxDP=1.43D-03 DE=-4.10D-04 OVMax= 1.64D-03

 Cycle   7  Pass 1  IDiag  1:
 RMSU=  1.78D-05    CP:  9.89D-01  1.68D+00  6.72D-01  8.21D-01  7.25D-01
                    CP:  7.49D-01
 E= -768.321585346647     Delta-E=       -0.000057588349 Rises=F Damp=F
 DIIS: error= 9.54D-05 at cycle   7 NSaved=   7.
 NSaved= 7 IEnMin= 7 EnMin= -768.321585346647     IErMin= 7 ErrMin= 9.54D-05
 ErrMax= 9.54D-05  0.00D+00 EMaxC= 1.00D-01 BMatC= 5.20D-06 BMatP= 7.78D-05
 IDIUse=1 WtCom= 1.00D+00 WtEn= 0.00D+00
 Coeff-Com: -0.667D-02 0.717D-02-0.419D-02 0.400D-01 0.136D+00 0.279D+00
 Coeff-Com:  0.548D+00
 Coeff:     -0.667D-02 0.717D-02-0.419D-02 0.400D-01 0.136D+00 0.279D+00
 Coeff:      0.548D+00
 Gap=     0.132 Goal=   None    Shift=    0.000
 RMSDP=8.88D-06 MaxDP=5.02D-04 DE=-5.76D-05 OVMax= 4.03D-04

 Cycle   8  Pass 1  IDiag  1:
 RMSU=  5.96D-06    CP:  9.89D-01  1.69D+00  6.71D-01  8.29D-01  7.44D-01
                    CP:  7.69D-01  7.81D-01
 E= -768.321589575386     Delta-E=       -0.000004228739 Rises=F Damp=F
 DIIS: error= 2.09D-05 at cycle   8 NSaved=   8.
 NSaved= 8 IEnMin= 8 EnMin= -768.321589575386     IErMin= 8 ErrMin= 2.09D-05
 ErrMax= 2.09D-05  0.00D+00 EMaxC= 1.00D-01 BMatC= 4.57D-07 BMatP= 5.20D-06
 IDIUse=1 WtCom= 1.00D+00 WtEn= 0.00D+00
 Coeff-Com: -0.357D-03-0.711D-04-0.378D-02-0.766D-03 0.133D-01 0.399D-01
 Coeff-Com:  0.241D+00 0.710D+00
 Coeff:     -0.357D-03-0.711D-04-0.378D-02-0.766D-03 0.133D-01 0.399D-01
 Coeff:      0.241D+00 0.710D+00
 Gap=     0.132 Goal=   None    Shift=    0.000
 RMSDP=3.03D-06 MaxDP=9.32D-05 DE=-4.23D-06 OVMax= 2.77D-04

 Cycle   9  Pass 1  IDiag  1:
 RMSU=  2.17D-06    CP:  9.89D-01  1.69D+00  6.71D-01  8.31D-01  7.47D-01
                    CP:  7.86D-01  8.32D-01  8.79D-01
 E= -768.321589902311     Delta-E=       -0.000000326925 Rises=F Damp=F
 DIIS: error= 1.21D-05 at cycle   9 NSaved=   9.
 NSaved= 9 IEnMin= 9 EnMin= -768.321589902311     IErMin= 9 ErrMin= 1.21D-05
 ErrMax= 1.21D-05  0.00D+00 EMaxC= 1.00D-01 BMatC= 1.01D-07 BMatP= 4.57D-07
 IDIUse=1 WtCom= 1.00D+00 WtEn= 0.00D+00
 Coeff-Com:  0.152D-03-0.295D-03-0.165D-02-0.382D-02-0.488D-02-0.583D-02
 Coeff-Com:  0.833D-01 0.418D+00 0.515D+00
 Coeff:      0.152D-03-0.295D-03-0.165D-02-0.382D-02-0.488D-02-0.583D-02
 Coeff:      0.833D-01 0.418D+00 0.515D+00
 Gap=     0.132 Goal=   None    Shift=    0.000
 RMSDP=1.20D-06 MaxDP=4.03D-05 DE=-3.27D-07 OVMax= 8.65D-05

 Cycle  10  Pass 1  IDiag  1:
 RMSU=  6.30D-07    CP:  9.89D-01  1.69D+00  6.72D-01  8.31D-01  7.49D-01
                    CP:  7.91D-01  8.59D-01  9.35D-01  6.67D-01
 E= -768.321589982390     Delta-E=       -0.000000080079 Rises=F Damp=F
 DIIS: error= 2.21D-06 at cycle  10 NSaved=  10.
 NSaved=10 IEnMin=10 EnMin= -768.321589982390     IErMin=10 ErrMin= 2.21D-06
 ErrMax= 2.21D-06  0.00D+00 EMaxC= 1.00D-01 BMatC= 4.57D-09 BMatP= 1.01D-07
 IDIUse=1 WtCom= 1.00D+00 WtEn= 0.00D+00
 Coeff-Com:  0.108D-03-0.139D-03-0.483D-03-0.188D-02-0.387D-02-0.741D-02
 Coeff-Com:  0.161D-01 0.119D+00 0.226D+00 0.652D+00
 Coeff:      0.108D-03-0.139D-03-0.483D-03-0.188D-02-0.387D-02-0.741D-02
 Coeff:      0.161D-01 0.119D+00 0.226D+00 0.652D+00
 Gap=     0.132 Goal=   None    Shift=    0.000
 RMSDP=3.07D-07 MaxDP=8.54D-06 DE=-8.01D-08 OVMax= 2.51D-05

 Cycle  11  Pass 1  IDiag  1:
 RMSU=  2.17D-07    CP:  9.89D-01  1.69D+00  6.72D-01  8.32D-01  7.49D-01
                    CP:  7.92D-01  8.63D-01  9.48D-01  7.08D-01  8.44D-01
 E= -768.321589986237     Delta-E=       -0.000000003847 Rises=F Damp=F
 DIIS: error= 1.07D-06 at cycle  11 NSaved=  11.
 NSaved=11 IEnMin=11 EnMin= -768.321589986237     IErMin=11 ErrMin= 1.07D-06
 ErrMax= 1.07D-06  0.00D+00 EMaxC= 1.00D-01 BMatC= 6.34D-10 BMatP= 4.57D-09
 IDIUse=1 WtCom= 1.00D+00 WtEn= 0.00D+00
 Coeff-Com:  0.411D-04-0.471D-04-0.108D-03-0.607D-03-0.151D-02-0.328D-02
 Coeff-Com:  0.104D-03 0.175D-01 0.663D-01 0.340D+00 0.581D+00
 Coeff:      0.411D-04-0.471D-04-0.108D-03-0.607D-03-0.151D-02-0.328D-02
 Coeff:      0.104D-03 0.175D-01 0.663D-01 0.340D+00 0.581D+00
 Gap=     0.132 Goal=   None    Shift=    0.000
 RMSDP=1.15D-07 MaxDP=4.69D-06 DE=-3.85D-09 OVMax= 7.67D-06

 Cycle  12  Pass 1  IDiag  1:
 RMSU=  5.76D-08    CP:  9.89D-01  1.69D+00  6.72D-01  8.32D-01  7.50D-01
                    CP:  7.92D-01  8.65D-01  9.52D-01  7.17D-01  8.84D-01
                    CP:  6.96D-01
 E= -768.321589986807     Delta-E=       -0.000000000570 Rises=F Damp=F
 DIIS: error= 1.77D-07 at cycle  12 NSaved=  12.
 NSaved=12 IEnMin=12 EnMin= -768.321589986807     IErMin=12 ErrMin= 1.77D-07
 ErrMax= 1.77D-07  0.00D+00 EMaxC= 1.00D-01 BMatC= 3.57D-11 BMatP= 6.34D-10
 IDIUse=1 WtCom= 1.00D+00 WtEn= 0.00D+00
 Coeff-Com:  0.202D-05 0.766D-06-0.180D-05-0.785D-04-0.268D-03-0.701D-03
 Coeff-Com: -0.137D-02-0.381D-02 0.868D-02 0.801D-01 0.246D+00 0.671D+00
 Coeff:      0.202D-05 0.766D-06-0.180D-05-0.785D-04-0.268D-03-0.701D-03
 Coeff:     -0.137D-02-0.381D-02 0.868D-02 0.801D-01 0.246D+00 0.671D+00
 Gap=     0.132 Goal=   None    Shift=    0.000
 RMSDP=2.95D-08 MaxDP=8.37D-07 DE=-5.70D-10 OVMax= 2.38D-06

 Cycle  13  Pass 1  IDiag  1:
 RMSU=  1.91D-08    CP:  9.89D-01  1.69D+00  6.72D-01  8.32D-01  7.50D-01
                    CP:  7.92D-01  8.65D-01  9.53D-01  7.21D-01  8.98D-01
                    CP:  7.48D-01  8.51D-01
 E= -768.321589986823     Delta-E=       -0.000000000016 Rises=F Damp=F
 DIIS: error= 7.73D-08 at cycle  13 NSaved=  13.
 NSaved=13 IEnMin=13 EnMin= -768.321589986823     IErMin=13 ErrMin= 7.73D-08
 ErrMax= 7.73D-08  0.00D+00 EMaxC= 1.00D-01 BMatC= 5.03D-12 BMatP= 3.57D-11
 IDIUse=1 WtCom= 1.00D+00 WtEn= 0.00D+00
 Coeff-Com: -0.132D-05 0.273D-05 0.627D-05 0.583D-05-0.164D-04-0.869D-04
 Coeff-Com: -0.727D-03-0.352D-02-0.912D-03 0.112D-01 0.790D-01 0.353D+00
 Coeff-Com:  0.562D+00
 Coeff:     -0.132D-05 0.273D-05 0.627D-05 0.583D-05-0.164D-04-0.869D-04
 Coeff:     -0.727D-03-0.352D-02-0.912D-03 0.112D-01 0.790D-01 0.353D+00
 Coeff:      0.562D+00
 Gap=     0.132 Goal=   None    Shift=    0.000
 RMSDP=9.71D-09 MaxDP=3.31D-07 DE=-1.59D-11 OVMax= 5.77D-07

 Error on total polarization charges =  0.01246
 SCF Done:  E(RB3LYP) =  -768.321589987     A.U. after   13 cycles
            NFock= 13  Conv=0.97D-08     -V/T= 2.0091
 KE= 7.613796338046D+02 PE=-4.116336841115D+03 EE= 1.415962909471D+03
 Leave Link  502 at Fri May 24 08:32:30 2019, MaxMem=   402653184 cpu:             513.7 elap:             128.5
 (Enter /n/sw/g16_nehalem/g16/l601.exe)
 Copying SCF densities to generalized density rwf, IOpCl= 0 IROHF=0.

 **********************************************************************

            Population analysis using the SCF density.

 **********************************************************************

 Orbital symmetries:
       Occupied  (A) (A) (A) (A) (A) (A) (A) (A) (A) (A) (A) (A)
                 (A) (A) (A) (A) (A) (A) (A) (A) (A) (A) (A) (A)
                 (A) (A) (A) (A) (A) (A) (A) (A) (A) (A) (A) (A)
                 (A) (A) (A) (A) (A) (A) (A) (A) (A) (A) (A) (A)
                 (A) (A) (A) (A) (A) (A) (A) (A) (A) (A) (A)
       Virtual   (A) (A) (A) (A) (A) (A) (A) (A) (A) (A) (A) (A)
                 (A) (A) (A) (A) (A) (A) (A) (A) (A) (A) (A) (A)
                 (A) (A) (A) (A) (A) (A) (A) (A) (A) (A) (A) (A)
                 (A) (A) (A) (A) (A) (A) (A) (A) (A) (A) (A) (A)
                 (A) (A) (A) (A) (A) (A) (A) (A) (A) (A) (A) (A)
                 (A) (A) (A) (A) (A) (A) (A) (A) (A) (A) (A) (A)
                 (A) (A) (A) (A) (A) (A) (A) (A) (A) (A) (A) (A)
                 (A) (A) (A) (A) (A) (A) (A) (A) (A) (A) (A) (A)
                 (A) (A) (A) (A) (A) (A) (A) (A) (A) (A) (A) (A)
                 (A) (A) (A) (A) (A) (A) (A) (A) (A) (A) (A) (A)
                 (A) (A) (A) (A) (A) (A) (A) (A) (A) (A) (A) (A)
                 (A) (A) (A) (A) (A) (A) (A) (A) (A) (A) (A) (A)
                 (A) (A) (A) (A) (A) (A) (A) (A) (A) (A) (A) (A)
                 (A) (A) (A) (A) (A) (A) (A) (A) (A) (A) (A) (A)
                 (A) (A) (A) (A) (A) (A) (A) (A) (A) (A) (A) (A)
                 (A) (A) (A) (A) (A) (A) (A) (A) (A) (A) (A) (A)
                 (A) (A) (A) (A) (A) (A) (A) (A) (A) (A) (A) (A)
 The electronic state is 1-A.
 Alpha  occ. eigenvalues --  -19.32938 -19.22870 -19.19492 -19.19015 -19.18712
 Alpha  occ. eigenvalues --  -10.39502 -10.31850 -10.31619 -10.29388 -10.28972
 Alpha  occ. eigenvalues --  -10.27933 -10.26838 -10.25262 -10.24966 -10.24924
 Alpha  occ. eigenvalues --   -1.21524  -1.10466  -1.07824  -1.07020  -1.06487
 Alpha  occ. eigenvalues --   -0.86797  -0.85331  -0.77113  -0.75610  -0.74186
 Alpha  occ. eigenvalues --   -0.71494  -0.69004  -0.68461  -0.66451  -0.61697
 Alpha  occ. eigenvalues --   -0.59430  -0.58150  -0.57140  -0.54385  -0.53627
 Alpha  occ. eigenvalues --   -0.52852  -0.51295  -0.50984  -0.50541  -0.48983
 Alpha  occ. eigenvalues --   -0.48457  -0.47890  -0.47021  -0.46199  -0.46017
 Alpha  occ. eigenvalues --   -0.44626  -0.43032  -0.42302  -0.41355  -0.40946
 Alpha  occ. eigenvalues --   -0.39702  -0.37971  -0.36565  -0.35420  -0.34205
 Alpha  occ. eigenvalues --   -0.32877  -0.31364  -0.29466  -0.28138
 Alpha virt. eigenvalues --   -0.14971   0.00398   0.02902   0.04835   0.06247
 Alpha virt. eigenvalues --    0.07331   0.07672   0.09027   0.09932   0.10723
 Alpha virt. eigenvalues --    0.11352   0.11555   0.11836   0.12396   0.13071
 Alpha virt. eigenvalues --    0.13390   0.13921   0.14033   0.14595   0.14659
 Alpha virt. eigenvalues --    0.15378   0.15621   0.16596   0.17360   0.17852
 Alpha virt. eigenvalues --    0.18650   0.19978   0.21195   0.21618   0.22135
 Alpha virt. eigenvalues --    0.23896   0.25009   0.26531   0.28598   0.30491
 Alpha virt. eigenvalues --    0.42315   0.45659   0.46253   0.47127   0.47333
 Alpha virt. eigenvalues --    0.48682   0.49392   0.50278   0.50533   0.52007
 Alpha virt. eigenvalues --    0.52515   0.53076   0.54071   0.55114   0.55540
 Alpha virt. eigenvalues --    0.56794   0.57908   0.58639   0.59452   0.61701
 Alpha virt. eigenvalues --    0.63300   0.65016   0.66736   0.67284   0.69084
 Alpha virt. eigenvalues --    0.71631   0.75374   0.76632   0.78240   0.79345
 Alpha virt. eigenvalues --    0.79686   0.80700   0.81058   0.81349   0.82244
 Alpha virt. eigenvalues --    0.82843   0.83301   0.83880   0.84635   0.85719
 Alpha virt. eigenvalues --    0.86351   0.86596   0.88478   0.89169   0.89619
 Alpha virt. eigenvalues --    0.90774   0.91345   0.92661   0.93665   0.93836
 Alpha virt. eigenvalues --    0.94768   0.96465   0.96986   0.99873   1.02358
 Alpha virt. eigenvalues --    1.04091   1.06740   1.07630   1.10287   1.12209
 Alpha virt. eigenvalues --    1.12435   1.14700   1.16658   1.19467   1.22222
 Alpha virt. eigenvalues --    1.24105   1.27114   1.29525   1.31034   1.31351
 Alpha virt. eigenvalues --    1.33013   1.36057   1.38006   1.39127   1.42860
 Alpha virt. eigenvalues --    1.45374   1.46092   1.46413   1.48752   1.51383
 Alpha virt. eigenvalues --    1.52175   1.53606   1.56820   1.58344   1.59295
 Alpha virt. eigenvalues --    1.63204   1.63589   1.65756   1.67969   1.68619
 Alpha virt. eigenvalues --    1.71978   1.73753   1.76748   1.79221   1.80070
 Alpha virt. eigenvalues --    1.81906   1.84835   1.85726   1.87227   1.88032
 Alpha virt. eigenvalues --    1.90451   1.92374   1.95622   1.96793   1.99137
 Alpha virt. eigenvalues --    2.00313   2.01920   2.02525   2.04167   2.04998
 Alpha virt. eigenvalues --    2.06282   2.07141   2.09197   2.09633   2.10267
 Alpha virt. eigenvalues --    2.11197   2.12004   2.13881   2.14409   2.16291
 Alpha virt. eigenvalues --    2.20040   2.21383   2.21900   2.22949   2.24559
 Alpha virt. eigenvalues --    2.26758   2.28538   2.31690   2.35425   2.37026
 Alpha virt. eigenvalues --    2.38677   2.38730   2.40754   2.43052   2.45998
 Alpha virt. eigenvalues --    2.48463   2.51710   2.53309   2.56610   2.58885
 Alpha virt. eigenvalues --    2.63299   2.66553   2.71366   2.73196   2.75412
 Alpha virt. eigenvalues --    2.76149   2.78131   2.83278   2.88115   2.90767
 Alpha virt. eigenvalues --    2.93276   2.98665   3.01602   3.05283   3.81685
 Alpha virt. eigenvalues --    3.89605   3.91722   3.96895   4.08949   4.14068
 Alpha virt. eigenvalues --    4.21039   4.23247   4.24898   4.26979   4.28583
 Alpha virt. eigenvalues --    4.33557   4.55162   4.63756   4.66852
          Condensed to atoms (all electrons):
               1          2          3          4          5          6
     1  C    5.074122   0.300027  -0.036403  -0.029865   0.246693   0.002935
     2  C    0.300027   5.086536   0.299318  -0.023753  -0.016978  -0.041641
     3  C   -0.036403   0.299318   4.761367  -0.029163  -0.013747   0.365984
     4  C   -0.029865  -0.023753  -0.029163   5.237378   0.277343   0.002791
     5  C    0.246693  -0.016978  -0.013747   0.277343   5.026550  -0.000216
     6  H    0.002935  -0.041641   0.365984   0.002791  -0.000216   0.431901
     7  H   -0.034678   0.344556  -0.033584   0.000257   0.004142  -0.001323
     8  H    0.366999  -0.045352   0.003873   0.005340  -0.051954  -0.000105
     9  H    0.004466  -0.000035   0.002365   0.376181  -0.043042  -0.000092
    10  H   -0.040459   0.004484  -0.000003  -0.051500   0.376435   0.000014
    11  O   -0.008350  -0.024996   0.400721   0.100105  -0.019846  -0.036627
    12  O   -0.034514   0.155146  -0.024204   0.000004   0.002239  -0.000111
    13  O    0.171680  -0.042699   0.004187   0.001081  -0.036737  -0.000067
    14  O   -0.039399   0.002937  -0.000181  -0.040061   0.242387  -0.000003
    15  C   -0.001413   0.000076  -0.000565   0.291182  -0.026445  -0.000078
    16  H   -0.000258   0.000086   0.000442  -0.048003   0.004338  -0.000021
    17  H    0.000552  -0.001050   0.003537  -0.043653  -0.010087   0.000011
    18  O    0.000232  -0.000001   0.000000  -0.045318  -0.007310   0.000001
    19  C    0.003042  -0.026644  -0.000042  -0.000005  -0.000182   0.001732
    20  H    0.000298  -0.006184   0.000036   0.000000  -0.000011   0.000006
    21  H   -0.000163   0.005062  -0.000245   0.000000   0.000008  -0.000066
    22  H   -0.000147  -0.005499   0.000857   0.000002   0.000000   0.000630
    23  C   -0.033507   0.004988  -0.000240   0.000120  -0.004141   0.000003
    24  H   -0.008321   0.000126  -0.000003   0.000000  -0.001123   0.000000
    25  H    0.004665  -0.000175   0.000010  -0.000008   0.000039   0.000000
    26  H   -0.004475  -0.000109   0.000005   0.000125   0.003336   0.000000
    27  C   -0.005009   0.001851   0.001240  -0.005877  -0.044115   0.000059
    28  H   -0.000113  -0.000014  -0.000004  -0.000171   0.004411   0.000000
    29  H   -0.000703  -0.000197   0.000096   0.010116  -0.009668  -0.000047
    30  H    0.004500  -0.004807   0.000421  -0.001397  -0.000639  -0.000018
    31  C    0.000003  -0.000001   0.000008  -0.003887  -0.000254   0.000000
    32  H    0.000000   0.000000   0.000000  -0.000093   0.000001   0.000000
    33  H    0.000000   0.000000   0.000002  -0.001021  -0.000002   0.000000
    34  H   -0.000004   0.000000  -0.000003   0.003162   0.000568   0.000000
               7          8          9         10         11         12
     1  C   -0.034678   0.366999   0.004466  -0.040459  -0.008350  -0.034514
     2  C    0.344556  -0.045352  -0.000035   0.004484  -0.024996   0.155146
     3  C   -0.033584   0.003873   0.002365  -0.000003   0.400721  -0.024204
     4  C    0.000257   0.005340   0.376181  -0.051500   0.100105   0.000004
     5  C    0.004142  -0.051954  -0.043042   0.376435  -0.019846   0.002239
     6  H   -0.001323  -0.000105  -0.000092   0.000014  -0.036627  -0.000111
     7  H    0.488368  -0.000702   0.000014  -0.000132   0.001416  -0.018943
     8  H   -0.000702   0.538181  -0.000130  -0.002920  -0.000010   0.004123
     9  H    0.000014  -0.000130   0.482304  -0.000119  -0.029988   0.000007
    10  H   -0.000132  -0.002920  -0.000119   0.513921   0.002813  -0.000039
    11  O    0.001416  -0.000010  -0.029988   0.002813   7.945356  -0.000657
    12  O   -0.018943   0.004123   0.000007  -0.000039  -0.000657   8.245085
    13  O    0.009020  -0.024351  -0.000115  -0.002998  -0.000275   0.001333
    14  O   -0.000081   0.005935   0.001601  -0.033603   0.000293   0.000145
    15  C   -0.000001  -0.000058  -0.031056  -0.006387  -0.023055   0.000005
    16  H   -0.000014   0.000007  -0.005714   0.000722   0.003100   0.000000
    17  H    0.000078   0.000175   0.003854   0.000352   0.000614   0.000010
    18  O    0.000000  -0.000008  -0.000640   0.018118   0.001127   0.000000
    19  C   -0.006226   0.000365   0.000000   0.000002   0.000028   0.213394
    20  H    0.005992   0.000044   0.000000   0.000000  -0.000003  -0.032631
    21  H    0.000109  -0.000065   0.000000   0.000000   0.000002  -0.029122
    22  H    0.000714   0.000043   0.000000   0.000000   0.000006  -0.031284
    23  C    0.000242  -0.005755  -0.000007   0.003247   0.000003  -0.000075
    24  H   -0.000086   0.010376   0.000000   0.000070   0.000000  -0.000009
    25  H   -0.000104   0.000008   0.000000  -0.000244   0.000000   0.000001
    26  H    0.000089  -0.001215   0.000010   0.004844  -0.000001   0.000003
    27  C   -0.000055  -0.000229  -0.000081   0.005128   0.000408  -0.008100
    28  H    0.000001  -0.000056  -0.000208  -0.000142   0.000060   0.000167
    29  H   -0.000012   0.000211  -0.000211  -0.000120  -0.000187   0.000196
    30  H    0.000349   0.000199   0.000446  -0.000251  -0.000025   0.016994
    31  C    0.000000   0.000000   0.003291  -0.000195   0.000008   0.000000
    32  H    0.000000   0.000000  -0.000119  -0.000050   0.000001   0.000000
    33  H    0.000000   0.000000  -0.000042   0.000097   0.000013   0.000000
    34  H    0.000000   0.000000   0.002218  -0.000271  -0.000135   0.000000
              13         14         15         16         17         18
     1  C    0.171680  -0.039399  -0.001413  -0.000258   0.000552   0.000232
     2  C   -0.042699   0.002937   0.000076   0.000086  -0.001050  -0.000001
     3  C    0.004187  -0.000181  -0.000565   0.000442   0.003537   0.000000
     4  C    0.001081  -0.040061   0.291182  -0.048003  -0.043653  -0.045318
     5  C   -0.036737   0.242387  -0.026445   0.004338  -0.010087  -0.007310
     6  H   -0.000067  -0.000003  -0.000078  -0.000021   0.000011   0.000001
     7  H    0.009020  -0.000081  -0.000001  -0.000014   0.000078   0.000000
     8  H   -0.024351   0.005935  -0.000058   0.000007   0.000175  -0.000008
     9  H   -0.000115   0.001601  -0.031056  -0.005714   0.003854  -0.000640
    10  H   -0.002998  -0.033603  -0.006387   0.000722   0.000352   0.018118
    11  O   -0.000275   0.000293  -0.023055   0.003100   0.000614   0.001127
    12  O    0.001333   0.000145   0.000005   0.000000   0.000010   0.000000
    13  O    8.265785   0.001551  -0.004404   0.000239   0.016578  -0.000155
    14  O    0.001551   8.204000   0.002207  -0.000053   0.000019   0.000001
    15  C   -0.004404   0.002207   4.920633   0.356112   0.372727   0.250973
    16  H    0.000239  -0.000053   0.356112   0.565179  -0.029429  -0.027384
    17  H    0.016578   0.000019   0.372727  -0.029429   0.518929  -0.032244
    18  O   -0.000155   0.000001   0.250973  -0.027384  -0.032244   8.168157
    19  C   -0.000088   0.000002   0.000000   0.000000   0.000000   0.000000
    20  H   -0.000063   0.000000   0.000000   0.000000   0.000000   0.000000
    21  H    0.000000  -0.000001   0.000000   0.000000   0.000000   0.000000
    22  H    0.000009   0.000000   0.000000   0.000000   0.000000   0.000000
    23  C    0.233136   0.000027   0.000440  -0.000005  -0.000732   0.000018
    24  H   -0.034641   0.000029  -0.000008   0.000000   0.000087   0.000001
    25  H   -0.030529   0.000001   0.000059   0.000000  -0.000135  -0.000014
    26  H   -0.036347  -0.000337  -0.000279  -0.000007  -0.000055   0.000198
    27  C    0.000027   0.238081   0.000318  -0.000003   0.000000  -0.000003
    28  H    0.000001  -0.031950   0.000002   0.000000   0.000000   0.000000
    29  H    0.000004  -0.037267  -0.000079   0.000026  -0.000002   0.000001
    30  H   -0.000048  -0.036943  -0.000004  -0.000001   0.000001   0.000000
    31  C   -0.000005  -0.000016  -0.044286  -0.008531   0.005244   0.239013
    32  H    0.000000   0.000000   0.005262  -0.000049  -0.000177  -0.031021
    33  H    0.000000   0.000000  -0.009818   0.010784   0.000221  -0.034090
    34  H    0.000000  -0.000003  -0.003271  -0.000651  -0.000342  -0.037404
              19         20         21         22         23         24
     1  C    0.003042   0.000298  -0.000163  -0.000147  -0.033507  -0.008321
     2  C   -0.026644  -0.006184   0.005062  -0.005499   0.004988   0.000126
     3  C   -0.000042   0.000036  -0.000245   0.000857  -0.000240  -0.000003
     4  C   -0.000005   0.000000   0.000000   0.000002   0.000120   0.000000
     5  C   -0.000182  -0.000011   0.000008   0.000000  -0.004141  -0.001123
     6  H    0.001732   0.000006  -0.000066   0.000630   0.000003   0.000000
     7  H   -0.006226   0.005992   0.000109   0.000714   0.000242  -0.000086
     8  H    0.000365   0.000044  -0.000065   0.000043  -0.005755   0.010376
     9  H    0.000000   0.000000   0.000000   0.000000  -0.000007   0.000000
    10  H    0.000002   0.000000   0.000000   0.000000   0.003247   0.000070
    11  O    0.000028  -0.000003   0.000002   0.000006   0.000003   0.000000
    12  O    0.213394  -0.032631  -0.029122  -0.031284  -0.000075  -0.000009
    13  O   -0.000088  -0.000063   0.000000   0.000009   0.233136  -0.034641
    14  O    0.000002   0.000000  -0.000001   0.000000   0.000027   0.000029
    15  C    0.000000   0.000000   0.000000   0.000000   0.000440  -0.000008
    16  H    0.000000   0.000000   0.000000   0.000000  -0.000005   0.000000
    17  H    0.000000   0.000000   0.000000   0.000000  -0.000732   0.000087
    18  O    0.000000   0.000000   0.000000   0.000000   0.000018   0.000001
    19  C    4.921692   0.372776   0.384340   0.369831   0.000003   0.000002
    20  H    0.372776   0.536140  -0.025979  -0.038659   0.000004   0.000008
    21  H    0.384340  -0.025979   0.490457  -0.028220   0.000000   0.000000
    22  H    0.369831  -0.038659  -0.028220   0.549848   0.000000   0.000000
    23  C    0.000003   0.000004   0.000000   0.000000   4.906020   0.370613
    24  H    0.000002   0.000008   0.000000   0.000000   0.370613   0.567094
    25  H    0.000000   0.000000   0.000000   0.000000   0.385917  -0.027892
    26  H    0.000000   0.000000   0.000000   0.000000   0.364585  -0.043188
    27  C    0.000276  -0.000013   0.000036  -0.000013  -0.000002   0.000002
    28  H   -0.000005   0.000000  -0.000001   0.000000   0.000000   0.000000
    29  H   -0.000007   0.000000  -0.000002   0.000001   0.000000   0.000000
    30  H   -0.000407   0.000042  -0.000076   0.000060   0.000000  -0.000001
    31  C    0.000000   0.000000   0.000000   0.000000   0.000001   0.000000
    32  H    0.000000   0.000000   0.000000   0.000000   0.000000   0.000000
    33  H    0.000000   0.000000   0.000000   0.000000   0.000000   0.000000
    34  H    0.000000   0.000000   0.000000   0.000000   0.000000   0.000000
              25         26         27         28         29         30
     1  C    0.004665  -0.004475  -0.005009  -0.000113  -0.000703   0.004500
     2  C   -0.000175  -0.000109   0.001851  -0.000014  -0.000197  -0.004807
     3  C    0.000010   0.000005   0.001240  -0.000004   0.000096   0.000421
     4  C   -0.000008   0.000125  -0.005877  -0.000171   0.010116  -0.001397
     5  C    0.000039   0.003336  -0.044115   0.004411  -0.009668  -0.000639
     6  H    0.000000   0.000000   0.000059   0.000000  -0.000047  -0.000018
     7  H   -0.000104   0.000089  -0.000055   0.000001  -0.000012   0.000349
     8  H    0.000008  -0.001215  -0.000229  -0.000056   0.000211   0.000199
     9  H    0.000000   0.000010  -0.000081  -0.000208  -0.000211   0.000446
    10  H   -0.000244   0.004844   0.005128  -0.000142  -0.000120  -0.000251
    11  O    0.000000  -0.000001   0.000408   0.000060  -0.000187  -0.000025
    12  O    0.000001   0.000003  -0.008100   0.000167   0.000196   0.016994
    13  O   -0.030529  -0.036347   0.000027   0.000001   0.000004  -0.000048
    14  O    0.000001  -0.000337   0.238081  -0.031950  -0.037267  -0.036943
    15  C    0.000059  -0.000279   0.000318   0.000002  -0.000079  -0.000004
    16  H    0.000000  -0.000007  -0.000003   0.000000   0.000026  -0.000001
    17  H   -0.000135  -0.000055   0.000000   0.000000  -0.000002   0.000001
    18  O   -0.000014   0.000198  -0.000003   0.000000   0.000001   0.000000
    19  C    0.000000   0.000000   0.000276  -0.000005  -0.000007  -0.000407
    20  H    0.000000   0.000000  -0.000013   0.000000   0.000000   0.000042
    21  H    0.000000   0.000000   0.000036  -0.000001  -0.000002  -0.000076
    22  H    0.000000   0.000000  -0.000013   0.000000   0.000001   0.000060
    23  C    0.385917   0.364585  -0.000002   0.000000   0.000000   0.000000
    24  H   -0.027892  -0.043188   0.000002   0.000000   0.000000  -0.000001
    25  H    0.511566  -0.030407   0.000000   0.000000   0.000000   0.000000
    26  H   -0.030407   0.575707   0.000001   0.000000   0.000000   0.000001
    27  C    0.000000   0.000001   4.976059   0.385244   0.360194   0.355999
    28  H    0.000000   0.000000   0.385244   0.510765  -0.029506  -0.026657
    29  H    0.000000   0.000000   0.360194  -0.029506   0.599891  -0.045629
    30  H    0.000000   0.000001   0.355999  -0.026657  -0.045629   0.557769
    31  C    0.000000  -0.000002  -0.000001   0.000000  -0.000001   0.000000
    32  H    0.000000  -0.000001   0.000000   0.000000   0.000000   0.000000
    33  H    0.000000   0.000000   0.000000   0.000000   0.000000   0.000000
    34  H    0.000000   0.000001   0.000001   0.000000  -0.000006   0.000000
              31         32         33         34
     1  C    0.000003   0.000000   0.000000  -0.000004
     2  C   -0.000001   0.000000   0.000000   0.000000
     3  C    0.000008   0.000000   0.000002  -0.000003
     4  C   -0.003887  -0.000093  -0.001021   0.003162
     5  C   -0.000254   0.000001  -0.000002   0.000568
     6  H    0.000000   0.000000   0.000000   0.000000
     7  H    0.000000   0.000000   0.000000   0.000000
     8  H    0.000000   0.000000   0.000000   0.000000
     9  H    0.003291  -0.000119  -0.000042   0.002218
    10  H   -0.000195  -0.000050   0.000097  -0.000271
    11  O    0.000008   0.000001   0.000013  -0.000135
    12  O    0.000000   0.000000   0.000000   0.000000
    13  O   -0.000005   0.000000   0.000000   0.000000
    14  O   -0.000016   0.000000   0.000000  -0.000003
    15  C   -0.044286   0.005262  -0.009818  -0.003271
    16  H   -0.008531  -0.000049   0.010784  -0.000651
    17  H    0.005244  -0.000177   0.000221  -0.000342
    18  O    0.239013  -0.031021  -0.034090  -0.037404
    19  C    0.000000   0.000000   0.000000   0.000000
    20  H    0.000000   0.000000   0.000000   0.000000
    21  H    0.000000   0.000000   0.000000   0.000000
    22  H    0.000000   0.000000   0.000000   0.000000
    23  C    0.000001   0.000000   0.000000   0.000000
    24  H    0.000000   0.000000   0.000000   0.000000
    25  H    0.000000   0.000000   0.000000   0.000000
    26  H   -0.000002  -0.000001   0.000000   0.000001
    27  C   -0.000001   0.000000   0.000000   0.000001
    28  H    0.000000   0.000000   0.000000   0.000000
    29  H   -0.000001   0.000000   0.000000  -0.000006
    30  H    0.000000   0.000000   0.000000   0.000000
    31  C    4.914973   0.386965   0.369664   0.363970
    32  H    0.386965   0.513062  -0.028119  -0.031328
    33  H    0.369664  -0.028119   0.572561  -0.044518
    34  H    0.363970  -0.031328  -0.044518   0.589032
 Mulliken charges:
               1
     1  C    0.097567
     2  C    0.034942
     3  C    0.293922
     4  C    0.018589
     5  C    0.098005
     6  H    0.274346
     7  H    0.240596
     8  H    0.197030
     9  H    0.234844
    10  H    0.209186
    11  O   -0.311918
    12  O   -0.459165
    13  O   -0.491111
    14  O   -0.479320
    15  C   -0.048787
    16  H    0.179087
    17  H    0.194917
    18  O   -0.462248
    19  C   -0.233880
    20  H    0.188195
    21  H    0.203924
    22  H    0.181820
    23  C   -0.224901
    24  H    0.166864
    25  H    0.187240
    26  H    0.167517
    27  C   -0.261424
    28  H    0.188177
    29  H    0.152906
    30  H    0.180120
    31  C   -0.225959
    32  H    0.185666
    33  H    0.164266
    34  H    0.158983
 Sum of Mulliken charges =   1.00000
 Mulliken charges with hydrogens summed into heavy atoms:
               1
     1  C    0.294597
     2  C    0.275538
     3  C    0.568268
     4  C    0.253433
     5  C    0.307191
    11  O   -0.311918
    12  O   -0.459165
    13  O   -0.491111
    14  O   -0.479320
    15  C    0.325218
    18  O   -0.462248
    19  C    0.340060
    23  C    0.296721
    27  C    0.259780
    31  C    0.282956
 Electronic spatial extent (au):  <R**2>=           3399.7260
 Charge=              1.0000 electrons
 Dipole moment (field-independent basis, Debye):
    X=              3.8631    Y=             -1.7498    Z=             -4.5633  Tot=              6.2297
 Quadrupole moment (field-independent basis, Debye-Ang):
   XX=            -54.0591   YY=            -75.2330   ZZ=            -79.2706
   XY=              4.1543   XZ=             -5.3826   YZ=              5.1714
 Traceless Quadrupole moment (field-independent basis, Debye-Ang):
   XX=             15.4618   YY=             -5.7121   ZZ=             -9.7497
   XY=              4.1543   XZ=             -5.3826   YZ=              5.1714
 Octapole moment (field-independent basis, Debye-Ang**2):
[...]
 00004414,-0.00001753,0.00001791,-0.00013855,0.00005135,-0.00011595,-0.
 00006161,0.00002595,0.00011700,0.00000515,0.00002345,0.00004679,0.0000
 1553,-0.00000254,0.00000068,0.00000304,0.00000622,-0.00001001,-0.00002
 057,-0.00001310,0.00001205,-0.00004166,0.00014604,0.00011835,-0.000002
 35,-0.00001094,-0.00002494,0.00000281,-0.00002923,-0.00000099,-0.00000
 723,0.00001659,-0.00001999,-0.06702212,-0.15201179,-0.10029669,0.00509
 935,0.01143173,0.00833004,0.06475661,0.17389129,0.00029653,0.00012850,
 0.00003949,-0.00007532,0.00001014,-0.00017253,-0.00009772,0.00113430,-
 0.00097650,-0.00003133,-0.00087340,0.00051641,0.00048673,0.00251463,-0
 .00046071,0.00002127,-0.00002796,0.00007237,0.00001567,-0.00000182,0.0
 0001402,0.00005711,0.00004988,-0.00003258,-0.00002267,0.00039369,-0.00
 032388,0.00006083,-0.00015691,0.00014074,0.00011204,0.00019304,-0.0002
 2299,-0.00027784,-0.00020335,0.00010726,-0.00003520,-0.00035916,0.0001
 0188,0.00428087,-0.00747943,0.00133412,0.00001559,0.00056476,0.0003108
 8,0.00013676,-0.00010071,0.00010696,-0.00010200,0.00001865,-0.00004437
 ,0.00018575,0.00001957,-0.00003642,0.00014667,0.00001713,-0.00005319,-
 0.00002015,-0.00000928,0.00000623,-0.00002204,-0.00000619,0.00000275,-
 0.00000886,-0.00000499,0.00001720,-0.00003568,0.00011854,0.00010800,-0
 .00000440,-0.00001502,-0.00002274,0.00000124,-0.00002847,-0.00000096,-
 0.00001322,0.00001567,-0.00001331,-0.06680908,-0.10215901,-0.15982607,
 -0.01325904,-0.01935778,-0.01757626,0.07118974,0.11837499,0.16921158,-
 0.00026280,0.00063174,-0.00073451,0.00021852,0.00074168,-0.00052005,-0
 .00011958,0.00026700,-0.00090044,-0.00067925,0.00052954,0.00016739,0.0
 0085539,-0.00248578,0.00286390,0.00002941,-0.00000844,-0.00000139,-0.0
 0021032,0.00011613,-0.00024493,-0.00005317,-0.00006612,0.00019859,0.00
 012864,0.00000727,0.00010897,0.00006568,0.00035022,-0.00033062,0.00042
 586,-0.00002552,-0.00012345,-0.00280578,-0.00219920,0.00277660,0.00027
 691,0.00027221,-0.00020874,-0.02218744,0.00922129,0.00622041,0.0000148
 8,-0.00013047,-0.00017956,-0.00007077,0.00003189,-0.00005338,0.0000097
 7,0.00000896,0.00000980,-0.00001674,-0.00005546,-0.00003371,0.00005450
 ,-0.00057546,0.00028338,-0.00019329,-0.00001634,0.00006579,0.00001979,
 0.00005346,-0.00004528,-0.00008253,-0.00000625,0.00002129,0.00000055,-
 0.00006149,-0.00000159,0.00000515,0.00002081,0.00000718,0.00000672,0.0
 0000997,-0.00000828,0.00002639,-0.00001357,-0.00000689,-0.26419608,-0.
 07679034,0.06563804,0.00526147,-0.00005754,-0.00078025,-0.00882527,-0.
 00580386,0.00388968,0.29227149,-0.00061303,0.00044521,0.00054999,0.000
 37414,-0.00083170,0.00067433,0.00063019,0.00028628,-0.00010128,-0.0000
 8466,-0.00080764,0.00029151,0.00016049,0.00443587,-0.00343688,-0.00000
 271,-0.00000708,0.00001568,-0.00026861,0.00015173,-0.00003783,-0.00023
 912,-0.00039518,-0.00008056,0.00003559,-0.00000590,-0.00009351,-0.0001
 5585,-0.00032953,0.00026528,-0.00006368,-0.00027380,0.00026840,-0.0010
 1585,-0.00130021,0.00132826,0.00001693,0.00012272,-0.00015898,0.038104
 60,0.00103191,-0.01084944,0.00007930,0.00023552,0.00018348,0.00008652,
 -0.00004692,0.00004365,-0.00002971,0.00002603,-0.00002377,0.00005111,0
 .00002984,0.00002012,-0.00077135,-0.00030513,-0.00009519,-0.00000579,0
 .00006454,-0.00002741,0.00002841,0.00001119,-0.00000327,0.00017920,0.0
 0006943,-0.00012556,0.00007020,0.00000221,-0.00004212,-0.00001619,-0.0
 0000270,0.00000169,-0.00000667,0.00000492,0.00001473,-0.00002774,-0.00
 000005,0.00001495,-0.08239557,-0.08279135,0.02802781,-0.01191673,-0.00
 287187,0.00213844,-0.01818134,-0.00431240,0.00729986,0.07601248,0.0873
 9772,0.00066790,-0.00003414,0.00039411,-0.00100120,0.00056055,-0.00056
 183,-0.00058740,0.00023887,-0.00129674,-0.00047188,-0.00037122,0.00007
 012,-0.00130948,-0.00062590,0.00039234,0.00001791,0.00000895,-0.000034
 58,0.00031625,-0.00019171,0.00014912,0.00006238,-0.00004510,0.00000725
 ,0.00011012,0.00000409,-0.00001617,0.00006612,-0.00000563,-0.00000741,
 0.00002421,0.00000417,0.00027366,0.00103433,0.00147794,-0.00132857,-0.
 00001789,-0.00059074,-0.00000519,0.00440904,-0.00139544,0.00171111,-0.
 00003995,0.00020725,-0.00008690,0.00000734,-0.00000871,0.00003344,-0.0
 0004957,0.00001281,-0.00003028,0.00015508,-0.00001834,0.00000202,0.001
 21469,0.00010249,-0.00013154,-0.00013399,-0.00015423,0.00011048,-0.000
 06799,0.00001979,0.00001948,-0.00015290,-0.00006558,0.00010810,-0.0000
 5916,0.00013066,0.00018166,-0.00000937,-0.00003326,-0.00002861,0.00000
 650,-0.00004227,-0.00002167,0.00000378,-0.00000084,-0.00002519,0.06817
 417,0.02488278,-0.07733024,0.02677563,0.00970048,-0.00618356,-0.021027
 36,-0.00765739,0.00764878,-0.07807131,-0.02607689,0.07597577,-0.000187
 56,-0.00061266,0.00018137,-0.00011613,-0.00030461,-0.00016797,-0.00144
 957,-0.00054701,-0.00080040,-0.00182547,-0.00031008,0.00023602,-0.0002
 1600,0.00025370,-0.00141625,0.00003495,0.00042340,-0.00025956,0.000087
 39,-0.00003141,0.00006544,0.00016221,0.00014445,0.00003075,-0.00047073
 ,0.00031255,-0.00038326,-0.00088454,-0.00059054,-0.00081892,0.00327412
 ,-0.00057933,0.00118774,0.00101975,0.00024496,0.00031418,0.00021034,0.
 00072083,0.00033660,0.00073588,-0.00062447,0.00097285,-0.04269046,-0.0
 1839302,0.00897886,0.00515348,-0.00187897,-0.00290583,0.00001237,0.001
 28000,-0.00075614,-0.14285682,-0.05499640,0.01850376,-0.00055644,-0.00
 007065,0.00026550,0.00011806,0.00002769,-0.00003158,0.00009871,0.00002
 628,-0.00000836,0.00002579,0.00001655,-0.00005851,-0.00000466,-0.00054
 540,-0.00033212,0.00007649,0.00007158,0.00008711,-0.00001989,0.0000551
 5,-0.00000146,0.00001327,-0.00002875,-0.00005038,-0.00040034,0.0004451
 4,0.00010768,0.00006170,-0.00008589,0.00007892,0.00004535,0.00001704,-
 0.00010449,0.00003201,-0.00004081,-0.00006579,0.52583104,-0.00034874,-
 0.00043526,0.00000622,-0.00015310,-0.00012411,-0.00011773,-0.00175460,
 -0.00111555,-0.00026585,0.00050061,0.00316050,-0.00316978,0.00002709,0
 .00008952,-0.00090884,0.00006329,0.00035930,-0.00025752,0.00002922,-0.
 00000833,0.00003055,0.00009108,0.00008546,0.00002869,0.00083124,-0.000
 68972,-0.00045298,-0.00058422,-0.00046843,-0.00067884,0.00485445,-0.00
 127742,0.00046667,0.00065003,0.00010071,0.00012867,0.00038683,0.000582
 31,0.00039991,0.00048279,-0.00061114,0.00098625,0.00268109,0.00626131,
 0.00477332,0.00364583,0.00000225,-0.00183869,0.00258377,0.00063092,-0.
 00152130,-0.08372621,-0.14952300,-0.00241589,-0.00036647,-0.00005025,0
 .00016941,0.00007612,0.00001727,-0.00002009,0.00006900,0.00001830,-0.0
 0000364,0.00001923,0.00001556,-0.00003600,0.00005562,-0.00043845,-0.00
 026148,0.00004893,0.00007025,0.00008330,-0.00001723,0.00003968,-0.0000
 0007,0.00000157,-0.00001427,-0.00000911,-0.00027903,0.00041764,0.00013
 230,0.00006222,-0.00006881,0.00006071,0.00004474,-0.00001904,-0.000114
 28,0.00001749,-0.00004838,-0.00006037,-0.08013090,0.53388671,0.0000684
 9,0.00017502,-0.00000180,-0.00006507,-0.00007203,-0.00001681,-0.000179
 13,0.00015981,-0.00005416,-0.00112272,-0.00068214,0.00102509,-0.000222
 51,-0.00019177,-0.00054559,0.00001825,-0.00002248,0.00004663,0.0000005
 8,-0.00000028,0.00001851,0.00001595,0.00001696,-0.00000449,-0.00063625
 ,0.00025857,0.00012320,0.00014354,0.00008016,0.00060717,-0.00063097,0.
 00035967,0.00006535,0.00007357,0.00003250,0.00005666,-0.00003324,0.000
 06473,0.00013687,-0.00008886,0.00020609,-0.00002263,0.02326445,0.01625
 827,-0.01099582,0.00318317,0.00288202,0.00184356,0.00493356,-0.0016896
 7,-0.00282492,-0.00422335,-0.02062484,-0.06801553,-0.00004363,-0.00000
 286,0.00002353,0.00000895,0.00000143,-0.00000185,0.00000451,0.00000210
 ,-0.00000147,0.00000061,-0.00000130,-0.00000743,0.00011170,0.00001206,
 -0.00001931,-0.00002449,0.00001402,0.00002692,-0.00000601,0.00000677,0
 .00000363,-0.00000471,0.00001781,0.00006067,-0.00002623,-0.00005680,-0
 .00007941,-0.00001714,0.00002238,0.00000238,-0.00000651,0.00003169,0.0
 0001736,-0.00000133,0.00001585,0.00000794,-0.01744914,0.01974488,0.598
 12611,0.00004894,0.00005575,-0.00003465,0.00004665,0.00006703,0.000034
 26,0.00037482,0.00017354,0.00006801,0.00026224,-0.00038013,0.00044660,
 0.00002317,-0.00001518,0.00033505,-0.00000660,-0.00006314,0.00003432,-
 0.00000872,0.00000350,-0.00001182,-0.00003313,-0.00002819,-0.00000467,
 0.00012557,0.00000525,0.00000762,0.00004007,0.00004025,0.00007805,-0.0
 0059445,0.00011141,-0.00011397,-0.00017756,-0.00004799,-0.00006252,-0.
 00006214,-0.00018010,-0.00013204,-0.00010126,0.00008345,-0.00019896,-0
 .00127404,-0.00406666,-0.00129248,-0.00001748,0.00006760,0.00008241,-0
 .00115978,0.00044302,0.00061904,-0.02764767,0.00428562,0.01694736,0.00
 009900,0.00001335,-0.00004520,-0.00002102,-0.00000536,0.00000586,-0.00
 001733,-0.00000440,0.00000179,-0.00000483,-0.00000282,0.00000988,-0.00
 005712,0.00012055,0.00010194,-0.00000079,-0.00001975,-0.00002671,0.000
 00346,-0.00001388,-0.00000054,0.00000730,0.00000199,-0.00001606,0.0000
 6150,-0.00005255,-0.00000320,-0.00001063,0.00001234,-0.00001457,-0.000
 00814,-0.00000962,0.00001302,-0.00000226,0.00000371,0.00000919,-0.1825
 1845,0.08323466,0.10466898,0.20729958,0.00003362,0.00000983,0.00005194
 ,0.00001718,0.00002280,0.00000927,0.00014668,0.00007129,-0.00000060,-0
 .00005836,-0.00049685,0.00059427,0.00004164,0.00004251,0.00000016,0.00
 000519,-0.00003509,0.00002869,0.00000137,0.00000039,-0.00000364,0.0000
 0370,0.00000390,-0.00000660,-0.00034227,0.00021429,-0.00011296,0.00001
 280,0.00001000,0.00000797,-0.00038825,0.00027147,-0.00009722,-0.000043
 44,-0.00000855,-0.00001192,-0.00003495,-0.00005359,-0.00006155,-0.0000
 1074,0.00001962,-0.00005174,-0.00415248,-0.00258177,0.00033110,0.00003
 172,-0.00002982,0.00021049,-0.00097240,0.00032382,0.00058435,-0.025130
 76,0.00894530,0.01666974,0.00002230,0.00000191,-0.00001176,-0.00000550
 ,-0.00000082,0.00000123,-0.00000434,-0.00000163,0.00000025,-0.00000107
 ,-0.00000094,0.00000237,-0.00002449,0.00003484,0.00002561,0.00000393,-
 0.00000850,-0.00000998,-0.00000100,-0.00000529,0.00000154,0.00000175,0
 .00000103,-0.00001020,0.00000136,-0.00002377,-0.00001034,0.00000055,0.
 00000125,-0.00000118,-0.00000238,0.00000205,0.00000681,0.00000082,0.00
 000293,0.00000500,0.09384248,-0.10593234,-0.07300458,-0.08491675,0.109
 98551,-0.00004059,-0.00001464,-0.00002817,-0.00000450,0.00001473,-0.00
 000531,-0.00012060,-0.00001801,-0.00000409,0.00008973,0.00011308,0.000
 03649,-0.00003198,-0.00007373,0.00003956,0.00000605,0.00000374,-0.0000
 0323,0.00000172,-0.00000193,-0.00000022,0.00000115,-0.00000298,0.00000
 337,0.00022760,-0.00008349,0.00001992,-0.00004278,-0.00002003,-0.00003
 730,0.00015534,-0.00003047,0.00001506,0.00002374,-0.00000020,0.0000004
 0,0.00004292,0.00005742,0.00003726,0.00005037,-0.00002206,0.00005485,-
 0.00073727,0.00070855,0.00096027,-0.00022407,0.00019072,0.00041250,0.0
 0029601,0.00002056,0.00014128,0.00198119,0.00118679,0.00011500,-0.0000
 1662,-0.00000368,0.00000635,0.00000263,0.00000115,-0.00000063,0.000002
 55,0.00000050,-0.00000016,0.00000104,0.00000064,-0.00000165,0.00000778
 ,-0.00003799,-0.00001689,0.00000051,0.00000668,0.00000704,0.00000192,0
 .00000533,-0.00000231,-0.00000068,-0.00000206,0.00000094,-0.00001958,0
 .00002826,0.00000917,0.00000227,-0.00000438,0.00000192,0.00000340,-0.0
 0000211,-0.00000522,0.00000374,-0.00000345,-0.00000309,0.10983338,-0.0
 6738048,-0.14050847,-0.12105211,0.07211966,0.14323956,0.00002218,0.000
 13012,-0.00003821,0.00001530,0.00007218,0.00001595,0.00008671,0.000077
 74,0.00010685,-0.00002812,0.00024015,0.00039356,0.00004853,-0.00024250
 ,0.00015376,0.00000637,-0.00006642,0.00004232,-0.00001028,0.00000306,-
 0.00000646,-0.00002551,-0.00002446,-0.00000333,0.00004756,-0.00002079,
 -0.00003092,0.00013789,0.00011930,0.00024903,-0.00039934,0.00017494,-0
 .00016973,-0.00015655,-0.00004223,-0.00003995,-0.00003516,-0.00010348,
 -0.00002396,-0.00011125,0.00015367,-0.00006713,0.00399235,-0.00243614,
 -0.00611298,0.00001963,0.00113577,0.00106280,0.00012201,0.00004889,0.0
 0009887,-0.02256815,-0.01680092,-0.01968925,0.00007979,0.00001175,-0.0
 0004100,-0.00001677,-0.00000441,0.00000460,-0.00001496,-0.00000430,0.0
 0000154,-0.00000384,-0.00000206,0.00000859,0.00001895,0.00008771,0.000
 04619,-0.00001416,-0.00000835,-0.00000784,0.00000098,-0.00000965,0.000
 00073,-0.00000384,0.00000786,0.00001548,0.00004300,-0.00006308,-0.0000
 2991,-0.00001020,0.00001627,-0.00001056,-0.00000522,-0.00000044,0.0000
 1138,-0.00000584,0.00000683,0.00001000,-0.07911335,-0.00918926,-0.0747
 3131,0.01092797,0.00327423,0.02115273,0.08860706,0.00006036,0.00012090
 ,-0.00001856,0.00001680,0.00001300,0.00001882,0.00024445,0.00013522,0.
 00003594,0.00010110,-0.00050591,0.00030332,-0.00001409,-0.00017316,0.0
 0012401,-0.00000041,-0.00005062,0.00004028,-0.00001091,0.00000318,-0.0
 0000224,-0.00002111,-0.00001977,-0.00000355,-0.00004944,0.00010644,0.0
 0006369,0.00015102,0.00012328,0.00026463,-0.00055117,0.00018718,-0.000
 11492,-0.00011973,-0.00002226,-0.00002140,-0.00006678,-0.00011119,-0.0
 0004478,-0.00010731,0.00016458,-0.00014828,0.00405316,-0.00046690,-0.0
 0224158,-0.00005139,0.00067810,0.00063972,0.00011224,-0.00001035,0.000
 06698,-0.02212306,-0.01223162,-0.02174241,0.00006757,0.00001158,-0.000
 03123,-0.00001321,-0.00000399,0.00000343,-0.00001233,-0.00000297,0.000
 00119,-0.00000374,-0.00000204,0.00000633,0.00001673,0.00009826,0.00004
 218,-0.00001435,-0.00001255,-0.00000962,0.00000039,-0.00001087,0.00000
 114,-0.00000490,0.00000764,0.00001588,0.00004766,-0.00006582,-0.000034
 02,-0.00001486,0.00001845,-0.00001100,-0.00000921,0.00000500,0.0000186
 6,-0.00000418,0.00000793,0.00001044,-0.01043427,-0.05807655,-0.0345845
 2,-0.00458231,-0.00106248,-0.01319068,0.02374499,0.06428790,0.00002214
 ,0.00008233,-0.00004264,0.00002439,0.00000561,0.00001462,0.00018796,0.
 00007171,0.00004980,-0.00011681,0.00002069,-0.00048597,0.00011752,0.00
 006915,0.00026802,-0.00001707,-0.00002035,0.00000203,-0.00001140,0.000
 00269,-0.00000228,-0.00001920,-0.00001845,0.00000371,0.00003733,-0.000
 06480,-0.00003292,0.00012442,0.00002173,0.00005725,-0.00021105,-0.0000
 7944,-0.00002182,-0.00010316,-0.00002071,-0.00002069,-0.00000319,-0.00
 006042,-0.00000665,-0.00009566,0.00003643,-0.00013110,0.00199701,0.000
 88924,0.00267497,-0.00188187,-0.00013658,-0.00004133,-0.00022937,0.000
 25043,0.00048246,-0.00123654,-0.00339987,0.00788706,0.00006210,0.00000
 899,-0.00002856,-0.00001135,-0.00000311,0.00000302,-0.00000963,-0.0000
 0253,0.00000060,-0.00000300,-0.00000140,0.00000775,0.00001256,0.000043
 80,0.00001242,-0.00000774,-0.00000748,-0.00000708,0.00000067,-0.000008
 90,0.00000101,-0.00001131,-0.00000006,0.00000261,0.00007937,-0.0000781
 5,-0.00000264,-0.00000192,0.00000748,-0.00000847,-0.00000152,-0.000003
 14,0.00001279,-0.00001045,0.00000516,0.00000771,-0.07810713,-0.0386938
 6,-0.27634050,-0.00600968,-0.00119608,-0.01427513,0.08888627,0.0447403
 6,0.29177900,-0.00000061,-0.00003855,0.00008369,0.00000756,0.00006903,
 0.00001071,-0.00009275,-0.00026657,0.00002735,-0.00138943,0.00036873,-
 0.00028942,0.00015089,0.00003046,0.00011007,0.00004607,0.00001870,-0.0
 0001588,-0.00000293,0.00000496,-0.00000736,0.00000386,0.00000965,-0.00
 001272,-0.00154333,-0.00019193,-0.00062035,0.00006781,-0.00003025,0.00
 002694,0.00115540,0.00008516,-0.00051518,-0.00005983,-0.00003099,-0.00
 005249,-0.00001345,-0.00000646,-0.00003592,0.00002361,0.00002038,-0.00
 002755,0.00451563,-0.00239913,-0.00018473,-0.00047022,0.00015773,0.000
 20101,-0.00048178,0.00039155,0.00036302,0.00214373,-0.03303059,0.01346
 395,0.00002310,0.00000214,-0.00001486,-0.00000588,-0.00000080,0.000001
 97,-0.00000396,-0.00000159,0.00000123,-0.00000061,0.00000032,0.0000038
 3,0.00000425,0.00002050,0.00000405,-0.00000346,-0.00000324,-0.00000237
 ,0.00000036,0.00000065,0.00000103,0.00000146,0.00000219,0.00000770,-0.
 00003519,0.00002341,-0.00000960,0.00000241,0.00000010,0.00000143,-0.00
 000692,-0.00000071,-0.00000184,0.00000801,-0.00000430,0.00000061,-0.08
 368251,0.07609286,-0.03698369,-0.00559687,0.01864786,-0.01159696,-0.00
 165376,0.00959233,-0.00345269,0.08688934,0.00010267,0.00001800,0.00010
 417,0.00001441,0.00007367,0.00002607,0.00022016,0.00003030,0.00013904,
 -0.00010129,-0.00026299,0.00080992,-0.00000042,-0.00004290,-0.00000470
 ,0.00002708,-0.00010509,0.00009353,-0.00000261,0.00000262,-0.00001554,
 0.00000123,0.00000667,-0.00002087,-0.00048916,0.00029001,-0.00039676,0
 .00013349,0.00007858,0.00016243,-0.00069992,0.00051174,-0.00046693,-0.
 00013979,-0.00002420,-0.00004666,-0.00010684,-0.00008244,-0.00011608,-
 0.00003719,0.00012580,-0.00016639,0.00391914,-0.00137916,-0.00275873,-
 0.00036438,0.00040709,0.00039495,-0.00071940,0.00022995,0.00033226,-0.
 00993834,-0.02588435,0.00970544,0.00006517,0.00000500,-0.00003383,-0.0
 0001660,-0.00000250,0.00000437,-0.00001393,-0.00000398,0.00000089,-0.0
 0000324,-0.00000352,0.00000567,-0.00000198,0.00008398,0.00004435,-0.00
 001669,-0.00001342,-0.00001545,0.00000798,0.00000253,-0.00000166,0.000
 00491,0.00000271,0.00001810,0.00000221,-0.00003645,-0.00003311,-0.0000
 1181,0.00001110,-0.00000890,-0.00001057,0.00000461,0.00001892,0.000007
 07,0.00000388,0.00001148,0.07232336,-0.22683663,0.09057049,0.00566583,
 -0.00972330,0.00643459,-0.00028698,0.00686040,-0.00246049,-0.06953356,
 0.25565228,-0.00000691,-0.00002131,-0.00003689,0.00000964,0.00001824,0
 .00000502,0.00005505,0.00004919,0.00000440,-0.00018284,0.00030700,0.00
 007295,0.00005208,0.00008460,0.00016297,-0.00000448,0.00000809,-0.0000
 1789,-0.00000630,0.00000047,-0.00000475,-0.00000821,-0.00000933,0.0000
 0283,-0.00031180,-0.00047426,-0.00000423,-0.00003802,-0.00007691,-0.00
 006768,0.00015367,-0.00023167,0.00002485,-0.00003453,-0.00002075,-0.00
 002646,0.00001431,-0.00002304,-0.00000105,-0.00000596,-0.00002085,-0.0
 0005056,-0.00110040,0.00083523,0.00048307,-0.00014186,0.00001571,-0.00
 037935,0.00012797,-0.00009552,-0.00009956,0.00506132,0.00104184,0.0036
 6176,0.00002271,0.00000182,-0.00000864,-0.00000493,-0.00000142,0.00000
 099,-0.00000238,-0.00000047,0.00000069,-0.00000081,0.00000064,0.000002
 30,-0.00001336,0.00000793,0.00001361,0.00000379,-0.00000119,-0.0000015
 4,0.00000005,-0.00000418,-0.00000138,0.00000153,-0.00000288,-0.0000073
 9,0.00001316,0.00001991,0.00001911,-0.00000068,-0.00000140,-0.00000428
 ,-0.00000309,-0.00000944,-0.00000108,0.00000141,-0.00000305,-0.0000015
 4,-0.03746286,0.09119592,-0.10275138,0.00555580,-0.01606010,0.00979092
 ,-0.01125811,0.02580177,-0.01181903,0.03951502,-0.10233056,0.10103920\
 \-0.00001198,0.00000187,0.00001185,-0.00000043,0.00000764,0.00000166,0
 .00001464,-0.00001046,0.00001187,-0.00000259,-0.00000212,0.00000776,0.
 00000870,-0.00000161,-0.00000736,-0.00000107,0.00000141,-0.00000099,0.
 00000194,-0.00000526,0.00000272,0.00000305,-0.00000350,-0.00000037,0.0
 0000299,0.00000092,-0.00000392,-0.00000272,0.00000075,-0.00000649,-0.0
 0000409,0.00000148,-0.00000545,-0.00000666,-0.00001094,-0.00000536,0.0
 0000655,0.00000193,-0.00000336,-0.00000875,0.00000899,0.00000640,-0.00
 000559,0.00001093,0.00001051,0.00000298,0.00000385,-0.00000372,0.00000
 462,0.00000430,-0.00000281,0.00001113,-0.00000029,-0.00001175,0.000002
 89,0.00000350,0.00000631,0.,-0.00000694,0.00000440,-0.00000213,-0.0000
 0668,0.00000667,0.00000015,-0.00000738,0.00000543,0.00000608,-0.000001
 65,-0.00001109,0.00000085,-0.00000417,0.00000341,0.00000179,-0.0000032
 3,0.00000030,0.00000080,-0.00000031,0.00000499,-0.00000077,-0.00000100
 ,-0.00000031,-0.00000975,-0.00000302,-0.00000097,-0.00000307,-0.000000
 98,-0.00000034,-0.00000633,-0.00000048,0.00000012,-0.00000090,0.000000
 65,-0.00000425,-0.00000011,0.00000609,-0.00000534,0.00000060,0.0000086
 2,-0.00000504,-0.00000282,0.00000707,-0.00000547\\\@


 CHRISTMAS IS ON TOP OF A STEEP HILL.
 THE CLOSER YOU GET, THE STEEPER THE HILL IS.
          -- LINUS, OF PEANUTS
 Job cpu time:       0 days  1 hours 15 minutes 54.1 seconds.
 Elapsed time:       0 days  0 hours 19 minutes  0.3 seconds.
 File lengths (MBytes):  RWF=    377 Int=      0 D2E=      0 Chk=     16 Scr=      1
 Normal termination of Gaussian 16 at Fri May 24 08:51:56 2019.
