 Entering Gaussian System, Link 0=g16
 Input=clay-glucose_cation-119-b3lyp_d3bj-631gd-pcm_thf.gjf
 Output=clay-glucose_cation-119-b3lyp_d3bj-631gd-pcm_thf.out
 Initial command:
 /n/sw/g16_nehalem/g16/l1.exe "/scratch/Gau-119057.inp" -scrdir="/scratch/"
 Entering Link 1 = /n/sw/g16_nehalem/g16/l1.exe PID=    119058.
  
 Copyright (c) 1988,1990,1992,1993,1995,1998,2003,2009,2016,
            Gaussian, Inc.  All Rights Reserved.
  
 This is part of the Gaussian(R) 16 program.  It is based on
 the Gaussian(R) 09 system (copyright 2009, Gaussian, Inc.),
 the Gaussian(R) 03 system (copyright 2003, Gaussian, Inc.),
 the Gaussian(R) 98 system (copyright 1998, Gaussian, Inc.),
 the Gaussian(R) 94 system (copyright 1995, Gaussian, Inc.),
 the Gaussian 92(TM) system (copyright 1992, Gaussian, Inc.),
 the Gaussian 90(TM) system (copyright 1990, Gaussian, Inc.),
 the Gaussian 88(TM) system (copyright 1988, Gaussian, Inc.),
 the Gaussian 86(TM) system (copyright 1986, Carnegie Mellon
 University), and the Gaussian 82(TM) system (copyright 1983,
 Carnegie Mellon University). Gaussian is a federally registered
 trademark of Gaussian, Inc.
  
 This software contains proprietary and confidential information,
 including trade secrets, belonging to Gaussian, Inc.
  
 This software is provided under written license and may be
 used, copied, transmitted, or stored only in accord with that
 written license.
  
 The following legend is applicable only to US Government
 contracts under FAR:
  
                    RESTRICTED RIGHTS LEGEND
  
 Use, reproduction and disclosure by the US Government is
 subject to restrictions as set forth in subparagraphs (a)
 and (c) of the Commercial Computer Software - Restricted
 Rights clause in FAR 52.227-19.
  
 Gaussian, Inc.
 340 Quinnipiac St., Bldg. 40, Wallingford CT 06492
  
  
 ---------------------------------------------------------------
 Warning -- This program may not be used in any manner that
 competes with the business of Gaussian, Inc. or will provide
 assistance to any competitor of Gaussian, Inc.  The licensee
 of this program is prohibited from giving any competitor of
 Gaussian, Inc. access to this program.  By using this program,
 the user acknowledges that Gaussian, Inc. is engaged in the
 business of creating and licensing software in the field of
 computational chemistry and represents and warrants to the
 licensee that it is not a competitor of Gaussian, Inc. and that
 it will not use this program in any manner prohibited above.
 ---------------------------------------------------------------
  

 Cite this work as:
 Gaussian 16, Revision A.03,
 M. J. Frisch, G. W. Trucks, H. B. Schlegel, G. E. Scuseria, 
 M. A. Robb, J. R. Cheeseman, G. Scalmani, V. Barone, 
 G. A. Petersson, H. Nakatsuji, X. Li, M. Caricato, A. V. Marenich, 
 J. Bloino, B. G. Janesko, R. Gomperts, B. Mennucci, H. P. Hratchian, 
 J. V. Ortiz, A. F. Izmaylov, J. L. Sonnenberg, D. Williams-Young, 
 F. Ding, F. Lipparini, F. Egidi, J. Goings, B. Peng, A. Petrone, 
 T. Henderson, D. Ranasinghe, V. G. Zakrzewski, J. Gao, N. Rega, 
 G. Zheng, W. Liang, M. Hada, M. Ehara, K. Toyota, R. Fukuda, 
 J. Hasegawa, M. Ishida, T. Nakajima, Y. Honda, O. Kitao, H. Nakai, 
 T. Vreven, K. Throssell, J. A. Montgomery, Jr., J. E. Peralta, 
 F. Ogliaro, M. J. Bearpark, J. J. Heyd, E. N. Brothers, K. N. Kudin, 
 V. N. Staroverov, T. A. Keith, R. Kobayashi, J. Normand, 
 K. Raghavachari, A. P. Rendell, J. C. Burant, S. S. Iyengar, 
 J. Tomasi, M. Cossi, J. M. Millam, M. Klene, C. Adamo, R. Cammi, 
 J. W. Ochterski, R. L. Martin, K. Morokuma, O. Farkas, 
 J. B. Foresman, and D. J. Fox, Gaussian, Inc., Wallingford CT, 2016.
 
 ******************************************
 Gaussian 16:  ES64L-G16RevA.03 25-Dec-2016
                25-May-2019 
 ******************************************
 %nprocshared=4
 Will use up to    4 processors via shared memory.
 %mem=3GB
 ----------------------------------------------------------------------
 #p b3lyp 6-31g* opt=(maxstep=1,calcfc) freq=noraman scrf=(pcm,solvent=
 tetrahydrofuran)
 ----------------------------------------------------------------------
 1/8=1,10=4,18=20,19=15,26=3,38=1/1,3;
 2/9=110,12=2,17=6,18=5,40=1/2;
 3/5=1,6=6,7=1,11=2,25=1,30=1,70=2201,71=2,72=20,74=-5,140=1/1,2,3;
 4//1;
 5/5=2,38=5,53=20/2;
 8/6=4,10=90,11=11/1;
 11/6=1,8=1,9=11,15=111,16=1/1,2,10;
 10/6=1,13=1/2;
 6/7=2,8=2,9=2,10=2,28=1/1;
 7/10=1,18=20,25=1/1,2,3,16;
 1/8=1,10=4,18=20,19=15,26=3/3(2);
 2/9=110/2;
 99//99;
 2/9=110/2;
 3/5=1,6=6,7=1,11=2,25=1,30=1,70=2205,71=1,72=20,74=-5/1,2,3;
 4/5=5,16=3,69=1/1;
 5/5=2,38=5,53=20/2;
 7//1,2,3,16;
 1/8=1,18=20,19=15,26=3/3(-5);
 2/9=110/2;
 6/7=2,8=2,9=2,10=2,19=2,28=1/1;
 99/9=1/99;
 Leave Link    1 at Sat May 25 18:04:03 2019, MaxMem=   402653184 cpu:               0.3 elap:               0.1
 (Enter /n/sw/g16_nehalem/g16/l101.exe)
 -----
 title
 -----
 Symbolic Z-matrix:
 Charge =  1 Multiplicity = 1
 6                     0.97898   0.53248   0.39092 
 6                     1.69369  -0.79017  -0.03366 
 6                     0.94836  -1.94587   0.53483 
 6                    -1.212    -0.82225   0.42915 
 6                    -0.49551   0.46169  -0.05273 
 1                     1.48545  -2.84448   0.84186 
 1                     1.64451  -0.89624  -1.134 
 1                     1.05003   0.57849   1.48148 
 1                    -1.71336  -0.65168   1.38147 
 1                    -0.53441   0.46278  -1.14529 
 8                    -0.28453  -1.95669   0.77863 
 8                     2.99891  -0.88273   0.45669 
 8                     1.66893   1.66864  -0.05512 
 8                    -1.26808   1.58467   0.32078 
 6                    -2.16135  -1.44702  -0.62373 
 1                    -2.72423  -2.26907  -0.16064 
 1                    -1.54696  -1.85708  -1.43266 
 8                    -3.00069  -0.48743  -1.20267 
 6                     4.04132  -0.63206  -0.49692 
 1                     4.9776   -0.79058   0.03938 
 1                     3.98085  -1.33134  -1.33946 
 1                     3.99682   0.3999   -0.85806 
 6                     1.51046   2.06122  -1.42285 
 1                     1.73411   1.24305  -2.12011 
 1                     0.5029    2.44353  -1.61386 
 1                     2.23515   2.86117  -1.58083 
 6                    -1.11154   2.08516   1.65341 
 1                    -1.26104   1.30817   2.41491 
 1                    -0.12946   2.54908   1.79083 
 1                    -1.88734   2.84309   1.77124 
 6                    -4.11063  -0.09073  -0.39574 
 1                    -4.75272   0.51524  -1.03762 
 1                    -4.67209  -0.9656   -0.04201 
 1                    -3.7928    0.51534   0.46061 
 
 ITRead=  0  0  0  0  0  0  0  0  0  0  0  0  0  0  0  0  0  0  0  0
 ITRead=  0  0  0  0  0  0  0  0  0  0  0  0  0  0
 MicOpt= -1 -1 -1 -1 -1 -1 -1 -1 -1 -1 -1 -1 -1 -1 -1 -1 -1 -1 -1 -1
 MicOpt= -1 -1 -1 -1 -1 -1 -1 -1 -1 -1 -1 -1 -1 -1
 NAtoms=     34 NQM=       34 NQMF=       0 NMMI=      0 NMMIF=      0
                NMic=       0 NMicF=      0.
                    Isotopes and Nuclear Properties:
 (Nuclear quadrupole moments (NQMom) in fm**2, nuclear magnetic moments (NMagM)
  in nuclear magnetons)

  Atom         1           2           3           4           5           6           7           8           9          10
 IAtWgt=          12          12          12          12          12           1           1           1           1           1
 AtmWgt=  12.0000000  12.0000000  12.0000000  12.0000000  12.0000000   1.0078250   1.0078250   1.0078250   1.0078250   1.0078250
 NucSpn=           0           0           0           0           0           1           1           1           1           1
 AtZEff=   0.0000000   0.0000000   0.0000000   0.0000000   0.0000000   0.0000000   0.0000000   0.0000000   0.0000000   0.0000000
 NQMom=    0.0000000   0.0000000   0.0000000   0.0000000   0.0000000   0.0000000   0.0000000   0.0000000   0.0000000   0.0000000
 NMagM=    0.0000000   0.0000000   0.0000000   0.0000000   0.0000000   2.7928460   2.7928460   2.7928460   2.7928460   2.7928460
 AtZNuc=   6.0000000   6.0000000   6.0000000   6.0000000   6.0000000   1.0000000   1.0000000   1.0000000   1.0000000   1.0000000

  Atom        11          12          13          14          15          16          17          18          19          20
 IAtWgt=          16          16          16          16          12           1           1          16          12           1
 AtmWgt=  15.9949146  15.9949146  15.9949146  15.9949146  12.0000000   1.0078250   1.0078250  15.9949146  12.0000000   1.0078250
 NucSpn=           0           0           0           0           0           1           1           0           0           1
 AtZEff=   0.0000000   0.0000000   0.0000000   0.0000000   0.0000000   0.0000000   0.0000000   0.0000000   0.0000000   0.0000000
 NQMom=    0.0000000   0.0000000   0.0000000   0.0000000   0.0000000   0.0000000   0.0000000   0.0000000   0.0000000   0.0000000
 NMagM=    0.0000000   0.0000000   0.0000000   0.0000000   0.0000000   2.7928460   2.7928460   0.0000000   0.0000000   2.7928460
 AtZNuc=   8.0000000   8.0000000   8.0000000   8.0000000   6.0000000   1.0000000   1.0000000   8.0000000   6.0000000   1.0000000

  Atom        21          22          23          24          25          26          27          28          29          30
 IAtWgt=           1           1          12           1           1           1          12           1           1           1
 AtmWgt=   1.0078250   1.0078250  12.0000000   1.0078250   1.0078250   1.0078250  12.0000000   1.0078250   1.0078250   1.0078250
 NucSpn=           1           1           0           1           1           1           0           1           1           1
 AtZEff=   0.0000000   0.0000000   0.0000000   0.0000000   0.0000000   0.0000000   0.0000000   0.0000000   0.0000000   0.0000000
 NQMom=    0.0000000   0.0000000   0.0000000   0.0000000   0.0000000   0.0000000   0.0000000   0.0000000   0.0000000   0.0000000
 NMagM=    2.7928460   2.7928460   0.0000000   2.7928460   2.7928460   2.7928460   0.0000000   2.7928460   2.7928460   2.7928460
 AtZNuc=   1.0000000   1.0000000   6.0000000   1.0000000   1.0000000   1.0000000   6.0000000   1.0000000   1.0000000   1.0000000

  Atom        31          32          33          34
 IAtWgt=          12           1           1           1
 AtmWgt=  12.0000000   1.0078250   1.0078250   1.0078250
 NucSpn=           0           1           1           1
 AtZEff=   0.0000000   0.0000000   0.0000000   0.0000000
 NQMom=    0.0000000   0.0000000   0.0000000   0.0000000
 NMagM=    0.0000000   2.7928460   2.7928460   2.7928460
 AtZNuc=   6.0000000   1.0000000   1.0000000   1.0000000
 Leave Link  101 at Sat May 25 18:04:04 2019, MaxMem=   402653184 cpu:               0.8 elap:               0.3
 (Enter /n/sw/g16_nehalem/g16/l103.exe)

 GradGradGradGradGradGradGradGradGradGradGradGradGradGradGradGradGradGrad
 Berny optimization.
 Initialization pass.
                           ----------------------------
                           !    Initial Parameters    !
                           ! (Angstroms and Degrees)  !
 --------------------------                            --------------------------
 ! Name  Definition              Value          Derivative Info.                !
 --------------------------------------------------------------------------------
 ! R1    R(1,2)                  1.5622         calculate D2E/DX2 analytically  !
 ! R2    R(1,5)                  1.5414         calculate D2E/DX2 analytically  !
 ! R3    R(1,8)                  1.0938         calculate D2E/DX2 analytically  !
 ! R4    R(1,13)                 1.4021         calculate D2E/DX2 analytically  !
 ! R5    R(2,3)                  1.4881         calculate D2E/DX2 analytically  !
 ! R6    R(2,7)                  1.1065         calculate D2E/DX2 analytically  !
 ! R7    R(2,12)                 1.3974         calculate D2E/DX2 analytically  !
 ! R8    R(3,6)                  1.091          calculate D2E/DX2 analytically  !
 ! R9    R(3,11)                 1.2568         calculate D2E/DX2 analytically  !
 ! R10   R(4,5)                  1.5473         calculate D2E/DX2 analytically  !
 ! R11   R(4,9)                  1.0897         calculate D2E/DX2 analytically  !
 ! R12   R(4,11)                 1.5064         calculate D2E/DX2 analytically  !
 ! R13   R(4,15)                 1.5492         calculate D2E/DX2 analytically  !
 ! R14   R(5,10)                 1.0933         calculate D2E/DX2 analytically  !
 ! R15   R(5,14)                 1.4133         calculate D2E/DX2 analytically  !
 ! R16   R(12,19)                1.4349         calculate D2E/DX2 analytically  !
 ! R17   R(13,23)                1.4318         calculate D2E/DX2 analytically  !
 ! R18   R(14,27)                1.4321         calculate D2E/DX2 analytically  !
 ! R19   R(15,16)                1.0987         calculate D2E/DX2 analytically  !
 ! R20   R(15,17)                1.0954         calculate D2E/DX2 analytically  !
 ! R21   R(15,18)                1.4002         calculate D2E/DX2 analytically  !
 ! R22   R(18,31)                1.4285         calculate D2E/DX2 analytically  !
 ! R23   R(19,20)                1.0906         calculate D2E/DX2 analytically  !
 ! R24   R(19,21)                1.0966         calculate D2E/DX2 analytically  !
 ! R25   R(19,22)                1.0942         calculate D2E/DX2 analytically  !
 ! R26   R(23,24)                1.098          calculate D2E/DX2 analytically  !
 ! R27   R(23,25)                1.0945         calculate D2E/DX2 analytically  !
 ! R28   R(23,26)                1.0909         calculate D2E/DX2 analytically  !
 ! R29   R(27,28)                1.0982         calculate D2E/DX2 analytically  !
 ! R30   R(27,29)                1.0948         calculate D2E/DX2 analytically  !
 ! R31   R(27,30)                1.091          calculate D2E/DX2 analytically  !
 ! R32   R(31,32)                1.0916         calculate D2E/DX2 analytically  !
 ! R33   R(31,33)                1.0981         calculate D2E/DX2 analytically  !
 ! R34   R(31,34)                1.0962         calculate D2E/DX2 analytically  !
 ! A1    A(2,1,5)              108.6951         calculate D2E/DX2 analytically  !
 ! A2    A(2,1,8)              106.0731         calculate D2E/DX2 analytically  !
 ! A3    A(2,1,13)             111.9923         calculate D2E/DX2 analytically  !
 ! A4    A(5,1,8)              110.5503         calculate D2E/DX2 analytically  !
 ! A5    A(5,1,13)             114.6059         calculate D2E/DX2 analytically  !
 ! A6    A(8,1,13)             104.5437         calculate D2E/DX2 analytically  !
 ! A7    A(1,2,3)              108.9398         calculate D2E/DX2 analytically  !
 ! A8    A(1,2,7)              109.3344         calculate D2E/DX2 analytically  !
 ! A9    A(1,2,12)             112.8331         calculate D2E/DX2 analytically  !
 ! A10   A(3,2,7)              106.4504         calculate D2E/DX2 analytically  !
 ! A11   A(3,2,12)             106.4002         calculate D2E/DX2 analytically  !
 ! A12   A(7,2,12)             112.5886         calculate D2E/DX2 analytically  !
 ! A13   A(2,3,6)              120.0418         calculate D2E/DX2 analytically  !
 ! A14   A(2,3,11)             124.899          calculate D2E/DX2 analytically  !
 ! A15   A(6,3,11)             114.9138         calculate D2E/DX2 analytically  !
 ! A16   A(5,4,9)              110.8143         calculate D2E/DX2 analytically  !
 ! A17   A(5,4,11)             114.3344         calculate D2E/DX2 analytically  !
 ! A18   A(5,4,15)             114.0001         calculate D2E/DX2 analytically  !
 ! A19   A(9,4,11)             101.4439         calculate D2E/DX2 analytically  !
 ! A20   A(9,4,15)             112.0323         calculate D2E/DX2 analytically  !
 ! A21   A(11,4,15)            103.3708         calculate D2E/DX2 analytically  !
 ! A22   A(1,5,4)              113.043          calculate D2E/DX2 analytically  !
 ! A23   A(1,5,10)             108.7615         calculate D2E/DX2 analytically  !
 ! A24   A(1,5,14)             114.2263         calculate D2E/DX2 analytically  !
 ! A25   A(4,5,10)             107.193          calculate D2E/DX2 analytically  !
 ! A26   A(4,5,14)             108.8997         calculate D2E/DX2 analytically  !
 ! A27   A(10,5,14)            104.1155         calculate D2E/DX2 analytically  !
 ! A28   A(3,11,4)             123.537          calculate D2E/DX2 analytically  !
 ! A29   A(2,12,19)            115.7089         calculate D2E/DX2 analytically  !
 ! A30   A(1,13,23)            118.1397         calculate D2E/DX2 analytically  !
 ! A31   A(5,14,27)            117.6367         calculate D2E/DX2 analytically  !
 ! A32   A(4,15,16)            109.2224         calculate D2E/DX2 analytically  !
 ! A33   A(4,15,17)            108.007          calculate D2E/DX2 analytically  !
 ! A34   A(4,15,18)            111.8367         calculate D2E/DX2 analytically  !
 ! A35   A(16,15,17)           108.5732         calculate D2E/DX2 analytically  !
 ! A36   A(16,15,18)           112.3308         calculate D2E/DX2 analytically  !
 ! A37   A(17,15,18)           106.7035         calculate D2E/DX2 analytically  !
 ! A38   A(15,18,31)           114.9956         calculate D2E/DX2 analytically  !
 ! A39   A(12,19,20)           105.7533         calculate D2E/DX2 analytically  !
 ! A40   A(12,19,21)           111.049          calculate D2E/DX2 analytically  !
 ! A41   A(12,19,22)           110.7668         calculate D2E/DX2 analytically  !
 ! A42   A(20,19,21)           109.4189         calculate D2E/DX2 analytically  !
 ! A43   A(20,19,22)           109.5292         calculate D2E/DX2 analytically  !
 ! A44   A(21,19,22)           110.2166         calculate D2E/DX2 analytically  !
 ! A45   A(13,23,24)           112.3199         calculate D2E/DX2 analytically  !
 ! A46   A(13,23,25)           111.3705         calculate D2E/DX2 analytically  !
 ! A47   A(13,23,26)           105.4191         calculate D2E/DX2 analytically  !
 ! A48   A(24,23,25)           109.6928         calculate D2E/DX2 analytically  !
 ! A49   A(24,23,26)           108.6113         calculate D2E/DX2 analytically  !
 ! A50   A(25,23,26)           109.277          calculate D2E/DX2 analytically  !
 ! A51   A(14,27,28)           112.5273         calculate D2E/DX2 analytically  !
 ! A52   A(14,27,29)           111.2816         calculate D2E/DX2 analytically  !
 ! A53   A(14,27,30)           105.4007         calculate D2E/DX2 analytically  !
 ! A54   A(28,27,29)           109.5661         calculate D2E/DX2 analytically  !
 ! A55   A(28,27,30)           108.6536         calculate D2E/DX2 analytically  !
 ! A56   A(29,27,30)           109.2657         calculate D2E/DX2 analytically  !
 ! A57   A(18,31,32)           106.2039         calculate D2E/DX2 analytically  !
 ! A58   A(18,31,33)           110.978          calculate D2E/DX2 analytically  !
 ! A59   A(18,31,34)           111.6875         calculate D2E/DX2 analytically  !
 ! A60   A(32,31,33)           109.3271         calculate D2E/DX2 analytically  !
 ! A61   A(32,31,34)           108.8449         calculate D2E/DX2 analytically  !
 ! A62   A(33,31,34)           109.7002         calculate D2E/DX2 analytically  !
 ! D1    D(5,1,2,3)            -55.3915         calculate D2E/DX2 analytically  !
 ! D2    D(5,1,2,7)             60.565          calculate D2E/DX2 analytically  !
 ! D3    D(5,1,2,12)          -173.3199         calculate D2E/DX2 analytically  !
 ! D4    D(8,1,2,3)             63.5002         calculate D2E/DX2 analytically  !
 ! D5    D(8,1,2,7)            179.4568         calculate D2E/DX2 analytically  !
 ! D6    D(8,1,2,12)           -54.4281         calculate D2E/DX2 analytically  !
 ! D7    D(13,1,2,3)           176.9664         calculate D2E/DX2 analytically  !
 ! D8    D(13,1,2,7)           -67.077          calculate D2E/DX2 analytically  !
 ! D9    D(13,1,2,12)           59.0381         calculate D2E/DX2 analytically  !
 ! D10   D(2,1,5,4)             52.4256         calculate D2E/DX2 analytically  !
 ! D11   D(2,1,5,10)           -66.504          calculate D2E/DX2 analytically  !
 ! D12   D(2,1,5,14)           177.6928         calculate D2E/DX2 analytically  !
 ! D13   D(8,1,5,4)            -63.6149         calculate D2E/DX2 analytically  !
 ! D14   D(8,1,5,10)           177.4555         calculate D2E/DX2 analytically  !
 ! D15   D(8,1,5,14)            61.6523         calculate D2E/DX2 analytically  !
 ! D16   D(13,1,5,4)           178.5679         calculate D2E/DX2 analytically  !
 ! D17   D(13,1,5,10)           59.6383         calculate D2E/DX2 analytically  !
 ! D18   D(13,1,5,14)          -56.1649         calculate D2E/DX2 analytically  !
 ! D19   D(2,1,13,23)           79.1823         calculate D2E/DX2 analytically  !
 ! D20   D(5,1,13,23)          -45.2317         calculate D2E/DX2 analytically  !
 ! D21   D(8,1,13,23)         -166.4084         calculate D2E/DX2 analytically  !
 ! D22   D(1,2,3,6)           -146.6063         calculate D2E/DX2 analytically  !
 ! D23   D(1,2,3,11)            28.7804         calculate D2E/DX2 analytically  !
 ! D24   D(7,2,3,6)             95.5997         calculate D2E/DX2 analytically  !
 ! D25   D(7,2,3,11)           -89.0136         calculate D2E/DX2 analytically  !
 ! D26   D(12,2,3,6)           -24.6916         calculate D2E/DX2 analytically  !
 ! D27   D(12,2,3,11)          150.6951         calculate D2E/DX2 analytically  !
 ! D28   D(1,2,12,19)         -103.7056         calculate D2E/DX2 analytically  !
 ! D29   D(3,2,12,19)          136.8862         calculate D2E/DX2 analytically  !
 ! D30   D(7,2,12,19)           20.6441         calculate D2E/DX2 analytically  !
 ! D31   D(2,3,11,4)             4.8196         calculate D2E/DX2 analytically  !
 ! D32   D(6,3,11,4)          -179.5833         calculate D2E/DX2 analytically  !
 ! D33   D(9,4,5,1)             92.8192         calculate D2E/DX2 analytically  !
 ! D34   D(9,4,5,10)          -147.3473         calculate D2E/DX2 analytically  !
 ! D35   D(9,4,5,14)           -35.2755         calculate D2E/DX2 analytically  !
 ! D36   D(11,4,5,1)           -21.0643         calculate D2E/DX2 analytically  !
 ! D37   D(11,4,5,10)           98.7692         calculate D2E/DX2 analytically  !
 ! D38   D(11,4,5,14)         -149.159          calculate D2E/DX2 analytically  !
 ! D39   D(15,4,5,1)          -139.6957         calculate D2E/DX2 analytically  !
 ! D40   D(15,4,5,10)          -19.8622         calculate D2E/DX2 analytically  !
 ! D41   D(15,4,5,14)           92.2096         calculate D2E/DX2 analytically  !
 ! D42   D(5,4,11,3)            -9.3171         calculate D2E/DX2 analytically  !
 ! D43   D(9,4,11,3)          -128.6214         calculate D2E/DX2 analytically  !
 ! D44   D(15,4,11,3)          115.1778         calculate D2E/DX2 analytically  !
 ! D45   D(5,4,15,16)         -172.6316         calculate D2E/DX2 analytically  !
 ! D46   D(5,4,15,17)           69.4616         calculate D2E/DX2 analytically  !
 ! D47   D(5,4,15,18)          -47.6572         calculate D2E/DX2 analytically  !
 ! D48   D(9,4,15,16)          -45.7768         calculate D2E/DX2 analytically  !
 ! D49   D(9,4,15,17)         -163.6836         calculate D2E/DX2 analytically  !
 ! D50   D(9,4,15,18)           79.1977         calculate D2E/DX2 analytically  !
 ! D51   D(11,4,15,16)          62.6561         calculate D2E/DX2 analytically  !
 ! D52   D(11,4,15,17)         -55.2507         calculate D2E/DX2 analytically  !
 ! D53   D(11,4,15,18)        -172.3694         calculate D2E/DX2 analytically  !
 ! D54   D(1,5,14,27)          -44.2401         calculate D2E/DX2 analytically  !
 ! D55   D(4,5,14,27)           83.1861         calculate D2E/DX2 analytically  !
 ! D56   D(10,5,14,27)        -162.7184         calculate D2E/DX2 analytically  !
 ! D57   D(2,12,19,20)        -177.4743         calculate D2E/DX2 analytically  !
 ! D58   D(2,12,19,21)         -58.8733         calculate D2E/DX2 analytically  !
 ! D59   D(2,12,19,22)          63.9424         calculate D2E/DX2 analytically  !
 ! D60   D(1,13,23,24)         -53.8954         calculate D2E/DX2 analytically  !
 ! D61   D(1,13,23,25)          69.5957         calculate D2E/DX2 analytically  !
 ! D62   D(1,13,23,26)        -172.0013         calculate D2E/DX2 analytically  !
 ! D63   D(5,14,27,28)         -53.8927         calculate D2E/DX2 analytically  !
 ! D64   D(5,14,27,29)          69.519          calculate D2E/DX2 analytically  !
 ! D65   D(5,14,27,30)        -172.149          calculate D2E/DX2 analytically  !
 ! D66   D(4,15,18,31)         -77.8601         calculate D2E/DX2 analytically  !
 ! D67   D(16,15,18,31)         45.3725         calculate D2E/DX2 analytically  !
 ! D68   D(17,15,18,31)        164.2389         calculate D2E/DX2 analytically  !
 ! D69   D(15,18,31,32)       -170.4641         calculate D2E/DX2 analytically  !
 ! D70   D(15,18,31,33)        -51.7434         calculate D2E/DX2 analytically  !
 ! D71   D(15,18,31,34)         71.0095         calculate D2E/DX2 analytically  !
 --------------------------------------------------------------------------------
 Trust Radius=1.00D-02 FncErr=1.00D-07 GrdErr=1.00D-06 EigMax=2.50D+02 EigMin=1.00D-04
 Number of steps in this run=    177 maximum allowed number of steps=    204.
 GradGradGradGradGradGradGradGradGradGradGradGradGradGradGradGradGradGrad

 Leave Link  103 at Sat May 25 18:04:04 2019, MaxMem=   402653184 cpu:               0.2 elap:               0.1
 (Enter /n/sw/g16_nehalem/g16/l202.exe)
                          Input orientation:                          
 ---------------------------------------------------------------------
 Center     Atomic      Atomic             Coordinates (Angstroms)
 Number     Number       Type             X           Y           Z
 ---------------------------------------------------------------------
      1          6           0        0.978976    0.532475    0.390923
      2          6           0        1.693686   -0.790170   -0.033655
      3          6           0        0.948355   -1.945872    0.534828
      4          6           0       -1.211995   -0.822253    0.429150
      5          6           0       -0.495514    0.461688   -0.052733
      6          1           0        1.485454   -2.844483    0.841861
      7          1           0        1.644505   -0.896235   -1.134002
      8          1           0        1.050029    0.578488    1.481475
      9          1           0       -1.713355   -0.651675    1.381466
     10          1           0       -0.534411    0.462775   -1.145291
     11          8           0       -0.284531   -1.956687    0.778634
     12          8           0        2.998911   -0.882731    0.456692
     13          8           0        1.668931    1.668637   -0.055116
     14          8           0       -1.268077    1.584670    0.320782
     15          6           0       -2.161349   -1.447021   -0.623726
     16          1           0       -2.724229   -2.269075   -0.160638
     17          1           0       -1.546964   -1.857082   -1.432659
     18          8           0       -3.000687   -0.487434   -1.202666
     19          6           0        4.041317   -0.632061   -0.496915
     20          1           0        4.977604   -0.790579    0.039376
     21          1           0        3.980850   -1.331342   -1.339457
     22          1           0        3.996823    0.399902   -0.858060
     23          6           0        1.510461    2.061216   -1.422851
     24          1           0        1.734105    1.243049   -2.120113
     25          1           0        0.502897    2.443528   -1.613862
     26          1           0        2.235152    2.861174   -1.580829
     27          6           0       -1.111537    2.085158    1.653409
     28          1           0       -1.261035    1.308168    2.414913
     29          1           0       -0.129462    2.549075    1.790832
     30          1           0       -1.887344    2.843091    1.771241
     31          6           0       -4.110631   -0.090727   -0.395736
     32          1           0       -4.752718    0.515238   -1.037622
     33          1           0       -4.672089   -0.965598   -0.042008
     34          1           0       -3.792795    0.515341    0.460610
 ---------------------------------------------------------------------
                    Distance matrix (angstroms):
                    1          2          3          4          5
     1  C    0.000000
     2  C    1.562199   0.000000
     3  C    2.482710   1.488065   0.000000
     4  C    2.576258   2.942482   2.437376   0.000000
     5  C    1.541416   2.521926   2.868158   1.547275   0.000000
     6  H    3.444374   2.242786   1.090984   3.396465   3.956678
     7  H    2.193066   1.106541   2.090779   3.257071   2.755500
     8  H    1.093832   2.140826   2.697938   2.861156   2.180858
     9  H    3.103552   3.691839   3.078383   1.089663   2.186239
    10  H    2.157580   2.787476   3.289829   2.142261   1.093251
    11  O    2.818279   2.435963   1.256808   1.506409   2.565974
    12  O    2.467240   1.397362   2.311094   4.211430   3.778622
    13  O    1.402089   2.459025   3.732551   3.839112   2.478216
    14  O    2.482193   3.812811   4.174100   2.410014   1.413314
    15  C    3.848319   3.954862   3.355795   1.549244   2.596962
    16  H    4.676177   4.660607   3.751800   2.174395   3.526454
    17  H    3.926297   3.687455   3.178916   2.156249   2.895935
    18  O    4.406524   4.847203   4.554213   2.444248   2.915316
    19  C    3.394456   2.398120   3.515253   5.337701   4.687901
    20  H    4.226474   3.284730   4.220785   6.201940   5.615307
    21  H    3.934371   2.688700   3.617543   5.509336   4.990837
    22  H    3.268782   2.720359   4.090960   5.502941   4.564369
    23  C    2.430905   3.177080   4.495022   4.376765   2.908548
    24  H    2.716696   2.913575   4.223190   4.409503   3.139393
    25  H    2.810327   3.791020   4.907355   4.216643   2.713234
    26  H    3.299791   4.002405   5.407360   5.430513   3.943241
    27  C    2.893949   4.356945   4.663001   3.156254   2.434350
    28  H    3.117031   4.373658   4.359461   2.912791   2.718792
    29  H    2.693521   4.219381   4.789967   3.793667   2.808898
    30  H    3.931922   5.411286   5.701234   3.961319   3.306834
    31  C    5.187611   5.857510   5.468167   3.101235   3.673130
    32  H    5.907060   6.653433   6.405614   4.059190   4.369973
    33  H    5.862268   6.368197   5.734376   3.494966   4.413733
    34  H    4.772311   5.661283   5.342432   2.907005   3.337433
                    6          7          8          9         10
     6  H    0.000000
     7  H    2.779389   0.000000
     8  H    3.509335   3.060871   0.000000
     9  H    3.915605   4.202691   3.026482   0.000000
    10  H    4.355064   2.568017   3.069811   3.002734   0.000000
    11  O    1.981168   2.916147   2.949940   2.026820   3.101246
    12  O    2.507464   2.089236   2.642628   4.807707   4.106227
    13  O    4.605050   2.782653   1.983072   4.345972   2.738120
    14  O    5.241264   4.093216   2.780868   2.514868   1.986526
    15  C    4.171333   3.879210   4.341372   2.203195   2.562475
    16  H    4.365493   4.681663   5.005015   2.452740   3.637011
    17  H    3.917137   3.346326   4.600929   3.065941   2.547465
    18  O    5.464543   4.663651   4.974847   2.891701   2.643616
    19  C    3.635872   2.494068   3.785137   6.053507   4.749352
    20  H    4.130087   3.535184   4.402254   6.825645   5.775521
    21  H    3.643452   2.385380   4.493865   6.347388   4.862524
    22  H    4.441029   2.699910   3.766817   6.223136   4.540764
    23  C    5.403279   2.974545   3.293264   5.061320   2.610279
    24  H    5.054012   2.357325   3.725726   5.266499   2.589454
    25  H    5.912618   3.561959   3.654975   4.843970   2.284502
    26  H    6.243877   3.829705   3.999110   6.058548   3.689511
    27  C    5.630660   4.924848   2.640451   2.815385   3.286019
    28  H    5.221322   5.088846   2.597067   2.261325   3.730647
    29  H    5.709551   4.855077   2.317351   3.594593   3.624562
    30  H    6.677426   5.907364   3.720289   3.520737   4.000311
    31  C    6.358536   5.857941   5.532105   3.036452   3.695612
    32  H    7.330414   6.551794   6.326272   4.056033   4.220007
    33  H    6.498213   6.410665   6.119464   3.298323   4.514185
    34  H    6.268467   5.839483   4.949656   2.556164   3.633008
                   11         12         13         14         15
    11  O    0.000000
    12  O    3.469585   0.000000
    13  O    4.201681   2.922375   0.000000
    14  O    3.703809   4.930895   2.962156   0.000000
    15  C    2.397669   5.302265   4.970079   3.298663   0.000000
    16  H    2.632859   5.920927   5.900556   4.147710   1.098662
    17  H    2.548230   5.018365   4.966921   3.872724   1.095441
    18  O    3.669027   6.237380   5.269805   3.101040   1.400167
    19  C    4.700491   1.434856   3.334159   5.811384   6.257260
    20  H    5.440255   2.024320   4.123589   6.688014   7.199672
    21  H    4.803212   2.095616   3.999297   6.229828   6.184841
    22  H    5.153860   2.090347   2.770106   5.523814   6.433438
    23  C    4.920577   3.796708   1.431758   3.314759   5.140867
    24  H    4.766124   3.571918   2.109404   3.884298   4.964898
    25  H    5.070106   4.645565   2.095180   2.759861   4.818189
    26  H    5.926859   4.330317   2.017561   4.185475   6.229431
    27  C    4.217307   5.209249   3.289916   1.432092   4.331713
    28  H    3.780244   5.175114   3.849114   2.112318   4.199400
    29  H    4.620658   4.831557   2.723401   2.094652   5.091899
    30  H    5.156757   6.283731   4.166775   2.017659   4.920976
    31  C    4.415880   7.204130   6.051010   3.376458   2.385626
    32  H    5.419769   8.017172   6.597971   3.889945   3.276731
    33  H    4.572349   7.687640   6.866433   4.268815   2.621827
    34  H    4.303484   6.934111   5.605936   2.745399   2.772772
                   16         17         18         19         20
    16  H    0.000000
    17  H    1.781496   0.000000
    18  O    2.082426   2.010508   0.000000
    19  C    6.968896   5.796997   7.078758   0.000000
    20  H    7.845010   6.773057   8.080080   1.090582   0.000000
    21  H    6.872193   5.553541   7.033687   1.096598   1.785252
    22  H    7.265148   6.013129   7.061959   1.094236   1.784536
    23  C    6.186857   4.970010   5.185996   3.810030   4.721432
    24  H    6.004273   4.566051   5.123918   3.387335   4.395375
    25  H    5.893626   4.767600   4.586363   4.819464   5.763302
    26  H    7.275428   6.048826   6.226572   4.079190   4.845762
    27  C    4.985066   5.025402   4.283022   6.209596   6.924782
    28  H    4.644466   4.990428   4.397437   6.352808   6.997752
    29  H    5.809959   5.640428   5.140559   5.722658   6.348465
    30  H    5.528723   5.698461   4.601744   7.236728   7.958042
    31  C    2.592794   3.281403   1.428457   8.170528   9.125521
    32  H    3.554753   4.007595   2.025390   8.885027   9.876449
    33  H    2.346760   3.534835   2.090300   8.731645   9.651623
    34  H    3.046433   3.775793   2.097494   7.975381   8.877092
                   21         22         23         24         25
    21  H    0.000000
    22  H    1.796999   0.000000
    23  C    4.197526   3.043181   0.000000
    24  H    3.504964   2.724622   1.097993   0.000000
    25  H    5.140146   4.117665   1.094456   1.792572   0.000000
    26  H    4.547847   3.111871   1.090902   1.777696   1.782197
    27  C    6.823645   5.936574   4.042131   4.800656   3.661951
    28  H    6.967041   6.259582   4.793402   5.435215   4.542194
    29  H    6.461502   5.353672   3.640757   4.524829   3.464529
    30  H    7.844618   6.892446   4.728491   5.551366   4.163151
    31  C    8.240255   8.135433   6.105940   6.238058   5.402862
    32  H    8.931751   8.752143   6.462651   6.616674   5.627774
    33  H    8.757311   8.813658   7.020844   7.087733   6.393227
    34  H    8.190240   7.901289   5.836238   6.142989   5.145319
                   26         27         28         29         30
    26  H    0.000000
    27  C    4.718350   0.000000
    28  H    5.531827   1.098158   0.000000
    29  H    4.130000   1.094795   1.791587   0.000000
    30  H    5.313349   1.090974   1.778360   1.782408   0.000000
    31  C    7.098389   4.234151   4.239912   5.253507   4.271543
    32  H    7.391131   4.792129   4.973991   5.788881   4.638855
    33  H    8.045007   4.985888   4.779306   6.028904   5.054581
    34  H    6.782813   3.328098   3.295100   4.396086   3.281298
                   31         32         33         34
    31  C    0.000000
    32  H    1.091553   0.000000
    33  H    1.098070   1.786232   0.000000
    34  H    1.096206   1.779368   1.794147   0.000000
 Stoichiometry    C10H19O5(1+)
 Framework group  C1[X(C10H19O5)]
 Deg. of freedom    96
 Full point group                 C1      NOp   1
 Largest Abelian subgroup         C1      NOp   1
 Largest concise Abelian subgroup C1      NOp   1
                         Standard orientation:                         
 ---------------------------------------------------------------------
 Center     Atomic      Atomic             Coordinates (Angstroms)
 Number     Number       Type             X           Y           Z
 ---------------------------------------------------------------------
      1          6           0        0.978976    0.532475    0.390923
      2          6           0        1.693686   -0.790170   -0.033655
      3          6           0        0.948355   -1.945872    0.534828
      4          6           0       -1.211995   -0.822253    0.429150
      5          6           0       -0.495514    0.461688   -0.052733
      6          1           0        1.485454   -2.844483    0.841861
      7          1           0        1.644505   -0.896235   -1.134002
      8          1           0        1.050029    0.578488    1.481475
      9          1           0       -1.713355   -0.651675    1.381466
     10          1           0       -0.534411    0.462775   -1.145291
     11          8           0       -0.284531   -1.956687    0.778634
     12          8           0        2.998911   -0.882731    0.456692
     13          8           0        1.668931    1.668637   -0.055116
     14          8           0       -1.268077    1.584670    0.320782
     15          6           0       -2.161349   -1.447021   -0.623726
     16          1           0       -2.724229   -2.269075   -0.160638
     17          1           0       -1.546964   -1.857082   -1.432659
     18          8           0       -3.000687   -0.487434   -1.202666
     19          6           0        4.041317   -0.632061   -0.496915
     20          1           0        4.977604   -0.790579    0.039376
     21          1           0        3.980850   -1.331342   -1.339457
     22          1           0        3.996823    0.399902   -0.858060
     23          6           0        1.510461    2.061216   -1.422851
     24          1           0        1.734105    1.243049   -2.120113
     25          1           0        0.502897    2.443528   -1.613862
     26          1           0        2.235152    2.861174   -1.580829
     27          6           0       -1.111537    2.085158    1.653409
     28          1           0       -1.261035    1.308168    2.414913
     29          1           0       -0.129462    2.549075    1.790832
     30          1           0       -1.887344    2.843091    1.771241
     31          6           0       -4.110631   -0.090727   -0.395736
     32          1           0       -4.752718    0.515238   -1.037622
     33          1           0       -4.672089   -0.965598   -0.042008
     34          1           0       -3.792795    0.515341    0.460610
 ---------------------------------------------------------------------
 Rotational constants (GHZ):           0.8957302           0.4108630           0.3368360
 Leave Link  202 at Sat May 25 18:04:04 2019, MaxMem=   402653184 cpu:               0.4 elap:               0.1
 (Enter /n/sw/g16_nehalem/g16/l301.exe)
 Standard basis: 6-31G(d) (6D, 7F)
 Ernie: Thresh=  0.10000D-02 Tol=  0.10000D-05 Strict=F.
 There are   263 symmetry adapted cartesian basis functions of A   symmetry.
 There are   263 symmetry adapted basis functions of A   symmetry.
   263 basis functions,   496 primitive gaussians,   263 cartesian basis functions
    59 alpha electrons       59 beta electrons
       nuclear repulsion energy      1164.1960283349 Hartrees.
 IExCor=  402 DFT=T Ex+Corr=B3LYP ExCW=0 ScaHFX=  0.200000
 ScaDFX=  0.800000  0.720000  1.000000  0.810000 ScalE2=  1.000000  1.000000
 IRadAn=      5 IRanWt=     -1 IRanGd=            0 ICorTp=0 IEmpDi=  4
 NAtoms=   34 NActive=   34 NUniq=   34 SFac= 1.00D+00 NAtFMM=   60 NAOKFM=F Big=F
 Integral buffers will be    131072 words long.
 Raffenetti 2 integral format.
 Two-electron integral symmetry is turned on.
 Force inversion solution in PCM.
 ------------------------------------------------------------------------------
 Polarizable Continuum Model (PCM)
 =================================
 Model                : PCM.
 Atomic radii         : UFF (Universal Force Field).
 Polarization charges : Total charges.
 Charge compensation  : None.
 Solution method      : Matrix inversion.
 Cavity type          : Scaled VdW (van der Waals Surface) (Alpha=1.100).
 Cavity algorithm     : GePol (No added spheres)
                        Default sphere list used, NSphG=   34.
                        Lebedev-Laikov grids with approx.  5.0 points / Ang**2.
                        Smoothing algorithm: York/Karplus (Gamma=1.0000).
                        Polarization charges: spherical gaussians, with
                                              point-specific exponents (IZeta= 3).
                        Self-potential: point-specific (ISelfS= 7).
                        Self-field    : sphere-specific E.n sum rule (ISelfD= 2).
 1st derivatives      : Analytical E(r).r(x)/FMM algorithm (CHGder, D1EAlg=3).
                        Cavity 1st derivative terms included.
 2nd derivatives      : Analytical E(r).r(xy)/FMM algorithm (CHGder, D2EAlg=3).
                        Cavity 2nd derivative terms included.
 Solvent              : TetraHydroFuran, Eps=   7.425700 Eps(inf)=   1.974025
 ------------------------------------------------------------------------------
 GePol: Number of generator spheres                  =      34
 GePol: Total number of spheres                      =      34
 GePol: Number of exposed spheres                    =      34 (100.00%)
 GePol: Number of points                             =    2243
 GePol: Average weight of points                     =       0.13
 GePol: Minimum weight of points                     =   0.11D-10
 GePol: Maximum weight of points                     =    0.20577
 GePol: Number of points with low weight             =     134
 GePol: Fraction of low-weight points (<1% of avg)   =       5.97%
 GePol: Cavity surface area                          =    296.528 Ang**2
 GePol: Cavity volume                                =    321.229 Ang**3
 Leave Link  301 at Sat May 25 18:04:04 2019, MaxMem=   402653184 cpu:               0.3 elap:               0.1
 (Enter /n/sw/g16_nehalem/g16/l302.exe)
 NPDir=0 NMtPBC=     1 NCelOv=     1 NCel=       1 NClECP=     1 NCelD=      1
         NCelK=      1 NCelE2=     1 NClLst=     1 CellRange=     0.0.
 One-electron integrals computed using PRISM.
 One-electron integral symmetry used in STVInt
 NBasis=   263 RedAO= T EigKep=  1.71D-03  NBF=   263
 NBsUse=   263 1.00D-06 EigRej= -1.00D+00 NBFU=   263
 Precomputing XC quadrature grid using
 IXCGrd= 4 IRadAn=           5 IRanWt=          -1 IRanGd=           0 AccXCQ= 0.00D+00.
 Generated NRdTot=       0 NPtTot=           0 NUsed=           0 NTot=          32
 NSgBfM=   263   263   263   263   263 MxSgAt=    34 MxSgA2=    34.
 Leave Link  302 at Sat May 25 18:04:05 2019, MaxMem=   402653184 cpu:               3.2 elap:               0.9
 (Enter /n/sw/g16_nehalem/g16/l303.exe)
 DipDrv:  MaxL=1.
 Leave Link  303 at Sat May 25 18:04:05 2019, MaxMem=   402653184 cpu:               0.3 elap:               0.1
 (Enter /n/sw/g16_nehalem/g16/l401.exe)
 ExpMin= 1.61D-01 ExpMax= 5.48D+03 ExpMxC= 8.25D+02 IAcc=3 IRadAn=         5 AccDes= 0.00D+00
 Harris functional with IExCor=  402 and IRadAn=       5 diagonalized for initial guess.
 HarFok:  IExCor=  402 AccDes= 0.00D+00 IRadAn=         5 IDoV= 1 UseB2=F ITyADJ=14
 ICtDFT=  3500011 ScaDFX=  1.000000  1.000000  1.000000  1.000000
 FoFCou: FMM=F IPFlag=           0 FMFlag=      100000 FMFlg1=           0
         NFxFlg=           0 DoJE=T BraDBF=F KetDBF=T FulRan=T
         wScrn=  0.000000 ICntrl=       500 IOpCl=  0 I1Cent=   200000004 NGrid=           0
         NMat0=    1 NMatS0=      1 NMatT0=    0 NMatD0=    1 NMtDS0=    0 NMtDT0=    0
 Petite list used in FoFCou.
 Harris En= -768.254602511879    
 JPrj=0 DoOrth=F DoCkMO=F.
 Leave Link  401 at Sat May 25 18:04:10 2019, MaxMem=   402653184 cpu:              20.8 elap:               5.2
 (Enter /n/sw/g16_nehalem/g16/l502.exe)
 Integral symmetry usage will be decided dynamically.
 Closed shell SCF:
 Using DIIS extrapolation, IDIIS=  1040.
 NGot=   402653184 LenX=   402510103 LenY=   402440493
 Requested convergence on RMS density matrix=1.00D-08 within 128 cycles.
 Requested convergence on MAX density matrix=1.00D-06.
 Requested convergence on             energy=1.00D-06.
 No special actions if energy rises.
 Fock matrices will be formed incrementally for  20 cycles.

 Cycle   1  Pass 1  IDiag  1:
 FoFJK:  IHMeth= 1 ICntrl=       0 DoSepK=F KAlg= 0 I1Cent=           0 FoldK=F
 IRaf= 880000000 NMat=       1 IRICut=       1 DoRegI=T DoRafI=F ISym2E= 0 IDoP0=0 IntGTp=1.
 FoFCou: FMM=F IPFlag=           0 FMFlag=      100000 FMFlg1=           0
         NFxFlg=           0 DoJE=F BraDBF=F KetDBF=F FulRan=T
         wScrn=  0.000000 ICntrl=         0 IOpCl=  0 I1Cent=           0 NGrid=           0
         NMat0=    1 NMatS0=      1 NMatT0=    0 NMatD0=    1 NMtDS0=    0 NMtDT0=    0
 Symmetry not used in FoFCou.
 Inv3:  Mode=1 IEnd=    15093147.
 Iteration    1 A*A^-1 deviation from unit magnitude is 5.11D-15 for   2241.
 Iteration    1 A*A^-1 deviation from orthogonality  is 2.87D-15 for   2206   1117.
 Iteration    1 A^-1*A deviation from unit magnitude is 5.11D-15 for   2241.
 Iteration    1 A^-1*A deviation from orthogonality  is 2.74D-15 for   2230    621.
 E= -768.077296277398    
 DIIS: error= 1.68D-02 at cycle   1 NSaved=   1.
 NSaved= 1 IEnMin= 1 EnMin= -768.077296277398     IErMin= 1 ErrMin= 1.68D-02
 ErrMax= 1.68D-02  0.00D+00 EMaxC= 1.00D-01 BMatC= 2.56D-01 BMatP= 2.56D-01
 IDIUse=3 WtCom= 8.32D-01 WtEn= 1.68D-01
 Coeff-Com:  0.100D+01
 Coeff-En:   0.100D+01
 Coeff:      0.100D+01
 Gap=     0.011 Goal=   None    Shift=    0.000
 GapD=    0.011 DampG=0.250 DampE=0.500 DampFc=0.2500 IDamp=-1.
 Damping current iteration by 2.50D-01
 RMSDP=5.01D-03 MaxDP=1.54D-01              OVMax= 3.98D-01

 Cycle   2  Pass 1  IDiag  1:
 RMSU=  1.25D-03    CP:  9.94D-01
 E= -768.149887810708     Delta-E=       -0.072591533311 Rises=F Damp=T
 DIIS: error= 9.10D-03 at cycle   2 NSaved=   2.
 NSaved= 2 IEnMin= 2 EnMin= -768.149887810708     IErMin= 2 ErrMin= 9.10D-03
 ErrMax= 9.10D-03  0.00D+00 EMaxC= 1.00D-01 BMatC= 6.80D-02 BMatP= 2.56D-01
 IDIUse=3 WtCom= 9.09D-01 WtEn= 9.10D-02
 Coeff-Com: -0.627D+00 0.163D+01
 Coeff-En:   0.000D+00 0.100D+01
 Coeff:     -0.570D+00 0.157D+01
 Gap=     0.137 Goal=   None    Shift=    0.000
 RMSDP=1.46D-03 MaxDP=4.63D-02 DE=-7.26D-02 OVMax= 4.32D-01

 Cycle   3  Pass 1  IDiag  1:
 RMSU=  1.44D-03    CP:  9.85D-01  1.09D+00
 E= -768.275145768294     Delta-E=       -0.125257957586 Rises=F Damp=F
 DIIS: error= 7.99D-03 at cycle   3 NSaved=   3.
 NSaved= 3 IEnMin= 3 EnMin= -768.275145768294     IErMin= 3 ErrMin= 7.99D-03
 ErrMax= 7.99D-03  0.00D+00 EMaxC= 1.00D-01 BMatC= 4.92D-02 BMatP= 6.80D-02
 IDIUse=3 WtCom= 9.20D-01 WtEn= 7.99D-02
 Coeff-Com: -0.497D+00 0.101D+01 0.487D+00
 Coeff-En:   0.000D+00 0.000D+00 0.100D+01
 Coeff:     -0.457D+00 0.929D+00 0.528D+00
 Gap=     0.133 Goal=   None    Shift=    0.000
 RMSDP=8.86D-04 MaxDP=3.03D-02 DE=-1.25D-01 OVMax= 4.65D-02

 Cycle   4  Pass 1  IDiag  1:
 RMSU=  6.09D-04    CP:  9.89D-01  1.37D+00  6.27D-01
 E= -768.316228247520     Delta-E=       -0.041082479227 Rises=F Damp=F
 DIIS: error= 1.93D-03 at cycle   4 NSaved=   4.
 NSaved= 4 IEnMin= 4 EnMin= -768.316228247520     IErMin= 4 ErrMin= 1.93D-03
 ErrMax= 1.93D-03  0.00D+00 EMaxC= 1.00D-01 BMatC= 3.19D-03 BMatP= 4.92D-02
 IDIUse=3 WtCom= 9.81D-01 WtEn= 1.93D-02
 Coeff-Com: -0.220D+00 0.375D+00 0.221D+00 0.623D+00
 Coeff-En:   0.000D+00 0.000D+00 0.000D+00 0.100D+01
 Coeff:     -0.216D+00 0.368D+00 0.217D+00 0.630D+00
 Gap=     0.130 Goal=   None    Shift=    0.000
 RMSDP=2.17D-04 MaxDP=1.31D-02 DE=-4.11D-02 OVMax= 1.01D-02

 Cycle   5  Pass 1  IDiag  1:
 RMSU=  1.92D-04    CP:  9.89D-01  1.39D+00  6.74D-01  8.90D-01
 E= -768.318275338311     Delta-E=       -0.002047090791 Rises=F Damp=F
 DIIS: error= 1.28D-03 at cycle   5 NSaved=   5.
 NSaved= 5 IEnMin= 5 EnMin= -768.318275338311     IErMin= 5 ErrMin= 1.28D-03
 ErrMax= 1.28D-03  0.00D+00 EMaxC= 1.00D-01 BMatC= 1.07D-03 BMatP= 3.19D-03
 IDIUse=3 WtCom= 9.87D-01 WtEn= 1.28D-02
 Coeff-Com: -0.954D-01 0.142D+00 0.493D-01 0.368D+00 0.536D+00
 Coeff-En:   0.000D+00 0.000D+00 0.000D+00 0.170D+00 0.830D+00
 Coeff:     -0.941D-01 0.140D+00 0.487D-01 0.365D+00 0.540D+00
 Gap=     0.131 Goal=   None    Shift=    0.000
 RMSDP=1.05D-04 MaxDP=7.01D-03 DE=-2.05D-03 OVMax= 5.58D-03

 Cycle   6  Pass 1  IDiag  1:
 RMSU=  7.27D-05    CP:  9.89D-01  1.42D+00  6.73D-01  9.65D-01  7.31D-01
 E= -768.318976969774     Delta-E=       -0.000701631462 Rises=F Damp=F
 DIIS: error= 4.75D-04 at cycle   6 NSaved=   6.
 NSaved= 6 IEnMin= 6 EnMin= -768.318976969774     IErMin= 6 ErrMin= 4.75D-04
 ErrMax= 4.75D-04  0.00D+00 EMaxC= 1.00D-01 BMatC= 1.38D-04 BMatP= 1.07D-03
 IDIUse=3 WtCom= 9.95D-01 WtEn= 4.75D-03
 Coeff-Com: -0.353D-01 0.451D-01-0.883D-02 0.141D+00 0.333D+00 0.525D+00
 Coeff-En:   0.000D+00 0.000D+00 0.000D+00 0.000D+00 0.000D+00 0.100D+01
 Coeff:     -0.351D-01 0.449D-01-0.878D-02 0.140D+00 0.332D+00 0.527D+00
 Gap=     0.130 Goal=   None    Shift=    0.000
 RMSDP=3.58D-05 MaxDP=2.21D-03 DE=-7.02D-04 OVMax= 1.81D-03

 Cycle   7  Pass 1  IDiag  1:
 RMSU=  2.58D-05    CP:  9.89D-01  1.42D+00  6.70D-01  9.90D-01  7.97D-01
                    CP:  8.18D-01
 E= -768.319082729305     Delta-E=       -0.000105759532 Rises=F Damp=F
 DIIS: error= 1.25D-04 at cycle   7 NSaved=   7.
 NSaved= 7 IEnMin= 7 EnMin= -768.319082729305     IErMin= 7 ErrMin= 1.25D-04
 ErrMax= 1.25D-04  0.00D+00 EMaxC= 1.00D-01 BMatC= 1.19D-05 BMatP= 1.38D-04
 IDIUse=3 WtCom= 9.99D-01 WtEn= 1.25D-03
 Coeff-Com: -0.870D-02 0.881D-02-0.157D-01 0.269D-01 0.116D+00 0.274D+00
 Coeff-Com:  0.598D+00
 Coeff-En:   0.000D+00 0.000D+00 0.000D+00 0.000D+00 0.000D+00 0.000D+00
 Coeff-En:   0.100D+01
 Coeff:     -0.869D-02 0.880D-02-0.157D-01 0.269D-01 0.116D+00 0.274D+00
 Coeff:      0.599D+00
 Gap=     0.129 Goal=   None    Shift=    0.000
 RMSDP=1.43D-05 MaxDP=6.49D-04 DE=-1.06D-04 OVMax= 5.06D-04

 Cycle   8  Pass 1  IDiag  1:
 RMSU=  7.88D-06    CP:  9.89D-01  1.43D+00  6.69D-01  1.00D+00  8.24D-01
                    CP:  8.69D-01  8.04D-01
 E= -768.319093736648     Delta-E=       -0.000011007342 Rises=F Damp=F
 DIIS: error= 4.65D-05 at cycle   8 NSaved=   8.
 NSaved= 8 IEnMin= 8 EnMin= -768.319093736648     IErMin= 8 ErrMin= 4.65D-05
 ErrMax= 4.65D-05  0.00D+00 EMaxC= 1.00D-01 BMatC= 8.53D-07 BMatP= 1.19D-05
 IDIUse=1 WtCom= 1.00D+00 WtEn= 0.00D+00
 Coeff-Com: -0.543D-03 0.144D-03-0.544D-02-0.630D-02 0.447D-02 0.325D-01
 Coeff-Com:  0.227D+00 0.748D+00
 Coeff:     -0.543D-03 0.144D-03-0.544D-02-0.630D-02 0.447D-02 0.325D-01
 Coeff:      0.227D+00 0.748D+00
 Gap=     0.129 Goal=   None    Shift=    0.000
 RMSDP=5.12D-06 MaxDP=1.78D-04 DE=-1.10D-05 OVMax= 4.29D-04

 Cycle   9  Pass 1  IDiag  1:
 RMSU=  3.01D-06    CP:  9.89D-01  1.43D+00  6.69D-01  1.01D+00  8.33D-01
                    CP:  8.93D-01  8.88D-01  9.76D-01
 E= -768.319094445136     Delta-E=       -0.000000708488 Rises=F Damp=F
 DIIS: error= 1.23D-05 at cycle   9 NSaved=   9.
 NSaved= 9 IEnMin= 9 EnMin= -768.319094445136     IErMin= 9 ErrMin= 1.23D-05
 ErrMax= 1.23D-05  0.00D+00 EMaxC= 1.00D-01 BMatC= 1.51D-07 BMatP= 8.53D-07
 IDIUse=1 WtCom= 1.00D+00 WtEn= 0.00D+00
 Coeff-Com:  0.210D-03-0.297D-03-0.158D-02-0.559D-02-0.790D-02-0.830D-02
 Coeff-Com:  0.668D-01 0.424D+00 0.532D+00
 Coeff:      0.210D-03-0.297D-03-0.158D-02-0.559D-02-0.790D-02-0.830D-02
 Coeff:      0.668D-01 0.424D+00 0.532D+00
 Gap=     0.129 Goal=   None    Shift=    0.000
 RMSDP=1.63D-06 MaxDP=4.78D-05 DE=-7.08D-07 OVMax= 1.35D-04

 Cycle  10  Pass 1  IDiag  1:
 RMSU=  9.63D-07    CP:  9.89D-01  1.43D+00  6.69D-01  1.01D+00  8.34D-01
                    CP:  9.00D-01  9.05D-01  1.05D+00  7.10D-01
 E= -768.319094576289     Delta-E=       -0.000000131153 Rises=F Damp=F
 DIIS: error= 2.01D-06 at cycle  10 NSaved=  10.
 NSaved=10 IEnMin=10 EnMin= -768.319094576289     IErMin=10 ErrMin= 2.01D-06
 ErrMax= 2.01D-06  0.00D+00 EMaxC= 1.00D-01 BMatC= 4.71D-09 BMatP= 1.51D-07
 IDIUse=1 WtCom= 1.00D+00 WtEn= 0.00D+00
 Coeff-Com:  0.193D-03-0.236D-03-0.155D-03-0.156D-02-0.356D-02-0.602D-02
 Coeff-Com: -0.494D-03 0.676D-01 0.151D+00 0.793D+00
 Coeff:      0.193D-03-0.236D-03-0.155D-03-0.156D-02-0.356D-02-0.602D-02
 Coeff:     -0.494D-03 0.676D-01 0.151D+00 0.793D+00
 Gap=     0.129 Goal=   None    Shift=    0.000
 RMSDP=5.41D-07 MaxDP=1.69D-05 DE=-1.31D-07 OVMax= 5.34D-05

 Cycle  11  Pass 1  IDiag  1:
 RMSU=  2.67D-07    CP:  9.89D-01  1.43D+00  6.69D-01  1.01D+00  8.35D-01
                    CP:  9.02D-01  9.13D-01  1.07D+00  7.54D-01  1.02D+00
 E= -768.319094581887     Delta-E=       -0.000000005599 Rises=F Damp=F
 DIIS: error= 8.91D-07 at cycle  11 NSaved=  11.
 NSaved=11 IEnMin=11 EnMin= -768.319094581887     IErMin=11 ErrMin= 8.91D-07
 ErrMax= 8.91D-07  0.00D+00 EMaxC= 1.00D-01 BMatC= 9.55D-10 BMatP= 4.71D-09
 IDIUse=1 WtCom= 1.00D+00 WtEn= 0.00D+00
 Coeff-Com:  0.456D-04-0.491D-04 0.438D-04-0.226D-03-0.977D-03-0.189D-02
 Coeff-Com: -0.570D-02 0.598D-04 0.309D-01 0.413D+00 0.565D+00
 Coeff:      0.456D-04-0.491D-04 0.438D-04-0.226D-03-0.977D-03-0.189D-02
 Coeff:     -0.570D-02 0.598D-04 0.309D-01 0.413D+00 0.565D+00
 Gap=     0.129 Goal=   None    Shift=    0.000
 RMSDP=1.76D-07 MaxDP=5.61D-06 DE=-5.60D-09 OVMax= 1.82D-05

 Cycle  12  Pass 1  IDiag  1:
 RMSU=  1.10D-07    CP:  9.89D-01  1.43D+00  6.69D-01  1.01D+00  8.35D-01
                    CP:  9.03D-01  9.13D-01  1.08D+00  7.73D-01  1.08D+00
                    CP:  7.31D-01
 E= -768.319094582800     Delta-E=       -0.000000000913 Rises=F Damp=F
 DIIS: error= 2.47D-07 at cycle  12 NSaved=  12.
 NSaved=12 IEnMin=12 EnMin= -768.319094582800     IErMin=12 ErrMin= 2.47D-07
 ErrMax= 2.47D-07  0.00D+00 EMaxC= 1.00D-01 BMatC= 7.31D-11 BMatP= 9.55D-10
 IDIUse=1 WtCom= 1.00D+00 WtEn= 0.00D+00
 Coeff-Com:  0.339D-05-0.274D-05 0.356D-04 0.929D-04 0.189D-04 0.810D-04
 Coeff-Com: -0.253D-02-0.885D-02-0.889D-02 0.455D-01 0.233D+00 0.741D+00
 Coeff:      0.339D-05-0.274D-05 0.356D-04 0.929D-04 0.189D-04 0.810D-04
 Coeff:     -0.253D-02-0.885D-02-0.889D-02 0.455D-01 0.233D+00 0.741D+00
 Gap=     0.129 Goal=   None    Shift=    0.000
 RMSDP=5.69D-08 MaxDP=1.65D-06 DE=-9.13D-10 OVMax= 6.56D-06

 Cycle  13  Pass 1  IDiag  1:
 RMSU=  2.47D-08    CP:  9.89D-01  1.43D+00  6.69D-01  1.01D+00  8.35D-01
                    CP:  9.03D-01  9.14D-01  1.08D+00  7.75D-01  1.11D+00
                    CP:  8.35D-01  9.02D-01
 E= -768.319094582905     Delta-E=       -0.000000000105 Rises=F Damp=F
 DIIS: error= 8.02D-08 at cycle  13 NSaved=  13.
 NSaved=13 IEnMin=13 EnMin= -768.319094582905     IErMin=13 ErrMin= 8.02D-08
 ErrMax= 8.02D-08  0.00D+00 EMaxC= 1.00D-01 BMatC= 3.43D-12 BMatP= 7.31D-11
 IDIUse=1 WtCom= 1.00D+00 WtEn= 0.00D+00
 Coeff-Com: -0.225D-05 0.299D-05 0.104D-04 0.511D-04 0.667D-04 0.169D-03
 Coeff-Com: -0.602D-03-0.311D-02-0.515D-02-0.809D-02 0.562D-01 0.274D+00
 Coeff-Com:  0.686D+00
 Coeff:     -0.225D-05 0.299D-05 0.104D-04 0.511D-04 0.667D-04 0.169D-03
 Coeff:     -0.602D-03-0.311D-02-0.515D-02-0.809D-02 0.562D-01 0.274D+00
 Coeff:      0.686D+00
 Gap=     0.129 Goal=   None    Shift=    0.000
 RMSDP=1.18D-08 MaxDP=3.36D-07 DE=-1.05D-10 OVMax= 1.17D-06

 Cycle  14  Pass 1  IDiag  1:
 RMSU=  7.34D-09    CP:  9.89D-01  1.43D+00  6.69D-01  1.01D+00  8.35D-01
                    CP:  9.03D-01  9.14D-01  1.08D+00  7.77D-01  1.11D+00
                    CP:  8.52D-01  9.47D-01  9.54D-01
 E= -768.319094582915     Delta-E=       -0.000000000010 Rises=F Damp=F
 DIIS: error= 2.77D-08 at cycle  14 NSaved=  14.
 NSaved=14 IEnMin=14 EnMin= -768.319094582915     IErMin=14 ErrMin= 2.77D-08
 ErrMax= 2.77D-08  0.00D+00 EMaxC= 1.00D-01 BMatC= 5.47D-13 BMatP= 3.43D-12
 IDIUse=1 WtCom= 1.00D+00 WtEn= 0.00D+00
 Coeff-Com: -0.802D-06 0.799D-06-0.299D-06 0.808D-05 0.216D-04 0.607D-04
 Coeff-Com:  0.687D-04-0.139D-03-0.111D-02-0.999D-02-0.695D-02 0.220D-01
 Coeff-Com:  0.310D+00 0.686D+00
 Coeff:     -0.802D-06 0.799D-06-0.299D-06 0.808D-05 0.216D-04 0.607D-04
 Coeff:      0.687D-04-0.139D-03-0.111D-02-0.999D-02-0.695D-02 0.220D-01
 Coeff:      0.310D+00 0.686D+00
 Gap=     0.129 Goal=   None    Shift=    0.000
 RMSDP=4.19D-09 MaxDP=1.01D-07 DE=-9.55D-12 OVMax= 4.03D-07

 Error on total polarization charges =  0.01320
 SCF Done:  E(RB3LYP) =  -768.319094583     A.U. after   14 cycles
            NFock= 14  Conv=0.42D-08     -V/T= 2.0091
 KE= 7.613870820440D+02 PE=-4.103040420582D+03 EE= 1.409138215620D+03
 Leave Link  502 at Sat May 25 18:06:35 2019, MaxMem=   402653184 cpu:             576.6 elap:             144.3
 (Enter /n/sw/g16_nehalem/g16/l801.exe)
 DoSCS=F DFT=T ScalE2(SS,OS)=  1.000000  1.000000
 Range of M.O.s used for correlation:     1   263
 NBasis=   263 NAE=    59 NBE=    59 NFC=     0 NFV=     0
 NROrb=    263 NOA=    59 NOB=    59 NVA=   204 NVB=   204
 Leave Link  801 at Sat May 25 18:06:35 2019, MaxMem=   402653184 cpu:               0.2 elap:               0.1
 (Enter /n/sw/g16_nehalem/g16/l1101.exe)
 Using compressed storage, NAtomX=    34.
 Will process     35 centers per pass.
 Leave Link 1101 at Sat May 25 18:06:36 2019, MaxMem=   402653184 cpu:               2.1 elap:               0.7
 (Enter /n/sw/g16_nehalem/g16/l1102.exe)
 Symmetrizing basis deriv contribution to polar:
 IMax=3 JMax=2 DiffMx= 0.00D+00
 Leave Link 1102 at Sat May 25 18:06:36 2019, MaxMem=   402653184 cpu:               0.5 elap:               0.2
 (Enter /n/sw/g16_nehalem/g16/l1110.exe)
 Forming Gx(P) for the SCF density, NAtomX=    34.
 Integral derivatives from FoFJK, PRISM(SPDF).
 Do as many integral derivatives as possible in FoFJK.
 G2DrvN: MDV=     402650600.
 G2DrvN: will do    35 centers at a time, making    1 passes.
 Calling FoFCou, ICntrl=  3107 FMM=F I1Cent=   0 AccDes= 0.00D+00.
 FoFJK:  IHMeth= 1 ICntrl=    3107 DoSepK=F KAlg= 0 I1Cent=           0 FoldK=F
 IRaf=         0 NMat=       1 IRICut=       1 DoRegI=T DoRafI=F ISym2E= 0 IDoP0=0 IntGTp=1.
 FoFCou: FMM=F IPFlag=           0 FMFlag=      100000 FMFlg1=           0
         NFxFlg=           0 DoJE=F BraDBF=F KetDBF=F FulRan=T
         wScrn=  0.000000 ICntrl=      3107 IOpCl=  0 I1Cent=           0 NGrid=           0
         NMat0=    1 NMatS0=      1 NMatT0=    0 NMatD0=    1 NMtDS0=    0 NMtDT0=    0
 Symmetry not used in FoFCou.
 NEqPCM:  Using equilibrium solvation (IEInf=0, Eps=   7.4257, EpsInf=   1.9740)
 G2PCM: DoFxE=T DoFxN=T DoGrad=T DoDP/DQ/DG/TGxP=FFFF NFrqRd=   0 IEInf=0 SqF1=F DoCFld=F IF1Alg=4.
 GePol: Maximum number of non-zero 1st derivatives   =     211
 End of G2Drv F.D. properties file   721 does not exist.
 End of G2Drv F.D. properties file   722 does not exist.
 End of G2Drv F.D. properties file   788 does not exist.
 Leave Link 1110 at Sat May 25 18:13:13 2019, MaxMem=   402653184 cpu:            1516.2 elap:             397.4
 (Enter /n/sw/g16_nehalem/g16/l1002.exe)
 Minotr:  Closed shell wavefunction.
          IDoAtm=1111111111111111111111111111111111
 NEqPCM:  Using equilibrium solvation (IEInf=0, Eps=   7.4257, EpsInf=   1.9740)
          Direct CPHF calculation.
          Differentiating once with respect to nuclear coordinates.
          Requested convergence is 1.0D-08 RMS, and 1.0D-07 maximum.
          Secondary convergence is 1.0D-12 RMS, and 1.0D-12 maximum.
          NewPWx=T KeepS1=F KeepF1=F KeepIn=T MapXYZ=F SortEE=F KeepMc=T.
        10210 words used for storage of precomputed grid.
 Two-electron integrals replicated using symmetry.
          MDV=     402653184 using IRadAn=       1.
          Solving linear equations simultaneously, MaxMat=     384.
 FoF2E skips out because all densities are zero.
 CalDSu exits because no D1Ps are significant.
 FoFJK:  IHMeth= 1 ICntrl=       0 DoSepK=F KAlg= 0 I1Cent=           0 FoldK=F
 IRaf= 850000000 NMat=     102 IRICut=     255 DoRegI=T DoRafI=T ISym2E= 2 IDoP0=0 IntGTp=1.
          There are   105 degrees of freedom in the 1st order CPHF.  IDoFFX=6 NUNeed=     0.
     99 vectors produced by pass  0 Test12= 1.20D-14 1.00D-09 XBig12= 1.48D-01 1.18D-01.
 AX will form    99 AO Fock derivatives at one time.
     99 vectors produced by pass  1 Test12= 1.20D-14 1.00D-09 XBig12= 4.70D-02 4.80D-02.
     99 vectors produced by pass  2 Test12= 1.20D-14 1.00D-09 XBig12= 5.30D-04 3.62D-03.
     99 vectors produced by pass  3 Test12= 1.20D-14 1.00D-09 XBig12= 1.63D-06 1.25D-04.
     99 vectors produced by pass  4 Test12= 1.20D-14 1.00D-09 XBig12= 1.97D-09 4.26D-06.
     67 vectors produced by pass  5 Test12= 1.20D-14 1.00D-09 XBig12= 1.58D-12 1.05D-07.
      5 vectors produced by pass  6 Test12= 1.20D-14 1.00D-09 XBig12= 1.05D-15 2.34D-09.
 InvSVY:  IOpt=1 It=  1 EMax= 7.77D-16
 Solved reduced A of dimension   567 with   105 vectors.
 End of Minotr F.D. properties file   721 does not exist.
 End of Minotr F.D. properties file   722 does not exist.
 End of Minotr F.D. properties file   788 does not exist.
 Leave Link 1002 at Sat May 25 18:19:53 2019, MaxMem=   402653184 cpu:            1597.3 elap:             399.7
 (Enter /n/sw/g16_nehalem/g16/l601.exe)
 Copying SCF densities to generalized density rwf, IOpCl= 0 IROHF=0.

 **********************************************************************

            Population analysis using the SCF density.

 **********************************************************************

 Orbital symmetries:
       Occupied  (A) (A) (A) (A) (A) (A) (A) (A) (A) (A) (A) (A)
                 (A) (A) (A) (A) (A) (A) (A) (A) (A) (A) (A) (A)
                 (A) (A) (A) (A) (A) (A) (A) (A) (A) (A) (A) (A)
                 (A) (A) (A) (A) (A) (A) (A) (A) (A) (A) (A) (A)
                 (A) (A) (A) (A) (A) (A) (A) (A) (A) (A) (A)
       Virtual   (A) (A) (A) (A) (A) (A) (A) (A) (A) (A) (A) (A)
                 (A) (A) (A) (A) (A) (A) (A) (A) (A) (A) (A) (A)
                 (A) (A) (A) (A) (A) (A) (A) (A) (A) (A) (A) (A)
                 (A) (A) (A) (A) (A) (A) (A) (A) (A) (A) (A) (A)
                 (A) (A) (A) (A) (A) (A) (A) (A) (A) (A) (A) (A)
                 (A) (A) (A) (A) (A) (A) (A) (A) (A) (A) (A) (A)
                 (A) (A) (A) (A) (A) (A) (A) (A) (A) (A) (A) (A)
                 (A) (A) (A) (A) (A) (A) (A) (A) (A) (A) (A) (A)
                 (A) (A) (A) (A) (A) (A) (A) (A) (A) (A) (A) (A)
                 (A) (A) (A) (A) (A) (A) (A) (A) (A) (A) (A) (A)
                 (A) (A) (A) (A) (A) (A) (A) (A) (A) (A) (A) (A)
                 (A) (A) (A) (A) (A) (A) (A) (A) (A) (A) (A) (A)
                 (A) (A) (A) (A) (A) (A) (A) (A) (A) (A) (A) (A)
                 (A) (A) (A) (A) (A) (A) (A) (A) (A) (A) (A) (A)
                 (A) (A) (A) (A) (A) (A) (A) (A) (A) (A) (A) (A)
                 (A) (A) (A) (A) (A) (A) (A) (A) (A) (A) (A) (A)
                 (A) (A) (A) (A) (A) (A) (A) (A) (A) (A) (A) (A)
 The electronic state is 1-A.
 Alpha  occ. eigenvalues --  -19.33353 -19.20747 -19.19781 -19.19544 -19.18861
 Alpha  occ. eigenvalues --  -10.39746 -10.32120 -10.32056 -10.29928 -10.29677
 Alpha  occ. eigenvalues --  -10.28166 -10.25838 -10.25462 -10.25281 -10.24661
 Alpha  occ. eigenvalues --   -1.21951  -1.09822  -1.08287  -1.07064  -1.06427
 Alpha  occ. eigenvalues --   -0.87108  -0.86081  -0.77323  -0.75828  -0.74464
 Alpha  occ. eigenvalues --   -0.71549  -0.69168  -0.67876  -0.65517  -0.62289
 Alpha  occ. eigenvalues --   -0.60436  -0.59266  -0.55835  -0.55026  -0.54000
 Alpha  occ. eigenvalues --   -0.52855  -0.51952  -0.51213  -0.50324  -0.49195
 Alpha  occ. eigenvalues --   -0.48388  -0.47810  -0.46661  -0.45980  -0.45187
 Alpha  occ. eigenvalues --   -0.44336  -0.43222  -0.42842  -0.41477  -0.41010
 Alpha  occ. eigenvalues --   -0.40542  -0.37229  -0.36341  -0.34892  -0.34401
 Alpha  occ. eigenvalues --   -0.32501  -0.30673  -0.29804  -0.28398
 Alpha virt. eigenvalues --   -0.15464  -0.00790   0.04105   0.04720   0.05546
 Alpha virt. eigenvalues --    0.07058   0.08302   0.08594   0.09301   0.10616
 Alpha virt. eigenvalues --    0.10709   0.11872   0.12344   0.12444   0.13211
 Alpha virt. eigenvalues --    0.13753   0.13895   0.14243   0.14967   0.15101
 Alpha virt. eigenvalues --    0.15670   0.16400   0.16855   0.17306   0.18075
 Alpha virt. eigenvalues --    0.18591   0.19376   0.19648   0.22014   0.23308
 Alpha virt. eigenvalues --    0.23972   0.24921   0.25856   0.26829   0.29224
 Alpha virt. eigenvalues --    0.43755   0.45777   0.46405   0.47228   0.48967
 Alpha virt. eigenvalues --    0.49135   0.49725   0.50097   0.50454   0.52145
 Alpha virt. eigenvalues --    0.52396   0.53234   0.54094   0.54451   0.55269
 Alpha virt. eigenvalues --    0.56736   0.58552   0.60058   0.60881   0.61385
 Alpha virt. eigenvalues --    0.64479   0.65916   0.66522   0.69377   0.72066
 Alpha virt. eigenvalues --    0.72409   0.73894   0.76344   0.76981   0.78497
 Alpha virt. eigenvalues --    0.79408   0.79824   0.80604   0.81358   0.82229
 Alpha virt. eigenvalues --    0.82684   0.83169   0.84068   0.85263   0.85332
 Alpha virt. eigenvalues --    0.85921   0.86736   0.88190   0.88827   0.90460
 Alpha virt. eigenvalues --    0.90956   0.91636   0.93520   0.94880   0.95949
 Alpha virt. eigenvalues --    0.96308   0.96725   0.98135   0.99515   1.02106
 Alpha virt. eigenvalues --    1.03919   1.06135   1.07253   1.11925   1.12160
 Alpha virt. eigenvalues --    1.14303   1.16176   1.17430   1.18748   1.20722
 Alpha virt. eigenvalues --    1.22856   1.25647   1.28254   1.30205   1.32312
 Alpha virt. eigenvalues --    1.33129   1.34393   1.37377   1.40347   1.42699
 Alpha virt. eigenvalues --    1.43864   1.44751   1.46153   1.47759   1.50248
 Alpha virt. eigenvalues --    1.54064   1.55852   1.58074   1.58818   1.60901
 Alpha virt. eigenvalues --    1.63842   1.66614   1.68038   1.69127   1.69499
 Alpha virt. eigenvalues --    1.70601   1.73709   1.77806   1.78903   1.79677
 Alpha virt. eigenvalues --    1.81044   1.83452   1.84374   1.88198   1.90800
 Alpha virt. eigenvalues --    1.91663   1.92952   1.94486   1.97468   1.99188
 Alpha virt. eigenvalues --    1.99746   2.02084   2.03379   2.04271   2.04669
 Alpha virt. eigenvalues --    2.05115   2.07069   2.08356   2.09740   2.11594
 Alpha virt. eigenvalues --    2.12101   2.13446   2.14590   2.15023   2.17110
 Alpha virt. eigenvalues --    2.17929   2.19946   2.22277   2.22908   2.25597
 Alpha virt. eigenvalues --    2.28159   2.28556   2.30555   2.33069   2.36091
 Alpha virt. eigenvalues --    2.37143   2.38618   2.40074   2.42385   2.47019
 Alpha virt. eigenvalues --    2.50000   2.52753   2.53798   2.59445   2.61157
 Alpha virt. eigenvalues --    2.61516   2.64608   2.69585   2.72469   2.74074
 Alpha virt. eigenvalues --    2.74648   2.78024   2.84928   2.87536   2.90836
 Alpha virt. eigenvalues --    2.94956   2.97348   3.02973   3.07249   3.82271
 Alpha virt. eigenvalues --    3.93523   3.96803   3.98243   4.10437   4.15258
 Alpha virt. eigenvalues --    4.22102   4.22511   4.24133   4.25585   4.27312
 Alpha virt. eigenvalues --    4.36396   4.45227   4.51889   4.66005
          Condensed to atoms (all electrons):
               1          2          3          4          5          6
     1  C    4.993460   0.256603  -0.035871  -0.037500   0.249646   0.002630
     2  C    0.256603   5.155519   0.291090  -0.003658  -0.041960  -0.039064
     3  C   -0.035871   0.291090   4.803150  -0.035838   0.000940   0.356330
     4  C   -0.037500  -0.003658  -0.035838   5.256005   0.254309   0.002840
     5  C    0.249646  -0.041960   0.000940   0.254309   5.048830  -0.000273
     6  H    0.002630  -0.039064   0.356330   0.002840  -0.000273   0.422400
     7  H   -0.035446   0.338932  -0.033540   0.000675  -0.002222   0.001484
     8  H    0.384938  -0.053539  -0.003777  -0.003093  -0.040425  -0.000068
     9  H   -0.002222   0.000410   0.001127   0.371044  -0.039023  -0.000142
    10  H   -0.038493  -0.005487   0.000649  -0.062112   0.385138   0.000000
    11  O    0.001189  -0.031592   0.380256   0.103025  -0.019861  -0.032876
    12  O   -0.037970   0.184101  -0.030100   0.000032   0.002856   0.005786
    13  O    0.267262  -0.043008   0.002556   0.002706  -0.034384  -0.000041
    14  O   -0.027294   0.002465  -0.000082  -0.027911   0.228198   0.000003
    15  C    0.001810  -0.000397   0.000663   0.296277  -0.032066  -0.000106
    16  H   -0.000021   0.000002   0.000102  -0.050493   0.005375   0.000017
    17  H    0.000013  -0.000149   0.002650  -0.047604  -0.008113  -0.000023
    18  O    0.000482  -0.000007   0.000010  -0.055921   0.008081   0.000001
    19  C   -0.000764  -0.025855   0.002399  -0.000008  -0.000056   0.000127
    20  H   -0.000122   0.004746  -0.000161   0.000000   0.000002  -0.000040
    21  H   -0.000199  -0.008851   0.000328  -0.000001   0.000049  -0.000093
    22  H    0.000979  -0.004690   0.000168  -0.000001  -0.000041   0.000035
    23  C   -0.042781  -0.005430   0.000234   0.000120  -0.005718  -0.000002
    24  H   -0.004918   0.005233  -0.000433   0.000070  -0.002497   0.000007
    25  H   -0.008227  -0.000706   0.000040   0.000133   0.003896   0.000000
    26  H    0.005033  -0.000062  -0.000001  -0.000004   0.000197   0.000000
    27  C   -0.004898   0.000053  -0.000016  -0.006674  -0.042220   0.000000
    28  H   -0.001870   0.000075  -0.000007   0.004298  -0.003978   0.000000
    29  H    0.003991   0.000209  -0.000008  -0.000467  -0.009014   0.000000
    30  H    0.000163  -0.000006   0.000000   0.000000   0.005107   0.000000
    31  C   -0.000018   0.000000   0.000006  -0.002101  -0.002365   0.000000
    32  H    0.000000   0.000000   0.000000  -0.000169   0.000027   0.000000
    33  H    0.000004   0.000000   0.000001  -0.002268   0.000319   0.000000
    34  H   -0.000011  -0.000001   0.000000   0.006683  -0.001518   0.000000
               7          8          9         10         11         12
     1  C   -0.035446   0.384938  -0.002222  -0.038493   0.001189  -0.037970
     2  C    0.338932  -0.053539   0.000410  -0.005487  -0.031592   0.184101
     3  C   -0.033540  -0.003777   0.001127   0.000649   0.380256  -0.030100
     4  C    0.000675  -0.003093   0.371044  -0.062112   0.103025   0.000032
     5  C   -0.002222  -0.040425  -0.039023   0.385138  -0.019861   0.002856
     6  H    0.001484  -0.000068  -0.000142   0.000000  -0.032876   0.005786
     7  H    0.508901   0.005011  -0.000006   0.004039  -0.000306  -0.025611
     8  H    0.005011   0.545998   0.000851   0.004325   0.001617   0.001786
     9  H   -0.000006   0.000851   0.475867   0.003956  -0.024942   0.000003
    10  H    0.004039   0.004325   0.003956   0.536896   0.002258  -0.000028
    11  O   -0.000306   0.001617  -0.024942   0.002258   7.951426   0.001457
    12  O   -0.025611   0.001786   0.000003  -0.000028   0.001457   8.241796
    13  O   -0.004229  -0.043432  -0.000039  -0.005567   0.000024   0.002140
    14  O   -0.000020  -0.004319  -0.002335  -0.040660   0.001072  -0.000008
    15  C    0.000224   0.000026  -0.029749  -0.001449  -0.028971  -0.000001
    16  H   -0.000004   0.000002  -0.005431   0.000425   0.002363   0.000000
    17  H    0.000170   0.000004   0.004217   0.002920   0.000243   0.000002
    18  O   -0.000016  -0.000007   0.000069   0.004873   0.001013   0.000000
    19  C   -0.006028  -0.000264   0.000000  -0.000013  -0.000045   0.227501
    20  H   -0.000092  -0.000004   0.000000   0.000000   0.000001  -0.030092
    21  H    0.007755   0.000024   0.000000  -0.000001  -0.000013  -0.033240
    22  H    0.000552   0.000063   0.000000   0.000004   0.000005  -0.034358
    23  C    0.002478   0.005664   0.000000   0.007855   0.000000   0.000025
    24  H    0.003488  -0.000356  -0.000001  -0.000124   0.000002  -0.000090
    25  H   -0.000300  -0.000118  -0.000005  -0.001873  -0.000005   0.000001
    26  H   -0.000077  -0.000135   0.000000  -0.000054   0.000000  -0.000008
    27  C    0.000007   0.007163   0.003956   0.005568   0.000065  -0.000001
    28  H   -0.000003  -0.000055   0.003693  -0.000360  -0.000377   0.000000
    29  H   -0.000010  -0.002252  -0.000050  -0.000028   0.000017   0.000003
    30  H    0.000000  -0.000037  -0.000218  -0.000148   0.000001   0.000000
    31  C    0.000000  -0.000001   0.002532  -0.000140   0.000002   0.000000
    32  H    0.000000   0.000000  -0.000050  -0.000009   0.000001   0.000000
    33  H    0.000000   0.000000   0.000046   0.000035   0.000004   0.000000
    34  H    0.000000   0.000002  -0.000045  -0.000115  -0.000035   0.000000
              13         14         15         16         17         18
     1  C    0.267262  -0.027294   0.001810  -0.000021   0.000013   0.000482
     2  C   -0.043008   0.002465  -0.000397   0.000002  -0.000149  -0.000007
     3  C    0.002556  -0.000082   0.000663   0.000102   0.002650   0.000010
     4  C    0.002706  -0.027911   0.296277  -0.050493  -0.047604  -0.055921
     5  C   -0.034384   0.228198  -0.032066   0.005375  -0.008113   0.008081
     6  H   -0.000041   0.000003  -0.000106   0.000017  -0.000023   0.000001
     7  H   -0.004229  -0.000020   0.000224  -0.000004   0.000170  -0.000016
     8  H   -0.043432  -0.004319   0.000026   0.000002   0.000004  -0.000007
     9  H   -0.000039  -0.002335  -0.029749  -0.005431   0.004217   0.000069
    10  H   -0.005567  -0.040660  -0.001449   0.000425   0.002920   0.004873
    11  O    0.000024   0.001072  -0.028971   0.002363   0.000243   0.001013
    12  O    0.002140  -0.000008  -0.000001   0.000000   0.000002   0.000000
    13  O    8.189829   0.002968  -0.000026   0.000000  -0.000002   0.000000
    14  O    0.002968   8.208184  -0.001664  -0.000198   0.000096  -0.000234
    15  C   -0.000026  -0.001664   4.873282   0.365405   0.382863   0.270688
    16  H    0.000000  -0.000198   0.365405   0.560748  -0.031548  -0.030456
    17  H   -0.000002   0.000096   0.382863  -0.031548   0.540072  -0.034719
    18  O    0.000000  -0.000234   0.270688  -0.030456  -0.034719   8.156703
    19  C   -0.001610   0.000000   0.000000   0.000000   0.000000   0.000000
    20  H    0.000024   0.000000   0.000000   0.000000   0.000000   0.000000
    21  H    0.000149   0.000000   0.000000   0.000000   0.000000   0.000000
    22  H    0.005192   0.000000   0.000000   0.000000   0.000000   0.000000
    23  C    0.229120  -0.003463  -0.000011   0.000000  -0.000005  -0.000003
    24  H   -0.036610   0.000290  -0.000012   0.000000   0.000001   0.000001
    25  H   -0.032216   0.006334   0.000007   0.000000  -0.000003   0.000001
    26  H   -0.031242   0.000000   0.000000   0.000000   0.000000   0.000000
    27  C   -0.003968   0.231212   0.000241   0.000002   0.000000  -0.000027
    28  H    0.000306  -0.036268   0.000068   0.000012  -0.000001   0.000002
    29  H    0.006709  -0.033251  -0.000023  -0.000001   0.000000  -0.000002
    30  H    0.000000  -0.031377  -0.000002   0.000000   0.000000  -0.000001
    31  C    0.000000  -0.001108  -0.047534  -0.007877   0.005861   0.241037
    32  H    0.000000  -0.000014   0.005033  -0.000029  -0.000180  -0.031429
    33  H    0.000000   0.000071  -0.007493   0.012008   0.000079  -0.034482
    34  H    0.000000   0.007315  -0.005039  -0.001451  -0.000342  -0.038176
              19         20         21         22         23         24
     1  C   -0.000764  -0.000122  -0.000199   0.000979  -0.042781  -0.004918
     2  C   -0.025855   0.004746  -0.008851  -0.004690  -0.005430   0.005233
     3  C    0.002399  -0.000161   0.000328   0.000168   0.000234  -0.000433
     4  C   -0.000008   0.000000  -0.000001  -0.000001   0.000120   0.000070
     5  C   -0.000056   0.000002   0.000049  -0.000041  -0.005718  -0.002497
     6  H    0.000127  -0.000040  -0.000093   0.000035  -0.000002   0.000007
     7  H   -0.006028  -0.000092   0.007755   0.000552   0.002478   0.003488
     8  H   -0.000264  -0.000004   0.000024   0.000063   0.005664  -0.000356
     9  H    0.000000   0.000000   0.000000   0.000000   0.000000  -0.000001
    10  H   -0.000013   0.000000  -0.000001   0.000004   0.007855  -0.000124
    11  O   -0.000045   0.000001  -0.000013   0.000005   0.000000   0.000002
    12  O    0.227501  -0.030092  -0.033240  -0.034358   0.000025  -0.000090
    13  O   -0.001610   0.000024   0.000149   0.005192   0.229120  -0.036610
    14  O    0.000000   0.000000   0.000000   0.000000  -0.003463   0.000290
    15  C    0.000000   0.000000   0.000000   0.000000  -0.000011  -0.000012
    16  H    0.000000   0.000000   0.000000   0.000000   0.000000   0.000000
    17  H    0.000000   0.000000   0.000000   0.000000  -0.000005   0.000001
    18  O    0.000000   0.000000   0.000000   0.000000  -0.000003   0.000001
    19  C    4.912657   0.385765   0.368464   0.369416   0.000003   0.000805
    20  H    0.385765   0.501916  -0.027551  -0.027890   0.000010  -0.000002
    21  H    0.368464  -0.027551   0.562837  -0.040147  -0.000055  -0.000090
    22  H    0.369416  -0.027890  -0.040147   0.549749  -0.000155  -0.000263
    23  C    0.000003   0.000010  -0.000055  -0.000155   4.943748   0.357914
    24  H    0.000805  -0.000002  -0.000090  -0.000263   0.357914   0.590752
    25  H    0.000007   0.000000   0.000002   0.000127   0.369129  -0.042064
    26  H    0.000001  -0.000001  -0.000003   0.000070   0.386627  -0.028809
    27  C    0.000000   0.000000   0.000000   0.000000   0.000441  -0.000025
    28  H    0.000000   0.000000   0.000000   0.000000  -0.000023   0.000001
    29  H    0.000000   0.000000   0.000000   0.000000  -0.000366   0.000047
    30  H    0.000000   0.000000   0.000000   0.000000   0.000009   0.000000
    31  C    0.000000   0.000000   0.000000   0.000000   0.000000   0.000000
    32  H    0.000000   0.000000   0.000000   0.000000   0.000000   0.000000
    33  H    0.000000   0.000000   0.000000   0.000000   0.000000   0.000000
    34  H    0.000000   0.000000   0.000000   0.000000   0.000000   0.000000
              25         26         27         28         29         30
     1  C   -0.008227   0.005033  -0.004898  -0.001870   0.003991   0.000163
     2  C   -0.000706  -0.000062   0.000053   0.000075   0.000209  -0.000006
     3  C    0.000040  -0.000001  -0.000016  -0.000007  -0.000008   0.000000
     4  C    0.000133  -0.000004  -0.006674   0.004298  -0.000467   0.000000
     5  C    0.003896   0.000197  -0.042220  -0.003978  -0.009014   0.005107
     6  H    0.000000   0.000000   0.000000   0.000000   0.000000   0.000000
     7  H   -0.000300  -0.000077   0.000007  -0.000003  -0.000010   0.000000
     8  H   -0.000118  -0.000135   0.007163  -0.000055  -0.002252  -0.000037
     9  H   -0.000005   0.000000   0.003956   0.003693  -0.000050  -0.000218
[...]
 60,-0.00009706,-0.00009897,-0.00001454,0.00005150,0.00001787,-0.000035
 77,-0.00000657,0.00000126,-0.00000072,-0.00000396,0.00000459,0.0000096
 5,0.00001811,-0.00000350,-0.00000633,-0.00019912,0.00029965,-0.0004256
 7,0.00001978,-0.00000502,0.00013719,0.00006953,-0.00004301,0.00007511,
 0.00000778,-0.00002472,0.00005482,-0.09605727,-0.09945426,-0.00691854,
 -0.02234049,-0.00894412,-0.00082393,0.10825859,0.10269303,0.00029496,-
 0.00232960,0.00092101,0.00004488,0.00045111,0.00013060,-0.00038759,0.0
 0005876,0.00009788,0.00063821,0.00049676,-0.00055614,-0.00402750,0.003
 91458,0.00196588,0.00004005,0.00001285,-0.00003401,-0.00001732,-0.0000
 1892,-0.00000755,0.00049916,-0.00015666,-0.00028804,0.00000414,-0.0001
 3842,0.00004679,0.00010447,-0.00003937,-0.00009543,0.00036384,-0.00079
 976,0.00018003,0.00026977,-0.00008790,-0.00006358,0.00036287,0.0008502
 2,-0.00042319,-0.03137946,-0.02282758,-0.02100685,-0.00011867,0.000320
 73,0.00010279,-0.00004434,-0.00005515,0.00000330,0.00001483,0.00000429
 ,0.00002464,-0.00037945,-0.00030490,-0.00007889,-0.00006194,-0.0000589
 6,0.00008006,0.00001557,0.00000774,-0.00001288,0.00001138,0.00000694,-
 0.00001630,0.00002253,0.00001159,-0.00002222,-0.00015781,0.00040688,-0
 .00052361,0.00000015,-0.00000003,0.00018652,0.00003793,-0.00006327,0.0
 0002222,0.00002095,-0.00002214,0.00000634,-0.01387708,-0.00567068,-0.0
 5057332,0.01976730,0.00855586,0.00482567,0.02609796,0.01551682,0.06354
 634,-0.00014317,-0.00020991,-0.00058947,0.00016062,0.00003632,0.000213
 62,-0.00019258,-0.00011905,0.00010008,0.00012018,0.00020200,-0.0001874
 5,0.00117673,-0.00240832,-0.00170592,0.00000908,-0.00000265,-0.0000340
 0,-0.00003931,0.00007082,0.00002158,0.00009337,-0.00014489,0.00043068,
 0.00005339,0.00008886,0.00010638,0.00014868,-0.00010411,-0.00004118,0.
 00011650,-0.00000546,0.00003000,-0.00012470,0.00001056,0.00001356,-0.0
 0015046,0.00029200,0.00044728,0.00596640,-0.00389025,0.00058091,0.0000
 4548,-0.00004386,-0.00007062,0.00001212,0.00001248,0.00001100,-0.00002
 333,-0.00000727,0.00000431,0.00002124,0.00004426,0.00004009,0.00006187
 ,0.00001584,-0.00005458,-0.00001166,0.00000130,0.00000200,-0.00000422,
 0.00000232,0.00001147,0.00001022,-0.00000419,0.00000079,-0.00002043,0.
 00012054,-0.00031455,0.00000518,0.00000340,0.00007771,0.00004196,-0.00
 000253,0.00001985,-0.00001822,-0.00001548,0.00003024,-0.19817442,0.140
 05395,0.01807619,0.00529760,-0.00507562,-0.00096483,-0.01848811,0.0207
 0168,0.00149074,0.20408484,-0.00056626,-0.00017025,-0.00008944,0.00000
 761,0.00006832,0.00008273,-0.00020557,0.00003902,0.00004272,0.00014220
 ,0.00056494,-0.00027013,-0.00112000,0.00136106,-0.00167640,0.00001784,
 0.00000908,0.00000133,-0.00002728,0.00003433,0.00003127,-0.00009821,-0
 .00012333,0.00011276,0.00017960,0.00027535,0.00014353,0.00039792,-0.00
 060048,-0.00025486,0.00019148,-0.00026757,0.00003201,0.00017526,-0.000
 05768,-0.00001977,0.00009824,0.00029147,0.00001823,0.00792953,-0.01131
 246,-0.00791842,0.00025505,-0.00006953,0.00009354,-0.00005174,-0.00002
 337,-0.00002728,-0.00005825,-0.00001241,-0.00002975,-0.00026336,0.0000
 8742,0.00004045,-0.00006299,-0.00001596,0.00006512,0.00001354,0.000000
 63,-0.00000581,0.00000444,-0.00000062,-0.00001312,0.00000155,0.0000048
 2,-0.00001105,-0.00001173,0.00005415,-0.00000855,-0.00001036,-0.000002
 59,0.00002053,-0.00000052,-0.00003041,0.00002602,0.00001593,0.00000843
 ,-0.00000514,0.13553365,-0.18193344,-0.01453011,0.01703105,-0.01495321
 ,-0.00131842,-0.01004202,0.01214745,0.00198425,-0.14961097,0.19467682,
 -0.00117825,0.00006754,-0.00085408,0.00014028,0.00002997,0.00018992,-0
 .00013402,0.00011359,-0.00005667,0.00040530,0.00056362,-0.00037424,-0.
 00024695,-0.00067850,-0.00552937,0.00002054,0.00001066,0.00001306,-0.0
 0002360,0.00012656,0.00008055,0.00021347,0.00007499,0.00052504,-0.0001
 8113,-0.00030633,0.00006145,0.00081699,-0.00135111,-0.00054958,0.00004
 077,-0.00040921,0.00012626,0.00021320,-0.00010652,0.00000252,0.0001543
 5,0.00012335,0.00005144,0.02448023,-0.03258893,-0.01475581,-0.00001078
 ,0.00000845,0.00019449,-0.00006965,-0.00002432,-0.00003191,0.00002143,
 0.00003989,0.00003925,-0.00014850,0.00002478,-0.00000143,-0.00005924,-
 0.00003055,0.00007039,0.00001631,0.00000075,-0.00000937,0.00000776,0.0
 0000154,-0.00001209,-0.00000348,0.00000647,-0.00001063,-0.00005693,-0.
 00001912,0.00003314,-0.00001337,0.00000950,0.00000953,0.00000649,-0.00
 005660,0.00001446,0.00003142,0.00000683,0.00001559,0.01004034,-0.00601
 343,-0.04746300,-0.01625167,0.01431252,0.00422222,-0.00056309,0.002465
 34,0.00176126,-0.01774327,0.02363739,0.06227339,-0.00077759,-0.0005583
 4,-0.00021288,-0.00068285,0.00074351,-0.00018947,-0.00155148,-0.001217
 51,0.00047507,-0.00147039,-0.00009309,-0.00063731,-0.00051145,-0.00141
 683,0.00011743,0.00018321,-0.00006949,-0.00048782,0.00011515,0.0000175
 1,0.00015114,0.00009221,-0.00000032,0.00008403,-0.00018457,-0.00007338
 ,-0.00011125,-0.00060452,-0.00019507,0.00006729,0.00395544,0.00075048,
 0.00202087,0.00084503,-0.00005720,-0.00004626,0.00069130,0.00073241,-0
 .00032293,-0.00107839,0.00074618,0.00124751,-0.03644289,0.01577451,0.0
 0885995,0.00559109,-0.00436791,0.00176432,0.00121232,-0.00079308,-0.00
 156463,-0.15021383,0.04214302,0.05350592,-0.00035405,0.00001039,0.0003
 3639,0.00007182,-0.00000021,-0.00001906,0.00000266,-0.00000578,-0.0000
 6490,0.00003037,0.00001113,-0.00006013,-0.00004705,-0.00013499,0.00036
 490,-0.00004545,0.00001832,-0.00004843,-0.00002404,-0.00004026,-0.0000
 4931,0.00004783,0.00004630,-0.00003013,0.00033262,-0.00027910,-0.00080
 105,0.00007668,-0.00002759,0.00010549,0.00009951,0.00008813,0.00024945
 ,-0.00001036,0.00012705,0.00009577,0.50856689,0.00023096,0.00010170,-0
 .00017797,0.00011721,-0.00021449,-0.00001525,0.00043505,0.00022608,-0.
 00028688,-0.00025360,0.00169819,0.00213113,-0.00104691,0.00054530,0.00
 077490,-0.00004828,0.00008699,0.00020721,0.00001402,0.00002220,-0.0000
 1780,-0.00011685,-0.00000544,-0.00004549,0.00029606,0.00020720,-0.0003
 1452,0.00050366,0.00019533,-0.00028154,-0.00193527,0.00014553,-0.00120
 398,-0.00009922,0.00000187,-0.00000100,-0.00008740,-0.00014475,0.00003
 570,0.00052558,-0.00019529,-0.00055736,0.02840226,-0.01919565,-0.01478
 152,0.00236023,0.00185942,-0.00323085,0.00329407,-0.00245946,0.0024833
 2,0.02145910,-0.08024039,0.00001408,0.00004219,0.00000375,-0.00003479,
 -0.00000866,0.00000140,0.00000145,-0.00000032,-0.00000102,0.00000547,-
 0.00000278,-0.00000246,0.00000794,0.00000094,0.00003471,-0.00003274,0.
 00001834,-0.00001736,0.00000538,0.00000010,0.00001201,0.00002606,-0.00
 000910,-0.00000832,0.00000044,-0.00025857,-0.00019145,-0.00003202,-0.0
 0007818,0.00003614,-0.00008890,0.00005088,0.00000076,-0.00006034,-0.00
 001934,-0.00011346,-0.00004415,0.01316063,0.59273110,0.00029349,0.0002
 4297,0.00010011,0.00043311,-0.00050129,0.00009988,0.00155988,0.0006648
 3,-0.00086374,-0.00083632,0.00303415,0.00402681,-0.00070094,0.00173511
 ,0.00048008,-0.00012552,0.00010994,0.00039895,0.00000091,0.00005803,-0
 .00005920,-0.00008232,0.00000465,-0.00005537,-0.00015384,0.00025174,-0
 .00063968,0.00043454,0.00018708,-0.00017063,-0.00404529,-0.00003083,-0
 .00194931,-0.00034881,-0.00000247,-0.00000297,-0.00028720,-0.00041315,
 0.00007790,0.00214451,-0.00073421,-0.00085325,-0.01125213,0.00189848,0
 .00815041,-0.00313645,0.00211837,-0.00063157,-0.00276170,0.00250979,0.
 00020063,0.08010011,-0.02168477,-0.13389515,0.00015323,-0.00002040,-0.
 00013620,-0.00003112,0.00000136,0.00000551,0.00000418,0.00000068,0.000
 02463,-0.00001935,-0.00000204,0.00002962,0.00000602,0.00006683,-0.0001
 0154,0.00002782,-0.00002750,0.00001357,0.00000051,0.00001017,0.0000528
 3,-0.00001410,-0.00002212,0.00001055,-0.00046607,-0.00030118,-0.000221
 37,-0.00010633,0.00006136,-0.00007078,0.00005585,0.00000088,-0.0000535
 8,-0.00007924,-0.00020106,-0.00006572,0.07255095,-0.03706363,0.5610054
 7,0.00008692,0.00011678,0.00004684,0.00013652,-0.00012381,0.00004114,0
 .00033275,0.00018361,-0.00017223,0.00030724,0.00037339,0.00040635,0.00
 001727,0.00028560,-0.00006728,-0.00001925,0.00001170,0.00008960,-0.000
 01985,0.00000083,-0.00002346,-0.00000526,-0.00000075,-0.00001542,-0.00
 000499,-0.00005459,-0.00002834,0.00004734,0.00005696,0.00001101,-0.000
 64746,-0.00011080,-0.00033674,-0.00014873,0.00000245,0.00001179,-0.000
 10984,-0.00015089,0.00007367,-0.00007516,-0.00025374,-0.00003584,-0.00
 253631,-0.00118823,0.00362451,0.00006826,0.00028432,-0.00013721,-0.000
 87738,0.00086146,-0.00051510,-0.02502299,0.02163741,-0.01068883,0.0000
 6412,-0.00000207,-0.00006309,-0.00001244,-0.00000023,0.00000392,-0.000
 00014,0.00000171,0.00001169,-0.00000752,-0.00000278,0.00001114,-0.0000
 1337,0.00003862,-0.00008170,0.00000836,-0.00000416,0.00000940,0.000007
 23,-0.00000092,0.00000683,-0.00000456,-0.00000863,0.00000725,0.0000410
 7,0.00008683,0.00012965,0.00000530,-0.00000419,0.00001027,-0.00001334,
 -0.00001133,-0.00001466,0.00000690,-0.00001377,-0.00002284,-0.13550917
 ,0.08063682,-0.09296464,0.15594019,-0.00005076,-0.00002204,-0.00001049
 ,-0.00003086,0.00004845,-0.00001159,-0.00022935,-0.00004202,0.00005282
 ,-0.00001637,-0.00019047,-0.00044085,0.00014488,-0.00009285,-0.0000052
 3,0.00001342,-0.00001081,-0.00002966,-0.00000255,-0.00000659,0.0000112
 0,0.00000756,-0.00000070,0.00000490,0.00006891,-0.00004762,0.00016004,
 -0.00004120,-0.00002694,0.00001713,0.00041711,-0.00003007,0.00022647,0
 .00004272,-0.00000296,-0.00000134,0.00004105,0.00003902,-0.00001677,-0
 .00019115,-0.00005830,0.00010082,0.00106419,0.00087690,-0.00175310,-0.
 00011675,0.00041027,-0.00014384,0.00068749,-0.00015608,0.00016671,0.00
 958021,-0.00718885,0.00326058,-0.00001809,0.00000120,0.00001730,0.0000
 0346,-0.00000006,-0.00000089,-0.00000027,-0.00000078,-0.00000336,0.000
 00140,0.00000057,-0.00000274,-0.00000515,-0.00000462,0.00001740,-0.000
 00171,-0.00000020,-0.00000205,-0.00000002,-0.00000113,-0.00000492,0.00
 000201,0.00000264,-0.00000131,0.00004321,0.00005532,0.00002441,0.00001
 939,-0.00000612,0.00001462,-0.00000175,-0.00000199,0.00000863,0.000001
 60,0.00000981,-0.00000114,0.08433688,-0.13462408,0.09121649,-0.0994982
 9,0.14121611,0.00004485,-0.00001144,-0.00000018,-0.00002203,0.00003175
 ,0.00000044,-0.00005664,-0.00002744,0.00006195,0.00016193,-0.00055342,
 -0.00061581,0.00016010,-0.00012729,-0.00004194,-0.00000370,-0.00002192
 ,-0.00005492,-0.00000261,-0.00000822,0.00000059,0.00000268,-0.00000018
 ,0.00000154,0.00016567,-0.00001014,0.00026532,-0.00002671,-0.00002822,
 0.00000425,0.00022637,0.00005388,0.00036537,-0.00000996,0.00000455,0.0
 0000562,-0.00002085,0.00000468,0.00001536,-0.00040651,-0.00017756,0.00
 005529,0.00433675,-0.00146108,-0.00107016,-0.00007155,-0.00016880,-0.0
 0005631,0.00062550,-0.00058873,0.00032966,0.01772642,-0.01564876,0.013
 46603,0.00000230,0.00000451,-0.00000330,-0.00000049,0.00000010,0.00000
 046,-0.00000122,0.00000004,0.00000077,0.00000153,-0.00000086,-0.000000
 18,0.00000130,0.00000229,-0.00001645,0.00000113,0.00000110,0.00000224,
 0.00000247,0.00000448,-0.00000416,-0.00000317,-0.00000031,0.00000073,0
 .00007279,0.00014399,0.00013858,0.00002167,-0.00001148,0.00001716,-0.0
 0001780,-0.00001806,-0.00000955,0.00000967,0.00000566,-0.00001082,-0.1
 0313855,0.09837463,-0.15782594,0.09865743,-0.09781368,0.16264490,0.000
 10277,0.00012337,-0.00007726,0.00010923,-0.00008576,-0.00000389,0.0000
 3491,0.00014227,-0.00006593,-0.00017239,0.00034793,-0.00006074,0.00008
 560,0.00008497,0.00016729,-0.00001080,0.00001514,0.00008739,-0.0000111
 0,-0.00000909,-0.00001337,-0.00003873,-0.00000417,-0.00001976,-0.00005
 777,-0.00005922,-0.00003430,0.00017877,0.00007610,-0.00007235,-0.00036
 016,-0.00015083,-0.00036150,-0.00012630,0.00001277,0.00001057,-0.00006
 574,-0.00008423,0.00004774,-0.00018050,-0.00014255,-0.00007239,0.00313
 764,-0.00634479,0.00309358,0.00008879,0.00111974,-0.00114250,0.0002866
 8,0.00032515,-0.00013550,-0.02807663,-0.01306970,0.01841969,0.00005074
 ,0.00000103,-0.00004904,-0.00001082,-0.00000021,0.00000317,-0.00000138
 ,0.00000029,0.00000972,-0.00000359,-0.00000176,0.00000869,0.00001128,0
 .00001747,-0.00004293,0.00000756,-0.00000281,0.00000660,0.00000320,0.0
 0000965,0.00000397,-0.00000889,-0.00000636,0.00000239,0.00001518,0.000
 09423,0.00022450,-0.00000091,0.00000519,-0.00002539,-0.00002282,-0.000
 01260,-0.00004305,0.00000920,-0.00000705,-0.00001557,-0.11010128,-0.09
 837313,0.03218708,0.01230494,0.01506559,-0.00517791,0.12585706,0.00006
 059,0.00004080,0.00006698,0.00003055,-0.00002397,0.00000694,0.00008477
 ,0.00001723,-0.00001280,-0.00011449,-0.00048172,0.00005346,0.00030427,
 -0.00011328,-0.00024979,-0.00001075,-0.00000848,-0.00000077,-0.0000034
 8,-0.00000873,-0.00000695,0.00001095,0.00000075,0.00000240,-0.00005708
 ,-0.00008408,0.00002152,0.00003578,-0.00000011,0.00007761,-0.00007468,
 0.00000781,0.00003610,-0.00007615,0.00001767,0.00000613,-0.00006726,-0
 .00002476,0.00002260,-0.00058479,-0.00014216,-0.00004921,0.00176771,0.
 00415704,-0.00189726,-0.00217929,0.00043841,0.00020123,-0.00013532,0.0
 0035385,-0.00015464,0.00805335,0.01221447,-0.00334993,0.00002760,0.000
 00071,-0.00002762,-0.00000643,-0.00000019,0.00000187,-0.00000100,0.000
 00050,0.00000584,-0.00000022,-0.00000054,0.00000402,0.00001984,-0.0000
 0204,-0.00002793,-0.00000076,0.00000421,0.00000430,0.00000207,0.000007
 75,-0.00000425,-0.00000624,-0.00000311,0.00000243,0.00006811,0.0001259
 9,0.00025611,0.00000753,0.00000865,-0.00001826,-0.00003391,-0.00001362
 ,-0.00003555,0.00001688,0.00001747,0.00000906,-0.10204323,-0.22810671,
 0.06356738,-0.00861225,-0.01240296,0.00334807,0.11086189,0.23698389,-0
 .00012082,-0.00002270,0.00003790,-0.00008816,0.00008344,-0.00002232,-0
 .00022559,-0.00011045,0.00010886,-0.00000026,-0.00025699,-0.00032047,0
 .00023316,-0.00043686,-0.00029350,0.00001583,-0.00001211,-0.00005680,0
 .00000467,-0.00000447,0.00001284,0.00003467,-0.00000200,0.00001358,-0.
 00001773,-0.00005692,0.00000471,-0.00014623,-0.00003540,0.00007437,0.0
 0050027,0.00006928,0.00023312,0.00007308,0.00000119,-0.00000405,0.0000
 6364,0.00008255,-0.00002331,-0.00068865,-0.00000030,0.00011461,-0.0035
 1881,0.00189984,-0.00042474,0.00025242,-0.00091061,0.00086493,-0.00017
 082,-0.00015942,-0.00001042,0.02208365,0.01257319,-0.01147146,-0.00003
 373,0.00000403,0.00003042,0.00000627,-0.00000025,-0.00000117,-0.000000
 47,-0.00000061,-0.00000608,0.00000361,0.00000053,-0.00000593,-0.000005
 44,-0.00001320,0.00002484,-0.00000708,0.00000440,-0.00000333,-0.000000
 29,-0.00000388,-0.00001258,0.00000412,0.00000485,-0.00000138,0.0000637
 4,0.00006428,0.00012528,0.00002126,-0.00000216,-0.00000308,-0.00001358
 ,-0.00000463,-0.00001087,0.00001292,0.00003841,0.00001576,0.03364008,0
 .05971951,-0.07518530,0.00973719,0.01604750,-0.00429968,-0.04909308,-0
 .06816860,0.08018996,0.00000126,-0.00013933,-0.00010479,0.00006284,0.0
 0003346,0.00005680,-0.00013181,0.00006488,0.00009821,-0.00136694,0.000
 13389,-0.00133719,-0.00046624,0.00088906,0.00037277,0.00004308,-0.0000
 0663,0.00001749,-0.00003019,-0.00000551,-0.00001494,-0.00000915,0.0000
 0275,-0.00000125,-0.00111268,0.00013786,-0.00020085,0.00011058,-0.0000
 1665,-0.00001027,0.00086884,-0.00069860,0.00008240,0.00004546,-0.00004
 902,-0.00000667,0.00001389,-0.00002421,-0.00001827,0.00035192,-0.00006
 998,-0.00025458,0.00445324,-0.00129054,0.00349771,-0.00060933,0.000284
 44,-0.00025641,-0.00053236,0.00024996,-0.00038396,0.00118296,0.0216574
 5,0.03137816,-0.00000715,-0.00001642,0.00001158,0.00000280,0.00000002,
 -0.00000188,0.00000399,-0.00000028,-0.00000260,-0.00000749,0.00000298,
 0.00000153,-0.00002859,0.00000981,0.00003626,0.00000594,-0.00000885,-0
 .00000529,-0.00000093,-0.00001461,0.00001921,0.00001018,0.00000055,-0.
 00000272,-0.00030137,-0.00037006,-0.00072098,-0.00004550,-0.00001853,0
 .00003170,0.00005696,0.00006885,0.00015771,-0.00004059,0.00002815,0.00
 001769,-0.08230478,-0.04921046,-0.07254084,-0.00434665,-0.01133681,-0.
 01326086,-0.00303373,-0.00734456,-0.01261987,0.08716150,0.00004555,-0.
 00007316,-0.00000104,0.00002952,0.00006148,0.00001818,-0.00001582,0.00
 007556,-0.00007075,0.00051080,-0.00015677,-0.00026888,0.00018468,0.000
 12432,-0.00004445,-0.00001735,-0.00002233,-0.00001223,-0.00001530,-0.0
 0001771,-0.00000320,0.00001768,0.00000591,-0.00000080,0.00039122,-0.00
 013076,0.00046626,-0.00009861,-0.00006926,0.00003596,-0.00015409,0.000
 03496,0.00035320,-0.00002262,-0.00001186,0.00001269,-0.00004591,-0.000
 03082,0.00002513,-0.00083739,-0.00061142,0.00009452,-0.00193314,0.0010
 4901,-0.00203133,-0.00018341,-0.00033461,0.00010020,0.00038734,-0.0000
 8884,0.00019432,0.00647572,-0.00381109,-0.00999941,0.00001256,-0.00000
 278,-0.00001710,-0.00000255,-0.00000023,0.00000144,-0.00000018,0.00000
 121,0.00000309,-0.00000264,-0.00000044,0.00000224,-0.00001088,0.000011
 62,-0.00002900,0.00000136,0.00000085,0.00000271,0.00000566,-0.00000218
 ,-0.00000166,-0.00000014,-0.00000130,0.00000227,0.00005147,0.00010987,
 0.00001892,0.00001336,-0.00003237,0.00008612,-0.00001428,-0.00000157,0
 .00006120,-0.00001088,0.00003621,-0.00000291,-0.04733307,-0.13238935,-
 0.10673564,0.00546293,0.01225795,0.01469786,-0.00994853,-0.01298071,-0
 .02039142,0.04705694,0.13700062,-0.00006405,-0.00001292,0.00001585,-0.
 00011163,0.00014358,-0.00003381,-0.00030182,-0.00026954,0.00011016,0.0
 0010571,-0.00069826,-0.00035400,0.00051405,-0.00074335,-0.00036174,0.0
 0002551,-0.00004807,-0.00014754,0.00001263,-0.00002222,0.00002132,0.00
 001843,-0.00000321,0.00001052,-0.00018359,0.00013280,0.00020673,-0.000
 07259,-0.00002242,0.00008055,0.00091044,0.00022841,0.00067764,0.000034
 85,0.00002465,0.00000899,0.00004161,0.00011329,-0.00000852,-0.00158205
 ,-0.00005914,-0.00001687,-0.00248944,0.00290453,-0.00155983,0.00027244
 ,-0.00035581,0.00032864,0.00055352,-0.00030210,0.00017927,0.00982884,-
 0.01450349,-0.01832381,-0.00002346,0.00001070,0.00001616,0.00000376,-0
 .00000055,0.00000056,-0.00000318,0.00000034,-0.00000216,0.00000732,-0.
 00000062,-0.00000619,0.00002256,-0.00002540,0.00000533,-0.00001042,0.0
 0001459,-0.00000067,0.00000208,0.00000653,-0.00002397,-0.00000331,0.00
 000449,-0.00000139,-0.00016337,0.00033692,0.00043768,0.00000691,0.0000
 4607,-0.00011438,-0.00003005,-0.00002564,-0.00012533,0.00005404,0.0000
 0338,0.00002501,-0.06785247,-0.10551650,-0.20189566,-0.00772231,-0.011
 10402,-0.01336689,0.00223408,0.00630951,0.01030528,0.06596497,0.123433
 50,0.22391307\\0.00000199,-0.00000629,-0.00000621,-0.00000275,-0.00001
 077,0.00000716,-0.00000100,-0.00000467,0.00000474,0.00001115,-0.000012
 44,0.00000006,-0.00000211,-0.00000384,0.00000245,-0.00001034,-0.000003
 42,0.00000490,-0.00000319,-0.00000175,0.00000510,-0.00000296,-0.000003
 30,0.00000104,-0.00000499,0.00000640,-0.00000565,0.00000136,-0.0000019
 3,0.00000535,-0.00001908,0.00000898,0.00000171,-0.00000531,-0.00000394
 ,0.00001182,0.00000549,-0.00000197,0.00000794,0.00000351,0.00001159,-0
 .00000813,-0.00000507,0.00000639,-0.00000543,-0.00000614,0.00000792,-0
 .00000858,0.00000046,0.00000455,-0.00000263,0.00000036,0.00000572,-0.0
 0001170,0.00000239,-0.00000923,0.00000656,-0.00000253,-0.00001345,0.00
 001489,-0.00000018,-0.00001094,0.00001354,0.00000252,-0.00001110,0.000
 01173,0.00000952,-0.00000070,0.00000322,0.00000844,-0.00000581,0.00000
 500,0.00001254,-0.00000066,-0.00000138,0.00001110,-0.00000808,0.000004
 54,-0.00000298,0.00000582,-0.00000344,-0.00000269,0.00000649,-0.000004
 77,-0.00000028,0.00000416,-0.00000230,0.00000164,0.00000480,-0.0000061
 5,-0.00000216,0.00000973,-0.00000798,0.00000381,0.00001167,-0.00001377
 ,-0.00000288,0.00001150,-0.00001345,0.00000037,0.00000857,-0.00001017\
 \\@


     "IF I COULD JUST GET IT ON PAPER"
 LIFE AND INK, THEY RUN OUT AT THE SAME TIME,
 OR SO SAID MY OLD FRIEND THE SQUID.
     -- JIMMY BUFFETT, 1981
 Job cpu time:       0 days  1 hours 17 minutes 26.8 seconds.
 Elapsed time:       0 days  0 hours 19 minutes 39.7 seconds.
 File lengths (MBytes):  RWF=    381 Int=      0 D2E=      0 Chk=     14 Scr=      1
 Normal termination of Gaussian 16 at Sat May 25 18:44:44 2019.
