 Entering Gaussian System, Link 0=g16
 Input=clay-glucose_cation-128-b3lyp_d3bj-631gd-pcm_thf.gjf
 Output=clay-glucose_cation-128-b3lyp_d3bj-631gd-pcm_thf.out
 Initial command:
 /n/sw/g16_nehalem/g16/l1.exe "/scratch/Gau-12859.inp" -scrdir="/scratch/"
 Entering Link 1 = /n/sw/g16_nehalem/g16/l1.exe PID=     12860.
  
 Copyright (c) 1988,1990,1992,1993,1995,1998,2003,2009,2016,
            Gaussian, Inc.  All Rights Reserved.
  
 This is part of the Gaussian(R) 16 program.  It is based on
 the Gaussian(R) 09 system (copyright 2009, Gaussian, Inc.),
 the Gaussian(R) 03 system (copyright 2003, Gaussian, Inc.),
 the Gaussian(R) 98 system (copyright 1998, Gaussian, Inc.),
 the Gaussian(R) 94 system (copyright 1995, Gaussian, Inc.),
 the Gaussian 92(TM) system (copyright 1992, Gaussian, Inc.),
 the Gaussian 90(TM) system (copyright 1990, Gaussian, Inc.),
 the Gaussian 88(TM) system (copyright 1988, Gaussian, Inc.),
 the Gaussian 86(TM) system (copyright 1986, Carnegie Mellon
 University), and the Gaussian 82(TM) system (copyright 1983,
 Carnegie Mellon University). Gaussian is a federally registered
 trademark of Gaussian, Inc.
  
 This software contains proprietary and confidential information,
 including trade secrets, belonging to Gaussian, Inc.
  
 This software is provided under written license and may be
 used, copied, transmitted, or stored only in accord with that
 written license.
  
 The following legend is applicable only to US Government
 contracts under FAR:
  
                    RESTRICTED RIGHTS LEGEND
  
 Use, reproduction and disclosure by the US Government is
 subject to restrictions as set forth in subparagraphs (a)
 and (c) of the Commercial Computer Software - Restricted
 Rights clause in FAR 52.227-19.
  
 Gaussian, Inc.
 340 Quinnipiac St., Bldg. 40, Wallingford CT 06492
  
  
 ---------------------------------------------------------------
 Warning -- This program may not be used in any manner that
 competes with the business of Gaussian, Inc. or will provide
 assistance to any competitor of Gaussian, Inc.  The licensee
 of this program is prohibited from giving any competitor of
 Gaussian, Inc. access to this program.  By using this program,
 the user acknowledges that Gaussian, Inc. is engaged in the
 business of creating and licensing software in the field of
 computational chemistry and represents and warrants to the
 licensee that it is not a competitor of Gaussian, Inc. and that
 it will not use this program in any manner prohibited above.
 ---------------------------------------------------------------
  

 Cite this work as:
 Gaussian 16, Revision A.03,
 M. J. Frisch, G. W. Trucks, H. B. Schlegel, G. E. Scuseria, 
 M. A. Robb, J. R. Cheeseman, G. Scalmani, V. Barone, 
 G. A. Petersson, H. Nakatsuji, X. Li, M. Caricato, A. V. Marenich, 
 J. Bloino, B. G. Janesko, R. Gomperts, B. Mennucci, H. P. Hratchian, 
 J. V. Ortiz, A. F. Izmaylov, J. L. Sonnenberg, D. Williams-Young, 
 F. Ding, F. Lipparini, F. Egidi, J. Goings, B. Peng, A. Petrone, 
 T. Henderson, D. Ranasinghe, V. G. Zakrzewski, J. Gao, N. Rega, 
 G. Zheng, W. Liang, M. Hada, M. Ehara, K. Toyota, R. Fukuda, 
 J. Hasegawa, M. Ishida, T. Nakajima, Y. Honda, O. Kitao, H. Nakai, 
 T. Vreven, K. Throssell, J. A. Montgomery, Jr., J. E. Peralta, 
 F. Ogliaro, M. J. Bearpark, J. J. Heyd, E. N. Brothers, K. N. Kudin, 
 V. N. Staroverov, T. A. Keith, R. Kobayashi, J. Normand, 
 K. Raghavachari, A. P. Rendell, J. C. Burant, S. S. Iyengar, 
 J. Tomasi, M. Cossi, J. M. Millam, M. Klene, C. Adamo, R. Cammi, 
 J. W. Ochterski, R. L. Martin, K. Morokuma, O. Farkas, 
 J. B. Foresman, and D. J. Fox, Gaussian, Inc., Wallingford CT, 2016.
 
 ******************************************
 Gaussian 16:  ES64L-G16RevA.03 25-Dec-2016
                24-May-2019 
 ******************************************
 %nprocshared=4
 Will use up to    4 processors via shared memory.
 %mem=3GB
 -------------------------------------------------------------------
 #p b3lyp 6-31g* opt freq=noraman scrf=(pcm,solvent=tetrahydrofuran)
 -------------------------------------------------------------------
 1/18=20,19=15,26=3,38=1/1,3;
 2/9=110,12=2,17=6,18=5,40=1/2;
 3/5=1,6=6,7=1,11=2,25=1,30=1,70=2201,71=1,72=20,74=-5/1,2,3;
 4//1;
 5/5=2,38=5,53=20/2;
 6/7=2,8=2,9=2,10=2,28=1/1;
 7//1,2,3,16;
 1/18=20,19=15,26=3/3(2);
 2/9=110/2;
 99//99;
 2/9=110/2;
 3/5=1,6=6,7=1,11=2,25=1,30=1,70=2205,71=1,72=20,74=-5/1,2,3;
 4/5=5,16=3,69=1/1;
 5/5=2,38=5,53=20/2;
 7//1,2,3,16;
 1/18=20,19=15,26=3/3(-5);
 2/9=110/2;
 6/7=2,8=2,9=2,10=2,19=2,28=1/1;
 99/9=1/99;
 Leave Link    1 at Fri May 24 08:31:47 2019, MaxMem=   402653184 cpu:               0.6 elap:               0.2
 (Enter /n/sw/g16_nehalem/g16/l101.exe)
 -----
 title
 -----
 Symbolic Z-matrix:
 Charge =  1 Multiplicity = 1
 6                     0.90634   0.46359   0.72069 
 6                     1.39108   0.37011  -0.75105 
 6                     0.37422  -0.20495  -1.68933 
 6                    -1.33103  -0.51614   0.01507 
 6                    -0.15388  -0.62563   0.97857 
 1                     0.65642  -0.38025  -2.7282 
 1                     1.58756   1.39087  -1.11593 
 1                     1.77972   0.29067   1.36015 
 1                    -1.88896  -1.4521    0.0392 
 1                    -0.54     -0.51804   2.00145 
 8                    -0.79529  -0.5603   -1.40457 
 8                     2.50689  -0.47831  -0.9159 
 8                     0.30774   1.70817   0.99464 
 8                     0.3815   -1.91305   0.74537 
 6                    -2.27915   0.68328   0.10751 
 1                    -1.75418   1.60181  -0.15835 
 1                    -2.59528   0.76812   1.15791 
 8                    -3.37448   0.54904  -0.76678 
 6                     3.70023   0.16387  -1.39306 
 1                     4.00143   0.97126  -0.71478 
 1                     4.4685   -0.60974  -1.41029 
 1                     3.55985   0.56342  -2.40356 
 6                     1.22096   2.75442   1.33126 
 1                     1.898     2.98843   0.49893 
 1                     0.61368   3.6331    1.55271 
 1                     1.8145    2.48308   2.21304 
 6                     1.27709  -2.40362   1.74623 
 1                     2.24361  -1.88852   1.71747 
 1                     0.83655  -2.30663   2.74649 
 1                     1.43187  -3.45977   1.51949 
 6                    -4.45274  -0.22616  -0.25045 
 1                    -4.16736  -1.27162  -0.06755 
 1                    -4.83622   0.20545   0.68427 
 1                    -5.23926  -0.20646  -1.00726 
 
 ITRead=  0  0  0  0  0  0  0  0  0  0  0  0  0  0  0  0  0  0  0  0
 ITRead=  0  0  0  0  0  0  0  0  0  0  0  0  0  0
 MicOpt= -1 -1 -1 -1 -1 -1 -1 -1 -1 -1 -1 -1 -1 -1 -1 -1 -1 -1 -1 -1
 MicOpt= -1 -1 -1 -1 -1 -1 -1 -1 -1 -1 -1 -1 -1 -1
 NAtoms=     34 NQM=       34 NQMF=       0 NMMI=      0 NMMIF=      0
                NMic=       0 NMicF=      0.
                    Isotopes and Nuclear Properties:
 (Nuclear quadrupole moments (NQMom) in fm**2, nuclear magnetic moments (NMagM)
  in nuclear magnetons)

  Atom         1           2           3           4           5           6           7           8           9          10
 IAtWgt=          12          12          12          12          12           1           1           1           1           1
 AtmWgt=  12.0000000  12.0000000  12.0000000  12.0000000  12.0000000   1.0078250   1.0078250   1.0078250   1.0078250   1.0078250
 NucSpn=           0           0           0           0           0           1           1           1           1           1
 AtZEff=   0.0000000   0.0000000   0.0000000   0.0000000   0.0000000   0.0000000   0.0000000   0.0000000   0.0000000   0.0000000
 NQMom=    0.0000000   0.0000000   0.0000000   0.0000000   0.0000000   0.0000000   0.0000000   0.0000000   0.0000000   0.0000000
 NMagM=    0.0000000   0.0000000   0.0000000   0.0000000   0.0000000   2.7928460   2.7928460   2.7928460   2.7928460   2.7928460
 AtZNuc=   6.0000000   6.0000000   6.0000000   6.0000000   6.0000000   1.0000000   1.0000000   1.0000000   1.0000000   1.0000000

  Atom        11          12          13          14          15          16          17          18          19          20
 IAtWgt=          16          16          16          16          12           1           1          16          12           1
 AtmWgt=  15.9949146  15.9949146  15.9949146  15.9949146  12.0000000   1.0078250   1.0078250  15.9949146  12.0000000   1.0078250
 NucSpn=           0           0           0           0           0           1           1           0           0           1
 AtZEff=   0.0000000   0.0000000   0.0000000   0.0000000   0.0000000   0.0000000   0.0000000   0.0000000   0.0000000   0.0000000
 NQMom=    0.0000000   0.0000000   0.0000000   0.0000000   0.0000000   0.0000000   0.0000000   0.0000000   0.0000000   0.0000000
 NMagM=    0.0000000   0.0000000   0.0000000   0.0000000   0.0000000   2.7928460   2.7928460   0.0000000   0.0000000   2.7928460
 AtZNuc=   8.0000000   8.0000000   8.0000000   8.0000000   6.0000000   1.0000000   1.0000000   8.0000000   6.0000000   1.0000000

  Atom        21          22          23          24          25          26          27          28          29          30
 IAtWgt=           1           1          12           1           1           1          12           1           1           1
 AtmWgt=   1.0078250   1.0078250  12.0000000   1.0078250   1.0078250   1.0078250  12.0000000   1.0078250   1.0078250   1.0078250
 NucSpn=           1           1           0           1           1           1           0           1           1           1
 AtZEff=   0.0000000   0.0000000   0.0000000   0.0000000   0.0000000   0.0000000   0.0000000   0.0000000   0.0000000   0.0000000
 NQMom=    0.0000000   0.0000000   0.0000000   0.0000000   0.0000000   0.0000000   0.0000000   0.0000000   0.0000000   0.0000000
 NMagM=    2.7928460   2.7928460   0.0000000   2.7928460   2.7928460   2.7928460   0.0000000   2.7928460   2.7928460   2.7928460
 AtZNuc=   1.0000000   1.0000000   6.0000000   1.0000000   1.0000000   1.0000000   6.0000000   1.0000000   1.0000000   1.0000000

  Atom        31          32          33          34
 IAtWgt=          12           1           1           1
 AtmWgt=  12.0000000   1.0078250   1.0078250   1.0078250
 NucSpn=           0           1           1           1
 AtZEff=   0.0000000   0.0000000   0.0000000   0.0000000
 NQMom=    0.0000000   0.0000000   0.0000000   0.0000000
 NMagM=    0.0000000   2.7928460   2.7928460   2.7928460
 AtZNuc=   6.0000000   1.0000000   1.0000000   1.0000000
 Leave Link  101 at Fri May 24 08:31:47 2019, MaxMem=   402653184 cpu:               1.6 elap:               0.5
 (Enter /n/sw/g16_nehalem/g16/l103.exe)

 GradGradGradGradGradGradGradGradGradGradGradGradGradGradGradGradGradGrad
 Berny optimization.
 Initialization pass.
                           ----------------------------
                           !    Initial Parameters    !
                           ! (Angstroms and Degrees)  !
 --------------------------                            --------------------------
 ! Name  Definition              Value          Derivative Info.                !
 --------------------------------------------------------------------------------
 ! R1    R(1,2)                  1.5523         estimate D2E/DX2                !
 ! R2    R(1,5)                  1.5417         estimate D2E/DX2                !
 ! R3    R(1,8)                  1.0962         estimate D2E/DX2                !
 ! R4    R(1,13)                 1.408          estimate D2E/DX2                !
 ! R5    R(2,3)                  1.4984         estimate D2E/DX2                !
 ! R6    R(2,7)                  1.1017         estimate D2E/DX2                !
 ! R7    R(2,12)                 1.4114         estimate D2E/DX2                !
 ! R8    R(3,6)                  1.0907         estimate D2E/DX2                !
 ! R9    R(3,11)                 1.255          estimate D2E/DX2                !
 ! R10   R(4,5)                  1.5251         estimate D2E/DX2                !
 ! R11   R(4,9)                  1.0899         estimate D2E/DX2                !
 ! R12   R(4,11)                 1.518          estimate D2E/DX2                !
 ! R13   R(4,15)                 1.5317         estimate D2E/DX2                !
 ! R14   R(5,10)                 1.0986         estimate D2E/DX2                !
 ! R15   R(5,14)                 1.4137         estimate D2E/DX2                !
 ! R16   R(12,19)                1.4367         estimate D2E/DX2                !
 ! R17   R(13,23)                1.429          estimate D2E/DX2                !
 ! R18   R(14,27)                1.4298         estimate D2E/DX2                !
 ! R19   R(15,16)                1.0909         estimate D2E/DX2                !
 ! R20   R(15,17)                1.1002         estimate D2E/DX2                !
 ! R21   R(15,18)                1.4079         estimate D2E/DX2                !
 ! R22   R(18,31)                1.4248         estimate D2E/DX2                !
 ! R23   R(19,20)                1.0967         estimate D2E/DX2                !
 ! R24   R(19,21)                1.0904         estimate D2E/DX2                !
 ! R25   R(19,22)                1.0957         estimate D2E/DX2                !
 ! R26   R(23,24)                1.0981         estimate D2E/DX2                !
 ! R27   R(23,25)                1.0908         estimate D2E/DX2                !
 ! R28   R(23,26)                1.097          estimate D2E/DX2                !
 ! R29   R(27,28)                1.0956         estimate D2E/DX2                !
 ! R30   R(27,29)                1.0973         estimate D2E/DX2                !
 ! R31   R(27,30)                1.0913         estimate D2E/DX2                !
 ! R32   R(31,32)                1.099          estimate D2E/DX2                !
 ! R33   R(31,33)                1.0987         estimate D2E/DX2                !
 ! R34   R(31,34)                1.0917         estimate D2E/DX2                !
 ! A1    A(2,1,5)              109.3155         estimate D2E/DX2                !
 ! A2    A(2,1,8)              107.1436         estimate D2E/DX2                !
 ! A3    A(2,1,13)             111.7442         estimate D2E/DX2                !
 ! A4    A(5,1,8)              109.8095         estimate D2E/DX2                !
 ! A5    A(5,1,13)             107.4332         estimate D2E/DX2                !
 ! A6    A(8,1,13)             111.388          estimate D2E/DX2                !
 ! A7    A(1,2,3)              113.8842         estimate D2E/DX2                !
 ! A8    A(1,2,7)              108.2946         estimate D2E/DX2                !
 ! A9    A(1,2,12)             113.1916         estimate D2E/DX2                !
 ! A10   A(3,2,7)              105.6186         estimate D2E/DX2                !
 ! A11   A(3,2,12)             103.4549         estimate D2E/DX2                !
 ! A12   A(7,2,12)             112.1659         estimate D2E/DX2                !
 ! A13   A(2,3,6)              118.8518         estimate D2E/DX2                !
 ! A14   A(2,3,11)             126.7972         estimate D2E/DX2                !
 ! A15   A(6,3,11)             114.3124         estimate D2E/DX2                !
 ! A16   A(5,4,9)              108.6306         estimate D2E/DX2                !
 ! A17   A(5,4,11)             108.4404         estimate D2E/DX2                !
 ! A18   A(5,4,15)             119.7265         estimate D2E/DX2                !
 ! A19   A(9,4,11)             100.1595         estimate D2E/DX2                !
 ! A20   A(9,4,15)             110.7482         estimate D2E/DX2                !
 ! A21   A(11,4,15)            107.3188         estimate D2E/DX2                !
 ! A22   A(1,5,4)              111.9865         estimate D2E/DX2                !
 ! A23   A(1,5,10)             109.1615         estimate D2E/DX2                !
 ! A24   A(1,5,14)             110.8159         estimate D2E/DX2                !
 ! A25   A(4,5,10)             108.053          estimate D2E/DX2                !
 ! A26   A(4,5,14)             104.6837         estimate D2E/DX2                !
 ! A27   A(10,5,14)            112.0787         estimate D2E/DX2                !
 ! A28   A(3,11,4)             122.1972         estimate D2E/DX2                !
 ! A29   A(2,12,19)            115.2624         estimate D2E/DX2                !
 ! A30   A(1,13,23)            114.9194         estimate D2E/DX2                !
 ! A31   A(5,14,27)            115.7344         estimate D2E/DX2                !
 ! A32   A(4,15,16)            110.2892         estimate D2E/DX2                !
 ! A33   A(4,15,17)            107.2094         estimate D2E/DX2                !
 ! A34   A(4,15,18)            111.6806         estimate D2E/DX2                !
 ! A35   A(16,15,17)           107.8204         estimate D2E/DX2                !
 ! A36   A(16,15,18)           107.6589         estimate D2E/DX2                !
 ! A37   A(17,15,18)           112.1284         estimate D2E/DX2                !
 ! A38   A(15,18,31)           114.557          estimate D2E/DX2                !
 ! A39   A(12,19,20)           110.5972         estimate D2E/DX2                !
 ! A40   A(12,19,21)           105.864          estimate D2E/DX2                !
 ! A41   A(12,19,22)           111.2778         estimate D2E/DX2                !
 ! A42   A(20,19,21)           109.7907         estimate D2E/DX2                !
 ! A43   A(20,19,22)           109.702          estimate D2E/DX2                !
 ! A44   A(21,19,22)           109.537          estimate D2E/DX2                !
 ! A45   A(13,23,24)           111.8075         estimate D2E/DX2                !
 ! A46   A(13,23,25)           106.3692         estimate D2E/DX2                !
 ! A47   A(13,23,26)           110.7337         estimate D2E/DX2                !
 ! A48   A(24,23,25)           108.9929         estimate D2E/DX2                !
 ! A49   A(24,23,26)           109.1694         estimate D2E/DX2                !
 ! A50   A(25,23,26)           109.7103         estimate D2E/DX2                !
 ! A51   A(14,27,28)           111.8938         estimate D2E/DX2                !
 ! A52   A(14,27,29)           110.8727         estimate D2E/DX2                !
 ! A53   A(14,27,30)           105.9896         estimate D2E/DX2                !
 ! A54   A(28,27,29)           109.6673         estimate D2E/DX2                !
 ! A55   A(28,27,30)           108.9324         estimate D2E/DX2                !
 ! A56   A(29,27,30)           109.3839         estimate D2E/DX2                !
 ! A57   A(18,31,32)           112.4163         estimate D2E/DX2                !
 ! A58   A(18,31,33)           111.0215         estimate D2E/DX2                !
 ! A59   A(18,31,34)           106.5103         estimate D2E/DX2                !
 ! A60   A(32,31,33)           108.8292         estimate D2E/DX2                !
 ! A61   A(32,31,34)           108.6392         estimate D2E/DX2                !
 ! A62   A(33,31,34)           109.3447         estimate D2E/DX2                !
 ! D1    D(5,1,2,3)             27.2655         estimate D2E/DX2                !
 ! D2    D(5,1,2,7)            144.4284         estimate D2E/DX2                !
 ! D3    D(5,1,2,12)           -90.5452         estimate D2E/DX2                !
 ! D4    D(8,1,2,3)            146.2075         estimate D2E/DX2                !
 ! D5    D(8,1,2,7)            -96.6296         estimate D2E/DX2                !
 ! D6    D(8,1,2,12)            28.3968         estimate D2E/DX2                !
 ! D7    D(13,1,2,3)           -91.5228         estimate D2E/DX2                !
 ! D8    D(13,1,2,7)            25.6401         estimate D2E/DX2                !
 ! D9    D(13,1,2,12)          150.6664         estimate D2E/DX2                !
 ! D10   D(2,1,5,4)            -56.9341         estimate D2E/DX2                !
 ! D11   D(2,1,5,10)          -176.5446         estimate D2E/DX2                !
 ! D12   D(2,1,5,14)            59.5502         estimate D2E/DX2                !
 ! D13   D(8,1,5,4)           -174.2082         estimate D2E/DX2                !
 ! D14   D(8,1,5,10)            66.1812         estimate D2E/DX2                !
 ! D15   D(8,1,5,14)           -57.7239         estimate D2E/DX2                !
 ! D16   D(13,1,5,4)            64.5003         estimate D2E/DX2                !
 ! D17   D(13,1,5,10)          -55.1102         estimate D2E/DX2                !
 ! D18   D(13,1,5,14)         -179.0154         estimate D2E/DX2                !
 ! D19   D(2,1,13,23)          -83.9881         estimate D2E/DX2                !
 ! D20   D(5,1,13,23)          156.1113         estimate D2E/DX2                !
 ! D21   D(8,1,13,23)           35.8154         estimate D2E/DX2                !
 ! D22   D(1,2,3,6)           -175.2621         estimate D2E/DX2                !
 ! D23   D(1,2,3,11)             2.3421         estimate D2E/DX2                !
 ! D24   D(7,2,3,6)             66.036          estimate D2E/DX2                !
 ! D25   D(7,2,3,11)          -116.3599         estimate D2E/DX2                !
 ! D26   D(12,2,3,6)           -51.9785         estimate D2E/DX2                !
 ! D27   D(12,2,3,11)          125.6257         estimate D2E/DX2                !
 ! D28   D(1,2,12,19)         -117.1449         estimate D2E/DX2                !
 ! D29   D(3,2,12,19)          119.1159         estimate D2E/DX2                !
 ! D30   D(7,2,12,19)            5.7631         estimate D2E/DX2                !
 ! D31   D(2,3,11,4)            -3.3837         estimate D2E/DX2                !
 ! D32   D(6,3,11,4)           174.3137         estimate D2E/DX2                !
 ! D33   D(9,4,5,1)            163.5756         estimate D2E/DX2                !
 ! D34   D(9,4,5,10)           -76.1658         estimate D2E/DX2                !
 ! D35   D(9,4,5,14)            43.4447         estimate D2E/DX2                !
 ! D36   D(11,4,5,1)            55.5988         estimate D2E/DX2                !
 ! D37   D(11,4,5,10)          175.8574         estimate D2E/DX2                !
 ! D38   D(11,4,5,14)          -64.5321         estimate D2E/DX2                !
 ! D39   D(15,4,5,1)           -67.8882         estimate D2E/DX2                !
 ! D40   D(15,4,5,10)           52.3704         estimate D2E/DX2                !
 ! D41   D(15,4,5,14)          171.9809         estimate D2E/DX2                !
 ! D42   D(5,4,11,3)           -25.5748         estimate D2E/DX2                !
 ! D43   D(9,4,11,3)          -139.2701         estimate D2E/DX2                !
 ! D44   D(15,4,11,3)          105.0797         estimate D2E/DX2                !
 ! D45   D(5,4,15,16)           66.1789         estimate D2E/DX2                !
 ! D46   D(5,4,15,17)          -50.9553         estimate D2E/DX2                !
 ! D47   D(5,4,15,18)         -174.1505         estimate D2E/DX2                !
 ! D48   D(9,4,15,16)         -166.253          estimate D2E/DX2                !
 ! D49   D(9,4,15,17)           76.6127         estimate D2E/DX2                !
 ! D50   D(9,4,15,18)          -46.5825         estimate D2E/DX2                !
 ! D51   D(11,4,15,16)         -57.8494         estimate D2E/DX2                !
 ! D52   D(11,4,15,17)        -174.9837         estimate D2E/DX2                !
 ! D53   D(11,4,15,18)          61.8211         estimate D2E/DX2                !
 ! D54   D(1,5,14,27)           74.4618         estimate D2E/DX2                !
 ! D55   D(4,5,14,27)         -164.6291         estimate D2E/DX2                !
 ! D56   D(10,5,14,27)         -47.7569         estimate D2E/DX2                !
 ! D57   D(2,12,19,20)          58.0642         estimate D2E/DX2                !
 ! D58   D(2,12,19,21)         176.9345         estimate D2E/DX2                !
 ! D59   D(2,12,19,22)         -64.1344         estimate D2E/DX2                !
 ! D60   D(1,13,23,24)          63.3435         estimate D2E/DX2                !
 ! D61   D(1,13,23,25)        -177.7832         estimate D2E/DX2                !
 ! D62   D(1,13,23,26)         -58.6367         estimate D2E/DX2                !
 ! D63   D(5,14,27,28)         -72.4785         estimate D2E/DX2                !
 ! D64   D(5,14,27,29)          50.3029         estimate D2E/DX2                !
 ! D65   D(5,14,27,30)         168.9079         estimate D2E/DX2                !
 ! D66   D(4,15,18,31)          83.9376         estimate D2E/DX2                !
 ! D67   D(16,15,18,31)       -154.8527         estimate D2E/DX2                !
 ! D68   D(17,15,18,31)        -36.4179         estimate D2E/DX2                !
 ! D69   D(15,18,31,32)        -63.6547         estimate D2E/DX2                !
 ! D70   D(15,18,31,33)         58.5229         estimate D2E/DX2                !
 ! D71   D(15,18,31,34)        177.4724         estimate D2E/DX2                !
 --------------------------------------------------------------------------------
 Trust Radius=3.00D-01 FncErr=1.00D-07 GrdErr=1.00D-06 EigMax=2.50D+02 EigMin=1.00D-04
 Number of steps in this run=    177 maximum allowed number of steps=    204.
 GradGradGradGradGradGradGradGradGradGradGradGradGradGradGradGradGradGrad

 Leave Link  103 at Fri May 24 08:31:47 2019, MaxMem=   402653184 cpu:               0.1 elap:               0.1
 (Enter /n/sw/g16_nehalem/g16/l202.exe)
                          Input orientation:                          
 ---------------------------------------------------------------------
 Center     Atomic      Atomic             Coordinates (Angstroms)
 Number     Number       Type             X           Y           Z
 ---------------------------------------------------------------------
      1          6           0        0.906338    0.463588    0.720694
      2          6           0        1.391080    0.370107   -0.751051
      3          6           0        0.374220   -0.204951   -1.689331
      4          6           0       -1.331033   -0.516139    0.015070
      5          6           0       -0.153881   -0.625634    0.978566
      6          1           0        0.656419   -0.380249   -2.728198
      7          1           0        1.587555    1.390869   -1.115932
      8          1           0        1.779724    0.290672    1.360152
      9          1           0       -1.888957   -1.452101    0.039203
     10          1           0       -0.540003   -0.518040    2.001453
     11          8           0       -0.795285   -0.560302   -1.404566
     12          8           0        2.506892   -0.478306   -0.915903
     13          8           0        0.307737    1.708165    0.994641
     14          8           0        0.381503   -1.913050    0.745373
     15          6           0       -2.279151    0.683281    0.107514
     16          1           0       -1.754178    1.601807   -0.158347
     17          1           0       -2.595282    0.768118    1.157910
     18          8           0       -3.374479    0.549037   -0.766776
     19          6           0        3.700225    0.163866   -1.393057
     20          1           0        4.001430    0.971264   -0.714778
     21          1           0        4.468497   -0.609741   -1.410287
     22          1           0        3.559851    0.563420   -2.403556
     23          6           0        1.220955    2.754419    1.331257
     24          1           0        1.898000    2.988425    0.498925
     25          1           0        0.613681    3.633102    1.552707
     26          1           0        1.814497    2.483083    2.213038
     27          6           0        1.277090   -2.403617    1.746225
     28          1           0        2.243614   -1.888517    1.717471
     29          1           0        0.836549   -2.306633    2.746490
     30          1           0        1.431874   -3.459774    1.519490
     31          6           0       -4.452741   -0.226156   -0.250449
     32          1           0       -4.167357   -1.271621   -0.067553
     33          1           0       -4.836223    0.205446    0.684273
     34          1           0       -5.239257   -0.206464   -1.007261
 ---------------------------------------------------------------------
                    Distance matrix (angstroms):
                    1          2          3          4          5
     1  C    0.000000
     2  C    1.552336   0.000000
     3  C    2.557013   1.498354   0.000000
     4  C    2.542361   2.963490   2.430989   0.000000
     5  C    1.541742   2.523882   2.752006   1.525123   0.000000
     6  H    3.559407   2.238721   1.090693   3.390273   3.802223
     7  H    2.167280   1.101679   2.085092   3.665242   3.389071
     8  H    1.096180   2.148146   3.394176   3.483820   2.173489
     9  H    3.456583   3.834526   3.108888   1.089902   2.139145
    10  H    2.166989   3.477667   3.815195   2.138095   1.098619
    11  O    2.908711   2.464333   1.255033   1.518006   2.468802
    12  O    2.475356   1.411388   2.284995   3.949406   3.269622
    13  O    1.407957   2.451830   3.296686   2.931323   2.379069
    14  O    2.434023   2.910556   2.974128   2.327549   1.413667
    15  C    3.251399   3.782302   3.325355   1.531693   2.643627
    16  H    3.024335   3.429436   3.184080   2.166753   2.969009
    17  H    3.541926   4.437750   4.227480   2.133946   2.816939
    18  O    4.532688   4.768943   3.933491   2.433424   3.846859
    19  C    3.516188   2.405589   3.359481   5.268661   4.593696
    20  H    3.449335   2.678924   3.935719   5.583924   4.762783
    21  H    4.287434   3.296239   4.123691   5.972851   5.203196
    22  H    4.100248   2.733443   3.353917   5.562009   5.161822
    23  C    2.391585   3.170157   4.312631   4.352188   3.665968
    24  H    2.721650   2.945335   4.160291   4.789858   4.183503
    25  H    3.289941   4.069249   5.029792   4.833471   4.365275
    26  H    2.670244   3.664665   4.952616   4.870396   3.881051
    27  C    3.067578   3.734023   4.177601   3.655376   2.407946
    28  H    2.883447   3.452796   4.235012   4.190429   2.808707
    29  H    3.432615   4.439058   4.930246   3.919813   2.632919
    30  H    4.038197   4.452528   4.691379   4.308355   3.292350
    31  C    5.489863   5.895454   5.036902   3.146371   4.488904
    32  H    5.419840   5.835980   4.939015   2.936378   4.197577
    33  H    5.748476   6.392697   5.740308   3.640724   4.764623
    34  H    6.418967   6.660289   5.654763   4.051577   5.475423
                    6          7          8          9         10
     6  H    0.000000
     7  H    2.569684   0.000000
     8  H    4.292616   2.716313   0.000000
     9  H    3.909772   4.637127   4.270993   0.000000
    10  H    4.880575   4.229483   2.538979   2.557845   0.000000
    11  O    1.972781   3.093268   3.872789   2.018884   3.415834
    12  O    2.591964   2.092608   2.510085   4.602607   4.218544
    13  O    4.282824   2.488600   2.075965   3.965553   2.586179
    14  O    3.806672   3.979309   2.681299   2.422011   2.091163
    15  C    4.217811   4.116906   4.265877   2.171814   2.838100
    16  H    4.042729   3.482620   4.063666   3.063257   3.260783
    17  H    5.195589   4.801490   4.405625   2.584526   2.567088
    18  O    4.578088   5.045034   5.581790   2.619338   4.103169
    19  C    3.367999   2.458802   3.359250   5.991801   5.474233
    20  H    4.131531   2.482697   3.115207   6.413879   5.497322
    21  H    4.039987   3.519789   3.964288   6.574786   6.060813
    22  H    3.070150   2.496517   4.172378   6.302294   6.114120
    23  C    5.159847   2.825314   2.526481   5.388485   3.776125
    24  H    4.827402   2.292668   2.834356   5.854115   4.527333
    25  H    5.868131   3.619071   3.545218   5.866275   4.331783
    26  H    5.827146   3.510908   2.352720   5.824672   3.820364
    27  C    4.949718   4.763030   2.767831   3.720640   2.631040
    28  H    4.955606   4.383259   2.256487   4.481650   3.115666
    29  H    5.806515   5.399429   3.091522   3.935481   2.376771
    30  H    5.303551   5.522538   3.769912   4.153302   3.574127
    31  C    5.680361   6.312607   6.457923   2.856541   4.523912
    32  H    5.580537   6.427049   6.312438   2.288029   4.243391
    33  H    6.492851   6.775757   6.650927   3.442376   4.551472
    34  H    6.144170   7.012036   7.424142   3.724407   5.588598
                   11         12         13         14         15
    11  O    0.000000
    12  O    3.339145   0.000000
    13  O    3.481206   3.642405   0.000000
    14  O    2.799463   3.055423   3.630534   0.000000
    15  C    2.456571   5.030196   2.920509   3.771853   0.000000
    16  H    2.673435   4.801820   2.364781   4.210946   1.090857
    17  H    3.401613   5.646809   3.055792   4.027418   1.100213
    18  O    2.879175   5.972286   4.243216   4.738762   1.407888
    19  C    4.553478   1.436699   4.426617   4.460984   6.186634
    20  H    5.082320   2.091733   4.136243   4.853368   6.340725
    21  H    5.264017   2.027211   5.335568   4.800938   7.036077
    22  H    4.607379   2.099292   4.840912   5.113761   6.357184
    23  C    4.747349   4.141723   1.428959   4.778410   4.247105
    24  H    4.844639   3.793509   2.100889   5.136629   4.787012
    25  H    5.321211   5.155769   2.027418   5.609411   4.377043
    26  H    5.400020   4.363428   2.086939   4.851134   4.942719
    27  C    4.197622   3.508014   4.290836   1.429838   4.986097
    28  H    4.554797   2.998778   4.148039   2.100722   5.446238
    29  H    4.789971   4.421080   4.412167   2.089604   5.060767
    30  H    4.681589   3.996993   5.314767   2.023584   5.738492
    31  C    3.849756   6.995920   5.287154   5.216051   2.383214
    32  H    3.696545   6.774559   5.480314   4.665234   2.723529
    33  H    4.612895   7.546484   5.367943   5.631734   2.664506
    34  H    4.475706   7.751456   6.200206   6.130017   3.285818
                   16         17         18         19         20
    16  H    0.000000
    17  H    1.770600   0.000000
    18  O    2.025805   2.087956   0.000000
    19  C    5.774313   6.819528   7.112807   0.000000
    20  H    5.816719   6.860382   7.388167   1.096667   0.000000
    21  H    6.721606   7.641407   7.954190   1.090416   1.789263
    22  H    5.861580   7.114183   7.124899   1.095653   1.792568
    23  C    3.521200   4.305706   5.512120   4.503291   3.885478
    24  H    3.961454   5.055058   5.945725   3.847823   3.156966
    25  H    3.558177   4.319889   5.549494   5.499080   4.868646
    26  H    4.374421   4.847737   6.288505   4.683872   3.954792
    27  C    5.372095   5.039968   6.055612   4.724261   4.986821
    28  H    5.628801   5.548489   6.608791   4.001172   4.145371
    29  H    5.515963   4.873925   6.183094   5.607125   5.722015
    30  H    6.211736   5.850111   6.663228   5.172921   5.588262
    31  C    3.260701   2.534208   1.424839   8.241876   8.551165
    32  H    3.753434   2.851967   2.105318   8.106567   8.495794
    33  H    3.486952   2.358548   2.088132   8.785669   8.980419
    34  H    4.016998   3.553643   2.026330   8.955463   9.320026
                   21         22         23         24         25
    21  H    0.000000
    22  H    1.785645   0.000000
    23  C    5.420347   4.921355   0.000000
    24  H    4.816570   4.131198   1.098146   0.000000
    25  H    6.452957   5.809895   1.090828   1.782005   0.000000
    26  H    5.453234   5.295688   1.097020   1.789002   1.789005
    27  C    4.833905   5.588827   5.175006   5.569147   6.076145
    28  H    4.045768   4.972659   4.769890   5.038737   5.759523
    29  H    5.774884   6.494348   5.269241   5.849433   6.062610
    30  H    5.091892   6.008716   6.220620   6.545082   7.139988
    31  C    9.004490   8.334322   6.601246   7.157304   6.619205
    32  H    8.764645   8.278528   6.870195   7.433535   7.038457
    33  H    9.572331   8.953038   6.603428   7.288970   6.496496
    34  H    9.724482   8.942408   7.481299   7.963438   7.453361
                   26         27         28         29         30
    26  H    0.000000
    27  C    4.938275   0.000000
    28  H    4.420477   1.095593   0.000000
    29  H    4.917554   1.097275   1.792633   0.000000
    30  H    5.995411   1.091254   1.779597   1.785966   0.000000
    31  C    7.258582   6.446628   7.174770   6.425466   6.943894
    32  H    7.421689   5.849206   6.683369   5.833452   6.217564
    33  H    7.194222   6.731088   7.454949   6.537861   7.308931
    34  H    8.207279   7.407560   8.139215   7.444244   7.840439
                   31         32         33         34
    31  C    0.000000
    32  H    1.099041   0.000000
    33  H    1.098656   1.787275   0.000000
    34  H    1.091677   1.779489   1.787007   0.000000
 Stoichiometry    C10H19O5(1+)
 Framework group  C1[X(C10H19O5)]
 Deg. of freedom    96
 Full point group                 C1      NOp   1
 Largest Abelian subgroup         C1      NOp   1
 Largest concise Abelian subgroup C1      NOp   1
                         Standard orientation:                         
 ---------------------------------------------------------------------
 Center     Atomic      Atomic             Coordinates (Angstroms)
 Number     Number       Type             X           Y           Z
 ---------------------------------------------------------------------
      1          6           0        0.906338    0.463588    0.720694
      2          6           0        1.391080    0.370107   -0.751051
      3          6           0        0.374220   -0.204951   -1.689331
      4          6           0       -1.331033   -0.516139    0.015070
      5          6           0       -0.153881   -0.625634    0.978566
      6          1           0        0.656419   -0.380249   -2.728198
      7          1           0        1.587555    1.390869   -1.115932
      8          1           0        1.779724    0.290672    1.360152
      9          1           0       -1.888957   -1.452101    0.039203
     10          1           0       -0.540003   -0.518040    2.001453
     11          8           0       -0.795285   -0.560302   -1.404566
     12          8           0        2.506892   -0.478306   -0.915903
     13          8           0        0.307737    1.708165    0.994641
     14          8           0        0.381503   -1.913050    0.745373
     15          6           0       -2.279151    0.683281    0.107514
     16          1           0       -1.754178    1.601807   -0.158347
     17          1           0       -2.595282    0.768118    1.157910
     18          8           0       -3.374479    0.549037   -0.766776
     19          6           0        3.700225    0.163866   -1.393057
     20          1           0        4.001430    0.971264   -0.714778
     21          1           0        4.468497   -0.609741   -1.410287
     22          1           0        3.559851    0.563420   -2.403556
     23          6           0        1.220955    2.754419    1.331257
     24          1           0        1.898000    2.988425    0.498925
     25          1           0        0.613681    3.633102    1.552707
     26          1           0        1.814497    2.483083    2.213038
     27          6           0        1.277090   -2.403617    1.746225
     28          1           0        2.243614   -1.888517    1.717471
     29          1           0        0.836549   -2.306633    2.746490
     30          1           0        1.431874   -3.459774    1.519490
     31          6           0       -4.452741   -0.226156   -0.250449
     32          1           0       -4.167357   -1.271621   -0.067553
     33          1           0       -4.836223    0.205446    0.684273
     34          1           0       -5.239257   -0.206464   -1.007261
 ---------------------------------------------------------------------
 Rotational constants (GHZ):           0.8089345           0.3967179           0.3697530
 Leave Link  202 at Fri May 24 08:31:48 2019, MaxMem=   402653184 cpu:               0.3 elap:               0.2
 (Enter /n/sw/g16_nehalem/g16/l301.exe)
 Standard basis: 6-31G(d) (6D, 7F)
 Ernie: Thresh=  0.10000D-02 Tol=  0.10000D-05 Strict=F.
 There are   263 symmetry adapted cartesian basis functions of A   symmetry.
 There are   263 symmetry adapted basis functions of A   symmetry.
   263 basis functions,   496 primitive gaussians,   263 cartesian basis functions
    59 alpha electrons       59 beta electrons
       nuclear repulsion energy      1165.1082547423 Hartrees.
 IExCor=  402 DFT=T Ex+Corr=B3LYP ExCW=0 ScaHFX=  0.200000
 ScaDFX=  0.800000  0.720000  1.000000  0.810000 ScalE2=  1.000000  1.000000
 IRadAn=      5 IRanWt=     -1 IRanGd=            0 ICorTp=0 IEmpDi=  4
 NAtoms=   34 NActive=   34 NUniq=   34 SFac= 1.00D+00 NAtFMM=   60 NAOKFM=F Big=F
 Integral buffers will be    131072 words long.
 Raffenetti 2 integral format.
 Two-electron integral symmetry is turned on.
 ------------------------------------------------------------------------------
 Polarizable Continuum Model (PCM)
 =================================
 Model                : PCM.
 Atomic radii         : UFF (Universal Force Field).
 Polarization charges : Total charges.
 Charge compensation  : None.
 Solution method      : On-the-fly selection.
 Cavity type          : Scaled VdW (van der Waals Surface) (Alpha=1.100).
 Cavity algorithm     : GePol (No added spheres)
                        Default sphere list used, NSphG=   34.
                        Lebedev-Laikov grids with approx.  5.0 points / Ang**2.
                        Smoothing algorithm: York/Karplus (Gamma=1.0000).
                        Polarization charges: spherical gaussians, with
                                              point-specific exponents (IZeta= 3).
                        Self-potential: point-specific (ISelfS= 7).
                        Self-field    : sphere-specific E.n sum rule (ISelfD= 2).
 1st derivatives      : Analytical E(r).r(x)/FMM algorithm (CHGder, D1EAlg=3).
                        Cavity 1st derivative terms included.
 Solvent              : TetraHydroFuran, Eps=   7.425700 Eps(inf)=   1.974025
 ------------------------------------------------------------------------------
 GePol: Number of generator spheres                  =      34
 GePol: Total number of spheres                      =      34
 GePol: Number of exposed spheres                    =      34 (100.00%)
 GePol: Number of points                             =    2313
 GePol: Average weight of points                     =       0.13
 GePol: Minimum weight of points                     =   0.23D-11
 GePol: Maximum weight of points                     =    0.20577
 GePol: Number of points with low weight             =     139
 GePol: Fraction of low-weight points (<1% of avg)   =       6.01%
 GePol: Cavity surface area                          =    305.862 Ang**2
 GePol: Cavity volume                                =    322.659 Ang**3
 Leave Link  301 at Fri May 24 08:31:48 2019, MaxMem=   402653184 cpu:               0.7 elap:               0.2
 (Enter /n/sw/g16_nehalem/g16/l302.exe)
 NPDir=0 NMtPBC=     1 NCelOv=     1 NCel=       1 NClECP=     1 NCelD=      1
         NCelK=      1 NCelE2=     1 NClLst=     1 CellRange=     0.0.
 One-electron integrals computed using PRISM.
 One-electron integral symmetry used in STVInt
 NBasis=   263 RedAO= T EigKep=  1.98D-03  NBF=   263
 NBsUse=   263 1.00D-06 EigRej= -1.00D+00 NBFU=   263
 Precomputing XC quadrature grid using
 IXCGrd= 4 IRadAn=           5 IRanWt=          -1 IRanGd=           0 AccXCQ= 0.00D+00.
 Generated NRdTot=       0 NPtTot=           0 NUsed=           0 NTot=          32
 NSgBfM=   262   262   262   262   262 MxSgAt=    34 MxSgA2=    34.
 Leave Link  302 at Fri May 24 08:31:49 2019, MaxMem=   402653184 cpu:               3.3 elap:               0.9
 (Enter /n/sw/g16_nehalem/g16/l303.exe)
 DipDrv:  MaxL=1.
 Leave Link  303 at Fri May 24 08:31:50 2019, MaxMem=   402653184 cpu:               0.8 elap:               0.5
 (Enter /n/sw/g16_nehalem/g16/l401.exe)
 ExpMin= 1.61D-01 ExpMax= 5.48D+03 ExpMxC= 8.25D+02 IAcc=3 IRadAn=         5 AccDes= 0.00D+00
 Harris functional with IExCor=  402 and IRadAn=       5 diagonalized for initial guess.
 HarFok:  IExCor=  402 AccDes= 0.00D+00 IRadAn=         5 IDoV= 1 UseB2=F ITyADJ=14
 ICtDFT=  3500011 ScaDFX=  1.000000  1.000000  1.000000  1.000000
 FoFCou: FMM=F IPFlag=           0 FMFlag=      100000 FMFlg1=           0
         NFxFlg=           0 DoJE=T BraDBF=F KetDBF=T FulRan=T
         wScrn=  0.000000 ICntrl=       500 IOpCl=  0 I1Cent=   200000004 NGrid=           0
         NMat0=    1 NMatS0=      1 NMatT0=    0 NMatD0=    1 NMtDS0=    0 NMtDT0=    0
 Petite list used in FoFCou.
 Harris En= -768.260257020144    
 JPrj=0 DoOrth=F DoCkMO=F.
 Leave Link  401 at Fri May 24 08:31:55 2019, MaxMem=   402653184 cpu:              20.7 elap:               5.5
 (Enter /n/sw/g16_nehalem/g16/l502.exe)
 Integral symmetry usage will be decided dynamically.
 Closed shell SCF:
 Using DIIS extrapolation, IDIIS=  1040.
 NGot=   402653184 LenX=   402510103 LenY=   402440493
 Requested convergence on RMS density matrix=1.00D-08 within 128 cycles.
 Requested convergence on MAX density matrix=1.00D-06.
 Requested convergence on             energy=1.00D-06.
 No special actions if energy rises.
 Fock matrices will be formed incrementally for  20 cycles.

 Cycle   1  Pass 1  IDiag  1:
 FoFJK:  IHMeth= 1 ICntrl=       0 DoSepK=F KAlg= 0 I1Cent=           0 FoldK=F
 IRaf= 880000000 NMat=       1 IRICut=       1 DoRegI=T DoRafI=F ISym2E= 0 IDoP0=0 IntGTp=1.
 FoFCou: FMM=F IPFlag=           0 FMFlag=      100000 FMFlg1=           0
         NFxFlg=           0 DoJE=F BraDBF=F KetDBF=F FulRan=T
         wScrn=  0.000000 ICntrl=         0 IOpCl=  0 I1Cent=           0 NGrid=           0
         NMat0=    1 NMatS0=      1 NMatT0=    0 NMatD0=    1 NMtDS0=    0 NMtDT0=    0
 Symmetry not used in FoFCou.
 Inv3:  Mode=1 IEnd=    16049907.
 Iteration    1 A*A^-1 deviation from unit magnitude is 6.88D-15 for    552.
 Iteration    1 A*A^-1 deviation from orthogonality  is 2.32D-15 for   2307    478.
 Iteration    1 A^-1*A deviation from unit magnitude is 6.00D-15 for    557.
 Iteration    1 A^-1*A deviation from orthogonality  is 4.05D-15 for   2129    573.
 E= -768.097458963606    
 DIIS: error= 1.78D-02 at cycle   1 NSaved=   1.
 NSaved= 1 IEnMin= 1 EnMin= -768.097458963606     IErMin= 1 ErrMin= 1.78D-02
 ErrMax= 1.78D-02  0.00D+00 EMaxC= 1.00D-01 BMatC= 2.50D-01 BMatP= 2.50D-01
 IDIUse=3 WtCom= 8.22D-01 WtEn= 1.78D-01
 Coeff-Com:  0.100D+01
 Coeff-En:   0.100D+01
 Coeff:      0.100D+01
 Gap=     0.055 Goal=   None    Shift=    0.000
 GapD=    0.055 DampG=0.500 DampE=0.500 DampFc=0.2500 IDamp=-1.
 Damping current iteration by 2.50D-01
 RMSDP=4.11D-03 MaxDP=1.14D-01              OVMax= 2.27D-01

 Cycle   2  Pass 1  IDiag  1:
 RMSU=  1.02D-03    CP:  9.95D-01
 E= -768.177276271762     Delta-E=       -0.079817308156 Rises=F Damp=T
 DIIS: error= 9.18D-03 at cycle   2 NSaved=   2.
 NSaved= 2 IEnMin= 2 EnMin= -768.177276271762     IErMin= 2 ErrMin= 9.18D-03
 ErrMax= 9.18D-03  0.00D+00 EMaxC= 1.00D-01 BMatC= 7.15D-02 BMatP= 2.50D-01
 IDIUse=3 WtCom= 9.08D-01 WtEn= 9.18D-02
 Coeff-Com: -0.851D+00 0.185D+01
 Coeff-En:   0.000D+00 0.100D+01
 Coeff:     -0.773D+00 0.177D+01
 Gap=     0.153 Goal=   None    Shift=    0.000
 RMSDP=1.25D-03 MaxDP=2.85D-02 DE=-7.98D-02 OVMax= 2.12D-01

 Cycle   3  Pass 1  IDiag  1:
 RMSU=  1.04D-03    CP:  9.87D-01  1.65D+00
 E= -768.314683452403     Delta-E=       -0.137407180641 Rises=F Damp=F
 DIIS: error= 4.80D-03 at cycle   3 NSaved=   3.
 NSaved= 3 IEnMin= 3 EnMin= -768.314683452403     IErMin= 3 ErrMin= 4.80D-03
 ErrMax= 4.80D-03  0.00D+00 EMaxC= 1.00D-01 BMatC= 2.04D-02 BMatP= 7.15D-02
 IDIUse=3 WtCom= 9.52D-01 WtEn= 4.80D-02
 Coeff-Com: -0.499D+00 0.954D+00 0.546D+00
 Coeff-En:   0.000D+00 0.000D+00 0.100D+01
 Coeff:     -0.475D+00 0.908D+00 0.567D+00
 Gap=     0.145 Goal=   None    Shift=    0.000
 RMSDP=5.96D-04 MaxDP=2.95D-02 DE=-1.37D-01 OVMax= 3.27D-02

 Cycle   4  Pass 1  IDiag  1:
 RMSU=  4.02D-04    CP:  9.90D-01  1.80D+00  6.10D-01
 E= -768.329003076532     Delta-E=       -0.014319624129 Rises=F Damp=F
 DIIS: error= 1.73D-03 at cycle   4 NSaved=   4.
 NSaved= 4 IEnMin= 4 EnMin= -768.329003076532     IErMin= 4 ErrMin= 1.73D-03
 ErrMax= 1.73D-03  0.00D+00 EMaxC= 1.00D-01 BMatC= 3.09D-03 BMatP= 2.04D-02
 IDIUse=3 WtCom= 9.83D-01 WtEn= 1.73D-02
 Coeff-Com: -0.173D+00 0.292D+00 0.297D+00 0.584D+00
 Coeff-En:   0.000D+00 0.000D+00 0.770D-01 0.923D+00
 Coeff:     -0.170D+00 0.287D+00 0.293D+00 0.590D+00
 Gap=     0.143 Goal=   None    Shift=    0.000
 RMSDP=2.04D-04 MaxDP=1.19D-02 DE=-1.43D-02 OVMax= 1.43D-02

 Cycle   5  Pass 1  IDiag  1:
 RMSU=  1.25D-04    CP:  9.89D-01  1.81D+00  6.89D-01  6.59D-01
 E= -768.331225241399     Delta-E=       -0.002222164867 Rises=F Damp=F
 DIIS: error= 5.64D-04 at cycle   5 NSaved=   5.
 NSaved= 5 IEnMin= 5 EnMin= -768.331225241399     IErMin= 5 ErrMin= 5.64D-04
 ErrMax= 5.64D-04  0.00D+00 EMaxC= 1.00D-01 BMatC= 3.50D-04 BMatP= 3.09D-03
 IDIUse=3 WtCom= 9.94D-01 WtEn= 5.64D-03
 Coeff-Com: -0.594D-01 0.922D-01 0.101D+00 0.320D+00 0.547D+00
 Coeff-En:   0.000D+00 0.000D+00 0.000D+00 0.283D-01 0.972D+00
 Coeff:     -0.591D-01 0.916D-01 0.100D+00 0.318D+00 0.549D+00
 Gap=     0.145 Goal=   None    Shift=    0.000
 RMSDP=6.90D-05 MaxDP=3.52D-03 DE=-2.22D-03 OVMax= 3.06D-03

 Cycle   6  Pass 1  IDiag  1:
 RMSU=  4.85D-05    CP:  9.89D-01  1.81D+00  6.90D-01  7.23D-01  6.66D-01
 E= -768.331456397235     Delta-E=       -0.000231155836 Rises=F Damp=F
 DIIS: error= 2.74D-04 at cycle   6 NSaved=   6.
 NSaved= 6 IEnMin= 6 EnMin= -768.331456397235     IErMin= 6 ErrMin= 2.74D-04
 ErrMax= 2.74D-04  0.00D+00 EMaxC= 1.00D-01 BMatC= 5.10D-05 BMatP= 3.50D-04
 IDIUse=3 WtCom= 9.97D-01 WtEn= 2.74D-03
 Coeff-Com: -0.169D-01 0.223D-01 0.218D-01 0.128D+00 0.336D+00 0.510D+00
 Coeff-En:   0.000D+00 0.000D+00 0.000D+00 0.000D+00 0.627D-01 0.937D+00
 Coeff:     -0.169D-01 0.222D-01 0.218D-01 0.127D+00 0.335D+00 0.511D+00
 Gap=     0.145 Goal=   None    Shift=    0.000
 RMSDP=2.19D-05 MaxDP=1.66D-03 DE=-2.31D-04 OVMax= 1.24D-03

 Cycle   7  Pass 1  IDiag  1:
 RMSU=  1.56D-05    CP:  9.89D-01  1.81D+00  6.90D-01  7.32D-01  7.29D-01
                    CP:  7.40D-01
 E= -768.331493161312     Delta-E=       -0.000036764077 Rises=F Damp=F
 DIIS: error= 7.39D-05 at cycle   7 NSaved=   7.
 NSaved= 7 IEnMin= 7 EnMin= -768.331493161312     IErMin= 7 ErrMin= 7.39D-05
 ErrMax= 7.39D-05  0.00D+00 EMaxC= 1.00D-01 BMatC= 3.96D-06 BMatP= 5.10D-05
 IDIUse=1 WtCom= 1.00D+00 WtEn= 0.00D+00
 Coeff-Com: -0.497D-02 0.535D-02 0.177D-02 0.459D-01 0.148D+00 0.293D+00
 Coeff-Com:  0.511D+00
 Coeff:     -0.497D-02 0.535D-02 0.177D-02 0.459D-01 0.148D+00 0.293D+00
 Coeff:      0.511D+00
 Gap=     0.144 Goal=   None    Shift=    0.000
 RMSDP=7.39D-06 MaxDP=4.10D-04 DE=-3.68D-05 OVMax= 3.23D-04

 Cycle   8  Pass 1  IDiag  1:
 RMSU=  5.06D-06    CP:  9.89D-01  1.82D+00  6.90D-01  7.39D-01  7.50D-01
                    CP:  7.62D-01  7.71D-01
 E= -768.331496351896     Delta-E=       -0.000003190584 Rises=F Damp=F
 DIIS: error= 1.72D-05 at cycle   8 NSaved=   8.
 NSaved= 8 IEnMin= 8 EnMin= -768.331496351896     IErMin= 8 ErrMin= 1.72D-05
 ErrMax= 1.72D-05  0.00D+00 EMaxC= 1.00D-01 BMatC= 2.56D-07 BMatP= 3.96D-06
 IDIUse=1 WtCom= 1.00D+00 WtEn= 0.00D+00
 Coeff-Com: -0.625D-04-0.322D-03-0.333D-02-0.721D-03 0.743D-02 0.355D-01
 Coeff-Com:  0.192D+00 0.769D+00
 Coeff:     -0.625D-04-0.322D-03-0.333D-02-0.721D-03 0.743D-02 0.355D-01
 Coeff:      0.192D+00 0.769D+00
 Gap=     0.144 Goal=   None    Shift=    0.000
 RMSDP=2.78D-06 MaxDP=9.42D-05 DE=-3.19D-06 OVMax= 3.15D-04

 Cycle   9  Pass 1  IDiag  1:
 RMSU=  1.75D-06    CP:  9.89D-01  1.82D+00  6.90D-01  7.41D-01  7.57D-01
                    CP:  7.85D-01  8.40D-01  9.55D-01
 E= -768.331496563978     Delta-E=       -0.000000212082 Rises=F Damp=F
 DIIS: error= 7.96D-06 at cycle   9 NSaved=   9.
 NSaved= 9 IEnMin= 9 EnMin= -768.331496563978     IErMin= 9 ErrMin= 7.96D-06
 ErrMax= 7.96D-06  0.00D+00 EMaxC= 1.00D-01 BMatC= 6.78D-08 BMatP= 2.56D-07
 IDIUse=1 WtCom= 1.00D+00 WtEn= 0.00D+00
 Coeff-Com:  0.183D-03-0.299D-03-0.196D-02-0.443D-02-0.105D-01-0.103D-01
 Coeff-Com:  0.513D-01 0.447D+00 0.529D+00
 Coeff:      0.183D-03-0.299D-03-0.196D-02-0.443D-02-0.105D-01-0.103D-01
 Coeff:      0.513D-01 0.447D+00 0.529D+00
 Gap=     0.144 Goal=   None    Shift=    0.000
 RMSDP=1.04D-06 MaxDP=4.11D-05 DE=-2.12D-07 OVMax= 1.09D-04

 Cycle  10  Pass 1  IDiag  1:
 RMSU=  5.44D-07    CP:  9.89D-01  1.82D+00  6.90D-01  7.41D-01  7.59D-01
                    CP:  7.92D-01  8.69D-01  1.02D+00  6.80D-01
 E= -768.331496619433     Delta-E=       -0.000000055455 Rises=F Damp=F
 DIIS: error= 1.81D-06 at cycle  10 NSaved=  10.
 NSaved=10 IEnMin=10 EnMin= -768.331496619433     IErMin=10 ErrMin= 1.81D-06
 ErrMax= 1.81D-06  0.00D+00 EMaxC= 1.00D-01 BMatC= 2.75D-09 BMatP= 6.78D-08
 IDIUse=1 WtCom= 1.00D+00 WtEn= 0.00D+00
 Coeff-Com:  0.771D-04-0.893D-04-0.528D-03-0.174D-02-0.527D-02-0.776D-02
 Coeff-Com: -0.268D-02 0.826D-01 0.184D+00 0.751D+00
 Coeff:      0.771D-04-0.893D-04-0.528D-03-0.174D-02-0.527D-02-0.776D-02
 Coeff:     -0.268D-02 0.826D-01 0.184D+00 0.751D+00
 Gap=     0.144 Goal=   None    Shift=    0.000
 RMSDP=3.05D-07 MaxDP=9.06D-06 DE=-5.55D-08 OVMax= 3.27D-05

 Cycle  11  Pass 1  IDiag  1:
 RMSU=  1.39D-07    CP:  9.89D-01  1.82D+00  6.90D-01  7.42D-01  7.59D-01
                    CP:  7.94D-01  8.76D-01  1.04D+00  7.37D-01  9.15D-01
 E= -768.331496622299     Delta-E=       -0.000000002866 Rises=F Damp=F
 DIIS: error= 4.21D-07 at cycle  11 NSaved=  11.
 NSaved=11 IEnMin=11 EnMin= -768.331496622299     IErMin=11 ErrMin= 4.21D-07
 ErrMax= 4.21D-07  0.00D+00 EMaxC= 1.00D-01 BMatC= 2.48D-10 BMatP= 2.75D-09
 IDIUse=1 WtCom= 1.00D+00 WtEn= 0.00D+00
 Coeff-Com:  0.156D-04-0.116D-04-0.109D-03-0.447D-03-0.164D-02-0.258D-02
 Coeff-Com: -0.539D-02 0.424D-02 0.442D-01 0.325D+00 0.637D+00
 Coeff:      0.156D-04-0.116D-04-0.109D-03-0.447D-03-0.164D-02-0.258D-02
 Coeff:     -0.539D-02 0.424D-02 0.442D-01 0.325D+00 0.637D+00
 Gap=     0.144 Goal=   None    Shift=    0.000
 RMSDP=8.09D-08 MaxDP=2.26D-06 DE=-2.87D-09 OVMax= 6.81D-06

 Cycle  12  Pass 1  IDiag  1:
 RMSU=  5.06D-08    CP:  9.89D-01  1.82D+00  6.90D-01  7.42D-01  7.60D-01
                    CP:  7.95D-01  8.77D-01  1.04D+00  7.44D-01  9.55D-01
                    CP:  8.18D-01
 E= -768.331496622581     Delta-E=       -0.000000000282 Rises=F Damp=F
 DIIS: error= 1.64D-07 at cycle  12 NSaved=  12.
 NSaved=12 IEnMin=12 EnMin= -768.331496622581     IErMin=12 ErrMin= 1.64D-07
 ErrMax= 1.64D-07  0.00D+00 EMaxC= 1.00D-01 BMatC= 2.80D-11 BMatP= 2.48D-10
 IDIUse=1 WtCom= 1.00D+00 WtEn= 0.00D+00
 Coeff-Com: -0.433D-05 0.861D-05 0.120D-04 0.116D-04-0.116D-03-0.163D-03
 Coeff-Com: -0.225D-02-0.770D-02-0.169D-02 0.522D-01 0.294D+00 0.666D+00
 Coeff:     -0.433D-05 0.861D-05 0.120D-04 0.116D-04-0.116D-03-0.163D-03
 Coeff:     -0.225D-02-0.770D-02-0.169D-02 0.522D-01 0.294D+00 0.666D+00
 Gap=     0.144 Goal=   None    Shift=    0.000
 RMSDP=2.83D-08 MaxDP=7.61D-07 DE=-2.82D-10 OVMax= 2.28D-06

 Cycle  13  Pass 1  IDiag  1:
 RMSU=  1.61D-08    CP:  9.89D-01  1.82D+00  6.90D-01  7.42D-01  7.60D-01
                    CP:  7.95D-01  8.77D-01  1.04D+00  7.50D-01  9.72D-01
                    CP:  8.93D-01  8.06D-01
 E= -768.331496622625     Delta-E=       -0.000000000043 Rises=F Damp=F
 DIIS: error= 6.93D-08 at cycle  13 NSaved=  13.
 NSaved=13 IEnMin=13 EnMin= -768.331496622625     IErMin=13 ErrMin= 6.93D-08
 ErrMax= 6.93D-08  0.00D+00 EMaxC= 1.00D-01 BMatC= 2.83D-12 BMatP= 2.80D-11
 IDIUse=1 WtCom= 1.00D+00 WtEn= 0.00D+00
 Coeff-Com: -0.295D-05 0.473D-05 0.140D-04 0.380D-04 0.544D-04 0.114D-03
 Coeff-Com: -0.828D-03-0.434D-02-0.412D-02 0.321D-02 0.103D+00 0.335D+00
 Coeff-Com:  0.568D+00
 Coeff:     -0.295D-05 0.473D-05 0.140D-04 0.380D-04 0.544D-04 0.114D-03
 Coeff:     -0.828D-03-0.434D-02-0.412D-02 0.321D-02 0.103D+00 0.335D+00
 Coeff:      0.568D+00
 Gap=     0.144 Goal=   None    Shift=    0.000
 RMSDP=8.13D-09 MaxDP=2.63D-07 DE=-4.34D-11 OVMax= 3.70D-07

 Error on total polarization charges =  0.01289
 SCF Done:  E(RB3LYP) =  -768.331496623     A.U. after   13 cycles
            NFock= 13  Conv=0.81D-08     -V/T= 2.0091
 KE= 7.614055286000D+02 PE=-4.105411416574D+03 EE= 1.410566136609D+03
 Leave Link  502 at Fri May 24 08:34:32 2019, MaxMem=   402653184 cpu:             596.1 elap:             155.9
 (Enter /n/sw/g16_nehalem/g16/l601.exe)
 Copying SCF densities to generalized density rwf, IOpCl= 0 IROHF=0.

 **********************************************************************

            Population analysis using the SCF density.

 **********************************************************************

 Orbital symmetries:
       Occupied  (A) (A) (A) (A) (A) (A) (A) (A) (A) (A) (A) (A)
                 (A) (A) (A) (A) (A) (A) (A) (A) (A) (A) (A) (A)
                 (A) (A) (A) (A) (A) (A) (A) (A) (A) (A) (A) (A)
                 (A) (A) (A) (A) (A) (A) (A) (A) (A) (A) (A) (A)
                 (A) (A) (A) (A) (A) (A) (A) (A) (A) (A) (A)
       Virtual   (A) (A) (A) (A) (A) (A) (A) (A) (A) (A) (A) (A)
                 (A) (A) (A) (A) (A) (A) (A) (A) (A) (A) (A) (A)
                 (A) (A) (A) (A) (A) (A) (A) (A) (A) (A) (A) (A)
                 (A) (A) (A) (A) (A) (A) (A) (A) (A) (A) (A) (A)
                 (A) (A) (A) (A) (A) (A) (A) (A) (A) (A) (A) (A)
                 (A) (A) (A) (A) (A) (A) (A) (A) (A) (A) (A) (A)
                 (A) (A) (A) (A) (A) (A) (A) (A) (A) (A) (A) (A)
                 (A) (A) (A) (A) (A) (A) (A) (A) (A) (A) (A) (A)
                 (A) (A) (A) (A) (A) (A) (A) (A) (A) (A) (A) (A)
                 (A) (A) (A) (A) (A) (A) (A) (A) (A) (A) (A) (A)
                 (A) (A) (A) (A) (A) (A) (A) (A) (A) (A) (A) (A)
                 (A) (A) (A) (A) (A) (A) (A) (A) (A) (A) (A) (A)
                 (A) (A) (A) (A) (A) (A) (A) (A) (A) (A) (A) (A)
                 (A) (A) (A) (A) (A) (A) (A) (A) (A) (A) (A) (A)
                 (A) (A) (A) (A) (A) (A) (A) (A) (A) (A) (A) (A)
                 (A) (A) (A) (A) (A) (A) (A) (A) (A) (A) (A) (A)
                 (A) (A) (A) (A) (A) (A) (A) (A) (A) (A) (A) (A)
 The electronic state is 1-A.
 Alpha  occ. eigenvalues --  -19.32131 -19.21406 -19.19943 -19.19473 -19.18106
 Alpha  occ. eigenvalues --  -10.39012 -10.31480 -10.31381 -10.29576 -10.29364
 Alpha  occ. eigenvalues --  -10.27524 -10.26193 -10.25719 -10.25229 -10.24637
 Alpha  occ. eigenvalues --   -1.20834  -1.09681  -1.08277  -1.07341  -1.06342
 Alpha  occ. eigenvalues --   -0.86701  -0.85113  -0.77179  -0.74626  -0.74222
 Alpha  occ. eigenvalues --   -0.70833  -0.69709  -0.68717  -0.65554  -0.61401
 Alpha  occ. eigenvalues --   -0.58929  -0.58425  -0.56620  -0.53970  -0.53680
 Alpha  occ. eigenvalues --   -0.52905  -0.51257  -0.50821  -0.49700  -0.49547
 Alpha  occ. eigenvalues --   -0.48280  -0.47550  -0.47112  -0.46189  -0.45748
 Alpha  occ. eigenvalues --   -0.44299  -0.43353  -0.42283  -0.40979  -0.40441
 Alpha  occ. eigenvalues --   -0.39693  -0.37344  -0.36757  -0.35258  -0.34670
 Alpha  occ. eigenvalues --   -0.32610  -0.30480  -0.29546  -0.28861
 Alpha virt. eigenvalues --   -0.14417   0.01240   0.03622   0.04517   0.06599
 Alpha virt. eigenvalues --    0.07134   0.07699   0.08958   0.09345   0.10317
 Alpha virt. eigenvalues --    0.10761   0.11886   0.12225   0.12905   0.13253
 Alpha virt. eigenvalues --    0.13719   0.13815   0.14220   0.14477   0.14711
 Alpha virt. eigenvalues --    0.15715   0.16737   0.17208   0.17242   0.18242
 Alpha virt. eigenvalues --    0.19037   0.19162   0.20622   0.22148   0.22633
 Alpha virt. eigenvalues --    0.23565   0.24900   0.27836   0.28442   0.29803
 Alpha virt. eigenvalues --    0.44341   0.44797   0.47360   0.48058   0.48621
 Alpha virt. eigenvalues --    0.49054   0.50051   0.50837   0.51246   0.51998
 Alpha virt. eigenvalues --    0.52471   0.53487   0.53775   0.54539   0.54973
 Alpha virt. eigenvalues --    0.55672   0.56620   0.58765   0.59622   0.60586
 Alpha virt. eigenvalues --    0.62786   0.64987   0.66074   0.67695   0.69000
 Alpha virt. eigenvalues --    0.69677   0.72940   0.75436   0.77322   0.78812
 Alpha virt. eigenvalues --    0.79772   0.80350   0.80379   0.81820   0.82401
 Alpha virt. eigenvalues --    0.82766   0.83341   0.84246   0.84948   0.85061
 Alpha virt. eigenvalues --    0.86365   0.86928   0.88173   0.89695   0.90586
 Alpha virt. eigenvalues --    0.90947   0.91906   0.92303   0.93446   0.95628
 Alpha virt. eigenvalues --    0.95811   0.97744   0.97968   0.99059   1.00651
 Alpha virt. eigenvalues --    1.02482   1.05258   1.05432   1.08383   1.09507
 Alpha virt. eigenvalues --    1.13092   1.16344   1.19083   1.19702   1.22531
 Alpha virt. eigenvalues --    1.23504   1.25939   1.27744   1.31640   1.33021
 Alpha virt. eigenvalues --    1.33214   1.35647   1.38391   1.39595   1.43054
 Alpha virt. eigenvalues --    1.45464   1.46010   1.46524   1.48249   1.49561
 Alpha virt. eigenvalues --    1.50892   1.52682   1.55352   1.58459   1.59961
 Alpha virt. eigenvalues --    1.63931   1.64779   1.67534   1.69790   1.71490
 Alpha virt. eigenvalues --    1.72134   1.74912   1.77753   1.80562   1.81897
 Alpha virt. eigenvalues --    1.83079   1.84963   1.85649   1.88370   1.90113
 Alpha virt. eigenvalues --    1.91253   1.95082   1.97335   1.98074   2.00072
 Alpha virt. eigenvalues --    2.00938   2.01432   2.02055   2.03947   2.05154
 Alpha virt. eigenvalues --    2.06833   2.07046   2.08433   2.09866   2.10944
 Alpha virt. eigenvalues --    2.11123   2.12141   2.14226   2.14564   2.16835
 Alpha virt. eigenvalues --    2.18951   2.21226   2.22064   2.23856   2.25300
 Alpha virt. eigenvalues --    2.25493   2.30140   2.31197   2.34510   2.35890
 Alpha virt. eigenvalues --    2.36494   2.37898   2.41315   2.46001   2.48824
 Alpha virt. eigenvalues --    2.50332   2.52098   2.56562   2.57881   2.62096
 Alpha virt. eigenvalues --    2.62687   2.64839   2.72096   2.72553   2.74102
 Alpha virt. eigenvalues --    2.77034   2.80790   2.84168   2.89794   2.93584
 Alpha virt. eigenvalues --    2.95613   2.98501   3.01759   3.08355   3.80548
 Alpha virt. eigenvalues --    3.89733   3.94393   3.96111   4.05552   4.14438
 Alpha virt. eigenvalues --    4.22655   4.23230   4.24819   4.26543   4.29505
 Alpha virt. eigenvalues --    4.33986   4.53650   4.63325   4.65482
          Condensed to atoms (all electrons):
               1          2          3          4          5          6
     1  C    5.055174   0.259171  -0.042373  -0.019348   0.295769   0.002866
     2  C    0.259171   5.142843   0.305734  -0.030418  -0.020159  -0.043968
     3  C   -0.042373   0.305734   4.743965  -0.036833  -0.009343   0.364339
     4  C   -0.019348  -0.030418  -0.036833   5.140051   0.293843   0.002874
     5  C    0.295769  -0.020159  -0.009343   0.293843   5.008182  -0.000065
     6  H    0.002866  -0.043968   0.364339   0.002874  -0.000065   0.438064
     7  H   -0.039747   0.348655  -0.033496   0.000866   0.002779  -0.001022
     8  H    0.378379  -0.061487   0.004177   0.004603  -0.037835  -0.000118
     9  H    0.005307   0.000008   0.001465   0.371794  -0.038083  -0.000118
    10  H   -0.050258   0.005845   0.000682  -0.040805   0.366485   0.000017
    11  O   -0.006908  -0.024460   0.402068   0.132759  -0.022423  -0.036683
    12  O   -0.027356   0.150923  -0.027038   0.000503  -0.001088   0.002149
    13  O    0.175307  -0.040902   0.005713   0.000397  -0.036457  -0.000076
    14  O   -0.053343   0.004692   0.008985  -0.045144   0.196510  -0.000025
    15  C   -0.004023   0.001317   0.000684   0.295547  -0.022986  -0.000156
    16  H   -0.000291  -0.000737   0.003018  -0.034540  -0.003514  -0.000048
    17  H   -0.000458  -0.000025  -0.000004  -0.053356   0.003782   0.000007
    18  O   -0.000093  -0.000013   0.000332  -0.041546   0.002981   0.000011
    19  C    0.001459  -0.023907   0.001435  -0.000029  -0.000024   0.000840
    20  H    0.000742  -0.005153   0.000109   0.000000  -0.000030   0.000039
    21  H   -0.000143   0.004994  -0.000234   0.000000   0.000011  -0.000033
    22  H   -0.000192  -0.007013   0.000611   0.000003  -0.000014  -0.000077
    23  C   -0.032211  -0.004083   0.000151  -0.000032   0.003955  -0.000004
    24  H   -0.004852   0.004977  -0.000138  -0.000075  -0.000052   0.000009
    25  H    0.004749  -0.000109   0.000001   0.000018  -0.000156   0.000000
    26  H   -0.008955  -0.001136   0.000018   0.000031  -0.000056   0.000000
    27  C   -0.002684  -0.000898  -0.000180   0.004613  -0.035760   0.000001
    28  H    0.003567  -0.001304  -0.000038   0.000040  -0.005273  -0.000001
    29  H   -0.001898   0.000147   0.000029   0.000089  -0.008232   0.000000
    30  H   -0.000033  -0.000010   0.000009  -0.000221   0.004794  -0.000001
    31  C    0.000000   0.000000  -0.000003  -0.004325   0.000022   0.000000
    32  H   -0.000002   0.000000  -0.000006   0.003776  -0.000494   0.000000
    33  H    0.000000   0.000000   0.000002  -0.001113   0.000063   0.000000
    34  H    0.000000   0.000000   0.000000  -0.000044   0.000003   0.000000
               7          8          9         10         11         12
     1  C   -0.039747   0.378379   0.005307  -0.050258  -0.006908  -0.027356
     2  C    0.348655  -0.061487   0.000008   0.005845  -0.024460   0.150923
     3  C   -0.033496   0.004177   0.001465   0.000682   0.402068  -0.027038
     4  C    0.000866   0.004603   0.371794  -0.040805   0.132759   0.000503
     5  C    0.002779  -0.037835  -0.038083   0.366485  -0.022423  -0.001088
     6  H   -0.001022  -0.000118  -0.000118   0.000017  -0.036683   0.002149
     7  H    0.501946   0.000053   0.000006  -0.000100   0.000945  -0.020136
     8  H    0.000053   0.540025  -0.000101  -0.005773  -0.000028   0.004459
     9  H    0.000006  -0.000101   0.479395  -0.001650  -0.031499   0.000011
    10  H   -0.000100  -0.005773  -0.001650   0.544972   0.002358  -0.000131
    11  O    0.000945  -0.000028  -0.031499   0.002358   7.925728   0.000740
    12  O   -0.020136   0.004459   0.000011  -0.000131   0.000740   8.253245
    13  O   -0.000563  -0.027213  -0.000102   0.004704  -0.000547   0.001452
    14  O    0.000205  -0.001837   0.005192  -0.029637  -0.002904   0.000988
    15  C    0.000012   0.000032  -0.030308  -0.000057  -0.035475  -0.000007
    16  H    0.000106   0.000171   0.003661  -0.000149  -0.004172   0.000009
    17  H   -0.000007  -0.000026  -0.001781   0.003436   0.002719   0.000000
    18  O   -0.000001   0.000001  -0.004819   0.000018   0.001717   0.000000
    19  C   -0.007182   0.000618   0.000000   0.000007  -0.000025   0.217641
    20  H    0.003597   0.000195   0.000000   0.000001   0.000002  -0.034276
    21  H    0.000041  -0.000084   0.000000   0.000000   0.000002  -0.029612
    22  H    0.003591   0.000061   0.000000   0.000000  -0.000015  -0.031870
    23  C    0.002948  -0.004736   0.000006  -0.000060  -0.000016   0.000035
    24  H    0.003284  -0.001588   0.000000   0.000036   0.000005  -0.000469
    25  H   -0.000193  -0.000034   0.000000  -0.000007   0.000000   0.000001
    26  H    0.000075   0.010911   0.000000  -0.000097   0.000000   0.000039
    27  C   -0.000024   0.002797  -0.000089  -0.004916   0.000037  -0.000225
    28  H    0.000015   0.003762   0.000050  -0.001527   0.000005   0.003670
    29  H    0.000003  -0.000042  -0.000040   0.010802  -0.000005   0.000041
    30  H    0.000000  -0.000068  -0.000065  -0.000004   0.000005  -0.000030
    31  C    0.000000   0.000000   0.003766   0.000008   0.000017   0.000000
    32  H    0.000000   0.000000   0.004085   0.000004   0.000126   0.000000
    33  H    0.000000   0.000000  -0.000074   0.000005   0.000006   0.000000
    34  H    0.000000   0.000000  -0.000198   0.000000  -0.000006   0.000000
              13         14         15         16         17         18
     1  C    0.175307  -0.053343  -0.004023  -0.000291  -0.000458  -0.000093
     2  C   -0.040902   0.004692   0.001317  -0.000737  -0.000025  -0.000013
     3  C    0.005713   0.008985   0.000684   0.003018  -0.000004   0.000332
     4  C    0.000397  -0.045144   0.295547  -0.034540  -0.053356  -0.041546
     5  C   -0.036457   0.196510  -0.022986  -0.003514   0.003782   0.002981
     6  H   -0.000076  -0.000025  -0.000156  -0.000048   0.000007   0.000011
     7  H   -0.000563   0.000205   0.000012   0.000106  -0.000007  -0.000001
     8  H   -0.027213  -0.001837   0.000032   0.000171  -0.000026   0.000001
     9  H   -0.000102   0.005192  -0.030308   0.003661  -0.001781  -0.004819
    10  H    0.004704  -0.029637  -0.000057  -0.000149   0.003436   0.000018
    11  O   -0.000547  -0.002904  -0.035475  -0.004172   0.002719   0.001717
    12  O    0.001452   0.000988  -0.000007   0.000009   0.000000   0.000000
    13  O    8.259319   0.001443  -0.004789   0.015545   0.000336   0.000106
    14  O    0.001443   8.267604   0.002415  -0.000057  -0.000030  -0.000014
    15  C   -0.004789   0.002415   4.924214   0.367649   0.361197   0.239869
    16  H    0.015545  -0.000057   0.367649   0.513362  -0.026128  -0.033543
    17  H    0.000336  -0.000030   0.361197  -0.026128   0.559084  -0.029696
    18  O    0.000106  -0.000014   0.239869  -0.033543  -0.029696   8.192875
    19  C   -0.000057   0.000132   0.000000   0.000000   0.000000   0.000000
    20  H   -0.000126  -0.000002   0.000000   0.000000   0.000000   0.000000
    21  H    0.000000  -0.000002   0.000000   0.000000   0.000000   0.000000
    22  H    0.000012  -0.000001   0.000000   0.000000   0.000000   0.000000
    23  C    0.232747  -0.000066   0.000103  -0.000111  -0.000033  -0.000002
    24  H   -0.037061   0.000003   0.000061  -0.000114   0.000002   0.000000
    25  H   -0.030220   0.000001   0.000006  -0.000056   0.000002   0.000000
    26  H   -0.033941  -0.000002  -0.000020   0.000083  -0.000001   0.000000
    27  C    0.000008   0.234099  -0.000095   0.000003   0.000005   0.000000
    28  H   -0.000081  -0.036014   0.000008   0.000000   0.000000   0.000000
    29  H    0.000011  -0.033487   0.000006   0.000000   0.000000   0.000000
    30  H    0.000000  -0.031511   0.000001   0.000000   0.000000   0.000000
    31  C   -0.000001  -0.000003  -0.044544   0.005186  -0.007904   0.244242
    32  H    0.000000   0.000007  -0.003709  -0.000321  -0.001047  -0.038274
    33  H    0.000000   0.000000  -0.009531   0.000188   0.012071  -0.035674
    34  H    0.000000   0.000000   0.005089  -0.000176  -0.000086  -0.031491
              19         20         21         22         23         24
     1  C    0.001459   0.000742  -0.000143  -0.000192  -0.032211  -0.004852
     2  C   -0.023907  -0.005153   0.004994  -0.007013  -0.004083   0.004977
     3  C    0.001435   0.000109  -0.000234   0.000611   0.000151  -0.000138
     4  C   -0.000029   0.000000   0.000000   0.000003  -0.000032  -0.000075
     5  C   -0.000024  -0.000030   0.000011  -0.000014   0.003955  -0.000052
     6  H    0.000840   0.000039  -0.000033  -0.000077  -0.000004   0.000009
     7  H   -0.007182   0.003597   0.000041   0.003591   0.002948   0.003284
     8  H    0.000618   0.000195  -0.000084   0.000061  -0.004736  -0.001588
     9  H    0.000000   0.000000   0.000000   0.000000   0.000006   0.000000
    10  H    0.000007   0.000001   0.000000   0.000000  -0.000060   0.000036
    11  O   -0.000025   0.000002   0.000002  -0.000015  -0.000016   0.000005
    12  O    0.217641  -0.034276  -0.029612  -0.031870   0.000035  -0.000469
    13  O   -0.000057  -0.000126   0.000000   0.000012   0.232747  -0.037061
    14  O    0.000132  -0.000002  -0.000002  -0.000001  -0.000066   0.000003
    15  C    0.000000   0.000000   0.000000   0.000000   0.000103   0.000061
    16  H    0.000000   0.000000   0.000000   0.000000  -0.000111  -0.000114
    17  H    0.000000   0.000000   0.000000   0.000000  -0.000033   0.000002
    18  O    0.000000   0.000000   0.000000   0.000000  -0.000002   0.000000
    19  C    4.916826   0.370121   0.385399   0.370255  -0.000108   0.000048
    20  H    0.370121   0.554275  -0.027346  -0.040498   0.000041   0.000959
    21  H    0.385399  -0.027346   0.498887  -0.028762   0.000001  -0.000004
    22  H    0.370255  -0.040498  -0.028762   0.556724   0.000003  -0.000040
    23  C   -0.000108   0.000041   0.000001   0.000003   4.908288   0.362593
    24  H    0.000048   0.000959  -0.000004  -0.000040   0.362593   0.585014
    25  H    0.000002  -0.000002   0.000000   0.000000   0.386201  -0.030036
    26  H   -0.000008   0.000010   0.000000   0.000001   0.371820  -0.043659
    27  C    0.000020   0.000005   0.000000   0.000000   0.000001   0.000001
    28  H   -0.000140  -0.000015  -0.000007   0.000010   0.000018  -0.000002
    29  H    0.000000   0.000000   0.000000   0.000000  -0.000002   0.000000
    30  H    0.000001   0.000000   0.000000   0.000000   0.000000   0.000000
    31  C    0.000000   0.000000   0.000000   0.000000   0.000000   0.000000
    32  H    0.000000   0.000000   0.000000   0.000000   0.000000   0.000000
    33  H    0.000000   0.000000   0.000000   0.000000   0.000000   0.000000
    34  H    0.000000   0.000000   0.000000   0.000000   0.000000   0.000000
              25         26         27         28         29         30
     1  C    0.004749  -0.008955  -0.002684   0.003567  -0.001898  -0.000033
     2  C   -0.000109  -0.001136  -0.000898  -0.001304   0.000147  -0.000010
     3  C    0.000001   0.000018  -0.000180  -0.000038   0.000029   0.000009
     4  C    0.000018   0.000031   0.004613   0.000040   0.000089  -0.000221
     5  C   -0.000156  -0.000056  -0.035760  -0.005273  -0.008232   0.004794
     6  H    0.000000   0.000000   0.000001  -0.000001   0.000000  -0.000001
     7  H   -0.000193   0.000075  -0.000024   0.000015   0.000003   0.000000
     8  H   -0.000034   0.010911   0.002797   0.003762  -0.000042  -0.000068
     9  H    0.000000   0.000000  -0.000089   0.000050  -0.000040  -0.000065
    10  H   -0.000007  -0.000097  -0.004916  -0.001527   0.010802  -0.000004
    11  O    0.000000   0.000000   0.000037   0.000005  -0.000005   0.000005
    12  O    0.000001   0.000039  -0.000225   0.003670   0.000041  -0.000030
    13  O   -0.030220  -0.033941   0.000008  -0.000081   0.000011   0.000000
    14  O    0.000001  -0.000002   0.234099  -0.036014  -0.033487  -0.031511
    15  C    0.000006  -0.000020  -0.000095   0.000008   0.000006   0.000001
    16  H   -0.000056   0.000083   0.000003   0.000000   0.000000   0.000000
    17  H    0.000002  -0.000001   0.000005   0.000000   0.000000   0.000000
    18  O    0.000000   0.000000   0.000000   0.000000   0.000000   0.000000
    19  C    0.000002  -0.000008   0.000020  -0.000140   0.000000   0.000001
    20  H   -0.000002   0.000010   0.000005  -0.000015   0.000000   0.000000
    21  H    0.000000   0.000000   0.000000  -0.000007   0.000000   0.000000
    22  H    0.000000   0.000001   0.000000   0.000010   0.000000   0.000000
    23  C    0.386201   0.371820   0.000001   0.000018  -0.000002   0.000000
    24  H   -0.030036  -0.043659   0.000001  -0.000002   0.000000   0.000000
    25  H    0.506933  -0.027752   0.000000   0.000000   0.000000   0.000000
    26  H   -0.027752   0.561810  -0.000008   0.000003   0.000002   0.000000
    27  C    0.000000  -0.000008   4.904238   0.365714   0.368196   0.386428
    28  H    0.000000   0.000003   0.365714   0.575264  -0.042018  -0.031603
    29  H    0.000000   0.000002   0.368196  -0.042018   0.569839  -0.027394
    30  H    0.000000   0.000000   0.386428  -0.031603  -0.027394   0.513104
    31  C    0.000000   0.000000   0.000000   0.000000   0.000000   0.000000
    32  H    0.000000   0.000000  -0.000001   0.000000   0.000000   0.000000
    33  H    0.000000   0.000000   0.000000   0.000000   0.000000   0.000000
    34  H    0.000000   0.000000   0.000000   0.000000   0.000000   0.000000
              31         32         33         34
     1  C    0.000000  -0.000002   0.000000   0.000000
     2  C    0.000000   0.000000   0.000000   0.000000
     3  C   -0.000003  -0.000006   0.000002   0.000000
     4  C   -0.004325   0.003776  -0.001113  -0.000044
     5  C    0.000022  -0.000494   0.000063   0.000003
     6  H    0.000000   0.000000   0.000000   0.000000
     7  H    0.000000   0.000000   0.000000   0.000000
     8  H    0.000000   0.000000   0.000000   0.000000
     9  H    0.003766   0.004085  -0.000074  -0.000198
    10  H    0.000008   0.000004   0.000005   0.000000
    11  O    0.000017   0.000126   0.000006  -0.000006
    12  O    0.000000   0.000000   0.000000   0.000000
    13  O   -0.000001   0.000000   0.000000   0.000000
    14  O   -0.000003   0.000007   0.000000   0.000000
    15  C   -0.044544  -0.003709  -0.009531   0.005089
    16  H    0.005186  -0.000321   0.000188  -0.000176
    17  H   -0.007904  -0.001047   0.012071  -0.000086
    18  O    0.244242  -0.038274  -0.035674  -0.031491
    19  C    0.000000   0.000000   0.000000   0.000000
    20  H    0.000000   0.000000   0.000000   0.000000
    21  H    0.000000   0.000000   0.000000   0.000000
    22  H    0.000000   0.000000   0.000000   0.000000
    23  C    0.000000   0.000000   0.000000   0.000000
    24  H    0.000000   0.000000   0.000000   0.000000
    25  H    0.000000   0.000000   0.000000   0.000000
    26  H    0.000000   0.000000   0.000000   0.000000
    27  C    0.000000  -0.000001   0.000000   0.000000
    28  H    0.000000   0.000000   0.000000   0.000000
    29  H    0.000000   0.000000   0.000000   0.000000
    30  H    0.000000   0.000000   0.000000   0.000000
    31  C    4.910789   0.361499   0.368422   0.387303
    32  H    0.361499   0.598892  -0.045873  -0.031969
    33  H    0.368422  -0.045873   0.581291  -0.028860
    34  H    0.387303  -0.031969  -0.028860   0.518716
 Mulliken charges:
               1
     1  C    0.112677
     2  C    0.036475
     3  C    0.306160
     4  C    0.056022
     5  C    0.062864
     6  H    0.271181
     7  H    0.233344
     8  H    0.190726
     9  H    0.234182
    10  H    0.195791
    11  O   -0.304072
    12  O   -0.463669
    13  O   -0.484964
    14  O   -0.488197
    15  C   -0.042511
    16  H    0.194977
    17  H    0.177941
    18  O   -0.466986
    19  C   -0.233322
    20  H    0.177353
    21  H    0.196890
    22  H    0.177213
    23  C   -0.227448
    24  H    0.161099
    25  H    0.190652
    26  H    0.170833
    27  C   -0.221288
    28  H    0.165898
    29  H    0.163951
    30  H    0.186596
    31  C   -0.224475
    32  H    0.153308
    33  H    0.159078
    34  H    0.181721
 Sum of Mulliken charges =   1.00000
 Mulliken charges with hydrogens summed into heavy atoms:
               1
     1  C    0.303404
     2  C    0.269818
     3  C    0.577341
     4  C    0.290204
     5  C    0.258655
    11  O   -0.304072
    12  O   -0.463669
    13  O   -0.484964
    14  O   -0.488197
    15  C    0.330408
    18  O   -0.466986
    19  C    0.318133
    23  C    0.295136
    27  C    0.295157
    31  C    0.269632
 Electronic spatial extent (au):  <R**2>=           3529.0015
 Charge=              1.0000 electrons
 Dipole moment (field-independent basis, Debye):
    X=              3.5849    Y=              1.2157    Z=             -0.3402  Tot=              3.8007
 Quadrupole moment (field-independent basis, Debye-Ang):
   XX=            -59.4122   YY=            -78.7886   ZZ=            -71.6977
   XY=              8.7973   XZ=             -7.6019   YZ=             -1.6390
 Traceless Quadrupole moment (field-independent basis, Debye-Ang):
   XX=             10.5540   YY=             -8.8224   ZZ=             -1.7315
   XY=              8.7973   XZ=             -7.6019   YZ=             -1.6390
 Octapole moment (field-independent basis, Debye-Ang**2):
[...]
 0000379,0.00000193,-0.00000416,0.00000072,-0.00000424,-0.00001554,-0.0
 0001201,0.00001012,0.00002386,-0.00004925,0.00000772,0.00000416,0.0000
 0915,-0.00000691,-0.00000758,-0.00000648,-0.00000478,-0.00000735,-0.00
 000271,-0.00000744,0.01080260,-0.05770911,-0.02669223,-0.00793236,0.00
 302964,0.01484411,-0.01487395,0.05270918,-0.00047673,-0.00002869,-0.00
 023061,-0.00014022,-0.00012557,0.00021599,-0.00001271,-0.00058849,0.00
 066662,-0.00006869,0.00007213,0.00026705,0.00232832,-0.00489389,0.0011
 1994,-0.00000296,-0.00000505,0.00000081,0.00005200,-0.00000430,0.00001
 870,0.00008196,0.00005900,-0.00007187,0.00012386,-0.00000218,0.0000336
 3,-0.00066958,0.00175864,0.00023887,-0.00019525,0.00028544,0.00006790,
 0.00024011,0.00006309,-0.00010650,0.00028560,0.00064061,0.00010416,-0.
 00466944,0.00663432,-0.03219774,0.00026137,-0.00016999,-0.00010991,-0.
 00001664,0.00002676,0.00000276,-0.00001421,0.00000605,0.00000443,-0.00
 028355,0.00002446,-0.00005593,-0.00020495,-0.00006599,0.00008750,0.000
 03487,0.00002978,-0.00001156,0.00002784,0.00000172,-0.00000766,0.00002
 444,0.00002898,-0.00002539,-0.00021909,-0.00010761,-0.00009330,0.00003
 739,0.00001615,0.00000681,0.00002714,0.00005634,0.00002347,0.00004205,
 0.00000902,0.00002705,0.10068211,-0.02352899,-0.25324525,0.00204581,-0
 .00098918,0.00092982,-0.10286756,0.02172865,0.28603677,-0.00106983,-0.
 00009741,-0.00016220,0.00003387,0.00009649,0.00000639,-0.00022736,-0.0
 0014437,0.00018843,-0.00023052,0.00128673,0.00031078,-0.00142852,0.000
 79929,-0.00374249,0.00003196,0.00001815,0.00000814,0.00002254,-0.00000
 904,-0.00000371,0.00033055,0.00029632,0.00018261,0.00003921,-0.0000301
 1,0.00000716,0.00005095,-0.00026134,-0.00007246,0.00008454,0.00003962,
 -0.00018837,0.00006160,-0.00003375,0.00013860,0.00049379,0.00019111,0.
 00016112,-0.00935598,0.02792761,0.00040328,0.00005886,-0.00029665,-0.0
 0021796,-0.00000617,0.00001567,-0.00000711,0.00000549,-0.00000929,0.00
 000678,-0.00031884,0.00007285,-0.00007566,0.00004001,-0.00001067,0.000
 00439,0.00000355,0.00000883,-0.00000505,0.00000063,0.00000041,-0.00000
 099,-0.00001185,-0.00000288,0.00000713,-0.00007492,0.00004377,-0.00006
 109,0.00001827,0.00001182,0.00000011,0.00002025,0.00002153,0.00001331,
 0.00000324,0.00001021,0.00001754,-0.05341948,0.02480576,0.00865046,0.0
 0619104,-0.02780369,-0.00674718,-0.00078026,0.01376843,0.00346606,0.05
 936887,0.00003951,0.00032739,-0.00015505,0.00017288,-0.00004522,-0.000
 17025,0.00002782,0.00010342,-0.00018428,0.00010259,-0.00065354,-0.0003
 7046,-0.00068774,0.00235895,0.00224038,-0.00000138,0.00002261,0.000011
 78,-0.00002736,0.00000041,0.00002336,0.00011860,0.00009113,0.00009904,
 -0.00004377,0.00001912,0.00000852,0.00000141,0.00000659,-0.00005973,0.
 00001759,-0.00006478,0.00018478,-0.00019249,-0.00000190,0.00019108,-0.
 00005206,-0.00058164,-0.00002840,0.00812048,-0.01232778,0.00268126,-0.
 00016108,0.00023939,0.00012003,-0.00000115,-0.00001465,-0.00000364,0.0
 0000250,-0.00000255,-0.00000178,0.00028787,-0.00004500,0.00007586,0.00
 016195,0.00005362,-0.00005989,-0.00001535,-0.00000741,0.00000569,-0.00
 003300,-0.00000617,0.00000602,-0.00002003,-0.00002048,0.00002137,0.000
 18218,0.00017322,0.00003310,-0.00003610,-0.00001558,0.00000878,-0.0000
 1342,-0.00004394,-0.00001243,-0.00003362,-0.00000606,-0.00000984,0.032
 18552,-0.30841392,-0.06112060,0.00142337,-0.01332021,-0.00469889,-0.00
 068521,0.00017944,-0.00098195,-0.04077289,0.33204415,-0.00076395,-0.00
 005145,-0.00002190,-0.00012723,0.00004367,0.00015090,-0.00003448,-0.00
 006590,0.00015909,-0.00042731,0.00111988,0.00046993,-0.00147356,0.0014
 3525,-0.00342905,0.00000392,0.00001091,-0.00001118,0.00002529,-0.00000
 512,-0.00001043,0.00017900,0.00000975,-0.00000870,0.00001597,-0.000051
 37,0.00000140,-0.00033627,0.00017408,0.00023842,0.00001902,-0.00000606
 ,0.00003547,0.00011222,-0.00005525,-0.00004697,0.00031242,0.00043022,0
 .00015453,-0.01059788,0.03076723,0.00196527,0.00003794,-0.00029382,-0.
 00023277,0.00000603,0.00001128,0.00000157,0.00000667,-0.00001144,0.000
 01135,-0.00027661,0.00008142,-0.00006569,-0.00003420,-0.00002311,0.000
 03120,0.00000752,0.00000127,-0.00000504,0.00001736,0.00000598,-0.00000
 385,0.00000047,0.00000483,-0.00000387,-0.00011675,-0.00002929,-0.00004
 273,0.00002436,0.00001049,-0.00000084,0.00001955,0.00003431,0.00001372
 ,0.00002491,0.00001236,0.00001677,0.01244171,-0.07067058,-0.06657081,0
 .00064723,0.00312249,0.00180125,0.00249701,-0.02817608,-0.00365988,-0.
 00226100,0.06212210,0.06908387,0.00000108,-0.00044023,0.00013527,-0.00
 022639,0.00019903,0.00000918,-0.00180702,-0.00029010,0.00010710,0.0002
 9452,-0.00049770,0.00237611,0.00006175,-0.00003361,-0.00179225,0.00010
 754,0.00017349,-0.00001750,0.00008483,-0.00006310,0.00003606,0.0001776
 6,0.00014591,0.00002574,-0.00082574,0.00060931,-0.00013936,-0.00006981
 ,-0.00004532,-0.00004881,0.00142766,-0.00013378,-0.00003432,0.00070266
 ,-0.00003103,-0.00004932,0.00048595,0.00052521,0.00029302,0.00116333,-
 0.00100934,0.00089126,-0.04576319,-0.02086276,0.00361709,-0.00016700,0
 .00142632,-0.00068107,0.00556799,0.00036324,0.00375139,-0.15094300,-0.
 05445101,0.01940674,-0.00036965,-0.00016790,0.00021198,0.00006360,0.00
 003836,-0.00002399,0.00006907,0.00001264,-0.00001302,0.00001287,0.0000
 4857,-0.00004506,-0.00027141,-0.00046190,-0.00018997,0.00008538,0.0000
 5600,0.00000115,-0.00000504,0.00005839,0.00000655,0.00009523,0.0000381
 5,0.00005766,-0.00028581,0.00015640,-0.00061363,0.00009141,-0.00000094
 ,0.00009232,0.00001186,0.00001828,0.00011392,0.00009613,-0.00009775,0.
 00008159,0.52760526,-0.00026643,-0.00006547,0.00006299,-0.00011527,0.0
 0017646,0.00005404,-0.00115678,-0.00026441,0.00033522,0.00451108,0.003
 85652,0.00308857,0.00020071,-0.00073553,-0.00116735,0.00002142,0.00014
 880,-0.00005288,0.00002395,-0.00002389,0.00001789,0.00009086,0.0000465
 5,0.00001074,0.00133460,-0.00011347,0.00024395,-0.00007809,0.00002317,
 -0.00004102,0.00081570,-0.00078750,-0.00033682,0.00027337,-0.00004345,
 -0.00008936,0.00045508,0.00033378,0.00018561,0.00080586,-0.00078262,0.
 00065774,-0.01262181,-0.00890491,-0.00662156,-0.00053028,0.00101995,-0
 .00103342,0.00085393,-0.00013805,0.00352145,-0.06502493,-0.10772784,0.
 03379460,-0.00015598,-0.00007097,0.00008019,0.00002077,0.00001440,-0.0
 0001122,0.00003336,0.00000434,-0.00000490,0.00000805,0.00002293,-0.000
 01740,-0.00014949,-0.00030540,-0.00009904,0.00006250,0.00004135,-0.000
 00695,-0.00000974,0.00002126,0.00000247,0.00006721,0.00003017,0.000039
 23,-0.00013812,0.00000950,-0.00035489,0.00003181,-0.00000819,0.0000519
 2,0.00001019,0.00002152,0.00006431,0.00008278,-0.00006709,0.00005987,-
 0.04905348,0.53822032,0.00018141,-0.00003406,-0.00012327,0.00018910,-0
 .00003175,-0.00002878,0.00071906,0.00005589,-0.00004962,-0.00141994,-0
 .00120459,-0.00094909,0.00012854,0.00009330,0.00105803,-0.00003352,-0.
 00009867,0.00002114,-0.00001895,0.00003080,-0.00001950,-0.00012266,-0.
 00003681,-0.00000409,-0.00007821,-0.00006431,0.00007047,0.00001148,0.0
 0000294,-0.00002408,-0.00049123,0.00010603,-0.00011099,-0.00037023,0.0
 0002181,0.00005614,-0.00083304,-0.00045476,-0.00042418,-0.00059288,0.0
 0056513,-0.00053860,-0.01946870,-0.01703037,0.00550091,-0.00526947,-0.
 00083448,-0.00277531,-0.00512919,-0.00147362,0.00154293,0.05510083,0.0
 5023693,-0.10892881,0.00018975,0.00009353,-0.00010339,-0.00002916,-0.0
 0002131,0.00001074,-0.00003666,-0.00000725,0.00000808,-0.00000866,-0.0
 0002448,0.00002226,0.00014334,0.00047479,0.00008963,-0.00007526,-0.000
 05623,0.00000017,0.00001159,-0.00004555,0.00000024,-0.00011059,-0.0000
 6890,-0.00005473,0.00014508,-0.00006738,0.00035820,-0.00004183,0.00000
 242,-0.00005162,-0.00000546,-0.00001052,-0.00006567,-0.00005764,0.0000
 5323,-0.00004826,0.06154552,0.02234679,0.59123764,0.00006907,-0.000075
 87,0.00009525,0.00001184,0.00001136,0.00003390,-0.00004449,-0.00006420
 ,0.00006251,-0.00060754,0.00050110,0.00060308,0.00039098,0.00018426,-0
 .00006016,0.00000383,0.00000800,-0.00001433,-0.00000569,0.00000684,-0.
 00000791,0.00001216,0.00003565,-0.00001281,-0.00158397,-0.00008030,0.0
 0033116,-0.00002228,0.00000896,-0.00000008,0.00013037,-0.00007794,-0.0
 0025697,-0.00004252,0.00000048,-0.00001654,-0.00005503,-0.00000798,-0.
 00003032,-0.00002770,0.00002473,-0.00002522,0.00417834,-0.00187925,0.0
 0138611,-0.00036280,0.00013553,-0.00046309,-0.00051574,-0.00008117,-0.
 00023825,0.00162059,-0.03477175,0.00888169,0.00001418,0.00000633,-0.00
 001289,-0.00000477,-0.00000177,0.00000180,-0.00000269,-0.00000101,0.00
 000043,0.00000055,-0.00000191,0.00000214,-0.00000104,0.00002752,0.0000
 0525,-0.00000255,-0.00000339,-0.00000019,0.00000097,-0.00000016,0.0000
 0037,-0.00000565,-0.00000353,-0.00000447,-0.00002175,0.00001161,-0.000
 01533,-0.00000136,-0.00000032,0.00000322,0.00000139,0.00000026,0.00000
 293,0.00000260,-0.00000253,0.00000036,-0.07864896,0.07585842,-0.013877
 14,0.08183965,0.00011356,-0.00009684,-0.00000560,0.00000516,-0.0000236
 8,0.00000145,0.00011305,-0.00004701,-0.00009722,-0.00056621,-0.0003931
 7,-0.00074720,-0.00019179,0.00027660,0.00018690,0.00001993,-0.00003137
 ,0.00001218,0.00000453,0.00000510,-0.00000586,-0.00000350,0.00002007,-
 0.00000393,-0.00067146,0.00024493,0.00043392,0.00001535,-0.00000653,0.
 00001285,0.00008777,0.00032169,-0.00005847,-0.00001572,0.00001750,0.00
 001615,-0.00015866,-0.00002478,-0.00006314,-0.00012389,0.00015141,-0.0
 0010653,0.00432140,0.00035934,0.00322637,-0.00060698,0.00006182,-0.000
 32872,-0.00019497,-0.00003489,-0.00072576,-0.01228659,-0.02028971,0.00
 821472,0.00000775,0.00000308,-0.00000166,0.00000033,-0.00000072,0.0000
 0141,-0.00000324,0.00000018,0.00000015,-0.00000092,-0.00000235,-0.0000
 0008,0.00001485,0.00006280,0.00001407,-0.00001032,-0.00000995,0.000001
 74,0.00000542,0.00000099,0.00000412,-0.00001688,-0.00000785,-0.0000107
 6,-0.00000929,0.00001222,0.00003722,0.00000297,0.00000294,-0.00000646,
 -0.00000117,-0.00000601,-0.00000919,-0.00001259,0.00000868,-0.00000788
 ,0.07371847,-0.27147390,0.03273193,-0.07147766,0.30154382,-0.00004745,
 -0.00000889,0.00000241,-0.00003761,0.00001826,0.00000382,-0.00012580,0
 .00000938,-0.00001423,0.00038072,0.00005268,0.00051164,-0.00008997,-0.
 00010137,-0.00016661,0.00000904,0.00002218,-0.00000145,0.00000609,-0.0
 0000558,0.00000359,0.00001684,0.00000408,0.00000285,0.00018346,0.00039
 700,-0.00034507,-0.00001663,-0.00001311,-0.00001009,0.00010258,-0.0001
 0602,0.00000979,0.00006405,-0.00000672,-0.00001604,0.00010155,0.000060
 96,0.00004816,0.00015427,-0.00013064,0.00009552,-0.00162011,-0.0007179
 4,-0.00113854,0.00027987,-0.00001083,0.00006508,0.00041905,-0.00026124
 ,0.00008053,0.00222380,0.01730949,-0.00148507,-0.00003341,-0.00001585,
 0.00001936,0.00000514,0.00000288,-0.00000281,0.00000724,0.00000142,-0.
 00000068,0.00000143,0.00000527,-0.00000436,-0.00003013,-0.00006931,-0.
 00001757,0.00001213,0.00000874,-0.00000164,-0.00000101,0.00000645,0.00
 000058,0.00001401,0.00000795,0.00000805,-0.00003045,0.00000948,-0.0000
 5752,0.00001101,-0.00000012,0.00000823,0.00000028,0.00000065,0.0000067
 7,0.00001245,-0.00001305,0.00001134,-0.01147946,0.03213448,-0.05964932
 ,0.00826719,-0.04398529,0.05812871,-0.00000034,0.00006801,0.00000531,0
 .00002049,-0.00005431,0.00000104,0.00025624,0.00004147,-0.00006456,-0.
 00047175,0.00007249,-0.00070126,0.00004870,0.00011530,0.00031099,-0.00
 001400,0.00000982,-0.00000609,-0.00001215,0.00000672,-0.00000444,-0.00
 002005,-0.00001790,-0.00000143,0.00014137,-0.00002174,0.00004612,-0.00
 000487,0.00000368,-0.00001692,-0.00008309,-0.00017659,-0.00013317,-0.0
 0006779,0.00000374,0.00000004,-0.00003472,-0.00007548,-0.00004506,-0.0
 0016938,0.00012838,-0.00015979,0.00425400,0.00169986,0.00679963,0.0001
 3798,-0.00001428,-0.00011958,0.00055881,-0.00002610,-0.00192277,-0.023
 20059,-0.00114188,0.02656669,0.00004050,0.00001732,-0.00002125,-0.0000
 0678,-0.00000413,0.00000245,-0.00000706,-0.00000106,0.00000143,-0.0000
 0144,-0.00000516,0.00000478,0.00002452,0.00004495,0.00001631,-0.000005
 40,-0.00000483,-0.00000292,-0.00000136,-0.00000888,-0.00000011,-0.0000
 1079,-0.00000439,-0.00000587,0.00002834,-0.00000645,0.00007993,-0.0000
 1202,0.00000112,-0.00001249,-0.00000171,-0.00000116,-0.00001633,-0.000
 01411,0.00001220,-0.00001306,-0.07703900,0.03571353,0.06250259,-0.0012
 7324,0.00635567,0.00844674,0.08637019,0.00003735,-0.00000981,0.0000171
 7,-0.00000142,-0.00004194,-0.00000667,0.00010334,0.00002932,-0.0000591
 3,-0.00005529,-0.00059755,-0.00045567,-0.00001239,0.00014392,0.0000403
 6,-0.00000383,0.00000115,0.00000082,-0.00000403,0.00000048,-0.00000116
 ,0.00000351,0.00000367,-0.00000240,-0.00015263,0.00006995,-0.00009058,
 0.00002093,0.00000489,0.00001211,-0.00008899,0.00004756,0.00006995,0.0
 0000083,0.00000527,0.00001118,-0.00003033,-0.00002033,-0.00000262,-0.0
 0007226,0.00005463,-0.00002434,0.00209412,0.00121127,0.00321035,0.0002
 0406,0.00000425,0.00024434,0.00083634,0.00035664,-0.00065760,-0.016023
 73,0.00773233,0.02172111,0.00000448,0.00000172,-0.00000180,0.00000012,
 0.00000054,0.00000064,-0.00000125,-0.00000011,-0.00000039,-0.00000028,
 -0.00000131,0.00000084,0.00000597,0.00001837,0.00000414,-0.00000381,-0
 .00000286,0.00000127,0.00000022,-0.00000082,-0.00000136,-0.00000143,-0
 .00000232,-0.00000128,0.00001050,0.00000490,0.00000557,-0.00000216,0.0
 0000009,-0.00000010,0.00000002,-0.00000005,0.00000234,-0.00000533,0.00
 000468,-0.00000444,0.03651398,-0.10105634,-0.09555512,0.00954854,-0.01
 158107,-0.02684026,-0.03256388,0.10225661,-0.00002004,-0.00007038,0.00
 000388,-0.00004453,0.00003416,0.00000135,-0.00035564,-0.00006682,0.000
 03590,0.00037393,-0.00000810,-0.00002053,-0.00009102,0.00000945,-0.000
 26497,0.00001100,0.00002763,-0.00000322,0.00001502,-0.00001178,0.00000
 638,0.00003265,0.00002077,0.00000555,0.00001241,0.00001663,-0.00000331
 ,-0.00000501,-0.00000488,0.00000025,0.00018969,0.00000057,0.00005262,0
 .00013408,-0.00000210,-0.00000664,0.00013417,0.00013516,0.00007676,0.0
 0018799,-0.00016452,0.00015711,-0.00439318,0.00037709,0.00093128,0.000
 11014,0.00007796,0.00044639,0.00160820,0.00022962,0.00080462,0.0148516
 3,0.00419907,-0.01133629,-0.00007078,-0.00003247,0.00003896,0.00001233
 ,0.00000791,-0.00000376,0.00001258,0.00000234,-0.00000279,0.00000252,0
 .00000856,-0.00000844,-0.00004663,-0.00011016,-0.00003495,0.00001786,0
 .00001298,0.00000145,-0.00000040,0.00001416,0.00000207,0.00002270,0.00
 001214,0.00001245,-0.00005751,0.00002836,-0.00010860,0.00001639,0.0000
 0068,0.00001491,0.00000155,0.00000224,0.00002016,0.00001576,-0.0000159
 9,0.00001350,0.06558675,-0.09208348,-0.23177467,-0.00285401,0.00171257
 ,0.00570312,-0.08261700,0.09607039,0.25185380,0.00006862,-0.00000149,-
 0.00003168,0.00006648,-0.00003005,-0.00001219,0.00029850,0.00004811,-0
 .00001747,-0.00000416,-0.00055884,-0.00060093,0.00014624,0.00005337,0.
 00031723,-0.00003089,-0.00002504,0.00000254,-0.00001157,0.00000906,-0.
 00000696,-0.00004174,-0.00001314,-0.00000138,0.00023426,0.00002342,0.0
 0002656,0.00000836,0.00000501,0.00000344,-0.00031044,-0.00004549,0.000
 09041,-0.00013273,0.00000735,0.00002808,-0.00026172,-0.00015603,-0.000
 12064,-0.00024298,0.00019966,-0.00018312,-0.00125289,-0.00260155,0.003
 70231,-0.00113746,0.00005250,-0.00069906,-0.00000948,0.00000425,-0.000
 16755,-0.02858381,-0.00590546,-0.01662358,0.00007044,0.00003509,-0.000
 04148,-0.00001063,-0.00000683,0.00000461,-0.00001366,-0.00000298,0.000
 00243,-0.00000307,-0.00000984,0.00000939,0.00005954,0.00016147,0.00002
 686,-0.00002828,-0.00001748,0.00000341,0.00000379,-0.00001359,-0.00000
 278,-0.00003476,-0.00002246,-0.00001680,0.00006151,-0.00002606,0.00012
 457,-0.00001944,0.00000014,-0.00001886,-0.00000218,-0.00000261,-0.0000
 1985,-0.00002009,0.00002048,-0.00001825,-0.18178375,0.00802526,-0.1327
 9787,-0.00504675,0.00156562,-0.00720690,0.01057050,-0.00036127,0.00720
 639,0.20739425,0.00008129,-0.00005828,0.00001408,0.00001718,-0.0000031
 8,-0.00000290,0.00007816,-0.00000767,-0.00004190,-0.00042490,-0.000422
 39,-0.00020283,0.00001142,0.00017065,0.00008536,0.00001060,-0.00002084
 ,0.00000818,0.00000045,0.00000334,-0.00000305,-0.00001026,0.00001420,-
 0.00000257,-0.00044664,0.00025264,0.00006901,0.00000247,-0.00000609,0.
 00000109,0.00000323,0.00017338,-0.00002978,-0.00002935,0.00000342,0.00
 001096,-0.00014340,-0.00006696,-0.00007104,-0.00008391,0.00007201,-0.0
 0008066,-0.00249364,-0.00177222,0.00186351,-0.00089647,0.00001415,-0.0
 0038908,0.00017190,-0.00002327,0.00008742,-0.02096771,-0.00199658,-0.0
 1429611,0.00001600,0.00000877,-0.00000791,-0.00000190,-0.00000203,0.00
 000034,-0.00000287,-0.00000065,0.00000092,-0.00000094,-0.00000189,0.00
 000171,0.00001522,0.00007432,0.00000934,-0.00001239,-0.00000879,0.0000
 0156,0.00000251,-0.00000400,-0.00000063,-0.00001703,-0.00001137,-0.000
 00854,0.00000788,0.00000577,0.00003684,-0.00000198,0.00000062,-0.00000
 458,-0.00000023,-0.00000257,-0.00000672,-0.00000740,0.00000514,-0.0000
 0561,0.01353817,-0.05142198,0.01030466,0.02216115,0.00093666,0.0222348
 9,-0.01016601,0.00136229,-0.01042979,-0.00041059,0.05273341,-0.0000310
 3,0.00003812,0.00000003,0.00000115,-0.00000493,0.00000014,0.00006002,0
 .00002487,0.00000919,0.00015882,0.00023256,0.00015681,-0.00001016,-0.0
 0010330,-0.00005899,-0.00000270,-0.00000958,0.00000113,-0.00000339,0.0
 0000154,-0.00000002,0.00000098,-0.00000848,-0.00000158,-0.00004614,-0.
 00010652,-0.00000612,0.00000467,0.00000235,0.00000325,-0.00011346,0.00
 004781,0.00006903,-0.00001650,-0.00000147,-0.00000121,0.00005495,0.000
 01982,0.00002481,0.00001974,-0.00001108,0.00003043,0.00291845,0.001352
 97,0.00022354,0.00034246,0.00009351,0.00051002,0.00016796,0.00017317,0
 .00044991,0.01334808,0.00040492,0.01193985,0.00000897,0.00000338,-0.00
 000589,-0.00000204,-0.00000065,0.00000064,-0.00000141,-0.00000033,0.00
 000016,-0.00000007,-0.00000100,0.00000133,0.00000884,-0.00001416,0.000
 00113,0.00000169,0.00000287,0.00000119,-0.00000073,0.00000067,-0.00000
 141,0.00000570,0.00000387,0.00000208,0.00001134,-0.00001060,-0.0000063
 8,-0.00000132,-0.00000134,0.00000142,-0.00000014,0.00000078,0.00000207
 ,0.00000243,-0.00000016,0.00000238,-0.14321865,0.00516821,-0.19425261,
 -0.00178768,-0.00044399,-0.00179853,-0.01891994,0.00229234,-0.01661435
 ,0.14703911,-0.00914614,0.19931656\\0.00001014,-0.00001103,-0.00000619
 ,-0.00001357,0.00002152,0.00000417,-0.00000589,0.00000304,-0.00000005,
 -0.00000600,0.00000003,-0.00000217,0.00000467,0.00000559,0.00000439,-0
 .00000857,0.00000488,-0.00000170,0.00000098,-0.00000076,-0.00000352,0.
 00000160,-0.00000462,-0.00000489,-0.00000191,0.00000520,0.00000404,0.0
 0000383,0.00000054,-0.00000082,-0.00000687,-0.00000655,-0.00000286,0.0
 0000447,-0.00001485,-0.00000163,0.00000118,0.00000756,0.00000677,-0.00
 000073,-0.00000686,-0.00000219,-0.00000270,0.00000665,0.00000961,0.000
 00273,0.00000503,0.00000837,0.00000605,0.00000342,0.00000172,-0.000003
 32,0.00000255,0.00000696,-0.00000318,-0.00000314,-0.00001208,-0.000002
 11,-0.00000378,-0.00000686,-0.00000468,-0.00000412,-0.00001455,-0.0000
 0403,-0.00000263,-0.00000873,0.00000593,-0.00000677,-0.00000087,0.0000
 0688,-0.00000368,-0.00000145,0.00000690,-0.00000308,0.00000236,0.00000
 805,-0.00000365,-0.00000074,0.00000106,-0.00000098,-0.00000972,0.00000
 240,-0.00000336,-0.00000561,0.00000374,-0.00000318,-0.00000428,-0.0000
 0041,-0.00000564,-0.00000588,-0.00000117,0.00000381,0.00001488,-0.0000
 0262,0.00000459,0.00000964,0.00000081,0.00000646,0.00001109,-0.0000036
 9,0.00000779,0.00001276\\\@


 "WOULD YOU TELL ME PLEASE, WHICH WAY I OUGHT TO WALK FROM HERE?"
 "THAT DEPENDS A GREAT DEAL ON WHERE YOU WANT TO GO," SAID THE CAT.
 "I DON'T MUCH CARE WHERE -- ", SAID ALICE.
 "THEN IT DOESN'T MATTER WHICH WAY YOU WALK," SAID THE CAT.

                                      -- LEWIS CARROLL
 Job cpu time:       0 days  1 hours 21 minutes 53.0 seconds.
 Elapsed time:       0 days  0 hours 20 minutes 35.1 seconds.
 File lengths (MBytes):  RWF=    379 Int=      0 D2E=      0 Chk=     17 Scr=      1
 Normal termination of Gaussian 16 at Fri May 24 08:55:43 2019.
