 Entering Gaussian System, Link 0=g16
 Input=clay-glucose_cation-188-b3lyp_d3bj-631gd-pcm_thf.gjf
 Output=clay-glucose_cation-188-b3lyp_d3bj-631gd-pcm_thf.out
 Initial command:
 /n/sw/g16_nehalem/g16/l1.exe "/scratch/Gau-59234.inp" -scrdir="/scratch/"
 Entering Link 1 = /n/sw/g16_nehalem/g16/l1.exe PID=     59238.
  
 Copyright (c) 1988,1990,1992,1993,1995,1998,2003,2009,2016,
            Gaussian, Inc.  All Rights Reserved.
  
 This is part of the Gaussian(R) 16 program.  It is based on
 the Gaussian(R) 09 system (copyright 2009, Gaussian, Inc.),
 the Gaussian(R) 03 system (copyright 2003, Gaussian, Inc.),
 the Gaussian(R) 98 system (copyright 1998, Gaussian, Inc.),
 the Gaussian(R) 94 system (copyright 1995, Gaussian, Inc.),
 the Gaussian 92(TM) system (copyright 1992, Gaussian, Inc.),
 the Gaussian 90(TM) system (copyright 1990, Gaussian, Inc.),
 the Gaussian 88(TM) system (copyright 1988, Gaussian, Inc.),
 the Gaussian 86(TM) system (copyright 1986, Carnegie Mellon
 University), and the Gaussian 82(TM) system (copyright 1983,
 Carnegie Mellon University). Gaussian is a federally registered
 trademark of Gaussian, Inc.
  
 This software contains proprietary and confidential information,
 including trade secrets, belonging to Gaussian, Inc.
  
 This software is provided under written license and may be
 used, copied, transmitted, or stored only in accord with that
 written license.
  
 The following legend is applicable only to US Government
 contracts under FAR:
  
                    RESTRICTED RIGHTS LEGEND
  
 Use, reproduction and disclosure by the US Government is
 subject to restrictions as set forth in subparagraphs (a)
 and (c) of the Commercial Computer Software - Restricted
 Rights clause in FAR 52.227-19.
  
 Gaussian, Inc.
 340 Quinnipiac St., Bldg. 40, Wallingford CT 06492
  
  
 ---------------------------------------------------------------
 Warning -- This program may not be used in any manner that
 competes with the business of Gaussian, Inc. or will provide
 assistance to any competitor of Gaussian, Inc.  The licensee
 of this program is prohibited from giving any competitor of
 Gaussian, Inc. access to this program.  By using this program,
 the user acknowledges that Gaussian, Inc. is engaged in the
 business of creating and licensing software in the field of
 computational chemistry and represents and warrants to the
 licensee that it is not a competitor of Gaussian, Inc. and that
 it will not use this program in any manner prohibited above.
 ---------------------------------------------------------------
  

 Cite this work as:
 Gaussian 16, Revision A.03,
 M. J. Frisch, G. W. Trucks, H. B. Schlegel, G. E. Scuseria, 
 M. A. Robb, J. R. Cheeseman, G. Scalmani, V. Barone, 
 G. A. Petersson, H. Nakatsuji, X. Li, M. Caricato, A. V. Marenich, 
 J. Bloino, B. G. Janesko, R. Gomperts, B. Mennucci, H. P. Hratchian, 
 J. V. Ortiz, A. F. Izmaylov, J. L. Sonnenberg, D. Williams-Young, 
 F. Ding, F. Lipparini, F. Egidi, J. Goings, B. Peng, A. Petrone, 
 T. Henderson, D. Ranasinghe, V. G. Zakrzewski, J. Gao, N. Rega, 
 G. Zheng, W. Liang, M. Hada, M. Ehara, K. Toyota, R. Fukuda, 
 J. Hasegawa, M. Ishida, T. Nakajima, Y. Honda, O. Kitao, H. Nakai, 
 T. Vreven, K. Throssell, J. A. Montgomery, Jr., J. E. Peralta, 
 F. Ogliaro, M. J. Bearpark, J. J. Heyd, E. N. Brothers, K. N. Kudin, 
 V. N. Staroverov, T. A. Keith, R. Kobayashi, J. Normand, 
 K. Raghavachari, A. P. Rendell, J. C. Burant, S. S. Iyengar, 
 J. Tomasi, M. Cossi, J. M. Millam, M. Klene, C. Adamo, R. Cammi, 
 J. W. Ochterski, R. L. Martin, K. Morokuma, O. Farkas, 
 J. B. Foresman, and D. J. Fox, Gaussian, Inc., Wallingford CT, 2016.
 
 ******************************************
 Gaussian 16:  ES64L-G16RevA.03 25-Dec-2016
                24-May-2019 
 ******************************************
 %nprocshared=4
 Will use up to    4 processors via shared memory.
 %mem=3GB
 -------------------------------------------------------------------
 #p b3lyp 6-31g* opt freq=noraman scrf=(pcm,solvent=tetrahydrofuran)
 -------------------------------------------------------------------
 1/18=20,19=15,26=3,38=1/1,3;
 2/9=110,12=2,17=6,18=5,40=1/2;
 3/5=1,6=6,7=1,11=2,25=1,30=1,70=2201,71=1,72=20,74=-5/1,2,3;
 4//1;
 5/5=2,38=5,53=20/2;
 6/7=2,8=2,9=2,10=2,28=1/1;
 7//1,2,3,16;
 1/18=20,19=15,26=3/3(2);
 2/9=110/2;
 99//99;
 2/9=110/2;
 3/5=1,6=6,7=1,11=2,25=1,30=1,70=2205,71=1,72=20,74=-5/1,2,3;
 4/5=5,16=3,69=1/1;
 5/5=2,38=5,53=20/2;
 7//1,2,3,16;
 1/18=20,19=15,26=3/3(-5);
 2/9=110/2;
 6/7=2,8=2,9=2,10=2,19=2,28=1/1;
 99/9=1/99;
 Leave Link    1 at Fri May 24 08:39:17 2019, MaxMem=   402653184 cpu:               0.6 elap:               0.3
 (Enter /n/sw/g16_nehalem/g16/l101.exe)
 -----
 title
 -----
 Symbolic Z-matrix:
 Charge =  1 Multiplicity = 1
 6                     0.98692   0.62724   0.71748 
 6                     1.442     0.17716  -0.69525 
 6                     0.39308  -0.54883  -1.48026 
 6                    -1.31712  -0.40166   0.25662 
 6                    -0.21518  -0.16929   1.29681 
 1                     0.64715  -0.95722  -2.45871 
 1                     1.74163   1.0646   -1.26757 
 1                     1.83768   0.50091   1.39798 
 1                    -1.92264  -1.26574   0.52994 
 1                    -0.64709   0.49795   2.04849 
 8                    -0.75192  -0.86394  -1.07453 
 8                     2.47323  -0.79471  -0.65997 
 8                     0.54948   1.97209   0.65892 
 8                     0.13121  -1.3249    2.02695 
 6                    -2.20344   0.81318  -0.06307 
 1                    -1.58299   1.63137  -0.43753 
 1                    -2.65274   1.13594   0.88797 
 8                    -3.17441   0.53503  -1.03874 
 6                     3.63495  -0.48824  -1.45202 
 1                     4.33798  -1.30228  -1.27584 
 1                     3.38818  -0.43939  -2.5181 
 1                     4.07038   0.46351  -1.12726 
 6                     1.59266   2.94672   0.72028 
 1                     2.27584   2.87493  -0.13721 
 1                     1.102     3.92078   0.70004 
 1                     2.16877   2.84102   1.64774 
 6                     0.58068  -2.48783   1.32755 
 1                     0.74614  -3.24453   2.09617 
 1                    -0.17828  -2.86801   0.63044 
 1                     1.51866  -2.31068   0.791 
 6                    -4.34359  -0.11571  -0.54569 
 1                    -5.03084  -0.19754  -1.38976 
 1                    -4.13115  -1.12438  -0.16581 
 1                    -4.81513   0.47372   0.25224 
 
 ITRead=  0  0  0  0  0  0  0  0  0  0  0  0  0  0  0  0  0  0  0  0
 ITRead=  0  0  0  0  0  0  0  0  0  0  0  0  0  0
 MicOpt= -1 -1 -1 -1 -1 -1 -1 -1 -1 -1 -1 -1 -1 -1 -1 -1 -1 -1 -1 -1
 MicOpt= -1 -1 -1 -1 -1 -1 -1 -1 -1 -1 -1 -1 -1 -1
 NAtoms=     34 NQM=       34 NQMF=       0 NMMI=      0 NMMIF=      0
                NMic=       0 NMicF=      0.
                    Isotopes and Nuclear Properties:
 (Nuclear quadrupole moments (NQMom) in fm**2, nuclear magnetic moments (NMagM)
  in nuclear magnetons)

  Atom         1           2           3           4           5           6           7           8           9          10
 IAtWgt=          12          12          12          12          12           1           1           1           1           1
 AtmWgt=  12.0000000  12.0000000  12.0000000  12.0000000  12.0000000   1.0078250   1.0078250   1.0078250   1.0078250   1.0078250
 NucSpn=           0           0           0           0           0           1           1           1           1           1
 AtZEff=   0.0000000   0.0000000   0.0000000   0.0000000   0.0000000   0.0000000   0.0000000   0.0000000   0.0000000   0.0000000
 NQMom=    0.0000000   0.0000000   0.0000000   0.0000000   0.0000000   0.0000000   0.0000000   0.0000000   0.0000000   0.0000000
 NMagM=    0.0000000   0.0000000   0.0000000   0.0000000   0.0000000   2.7928460   2.7928460   2.7928460   2.7928460   2.7928460
 AtZNuc=   6.0000000   6.0000000   6.0000000   6.0000000   6.0000000   1.0000000   1.0000000   1.0000000   1.0000000   1.0000000

  Atom        11          12          13          14          15          16          17          18          19          20
 IAtWgt=          16          16          16          16          12           1           1          16          12           1
 AtmWgt=  15.9949146  15.9949146  15.9949146  15.9949146  12.0000000   1.0078250   1.0078250  15.9949146  12.0000000   1.0078250
 NucSpn=           0           0           0           0           0           1           1           0           0           1
 AtZEff=   0.0000000   0.0000000   0.0000000   0.0000000   0.0000000   0.0000000   0.0000000   0.0000000   0.0000000   0.0000000
 NQMom=    0.0000000   0.0000000   0.0000000   0.0000000   0.0000000   0.0000000   0.0000000   0.0000000   0.0000000   0.0000000
 NMagM=    0.0000000   0.0000000   0.0000000   0.0000000   0.0000000   2.7928460   2.7928460   0.0000000   0.0000000   2.7928460
 AtZNuc=   8.0000000   8.0000000   8.0000000   8.0000000   6.0000000   1.0000000   1.0000000   8.0000000   6.0000000   1.0000000

  Atom        21          22          23          24          25          26          27          28          29          30
 IAtWgt=           1           1          12           1           1           1          12           1           1           1
 AtmWgt=   1.0078250   1.0078250  12.0000000   1.0078250   1.0078250   1.0078250  12.0000000   1.0078250   1.0078250   1.0078250
 NucSpn=           1           1           0           1           1           1           0           1           1           1
 AtZEff=   0.0000000   0.0000000   0.0000000   0.0000000   0.0000000   0.0000000   0.0000000   0.0000000   0.0000000   0.0000000
 NQMom=    0.0000000   0.0000000   0.0000000   0.0000000   0.0000000   0.0000000   0.0000000   0.0000000   0.0000000   0.0000000
 NMagM=    2.7928460   2.7928460   0.0000000   2.7928460   2.7928460   2.7928460   0.0000000   2.7928460   2.7928460   2.7928460
 AtZNuc=   1.0000000   1.0000000   6.0000000   1.0000000   1.0000000   1.0000000   6.0000000   1.0000000   1.0000000   1.0000000

  Atom        31          32          33          34
 IAtWgt=          12           1           1           1
 AtmWgt=  12.0000000   1.0078250   1.0078250   1.0078250
 NucSpn=           0           1           1           1
 AtZEff=   0.0000000   0.0000000   0.0000000   0.0000000
 NQMom=    0.0000000   0.0000000   0.0000000   0.0000000
 NMagM=    0.0000000   2.7928460   2.7928460   2.7928460
 AtZNuc=   6.0000000   1.0000000   1.0000000   1.0000000
 Leave Link  101 at Fri May 24 08:39:18 2019, MaxMem=   402653184 cpu:               3.1 elap:               0.9
 (Enter /n/sw/g16_nehalem/g16/l103.exe)

 GradGradGradGradGradGradGradGradGradGradGradGradGradGradGradGradGradGrad
 Berny optimization.
 Initialization pass.
                           ----------------------------
                           !    Initial Parameters    !
                           ! (Angstroms and Degrees)  !
 --------------------------                            --------------------------
 ! Name  Definition              Value          Derivative Info.                !
 --------------------------------------------------------------------------------
 ! R1    R(1,2)                  1.551          estimate D2E/DX2                !
 ! R2    R(1,5)                  1.5541         estimate D2E/DX2                !
 ! R3    R(1,8)                  1.0967         estimate D2E/DX2                !
 ! R4    R(1,13)                 1.4154         estimate D2E/DX2                !
 ! R5    R(2,3)                  1.4978         estimate D2E/DX2                !
 ! R6    R(2,7)                  1.0977         estimate D2E/DX2                !
 ! R7    R(2,12)                 1.4175         estimate D2E/DX2                !
 ! R8    R(3,6)                  1.0903         estimate D2E/DX2                !
 ! R9    R(3,11)                 1.255          estimate D2E/DX2                !
 ! R10   R(4,5)                  1.5331         estimate D2E/DX2                !
 ! R11   R(4,9)                  1.0899         estimate D2E/DX2                !
 ! R12   R(4,11)                 1.5183         estimate D2E/DX2                !
 ! R13   R(4,15)                 1.5374         estimate D2E/DX2                !
 ! R14   R(5,10)                 1.094          estimate D2E/DX2                !
 ! R15   R(5,14)                 1.4102         estimate D2E/DX2                !
 ! R16   R(12,19)                1.4391         estimate D2E/DX2                !
 ! R17   R(13,23)                1.429          estimate D2E/DX2                !
 ! R18   R(14,27)                1.4295         estimate D2E/DX2                !
 ! R19   R(15,16)                1.093          estimate D2E/DX2                !
 ! R20   R(15,17)                1.1002         estimate D2E/DX2                !
 ! R21   R(15,18)                1.4043         estimate D2E/DX2                !
 ! R22   R(18,31)                1.426          estimate D2E/DX2                !
 ! R23   R(19,20)                1.0899         estimate D2E/DX2                !
 ! R24   R(19,21)                1.0954         estimate D2E/DX2                !
 ! R25   R(19,22)                1.0958         estimate D2E/DX2                !
 ! R26   R(23,24)                1.0987         estimate D2E/DX2                !
 ! R27   R(23,25)                1.0908         estimate D2E/DX2                !
 ! R28   R(23,26)                1.0969         estimate D2E/DX2                !
 ! R29   R(27,28)                1.0912         estimate D2E/DX2                !
 ! R30   R(27,29)                1.0984         estimate D2E/DX2                !
 ! R31   R(27,30)                1.095          estimate D2E/DX2                !
 ! R32   R(31,32)                1.0915         estimate D2E/DX2                !
 ! R33   R(31,33)                1.0986         estimate D2E/DX2                !
 ! R34   R(31,34)                1.0984         estimate D2E/DX2                !
 ! A1    A(2,1,5)              114.6953         estimate D2E/DX2                !
 ! A2    A(2,1,8)              107.7064         estimate D2E/DX2                !
 ! A3    A(2,1,13)             109.1916         estimate D2E/DX2                !
 ! A4    A(5,1,8)              108.0406         estimate D2E/DX2                !
 ! A5    A(5,1,13)             105.269          estimate D2E/DX2                !
 ! A6    A(8,1,13)             112.015          estimate D2E/DX2                !
 ! A7    A(1,2,3)              114.3655         estimate D2E/DX2                !
 ! A8    A(1,2,7)              108.6873         estimate D2E/DX2                !
 ! A9    A(1,2,12)             112.9401         estimate D2E/DX2                !
 ! A10   A(3,2,7)              108.0447         estimate D2E/DX2                !
 ! A11   A(3,2,12)             100.9639         estimate D2E/DX2                !
 ! A12   A(7,2,12)             111.6363         estimate D2E/DX2                !
 ! A13   A(2,3,6)              119.2554         estimate D2E/DX2                !
 ! A14   A(2,3,11)             126.2414         estimate D2E/DX2                !
 ! A15   A(6,3,11)             114.1231         estimate D2E/DX2                !
 ! A16   A(5,4,9)              110.4469         estimate D2E/DX2                !
 ! A17   A(5,4,11)             111.929          estimate D2E/DX2                !
 ! A18   A(5,4,15)             115.8298         estimate D2E/DX2                !
 ! A19   A(9,4,11)             100.6784         estimate D2E/DX2                !
 ! A20   A(9,4,15)             110.996          estimate D2E/DX2                !
 ! A21   A(11,4,15)            105.8368         estimate D2E/DX2                !
 ! A22   A(1,5,4)              112.38           estimate D2E/DX2                !
 ! A23   A(1,5,10)             104.4138         estimate D2E/DX2                !
 ! A24   A(1,5,14)             115.0262         estimate D2E/DX2                !
 ! A25   A(4,5,10)             105.955          estimate D2E/DX2                !
 ! A26   A(4,5,14)             113.8074         estimate D2E/DX2                !
 ! A27   A(10,5,14)            103.9477         estimate D2E/DX2                !
 ! A28   A(3,11,4)             123.1377         estimate D2E/DX2                !
 ! A29   A(2,12,19)            115.3149         estimate D2E/DX2                !
 ! A30   A(1,13,23)            114.8763         estimate D2E/DX2                !
 ! A31   A(5,14,27)            119.3779         estimate D2E/DX2                !
 ! A32   A(4,15,16)            109.6028         estimate D2E/DX2                !
 ! A33   A(4,15,17)            106.7078         estimate D2E/DX2                !
 ! A34   A(4,15,18)            112.741          estimate D2E/DX2                !
 ! A35   A(16,15,17)           107.9602         estimate D2E/DX2                !
 ! A36   A(16,15,18)           107.6221         estimate D2E/DX2                !
 ! A37   A(17,15,18)           112.1056         estimate D2E/DX2                !
 ! A38   A(15,18,31)           114.6488         estimate D2E/DX2                !
 ! A39   A(12,19,20)           105.8241         estimate D2E/DX2                !
 ! A40   A(12,19,21)           111.3032         estimate D2E/DX2                !
 ! A41   A(12,19,22)           110.0368         estimate D2E/DX2                !
 ! A42   A(20,19,21)           109.6296         estimate D2E/DX2                !
 ! A43   A(20,19,22)           110.1498         estimate D2E/DX2                !
 ! A44   A(21,19,22)           109.8291         estimate D2E/DX2                !
 ! A45   A(13,23,24)           112.0773         estimate D2E/DX2                !
 ! A46   A(13,23,25)           106.2526         estimate D2E/DX2                !
 ! A47   A(13,23,26)           110.7318         estimate D2E/DX2                !
 ! A48   A(24,23,25)           108.878          estimate D2E/DX2                !
 ! A49   A(24,23,26)           109.0869         estimate D2E/DX2                !
 ! A50   A(25,23,26)           109.7529         estimate D2E/DX2                !
 ! A51   A(14,27,28)           105.4966         estimate D2E/DX2                !
 ! A52   A(14,27,29)           112.0132         estimate D2E/DX2                !
 ! A53   A(14,27,30)           112.175          estimate D2E/DX2                !
 ! A54   A(28,27,29)           108.1669         estimate D2E/DX2                !
 ! A55   A(28,27,30)           109.1136         estimate D2E/DX2                !
 ! A56   A(29,27,30)           109.6873         estimate D2E/DX2                !
 ! A57   A(18,31,32)           106.443          estimate D2E/DX2                !
 ! A58   A(18,31,33)           112.3335         estimate D2E/DX2                !
 ! A59   A(18,31,34)           110.9939         estimate D2E/DX2                !
 ! A60   A(32,31,33)           108.6825         estimate D2E/DX2                !
 ! A61   A(32,31,34)           109.3711         estimate D2E/DX2                !
 ! A62   A(33,31,34)           108.9368         estimate D2E/DX2                !
 ! D1    D(5,1,2,3)             22.0476         estimate D2E/DX2                !
 ! D2    D(5,1,2,7)            142.855          estimate D2E/DX2                !
 ! D3    D(5,1,2,12)           -92.686          estimate D2E/DX2                !
 ! D4    D(8,1,2,3)            142.3543         estimate D2E/DX2                !
 ! D5    D(8,1,2,7)            -96.8382         estimate D2E/DX2                !
 ! D6    D(8,1,2,12)            27.6207         estimate D2E/DX2                !
 ! D7    D(13,1,2,3)           -95.7907         estimate D2E/DX2                !
 ! D8    D(13,1,2,7)            25.0167         estimate D2E/DX2                !
 ! D9    D(13,1,2,12)          149.4757         estimate D2E/DX2                !
 ! D10   D(2,1,5,4)            -43.4215         estimate D2E/DX2                !
 ! D11   D(2,1,5,10)          -157.8            estimate D2E/DX2                !
 ! D12   D(2,1,5,14)            88.9561         estimate D2E/DX2                !
 ! D13   D(8,1,5,4)           -163.5431         estimate D2E/DX2                !
 ! D14   D(8,1,5,10)            82.0783         estimate D2E/DX2                !
 ! D15   D(8,1,5,14)           -31.1656         estimate D2E/DX2                !
 ! D16   D(13,1,5,4)            76.6176         estimate D2E/DX2                !
 ! D17   D(13,1,5,10)          -37.7609         estimate D2E/DX2                !
 ! D18   D(13,1,5,14)         -151.0048         estimate D2E/DX2                !
 ! D19   D(2,1,13,23)          -82.2561         estimate D2E/DX2                !
 ! D20   D(5,1,13,23)          154.1307         estimate D2E/DX2                !
 ! D21   D(8,1,13,23)           36.9597         estimate D2E/DX2                !
 ! D22   D(1,2,3,6)           -176.1065         estimate D2E/DX2                !
 ! D23   D(1,2,3,11)            -3.6218         estimate D2E/DX2                !
 ! D24   D(7,2,3,6)             62.7308         estimate D2E/DX2                !
 ! D25   D(7,2,3,11)          -124.7845         estimate D2E/DX2                !
 ! D26   D(12,2,3,6)           -54.5344         estimate D2E/DX2                !
 ! D27   D(12,2,3,11)          117.9503         estimate D2E/DX2                !
 ! D28   D(1,2,12,19)         -127.758          estimate D2E/DX2                !
 ! D29   D(3,2,12,19)          109.6735         estimate D2E/DX2                !
 ! D30   D(7,2,12,19)           -4.9262         estimate D2E/DX2                !
 ! D31   D(2,3,11,4)             7.5123         estimate D2E/DX2                !
 ! D32   D(6,3,11,4)          -179.6701         estimate D2E/DX2                !
 ! D33   D(9,4,5,1)            156.8284         estimate D2E/DX2                !
 ! D34   D(9,4,5,10)           -89.7368         estimate D2E/DX2                !
 ! D35   D(9,4,5,14)            23.8507         estimate D2E/DX2                !
 ! D36   D(11,4,5,1)            45.5269         estimate D2E/DX2                !
 ! D37   D(11,4,5,10)          158.9618         estimate D2E/DX2                !
 ! D38   D(11,4,5,14)          -87.4508         estimate D2E/DX2                !
 ! D39   D(15,4,5,1)           -75.9204         estimate D2E/DX2                !
 ! D40   D(15,4,5,10)           37.5145         estimate D2E/DX2                !
 ! D41   D(15,4,5,14)          151.102          estimate D2E/DX2                !
 ! D42   D(5,4,11,3)           -29.1104         estimate D2E/DX2                !
 ! D43   D(9,4,11,3)          -146.4416         estimate D2E/DX2                !
 ! D44   D(15,4,11,3)           97.9326         estimate D2E/DX2                !
 ! D45   D(5,4,15,16)           59.1179         estimate D2E/DX2                !
 ! D46   D(5,4,15,17)          -57.5395         estimate D2E/DX2                !
 ! D47   D(5,4,15,18)          178.9676         estimate D2E/DX2                !
 ! D48   D(9,4,15,16)         -173.9054         estimate D2E/DX2                !
 ! D49   D(9,4,15,17)           69.4372         estimate D2E/DX2                !
 ! D50   D(9,4,15,18)          -54.0557         estimate D2E/DX2                !
 ! D51   D(11,4,15,16)         -65.5343         estimate D2E/DX2                !
 ! D52   D(11,4,15,17)         177.8084         estimate D2E/DX2                !
 ! D53   D(11,4,15,18)          54.3155         estimate D2E/DX2                !
 ! D54   D(1,5,14,27)          -74.1114         estimate D2E/DX2                !
 ! D55   D(4,5,14,27)           57.5911         estimate D2E/DX2                !
 ! D56   D(10,5,14,27)         172.3723         estimate D2E/DX2                !
 ! D57   D(2,12,19,20)         177.3353         estimate D2E/DX2                !
 ! D58   D(2,12,19,21)         -63.6325         estimate D2E/DX2                !
 ! D59   D(2,12,19,22)          58.357          estimate D2E/DX2                !
 ! D60   D(1,13,23,24)          63.1216         estimate D2E/DX2                !
 ! D61   D(1,13,23,25)        -178.0668         estimate D2E/DX2                !
 ! D62   D(1,13,23,26)         -58.9397         estimate D2E/DX2                !
 ! D63   D(5,14,27,28)        -177.8955         estimate D2E/DX2                !
 ! D64   D(5,14,27,29)         -60.4384         estimate D2E/DX2                !
 ! D65   D(5,14,27,30)          63.423          estimate D2E/DX2                !
 ! D66   D(4,15,18,31)          81.6981         estimate D2E/DX2                !
 ! D67   D(16,15,18,31)       -157.3159         estimate D2E/DX2                !
 ! D68   D(17,15,18,31)        -38.7463         estimate D2E/DX2                !
 ! D69   D(15,18,31,32)        175.8089         estimate D2E/DX2                !
 ! D70   D(15,18,31,33)        -65.3545         estimate D2E/DX2                !
 ! D71   D(15,18,31,34)         56.8833         estimate D2E/DX2                !
 --------------------------------------------------------------------------------
 Trust Radius=3.00D-01 FncErr=1.00D-07 GrdErr=1.00D-06 EigMax=2.50D+02 EigMin=1.00D-04
 Number of steps in this run=    177 maximum allowed number of steps=    204.
 GradGradGradGradGradGradGradGradGradGradGradGradGradGradGradGradGradGrad

 Leave Link  103 at Fri May 24 08:39:18 2019, MaxMem=   402653184 cpu:               0.2 elap:               0.1
 (Enter /n/sw/g16_nehalem/g16/l202.exe)
                          Input orientation:                          
 ---------------------------------------------------------------------
 Center     Atomic      Atomic             Coordinates (Angstroms)
 Number     Number       Type             X           Y           Z
 ---------------------------------------------------------------------
      1          6           0        0.986915    0.627235    0.717475
      2          6           0        1.442000    0.177159   -0.695248
      3          6           0        0.393082   -0.548829   -1.480256
      4          6           0       -1.317119   -0.401660    0.256618
      5          6           0       -0.215184   -0.169285    1.296805
      6          1           0        0.647150   -0.957218   -2.458708
      7          1           0        1.741628    1.064603   -1.267566
      8          1           0        1.837675    0.500906    1.397979
      9          1           0       -1.922640   -1.265736    0.529942
     10          1           0       -0.647087    0.497953    2.048487
     11          8           0       -0.751917   -0.863938   -1.074530
     12          8           0        2.473228   -0.794713   -0.659971
     13          8           0        0.549475    1.972091    0.658922
     14          8           0        0.131211   -1.324902    2.026954
     15          6           0       -2.203443    0.813181   -0.063070
     16          1           0       -1.582991    1.631366   -0.437529
     17          1           0       -2.652735    1.135945    0.887966
     18          8           0       -3.174405    0.535030   -1.038740
     19          6           0        3.634954   -0.488236   -1.452015
     20          1           0        4.337977   -1.302282   -1.275841
     21          1           0        3.388177   -0.439391   -2.518104
     22          1           0        4.070377    0.463514   -1.127262
     23          6           0        1.592658    2.946723    0.720280
     24          1           0        2.275844    2.874930   -0.137208
     25          1           0        1.101996    3.920783    0.700043
     26          1           0        2.168768    2.841020    1.647743
     27          6           0        0.580679   -2.487834    1.327552
     28          1           0        0.746135   -3.244533    2.096169
     29          1           0       -0.178276   -2.868010    0.630441
     30          1           0        1.518659   -2.310677    0.791004
     31          6           0       -4.343588   -0.115709   -0.545691
     32          1           0       -5.030839   -0.197536   -1.389758
     33          1           0       -4.131147   -1.124382   -0.165806
     34          1           0       -4.815127    0.473719    0.252238
 ---------------------------------------------------------------------
                    Distance matrix (angstroms):
                    1          2          3          4          5
     1  C    0.000000
     2  C    1.550954   0.000000
     3  C    2.562379   1.497840   0.000000
     4  C    2.565071   2.975537   2.441962   0.000000
     5  C    1.554062   2.614299   2.868119   1.533052   0.000000
     6  H    3.565679   2.242407   1.090275   3.397056   3.932981
     7  H    2.168241   1.097671   2.113522   3.718736   3.453635
     8  H    1.096739   2.154755   3.387186   3.474199   2.161856
     9  H    3.476207   3.860549   3.149194   1.089949   2.169260
    10  H    2.111461   3.463420   3.824883   2.114011   1.093971
    11  O    2.908336   2.457847   1.254962   1.518259   2.528607
    12  O    2.475565   1.417466   2.249519   3.919357   3.383444
    13  O    1.415422   2.419123   3.309921   3.046427   2.361586
    14  O    2.501560   3.374128   3.601581   2.466602   1.410162
    15  C    3.289713   3.754121   3.256598   1.537403   2.601475
    16  H    2.991109   3.366260   3.121761   2.164653   2.849764
    17  H    3.678982   4.493628   4.209981   2.132299   2.795072
    18  O    4.517674   4.642979   3.754551   2.450480   3.835077
    19  C    3.600427   2.413399   3.242561   5.239270   4.741445
    20  H    4.350398   3.303410   4.021402   5.927872   5.351025
    21  H    4.168060   2.736886   3.171703   5.462629   5.254588
    22  H    3.596887   2.678993   3.830397   5.629277   4.964128
    23  C    2.397281   3.113985   4.301189   4.460208   3.648312
    24  H    2.728361   2.878311   4.131670   4.878578   4.186748
    25  H    3.295604   4.009633   5.023315   4.973154   4.338173
    26  H    2.676382   3.621319   4.942521   4.960001   3.855946
    27  C    3.200137   3.454820   3.417414   3.016730   2.451533
    28  H    4.116960   4.470371   4.492470   3.965210   3.319679
    29  H    3.685374   3.695375   3.187490   2.742187   2.780022
    30  H    2.986551   2.898991   3.087014   3.459993   2.801358
    31  C    5.528274   5.794926   4.847375   3.144039   4.521215
    32  H    6.429156   6.520766   5.436039   4.067424   5.514431
    33  H    5.481141   5.747546   4.746334   2.935902   4.287914
    34  H    5.822689   6.335402   5.583241   3.605880   4.760677
                    6          7          8          9         10
     6  H    0.000000
     7  H    2.589297   0.000000
     8  H    4.291563   2.726190   0.000000
     9  H    3.953610   4.699827   4.244347   0.000000
    10  H    4.909927   4.125925   2.568504   2.653981   0.000000
    11  O    1.970289   3.158212   3.831721   2.026417   3.408661
    12  O    2.568350   2.088412   2.513506   4.578363   4.329330
    13  O    4.279020   2.440516   2.090466   4.075722   2.352814
    14  O    4.530182   4.376875   2.577053   2.542213   1.982174
    15  C    4.123018   4.132506   4.308458   2.180002   2.642023
    16  H    3.969819   3.473222   4.043264   3.073201   2.888047
    17  H    5.144978   4.895083   4.563679   2.535605   2.403428
    18  O    4.341359   4.949767   5.573124   2.696375   3.989948
    19  C    3.187530   2.455609   3.511564   5.951429   5.618003
    20  H    3.891073   3.513295   4.080724   6.515943   6.256426
    21  H    2.790144   2.556749   4.315544   6.178852   6.165689
    22  H    3.938237   2.409163   3.370934   6.453905   5.686918
    23  C    5.122568   2.741551   2.549771   5.489841   3.574502
    24  H    4.767323   2.200086   2.860906   5.934431   4.355549
    25  H    5.829193   3.526809   3.567057   6.006441   4.073495
    26  H    5.796971   3.440513   2.376581   5.903774   3.685051
    27  C    4.084479   4.549972   3.243080   2.897639   3.307882
    28  H    5.097893   5.556471   3.963236   3.673018   3.993688
    29  H    3.724956   4.770106   4.000346   2.370694   3.682437
    30  H    3.626570   3.959790   2.893992   3.605911   3.762994
    31  C    5.410660   6.240520   6.508923   2.887999   4.557462
    32  H    5.827463   6.890155   7.445521   3.806206   5.614492
    33  H    5.302590   6.363569   6.380738   2.319817   4.435509
    34  H    6.263647   6.756477   6.750795   3.386636   4.538684
                   11         12         13         14         15
    11  O    0.000000
    12  O    3.252416   0.000000
    13  O    3.569529   3.618772   0.000000
    14  O    3.257546   3.603569   3.593970   0.000000
    15  C    2.437767   4.981251   3.072931   3.793443   0.000000
    16  H    2.706104   4.731623   2.421923   4.213275   1.092981
    17  H    3.385858   5.692016   3.317492   3.886311   1.100232
    18  O    2.797649   5.814417   4.337566   4.876979   1.404303
    19  C    4.419082   1.439051   4.475427   5.007939   6.140825
    20  H    5.112699   2.028352   5.368200   5.348443   6.981130
    21  H    4.405057   2.101438   4.895607   5.661229   6.233967
    22  H    5.001943   2.086236   4.226465   5.353927   6.373036
    23  C    4.820738   4.083974   1.428952   4.700000   4.424480
    24  H    4.901535   3.711943   2.104588   5.188606   4.931563
    25  H    5.429517   5.095667   2.025925   5.497302   4.600593
    26  H    5.446823   4.317035   2.086843   4.652993   5.114220
    27  C    3.191058   3.224693   4.509875   1.429544   4.536724
    28  H    4.238481   4.071950   5.414566   2.016905   5.461444
    29  H    2.693008   3.604746   4.894590   2.104094   4.258336
    30  H    3.275483   2.305358   4.393047   2.103411   4.933759
    31  C    3.706699   6.851503   5.454546   5.301365   2.382432
    32  H    4.341962   7.563083   6.328055   6.292188   3.282654
    33  H    3.508961   6.631037   5.672437   4.797510   2.735096
    34  H    4.478763   7.453936   5.584753   5.554360   2.652461
                   16         17         18         19         20
    16  H    0.000000
    17  H    1.773903   0.000000
    18  O    2.023859   2.084571   0.000000
    19  C    5.722661   6.902790   6.898206   0.000000
    20  H    6.660850   7.713434   7.737430   1.089931   0.000000
    21  H    5.773157   7.111653   6.797463   1.095368   1.786034
    22  H    5.813792   7.050783   7.245676   1.095849   1.792128
    23  C    3.627042   4.618484   5.624527   4.548492   5.438319
    24  H    4.065372   5.325969   5.999425   3.858339   4.795621
    25  H    3.707379   4.678530   5.724884   5.521474   6.454154
    26  H    4.459520   5.170245   6.409702   4.779346   5.515411
    27  C    4.976423   4.876472   5.370075   4.588353   4.722338
    28  H    5.968153   5.674562   6.283581   5.341541   5.295670
    29  H    4.833029   4.713907   4.831525   4.953854   5.146062
    30  H    5.164226   5.411944   5.785401   3.582057   3.638305
    31  C    3.268771   2.545780   1.426025   8.038491   8.792647
    32  H    4.017372   3.552686   2.026379   8.670891   9.434413
    33  H    3.763121   2.899175   2.104998   7.897553   8.543412
    34  H    3.501804   2.349177   2.088624   8.673736   9.448202
                   21         22         23         24         25
    21  H    0.000000
    22  H    1.793063   0.000000
    23  C    5.017648   3.964698   0.000000
    24  H    4.229737   3.164725   1.098719   0.000000
    25  H    5.881684   4.909485   1.090849   1.781212   0.000000
    26  H    5.440803   4.119382   1.096934   1.788481   1.789421
    27  C    5.183361   5.187924   5.561231   5.811914   6.460334
    28  H    6.011715   5.932175   6.398541   6.691473   7.308732
    29  H    5.341452   5.677995   6.079095   6.292325   6.908810
    30  H    4.236391   4.229320   5.258396   5.322164   6.246037
    31  C    7.985948   8.453906   6.798543   7.275140   6.891989
    32  H    8.497734   9.128966   7.629504   8.024746   7.677206
    33  H    7.908398   8.408972   7.079618   7.552804   7.320462
    34  H    8.706478   8.991958   6.884368   7.496623   6.862589
                   26         27         28         29         30
    26  H    0.000000
    27  C    5.569671   0.000000
    28  H    6.265694   1.091211   0.000000
    29  H    6.255921   1.098413   1.773320   0.000000
    30  H    5.262758   1.095023   1.781105   1.793318   0.000000
    31  C    7.480921   5.777925   6.532553   5.129159   6.400826
    32  H    8.384126   6.642166   7.403331   5.895761   7.219211
    33  H    7.661743   5.127419   5.779226   4.393112   5.851759
    34  H    7.505087   6.248345   6.939245   5.728052   6.939739
                   31         32         33         34
    31  C    0.000000
    32  H    1.091540   0.000000
    33  H    1.098574   1.779480   0.000000
    34  H    1.098392   1.786971   1.787880   0.000000
 Stoichiometry    C10H19O5(1+)
 Framework group  C1[X(C10H19O5)]
 Deg. of freedom    96
 Full point group                 C1      NOp   1
 Largest Abelian subgroup         C1      NOp   1
 Largest concise Abelian subgroup C1      NOp   1
                         Standard orientation:                         
 ---------------------------------------------------------------------
 Center     Atomic      Atomic             Coordinates (Angstroms)
 Number     Number       Type             X           Y           Z
 ---------------------------------------------------------------------
      1          6           0        0.986915    0.627235    0.717475
      2          6           0        1.442000    0.177159   -0.695248
      3          6           0        0.393082   -0.548829   -1.480256
      4          6           0       -1.317119   -0.401660    0.256618
      5          6           0       -0.215184   -0.169285    1.296805
      6          1           0        0.647150   -0.957218   -2.458708
      7          1           0        1.741628    1.064603   -1.267566
      8          1           0        1.837675    0.500906    1.397979
      9          1           0       -1.922640   -1.265736    0.529942
     10          1           0       -0.647087    0.497953    2.048487
     11          8           0       -0.751917   -0.863938   -1.074530
     12          8           0        2.473228   -0.794713   -0.659971
     13          8           0        0.549475    1.972091    0.658922
     14          8           0        0.131211   -1.324902    2.026954
     15          6           0       -2.203443    0.813181   -0.063070
     16          1           0       -1.582991    1.631366   -0.437529
     17          1           0       -2.652735    1.135945    0.887966
     18          8           0       -3.174405    0.535030   -1.038740
     19          6           0        3.634954   -0.488236   -1.452015
     20          1           0        4.337977   -1.302282   -1.275841
     21          1           0        3.388177   -0.439391   -2.518104
     22          1           0        4.070377    0.463514   -1.127262
     23          6           0        1.592658    2.946723    0.720280
     24          1           0        2.275844    2.874930   -0.137208
     25          1           0        1.101996    3.920783    0.700043
     26          1           0        2.168768    2.841020    1.647743
     27          6           0        0.580679   -2.487834    1.327552
     28          1           0        0.746135   -3.244533    2.096169
     29          1           0       -0.178276   -2.868010    0.630441
     30          1           0        1.518659   -2.310677    0.791004
     31          6           0       -4.343588   -0.115708   -0.545691
     32          1           0       -5.030839   -0.197535   -1.389758
     33          1           0       -4.131147   -1.124381   -0.165806
     34          1           0       -4.815127    0.473720    0.252238
 ---------------------------------------------------------------------
 Rotational constants (GHZ):           0.7760533           0.4125595           0.3759391
 Leave Link  202 at Fri May 24 08:39:18 2019, MaxMem=   402653184 cpu:               0.2 elap:               0.1
 (Enter /n/sw/g16_nehalem/g16/l301.exe)
 Standard basis: 6-31G(d) (6D, 7F)
 Ernie: Thresh=  0.10000D-02 Tol=  0.10000D-05 Strict=F.
 There are   263 symmetry adapted cartesian basis functions of A   symmetry.
 There are   263 symmetry adapted basis functions of A   symmetry.
   263 basis functions,   496 primitive gaussians,   263 cartesian basis functions
    59 alpha electrons       59 beta electrons
       nuclear repulsion energy      1166.2170986794 Hartrees.
 IExCor=  402 DFT=T Ex+Corr=B3LYP ExCW=0 ScaHFX=  0.200000
 ScaDFX=  0.800000  0.720000  1.000000  0.810000 ScalE2=  1.000000  1.000000
 IRadAn=      5 IRanWt=     -1 IRanGd=            0 ICorTp=0 IEmpDi=  4
 NAtoms=   34 NActive=   34 NUniq=   34 SFac= 1.00D+00 NAtFMM=   60 NAOKFM=F Big=F
 Integral buffers will be    131072 words long.
 Raffenetti 2 integral format.
 Two-electron integral symmetry is turned on.
 ------------------------------------------------------------------------------
 Polarizable Continuum Model (PCM)
 =================================
 Model                : PCM.
 Atomic radii         : UFF (Universal Force Field).
 Polarization charges : Total charges.
 Charge compensation  : None.
 Solution method      : On-the-fly selection.
 Cavity type          : Scaled VdW (van der Waals Surface) (Alpha=1.100).
 Cavity algorithm     : GePol (No added spheres)
                        Default sphere list used, NSphG=   34.
                        Lebedev-Laikov grids with approx.  5.0 points / Ang**2.
                        Smoothing algorithm: York/Karplus (Gamma=1.0000).
                        Polarization charges: spherical gaussians, with
                                              point-specific exponents (IZeta= 3).
                        Self-potential: point-specific (ISelfS= 7).
                        Self-field    : sphere-specific E.n sum rule (ISelfD= 2).
 1st derivatives      : Analytical E(r).r(x)/FMM algorithm (CHGder, D1EAlg=3).
                        Cavity 1st derivative terms included.
 Solvent              : TetraHydroFuran, Eps=   7.425700 Eps(inf)=   1.974025
 ------------------------------------------------------------------------------
 GePol: Number of generator spheres                  =      34
 GePol: Total number of spheres                      =      34
 GePol: Number of exposed spheres                    =      34 (100.00%)
 GePol: Number of points                             =    2299
 GePol: Average weight of points                     =       0.13
 GePol: Minimum weight of points                     =   0.57D-10
 GePol: Maximum weight of points                     =    0.20577
 GePol: Number of points with low weight             =     168
 GePol: Fraction of low-weight points (<1% of avg)   =       7.31%
 GePol: Cavity surface area                          =    299.148 Ang**2
 GePol: Cavity volume                                =    320.616 Ang**3
 Leave Link  301 at Fri May 24 08:39:18 2019, MaxMem=   402653184 cpu:               0.8 elap:               0.2
 (Enter /n/sw/g16_nehalem/g16/l302.exe)
 NPDir=0 NMtPBC=     1 NCelOv=     1 NCel=       1 NClECP=     1 NCelD=      1
         NCelK=      1 NCelE2=     1 NClLst=     1 CellRange=     0.0.
 One-electron integrals computed using PRISM.
 One-electron integral symmetry used in STVInt
 NBasis=   263 RedAO= T EigKep=  2.10D-03  NBF=   263
 NBsUse=   263 1.00D-06 EigRej= -1.00D+00 NBFU=   263
 Precomputing XC quadrature grid using
 IXCGrd= 4 IRadAn=           5 IRanWt=          -1 IRanGd=           0 AccXCQ= 0.00D+00.
 Generated NRdTot=       0 NPtTot=           0 NUsed=           0 NTot=          32
 NSgBfM=   261   261   261   261   261 MxSgAt=    34 MxSgA2=    34.
 Leave Link  302 at Fri May 24 08:39:21 2019, MaxMem=   402653184 cpu:               7.3 elap:               1.9
 (Enter /n/sw/g16_nehalem/g16/l303.exe)
 DipDrv:  MaxL=1.
 Leave Link  303 at Fri May 24 08:39:21 2019, MaxMem=   402653184 cpu:               0.8 elap:               0.3
 (Enter /n/sw/g16_nehalem/g16/l401.exe)
 ExpMin= 1.61D-01 ExpMax= 5.48D+03 ExpMxC= 8.25D+02 IAcc=3 IRadAn=         5 AccDes= 0.00D+00
 Harris functional with IExCor=  402 and IRadAn=       5 diagonalized for initial guess.
 HarFok:  IExCor=  402 AccDes= 0.00D+00 IRadAn=         5 IDoV= 1 UseB2=F ITyADJ=14
 ICtDFT=  3500011 ScaDFX=  1.000000  1.000000  1.000000  1.000000
 FoFCou: FMM=F IPFlag=           0 FMFlag=      100000 FMFlg1=           0
         NFxFlg=           0 DoJE=T BraDBF=F KetDBF=T FulRan=T
         wScrn=  0.000000 ICntrl=       500 IOpCl=  0 I1Cent=   200000004 NGrid=           0
         NMat0=    1 NMatS0=      1 NMatT0=    0 NMatD0=    1 NMtDS0=    0 NMtDT0=    0
 Petite list used in FoFCou.
 Harris En= -768.255472953531    
 JPrj=0 DoOrth=F DoCkMO=F.
 Leave Link  401 at Fri May 24 08:39:33 2019, MaxMem=   402653184 cpu:              46.0 elap:              11.6
 (Enter /n/sw/g16_nehalem/g16/l502.exe)
 Integral symmetry usage will be decided dynamically.
 Closed shell SCF:
 Using DIIS extrapolation, IDIIS=  1040.
 NGot=   402653184 LenX=   402510103 LenY=   402440493
 Requested convergence on RMS density matrix=1.00D-08 within 128 cycles.
 Requested convergence on MAX density matrix=1.00D-06.
 Requested convergence on             energy=1.00D-06.
 No special actions if energy rises.
 Fock matrices will be formed incrementally for  20 cycles.

 Cycle   1  Pass 1  IDiag  1:
 FoFJK:  IHMeth= 1 ICntrl=       0 DoSepK=F KAlg= 0 I1Cent=           0 FoldK=F
 IRaf= 880000000 NMat=       1 IRICut=       1 DoRegI=T DoRafI=F ISym2E= 0 IDoP0=0 IntGTp=1.
 FoFCou: FMM=F IPFlag=           0 FMFlag=      100000 FMFlg1=           0
         NFxFlg=           0 DoJE=F BraDBF=F KetDBF=F FulRan=T
         wScrn=  0.000000 ICntrl=         0 IOpCl=  0 I1Cent=           0 NGrid=           0
         NMat0=    1 NMatS0=      1 NMatT0=    0 NMatD0=    1 NMtDS0=    0 NMtDT0=    0
 Symmetry not used in FoFCou.
 Inv3:  Mode=1 IEnd=    15856203.
 Iteration    1 A*A^-1 deviation from unit magnitude is 7.22D-15 for    555.
 Iteration    1 A*A^-1 deviation from orthogonality  is 3.28D-15 for   2290   2270.
 Iteration    1 A^-1*A deviation from unit magnitude is 7.44D-15 for    555.
 Iteration    1 A^-1*A deviation from orthogonality  is 2.99D-13 for   2279   1461.
 E= -768.086184303320    
 DIIS: error= 2.34D-02 at cycle   1 NSaved=   1.
 NSaved= 1 IEnMin= 1 EnMin= -768.086184303320     IErMin= 1 ErrMin= 2.34D-02
 ErrMax= 2.34D-02  0.00D+00 EMaxC= 1.00D-01 BMatC= 2.52D-01 BMatP= 2.52D-01
 IDIUse=3 WtCom= 7.66D-01 WtEn= 2.34D-01
 Coeff-Com:  0.100D+01
 Coeff-En:   0.100D+01
 Coeff:      0.100D+01
 Gap=     0.042 Goal=   None    Shift=    0.000
 GapD=    0.042 DampG=0.250 DampE=0.500 DampFc=0.2500 IDamp=-1.
 Damping current iteration by 2.50D-01
 RMSDP=4.19D-03 MaxDP=1.01D-01              OVMax= 2.33D-01

 Cycle   2  Pass 1  IDiag  1:
 RMSU=  1.04D-03    CP:  9.96D-01
 E= -768.166398864493     Delta-E=       -0.080214561173 Rises=F Damp=T
 DIIS: error= 1.10D-02 at cycle   2 NSaved=   2.
 NSaved= 2 IEnMin= 2 EnMin= -768.166398864493     IErMin= 2 ErrMin= 1.10D-02
 ErrMax= 1.10D-02  0.00D+00 EMaxC= 1.00D-01 BMatC= 7.20D-02 BMatP= 2.52D-01
 IDIUse=3 WtCom= 8.90D-01 WtEn= 1.10D-01
 Coeff-Com: -0.842D+00 0.184D+01
 Coeff-En:   0.000D+00 0.100D+01
 Coeff:     -0.749D+00 0.175D+01
 Gap=     0.145 Goal=   None    Shift=    0.000
 RMSDP=1.28D-03 MaxDP=3.07D-02 DE=-8.02D-02 OVMax= 1.74D-01

 Cycle   3  Pass 1  IDiag  1:
 RMSU=  1.07D-03    CP:  9.87D-01  1.65D+00
 E= -768.303592169366     Delta-E=       -0.137193304873 Rises=F Damp=F
 DIIS: error= 5.26D-03 at cycle   3 NSaved=   3.
 NSaved= 3 IEnMin= 3 EnMin= -768.303592169366     IErMin= 3 ErrMin= 5.26D-03
 ErrMax= 5.26D-03  0.00D+00 EMaxC= 1.00D-01 BMatC= 2.23D-02 BMatP= 7.20D-02
 IDIUse=3 WtCom= 9.47D-01 WtEn= 5.26D-02
 Coeff-Com: -0.501D+00 0.966D+00 0.535D+00
 Coeff-En:   0.000D+00 0.000D+00 0.100D+01
 Coeff:     -0.474D+00 0.915D+00 0.560D+00
 Gap=     0.139 Goal=   None    Shift=    0.000
 RMSDP=6.29D-04 MaxDP=3.07D-02 DE=-1.37D-01 OVMax= 4.04D-02

 Cycle   4  Pass 1  IDiag  1:
 RMSU=  4.23D-04    CP:  9.90D-01  1.79D+00  5.94D-01
 E= -768.319182210698     Delta-E=       -0.015590041332 Rises=F Damp=F
 DIIS: error= 2.10D-03 at cycle   4 NSaved=   4.
 NSaved= 4 IEnMin= 4 EnMin= -768.319182210698     IErMin= 4 ErrMin= 2.10D-03
 ErrMax= 2.10D-03  0.00D+00 EMaxC= 1.00D-01 BMatC= 3.63D-03 BMatP= 2.23D-02
 IDIUse=3 WtCom= 9.79D-01 WtEn= 2.10D-02
 Coeff-Com: -0.177D+00 0.303D+00 0.302D+00 0.572D+00
 Coeff-En:   0.000D+00 0.000D+00 0.984D-01 0.902D+00
 Coeff:     -0.173D+00 0.297D+00 0.298D+00 0.579D+00
 Gap=     0.135 Goal=   None    Shift=    0.000
 RMSDP=2.26D-04 MaxDP=1.34D-02 DE=-1.56D-02 OVMax= 1.77D-02

 Cycle   5  Pass 1  IDiag  1:
 RMSU=  1.36D-04    CP:  9.89D-01  1.81D+00  6.78D-01  6.33D-01
 E= -768.321768729244     Delta-E=       -0.002586518546 Rises=F Damp=F
 DIIS: error= 5.97D-04 at cycle   5 NSaved=   5.
 NSaved= 5 IEnMin= 5 EnMin= -768.321768729244     IErMin= 5 ErrMin= 5.97D-04
 ErrMax= 5.97D-04  0.00D+00 EMaxC= 1.00D-01 BMatC= 4.30D-04 BMatP= 3.63D-03
 IDIUse=3 WtCom= 9.94D-01 WtEn= 5.97D-03
 Coeff-Com: -0.606D-01 0.952D-01 0.106D+00 0.322D+00 0.538D+00
 Coeff-En:   0.000D+00 0.000D+00 0.000D+00 0.479D-01 0.952D+00
 Coeff:     -0.603D-01 0.946D-01 0.105D+00 0.320D+00 0.540D+00
 Gap=     0.138 Goal=   None    Shift=    0.000
 RMSDP=7.82D-05 MaxDP=3.34D-03 DE=-2.59D-03 OVMax= 3.67D-03

 Cycle   6  Pass 1  IDiag  1:
 RMSU=  5.05D-05    CP:  9.89D-01  1.81D+00  6.78D-01  7.09D-01  6.31D-01
 E= -768.322058590063     Delta-E=       -0.000289860819 Rises=F Damp=F
 DIIS: error= 2.58D-04 at cycle   6 NSaved=   6.
 NSaved= 6 IEnMin= 6 EnMin= -768.322058590063     IErMin= 6 ErrMin= 2.58D-04
 ErrMax= 2.58D-04  0.00D+00 EMaxC= 1.00D-01 BMatC= 5.65D-05 BMatP= 4.30D-04
 IDIUse=3 WtCom= 9.97D-01 WtEn= 2.58D-03
 Coeff-Com: -0.173D-01 0.230D-01 0.241D-01 0.129D+00 0.327D+00 0.514D+00
 Coeff-En:   0.000D+00 0.000D+00 0.000D+00 0.000D+00 0.483D-01 0.952D+00
 Coeff:     -0.173D-01 0.229D-01 0.240D-01 0.129D+00 0.326D+00 0.515D+00
 Gap=     0.138 Goal=   None    Shift=    0.000
 RMSDP=2.29D-05 MaxDP=1.56D-03 DE=-2.90D-04 OVMax= 1.08D-03

 Cycle   7  Pass 1  IDiag  1:
 RMSU=  1.56D-05    CP:  9.89D-01  1.81D+00  6.78D-01  7.16D-01  6.93D-01
                    CP:  7.21D-01
 E= -768.322099089980     Delta-E=       -0.000040499918 Rises=F Damp=F
 DIIS: error= 1.08D-04 at cycle   7 NSaved=   7.
 NSaved= 7 IEnMin= 7 EnMin= -768.322099089980     IErMin= 7 ErrMin= 1.08D-04
 ErrMax= 1.08D-04  0.00D+00 EMaxC= 1.00D-01 BMatC= 4.04D-06 BMatP= 5.65D-05
 IDIUse=3 WtCom= 9.99D-01 WtEn= 1.08D-03
 Coeff-Com: -0.530D-02 0.583D-02 0.314D-02 0.467D-01 0.142D+00 0.288D+00
 Coeff-Com:  0.519D+00
 Coeff-En:   0.000D+00 0.000D+00 0.000D+00 0.000D+00 0.000D+00 0.000D+00
 Coeff-En:   0.100D+01
 Coeff:     -0.529D-02 0.582D-02 0.314D-02 0.467D-01 0.142D+00 0.288D+00
 Coeff:      0.520D+00
 Gap=     0.137 Goal=   None    Shift=    0.000
 RMSDP=7.47D-06 MaxDP=4.43D-04 DE=-4.05D-05 OVMax= 3.33D-04

 Cycle   8  Pass 1  IDiag  1:
 RMSU=  5.34D-06    CP:  9.89D-01  1.81D+00  6.78D-01  7.21D-01  7.12D-01
                    CP:  7.45D-01  7.84D-01
 E= -768.322102200408     Delta-E=       -0.000003110428 Rises=F Damp=F
 DIIS: error= 1.94D-05 at cycle   8 NSaved=   8.
 NSaved= 8 IEnMin= 8 EnMin= -768.322102200408     IErMin= 8 ErrMin= 1.94D-05
 ErrMax= 1.94D-05  0.00D+00 EMaxC= 1.00D-01 BMatC= 3.58D-07 BMatP= 4.04D-06
 IDIUse=1 WtCom= 1.00D+00 WtEn= 0.00D+00
 Coeff-Com: -0.382D-03 0.110D-04-0.285D-02 0.216D-02 0.155D-01 0.518D-01
 Coeff-Com:  0.242D+00 0.692D+00
 Coeff:     -0.382D-03 0.110D-04-0.285D-02 0.216D-02 0.155D-01 0.518D-01
 Coeff:      0.242D+00 0.692D+00
 Gap=     0.137 Goal=   None    Shift=    0.000
 RMSDP=2.72D-06 MaxDP=9.44D-05 DE=-3.11D-06 OVMax= 1.90D-04

 Cycle   9  Pass 1  IDiag  1:
 RMSU=  1.83D-06    CP:  9.89D-01  1.81D+00  6.78D-01  7.24D-01  7.17D-01
                    CP:  7.65D-01  8.46D-01  8.69D-01
 E= -768.322102475011     Delta-E=       -0.000000274603 Rises=F Damp=F
 DIIS: error= 8.19D-06 at cycle   9 NSaved=   9.
 NSaved= 9 IEnMin= 9 EnMin= -768.322102475011     IErMin= 9 ErrMin= 8.19D-06
 ErrMax= 8.19D-06  0.00D+00 EMaxC= 1.00D-01 BMatC= 6.84D-08 BMatP= 3.58D-07
 IDIUse=1 WtCom= 1.00D+00 WtEn= 0.00D+00
 Coeff-Com:  0.556D-04-0.155D-03-0.179D-02-0.337D-02-0.691D-02-0.461D-02
 Coeff-Com:  0.704D-01 0.386D+00 0.561D+00
 Coeff:      0.556D-04-0.155D-03-0.179D-02-0.337D-02-0.691D-02-0.461D-02
 Coeff:      0.704D-01 0.386D+00 0.561D+00
 Gap=     0.137 Goal=   None    Shift=    0.000
 RMSDP=1.07D-06 MaxDP=4.93D-05 DE=-2.75D-07 OVMax= 8.10D-05

 Cycle  10  Pass 1  IDiag  1:
 RMSU=  6.03D-07    CP:  9.89D-01  1.81D+00  6.78D-01  7.24D-01  7.19D-01
                    CP:  7.71D-01  8.77D-01  9.33D-01  7.15D-01
 E= -768.322102531768     Delta-E=       -0.000000056757 Rises=F Damp=F
 DIIS: error= 1.87D-06 at cycle  10 NSaved=  10.
 NSaved=10 IEnMin=10 EnMin= -768.322102531768     IErMin=10 ErrMin= 1.87D-06
 ErrMax= 1.87D-06  0.00D+00 EMaxC= 1.00D-01 BMatC= 3.62D-09 BMatP= 6.84D-08
 IDIUse=1 WtCom= 1.00D+00 WtEn= 0.00D+00
 Coeff-Com:  0.688D-04-0.836D-04-0.592D-03-0.181D-02-0.509D-02-0.788D-02
 Coeff-Com:  0.299D-02 0.794D-01 0.216D+00 0.717D+00
 Coeff:      0.688D-04-0.836D-04-0.592D-03-0.181D-02-0.509D-02-0.788D-02
 Coeff:      0.299D-02 0.794D-01 0.216D+00 0.717D+00
 Gap=     0.137 Goal=   None    Shift=    0.000
 RMSDP=3.16D-07 MaxDP=9.56D-06 DE=-5.68D-08 OVMax= 2.25D-05

 Cycle  11  Pass 1  IDiag  1:
 RMSU=  1.49D-07    CP:  9.89D-01  1.81D+00  6.78D-01  7.24D-01  7.19D-01
                    CP:  7.73D-01  8.85D-01  9.52D-01  7.68D-01  8.42D-01
 E= -768.322102535486     Delta-E=       -0.000000003718 Rises=F Damp=F
 DIIS: error= 4.19D-07 at cycle  11 NSaved=  11.
 NSaved=11 IEnMin=11 EnMin= -768.322102535486     IErMin=11 ErrMin= 4.19D-07
 ErrMax= 4.19D-07  0.00D+00 EMaxC= 1.00D-01 BMatC= 2.52D-10 BMatP= 3.62D-09
 IDIUse=1 WtCom= 1.00D+00 WtEn= 0.00D+00
 Coeff-Com:  0.166D-04-0.140D-04-0.143D-03-0.524D-03-0.172D-02-0.292D-02
 Coeff-Com: -0.373D-02 0.604D-02 0.529D-01 0.293D+00 0.657D+00
 Coeff:      0.166D-04-0.140D-04-0.143D-03-0.524D-03-0.172D-02-0.292D-02
 Coeff:     -0.373D-02 0.604D-02 0.529D-01 0.293D+00 0.657D+00
 Gap=     0.137 Goal=   None    Shift=    0.000
 RMSDP=8.62D-08 MaxDP=2.79D-06 DE=-3.72D-09 OVMax= 5.74D-06

 Cycle  12  Pass 1  IDiag  1:
 RMSU=  5.06D-08    CP:  9.89D-01  1.81D+00  6.78D-01  7.24D-01  7.19D-01
                    CP:  7.73D-01  8.86D-01  9.57D-01  7.77D-01  8.84D-01
                    CP:  8.04D-01
 E= -768.322102535686     Delta-E=       -0.000000000201 Rises=F Damp=F
 DIIS: error= 1.41D-07 at cycle  12 NSaved=  12.
 NSaved=12 IEnMin=12 EnMin= -768.322102535686     IErMin=12 ErrMin= 1.41D-07
 ErrMax= 1.41D-07  0.00D+00 EMaxC= 1.00D-01 BMatC= 2.70D-11 BMatP= 2.52D-10
 IDIUse=1 WtCom= 1.00D+00 WtEn= 0.00D+00
 Coeff-Com: -0.367D-05 0.778D-05 0.561D-05-0.568D-05-0.141D-03-0.257D-03
 Coeff-Com: -0.196D-02-0.688D-02-0.216D-02 0.378D-01 0.290D+00 0.683D+00
 Coeff:     -0.367D-05 0.778D-05 0.561D-05-0.568D-05-0.141D-03-0.257D-03
 Coeff:     -0.196D-02-0.688D-02-0.216D-02 0.378D-01 0.290D+00 0.683D+00
 Gap=     0.137 Goal=   None    Shift=    0.000
 RMSDP=2.72D-08 MaxDP=6.12D-07 DE=-2.01D-10 OVMax= 1.98D-06

 Cycle  13  Pass 1  IDiag  1:
 RMSU=  1.56D-08    CP:  9.89D-01  1.81D+00  6.78D-01  7.24D-01  7.19D-01
                    CP:  7.74D-01  8.86D-01  9.57D-01  7.81D-01  8.97D-01
                    CP:  8.79D-01  8.28D-01
 E= -768.322102535735     Delta-E=       -0.000000000048 Rises=F Damp=F
 DIIS: error= 4.95D-08 at cycle  13 NSaved=  13.
 NSaved=13 IEnMin=13 EnMin= -768.322102535735     IErMin=13 ErrMin= 4.95D-08
 ErrMax= 4.95D-08  0.00D+00 EMaxC= 1.00D-01 BMatC= 1.84D-12 BMatP= 2.70D-11
 IDIUse=1 WtCom= 1.00D+00 WtEn= 0.00D+00
 Coeff-Com: -0.250D-05 0.408D-05 0.111D-04 0.301D-04 0.428D-04 0.839D-04
 Coeff-Com: -0.644D-03-0.333D-02-0.413D-02-0.256D-02 0.822D-01 0.293D+00
 Coeff-Com:  0.635D+00
 Coeff:     -0.250D-05 0.408D-05 0.111D-04 0.301D-04 0.428D-04 0.839D-04
 Coeff:     -0.644D-03-0.333D-02-0.413D-02-0.256D-02 0.822D-01 0.293D+00
 Coeff:      0.635D+00
 Gap=     0.137 Goal=   None    Shift=    0.000
 RMSDP=7.38D-09 MaxDP=2.10D-07 DE=-4.82D-11 OVMax= 3.12D-07

 Error on total polarization charges =  0.01279
 SCF Done:  E(RB3LYP) =  -768.322102536     A.U. after   13 cycles
            NFock= 13  Conv=0.74D-08     -V/T= 2.0091
 KE= 7.613872392517D+02 PE=-4.107220835980D+03 EE= 1.411294395513D+03
 Leave Link  502 at Fri May 24 08:44:31 2019, MaxMem=   402653184 cpu:            1194.0 elap:             298.7
 (Enter /n/sw/g16_nehalem/g16/l601.exe)
 Copying SCF densities to generalized density rwf, IOpCl= 0 IROHF=0.

 **********************************************************************

            Population analysis using the SCF density.

 **********************************************************************

 Orbital symmetries:
       Occupied  (A) (A) (A) (A) (A) (A) (A) (A) (A) (A) (A) (A)
                 (A) (A) (A) (A) (A) (A) (A) (A) (A) (A) (A) (A)
                 (A) (A) (A) (A) (A) (A) (A) (A) (A) (A) (A) (A)
                 (A) (A) (A) (A) (A) (A) (A) (A) (A) (A) (A) (A)
                 (A) (A) (A) (A) (A) (A) (A) (A) (A) (A) (A)
       Virtual   (A) (A) (A) (A) (A) (A) (A) (A) (A) (A) (A) (A)
                 (A) (A) (A) (A) (A) (A) (A) (A) (A) (A) (A) (A)
                 (A) (A) (A) (A) (A) (A) (A) (A) (A) (A) (A) (A)
                 (A) (A) (A) (A) (A) (A) (A) (A) (A) (A) (A) (A)
                 (A) (A) (A) (A) (A) (A) (A) (A) (A) (A) (A) (A)
                 (A) (A) (A) (A) (A) (A) (A) (A) (A) (A) (A) (A)
                 (A) (A) (A) (A) (A) (A) (A) (A) (A) (A) (A) (A)
                 (A) (A) (A) (A) (A) (A) (A) (A) (A) (A) (A) (A)
                 (A) (A) (A) (A) (A) (A) (A) (A) (A) (A) (A) (A)
                 (A) (A) (A) (A) (A) (A) (A) (A) (A) (A) (A) (A)
                 (A) (A) (A) (A) (A) (A) (A) (A) (A) (A) (A) (A)
                 (A) (A) (A) (A) (A) (A) (A) (A) (A) (A) (A) (A)
                 (A) (A) (A) (A) (A) (A) (A) (A) (A) (A) (A) (A)
                 (A) (A) (A) (A) (A) (A) (A) (A) (A) (A) (A) (A)
                 (A) (A) (A) (A) (A) (A) (A) (A) (A) (A) (A) (A)
                 (A) (A) (A) (A) (A) (A) (A) (A) (A) (A) (A) (A)
                 (A) (A) (A) (A) (A) (A) (A) (A) (A) (A) (A) (A)
 The electronic state is 1-A.
 Alpha  occ. eigenvalues --  -19.32687 -19.22592 -19.19907 -19.19037 -19.18397
 Alpha  occ. eigenvalues --  -10.39445 -10.31942 -10.31703 -10.29628 -10.29599
 Alpha  occ. eigenvalues --  -10.27865 -10.26770 -10.25705 -10.25128 -10.24774
 Alpha  occ. eigenvalues --   -1.21333  -1.10387  -1.08231  -1.06913  -1.06634
 Alpha  occ. eigenvalues --   -0.86864  -0.85315  -0.77656  -0.75228  -0.74148
 Alpha  occ. eigenvalues --   -0.71618  -0.69961  -0.68381  -0.66046  -0.61695
 Alpha  occ. eigenvalues --   -0.59272  -0.58321  -0.57294  -0.54385  -0.53835
 Alpha  occ. eigenvalues --   -0.53007  -0.51267  -0.51027  -0.50504  -0.49123
 Alpha  occ. eigenvalues --   -0.48445  -0.48012  -0.47342  -0.46365  -0.46019
 Alpha  occ. eigenvalues --   -0.44319  -0.43557  -0.42872  -0.41482  -0.40722
 Alpha  occ. eigenvalues --   -0.39701  -0.37942  -0.36300  -0.35035  -0.34594
 Alpha  occ. eigenvalues --   -0.33068  -0.31050  -0.29597  -0.28667
 Alpha virt. eigenvalues --   -0.14937   0.00785   0.02852   0.04382   0.06266
 Alpha virt. eigenvalues --    0.06568   0.07592   0.08659   0.09639   0.09964
 Alpha virt. eigenvalues --    0.10776   0.11507   0.11725   0.12191   0.13246
 Alpha virt. eigenvalues --    0.13362   0.13958   0.14132   0.14435   0.14689
 Alpha virt. eigenvalues --    0.15310   0.15919   0.17114   0.17375   0.17760
 Alpha virt. eigenvalues --    0.18534   0.19068   0.21281   0.21813   0.23219
 Alpha virt. eigenvalues --    0.23922   0.25290   0.26133   0.28971   0.30252
 Alpha virt. eigenvalues --    0.42013   0.45069   0.46108   0.47391   0.47755
 Alpha virt. eigenvalues --    0.48489   0.48991   0.49930   0.50989   0.52024
 Alpha virt. eigenvalues --    0.52721   0.52952   0.53981   0.54658   0.55533
 Alpha virt. eigenvalues --    0.55964   0.57032   0.57961   0.60368   0.62019
 Alpha virt. eigenvalues --    0.63411   0.65272   0.66579   0.67599   0.68361
 Alpha virt. eigenvalues --    0.70953   0.75356   0.76586   0.77208   0.79002
 Alpha virt. eigenvalues --    0.79634   0.79965   0.80815   0.81079   0.81762
 Alpha virt. eigenvalues --    0.82859   0.83344   0.84684   0.85326   0.85658
 Alpha virt. eigenvalues --    0.86295   0.86697   0.87931   0.89027   0.89925
 Alpha virt. eigenvalues --    0.91139   0.92018   0.92609   0.93071   0.95152
 Alpha virt. eigenvalues --    0.95594   0.96471   0.97001   0.99655   1.01660
 Alpha virt. eigenvalues --    1.03619   1.05712   1.06875   1.09066   1.11522
 Alpha virt. eigenvalues --    1.12752   1.15644   1.16802   1.20455   1.22573
 Alpha virt. eigenvalues --    1.25206   1.25487   1.28669   1.31348   1.32549
 Alpha virt. eigenvalues --    1.33575   1.34966   1.37849   1.39790   1.42723
 Alpha virt. eigenvalues --    1.44808   1.45649   1.46258   1.49560   1.50067
 Alpha virt. eigenvalues --    1.51165   1.54601   1.56769   1.57725   1.59657
 Alpha virt. eigenvalues --    1.61197   1.65087   1.66067   1.67991   1.69319
 Alpha virt. eigenvalues --    1.72462   1.73787   1.76089   1.78462   1.80613
 Alpha virt. eigenvalues --    1.81420   1.84275   1.85836   1.87139   1.88180
 Alpha virt. eigenvalues --    1.88516   1.93316   1.96064   1.97011   1.98012
 Alpha virt. eigenvalues --    2.00066   2.01194   2.03135   2.03881   2.04587
 Alpha virt. eigenvalues --    2.05298   2.06971   2.08292   2.09833   2.09892
 Alpha virt. eigenvalues --    2.10742   2.11764   2.15165   2.15418   2.16146
 Alpha virt. eigenvalues --    2.19985   2.20497   2.21162   2.22485   2.23734
 Alpha virt. eigenvalues --    2.27517   2.29141   2.31452   2.33396   2.36119
 Alpha virt. eigenvalues --    2.36901   2.39599   2.40869   2.45684   2.46246
 Alpha virt. eigenvalues --    2.47995   2.51470   2.54393   2.56122   2.61653
 Alpha virt. eigenvalues --    2.63517   2.67639   2.69850   2.72718   2.73661
 Alpha virt. eigenvalues --    2.75550   2.81006   2.82365   2.88592   2.90431
 Alpha virt. eigenvalues --    2.95362   2.96478   2.99359   3.05147   3.85867
 Alpha virt. eigenvalues --    3.86521   3.89744   3.96952   4.07431   4.10545
 Alpha virt. eigenvalues --    4.22180   4.23712   4.24625   4.27141   4.29778
 Alpha virt. eigenvalues --    4.33135   4.54206   4.62913   4.65059
          Condensed to atoms (all electrons):
               1          2          3          4          5          6
     1  C    5.096092   0.250300  -0.031563  -0.027159   0.280938   0.002711
     2  C    0.250300   5.172731   0.295436  -0.025875  -0.015844  -0.042969
     3  C   -0.031563   0.295436   4.755203  -0.028808  -0.013111   0.366120
     4  C   -0.027159  -0.025875  -0.028808   5.246463   0.253227   0.002911
     5  C    0.280938  -0.015844  -0.013111   0.253227   4.952066  -0.000042
     6  H    0.002711  -0.042969   0.366120   0.002911  -0.000042   0.433559
     7  H   -0.035638   0.353214  -0.033987   0.000325   0.003060  -0.000956
     8  H    0.368966  -0.059780   0.003950   0.005042  -0.036733  -0.000121
     9  H    0.004917  -0.000148   0.002320   0.374158  -0.037985  -0.000103
    10  H   -0.045624   0.006003  -0.000153  -0.049163   0.382712   0.000015
    11  O   -0.009163  -0.025292   0.401488   0.117173  -0.017051  -0.036888
    12  O   -0.029442   0.134894  -0.024361   0.000225   0.001505   0.000313
    13  O    0.172015  -0.039554   0.005083   0.001789  -0.041362  -0.000078
    14  O   -0.045635   0.004246  -0.000411  -0.037998   0.254053  -0.000007
    15  C   -0.004299   0.000735  -0.000257   0.294067  -0.019889  -0.000164
    16  H   -0.000359  -0.000728   0.003331  -0.038901  -0.003962  -0.000049
    17  H   -0.000077  -0.000047   0.000046  -0.054018   0.002154   0.000007
    18  O   -0.000100  -0.000013   0.000955  -0.046290   0.002323   0.000022
    19  C    0.002384  -0.023258   0.000225  -0.000014  -0.000150   0.001494
    20  H   -0.000144   0.004958  -0.000232   0.000000   0.000007  -0.000055
    21  H   -0.000140  -0.006088   0.000889   0.000002   0.000000   0.000305
    22  H    0.000310  -0.006075   0.000081   0.000000  -0.000011   0.000022
    23  C   -0.032206  -0.005155   0.000234  -0.000143   0.004046  -0.000003
    24  H   -0.005751   0.005067  -0.000138  -0.000037  -0.000073   0.000010
    25  H    0.004844  -0.000073   0.000000   0.000017  -0.000142   0.000000
    26  H   -0.007868  -0.001114   0.000013   0.000006  -0.000019   0.000000
    27  C   -0.005632   0.001930   0.001749  -0.006268  -0.041452   0.000068
    28  H   -0.000172   0.000006  -0.000005  -0.000176   0.004466  -0.000001
    29  H   -0.000732  -0.000195   0.000087   0.010168  -0.009776  -0.000079
    30  H    0.005018  -0.005614   0.000465  -0.001228  -0.001617  -0.000003
    31  C    0.000001   0.000000  -0.000009  -0.004042   0.000049   0.000001
    32  H    0.000000   0.000000   0.000000  -0.000061   0.000002   0.000000
    33  H   -0.000002   0.000001  -0.000021   0.004006  -0.000290   0.000000
    34  H    0.000000   0.000000   0.000004  -0.001441   0.000041   0.000000
               7          8          9         10         11         12
     1  C   -0.035638   0.368966   0.004917  -0.045624  -0.009163  -0.029442
     2  C    0.353214  -0.059780  -0.000148   0.006003  -0.025292   0.134894
     3  C   -0.033987   0.003950   0.002320  -0.000153   0.401488  -0.024361
     4  C    0.000325   0.005042   0.374158  -0.049163   0.117173   0.000225
     5  C    0.003060  -0.036733  -0.037985   0.382712  -0.017051   0.001505
     6  H   -0.000956  -0.000121  -0.000103   0.000015  -0.036888   0.000313
     7  H    0.492099  -0.000083   0.000009  -0.000135   0.001437  -0.020710
     8  H   -0.000083   0.534041  -0.000105  -0.004071  -0.000011   0.006226
     9  H    0.000009  -0.000105   0.479717  -0.000554  -0.034700   0.000008
    10  H   -0.000135  -0.004071  -0.000554   0.515464   0.002501  -0.000073
    11  O    0.001437  -0.000011  -0.034700   0.002501   7.936719  -0.000017
    12  O   -0.020710   0.006226   0.000008  -0.000073  -0.000017   8.258952
    13  O   -0.002965  -0.023992  -0.000101   0.007253  -0.000341   0.001593
    14  O   -0.000049   0.003714   0.001731  -0.034092   0.000351   0.000123
    15  C    0.000030  -0.000030  -0.030061  -0.000416  -0.036677  -0.000004
    16  H    0.000069   0.000205   0.003740  -0.000094  -0.003944   0.000011
    17  H   -0.000002  -0.000011  -0.002612   0.004338   0.002855   0.000000
    18  O   -0.000001   0.000001  -0.003953   0.000059   0.001424   0.000000
    19  C   -0.006519   0.000290   0.000000   0.000003   0.000007   0.212830
    20  H    0.000094  -0.000060   0.000000   0.000000   0.000002  -0.029066
    21  H    0.001462   0.000052   0.000000   0.000000  -0.000006  -0.031266
    22  H    0.005426   0.000007   0.000000   0.000001  -0.000001  -0.033327
    23  C    0.003479  -0.005578   0.000005   0.000137  -0.000007   0.000034
    24  H    0.004351  -0.001438   0.000000   0.000083   0.000002  -0.000579
    25  H   -0.000292  -0.000002   0.000000  -0.000063   0.000000   0.000001
    26  H    0.000054   0.010036   0.000000  -0.000125   0.000000   0.000044
    27  C   -0.000054  -0.000218  -0.000049   0.005163   0.000160  -0.008305
    28  H    0.000001  -0.000057  -0.000224  -0.000124   0.000080   0.000154
    29  H   -0.000013   0.000184  -0.000394  -0.000128  -0.000202   0.000191
    30  H    0.000373   0.000405   0.000459  -0.000308  -0.000072   0.017931
    31  C    0.000000   0.000000   0.003741  -0.000004   0.000022   0.000000
    32  H    0.000000   0.000000  -0.000154   0.000000  -0.000010   0.000000
    33  H    0.000000   0.000000   0.003263  -0.000005   0.000230   0.000000
    34  H    0.000000   0.000000  -0.000105   0.000009   0.000017   0.000000
              13         14         15         16         17         18
     1  C    0.172015  -0.045635  -0.004299  -0.000359  -0.000077  -0.000100
     2  C   -0.039554   0.004246   0.000735  -0.000728  -0.000047  -0.000013
     3  C    0.005083  -0.000411  -0.000257   0.003331   0.000046   0.000955
     4  C    0.001789  -0.037998   0.294067  -0.038901  -0.054018  -0.046290
     5  C   -0.041362   0.254053  -0.019889  -0.003962   0.002154   0.002323
     6  H   -0.000078  -0.000007  -0.000164  -0.000049   0.000007   0.000022
     7  H   -0.002965  -0.000049   0.000030   0.000069  -0.000002  -0.000001
     8  H   -0.023992   0.003714  -0.000030   0.000205  -0.000011   0.000001
     9  H   -0.000101   0.001731  -0.030061   0.003740  -0.002612  -0.003953
    10  H    0.007253  -0.034092  -0.000416  -0.000094   0.004338   0.000059
    11  O   -0.000341   0.000351  -0.036677  -0.003944   0.002855   0.001424
    12  O    0.001593   0.000123  -0.000004   0.000011   0.000000   0.000000
    13  O    8.259153   0.001487  -0.004322   0.016487  -0.000071   0.000060
    14  O    0.001487   8.197003   0.001712  -0.000047  -0.000044  -0.000010
    15  C   -0.004322   0.001712   4.919929   0.369049   0.363123   0.249390
    16  H    0.016487  -0.000047   0.369049   0.513061  -0.025960  -0.033072
    17  H   -0.000071  -0.000044   0.363123  -0.025960   0.555073  -0.030049
    18  O    0.000060  -0.000010   0.249390  -0.033072  -0.030049   8.185566
    19  C   -0.000083   0.000002   0.000000   0.000000   0.000000   0.000000
    20  H    0.000000  -0.000001   0.000000   0.000000   0.000000   0.000000
    21  H    0.000010   0.000000   0.000000   0.000000   0.000000   0.000000
    22  H   -0.000076   0.000000   0.000000   0.000000   0.000000   0.000000
    23  C    0.233165  -0.000066   0.000095  -0.000136  -0.000015  -0.000001
    24  H   -0.037217   0.000004   0.000031  -0.000074   0.000000   0.000000
    25  H   -0.030144   0.000001   0.000017  -0.000092   0.000001   0.000000
    26  H   -0.034280  -0.000012  -0.000016   0.000073   0.000000   0.000000
    27  C    0.000019   0.235518   0.000333  -0.000001   0.000007  -0.000001
    28  H    0.000001  -0.031832   0.000002   0.000000   0.000000   0.000000
    29  H    0.000005  -0.036838  -0.000066   0.000000  -0.000005   0.000007
    30  H   -0.000041  -0.036588  -0.000011   0.000001   0.000000   0.000000
    31  C   -0.000001  -0.000002  -0.046046   0.005269  -0.007917   0.243064
    32  H    0.000000   0.000000   0.005047  -0.000173  -0.000081  -0.031360
    33  H    0.000000   0.000006  -0.004027  -0.000313  -0.001194  -0.038000
    34  H    0.000000   0.000000  -0.009073   0.000144   0.012466  -0.035218
              19         20         21         22         23         24
     1  C    0.002384  -0.000144  -0.000140   0.000310  -0.032206  -0.005751
     2  C   -0.023258   0.004958  -0.006088  -0.006075  -0.005155   0.005067
     3  C    0.000225  -0.000232   0.000889   0.000081   0.000234  -0.000138
     4  C   -0.000014   0.000000   0.000002   0.000000  -0.000143  -0.000037
     5  C   -0.000150   0.000007   0.000000  -0.000011   0.004046  -0.000073
     6  H    0.001494  -0.000055   0.000305   0.000022  -0.000003   0.000010
     7  H   -0.006519   0.000094   0.001462   0.005426   0.003479   0.004351
     8  H    0.000290  -0.000060   0.000052   0.000007  -0.005578  -0.001438
     9  H    0.000000   0.000000   0.000000   0.000000   0.000005   0.000000
    10  H    0.000003   0.000000   0.000000   0.000001   0.000137   0.000083
    11  O    0.000007   0.000002  -0.000006  -0.000001  -0.000007   0.000002
    12  O    0.212830  -0.029066  -0.031266  -0.033327   0.000034  -0.000579
    13  O   -0.000083   0.000000   0.000010  -0.000076   0.233165  -0.037217
    14  O    0.000002  -0.000001   0.000000   0.000000  -0.000066   0.000004
    15  C    0.000000   0.000000   0.000000   0.000000   0.000095   0.000031
    16  H    0.000000   0.000000   0.000000   0.000000  -0.000136  -0.000074
    17  H    0.000000   0.000000   0.000000   0.000000  -0.000015   0.000000
    18  O    0.000000   0.000000   0.000000   0.000000  -0.000001   0.000000
    19  C    4.921007   0.384894   0.370198   0.372013  -0.000089   0.000052
    20  H    0.384894   0.490816  -0.028218  -0.026215   0.000001  -0.000005
    21  H    0.370198  -0.028218   0.550038  -0.039106   0.000003  -0.000032
    22  H    0.372013  -0.026215  -0.039106   0.540908  -0.000014   0.000915
    23  C   -0.000089   0.000001   0.000003  -0.000014   4.910600   0.360453
    24  H    0.000052  -0.000005  -0.000032   0.000915   0.360453   0.589553
    25  H    0.000001   0.000000   0.000000  -0.000001   0.386350  -0.029953
    26  H   -0.000003   0.000000   0.000000   0.000000   0.372417  -0.044113
    27  C    0.000271   0.000033  -0.000012  -0.000015  -0.000001   0.000000
    28  H   -0.000004  -0.000001   0.000000   0.000000   0.000000   0.000000
    29  H   -0.000006  -0.000002   0.000001   0.000000   0.000000   0.000000
    30  H   -0.000424  -0.000082   0.000058   0.000046   0.000006  -0.000001
    31  C    0.000000   0.000000   0.000000   0.000000   0.000000   0.000000
    32  H    0.000000   0.000000   0.000000   0.000000   0.000000   0.000000
    33  H    0.000000   0.000000   0.000000   0.000000   0.000000   0.000000
    34  H    0.000000   0.000000   0.000000   0.000000   0.000000   0.000000
              25         26         27         28         29         30
     1  C    0.004844  -0.007868  -0.005632  -0.000172  -0.000732   0.005018
     2  C   -0.000073  -0.001114   0.001930   0.000006  -0.000195  -0.005614
     3  C    0.000000   0.000013   0.001749  -0.000005   0.000087   0.000465
     4  C    0.000017   0.000006  -0.006268  -0.000176   0.010168  -0.001228
     5  C   -0.000142  -0.000019  -0.041452   0.004466  -0.009776  -0.001617
     6  H    0.000000   0.000000   0.000068  -0.000001  -0.000079  -0.000003
     7  H   -0.000292   0.000054  -0.000054   0.000001  -0.000013   0.000373
     8  H   -0.000002   0.010036  -0.000218  -0.000057   0.000184   0.000405
     9  H    0.000000   0.000000  -0.000049  -0.000224  -0.000394   0.000459
    10  H   -0.000063  -0.000125   0.005163  -0.000124  -0.000128  -0.000308
    11  O    0.000000   0.000000   0.000160   0.000080  -0.000202  -0.000072
    12  O    0.000001   0.000044  -0.008305   0.000154   0.000191   0.017931
    13  O   -0.030144  -0.034280   0.000019   0.000001   0.000005  -0.000041
    14  O    0.000001  -0.000012   0.235518  -0.031832  -0.036838  -0.036588
    15  C    0.000017  -0.000016   0.000333   0.000002  -0.000066  -0.000011
    16  H   -0.000092   0.000073  -0.000001   0.000000   0.000000   0.000001
    17  H    0.000001   0.000000   0.000007   0.000000  -0.000005   0.000000
    18  O    0.000000   0.000000  -0.000001   0.000000   0.000007   0.000000
    19  C    0.000001  -0.000003   0.000271  -0.000004  -0.000006  -0.000424
    20  H    0.000000   0.000000   0.000033  -0.000001  -0.000002  -0.000082
    21  H    0.000000   0.000000  -0.000012   0.000000   0.000001   0.000058
    22  H   -0.000001   0.000000  -0.000015   0.000000   0.000000   0.000046
    23  C    0.386350   0.372417  -0.000001   0.000000   0.000000   0.000006
    24  H   -0.029953  -0.044113   0.000000   0.000000   0.000000  -0.000001
    25  H    0.505633  -0.027701   0.000000   0.000000   0.000000   0.000000
    26  H   -0.027701   0.560174   0.000001   0.000000   0.000000   0.000001
    27  C    0.000000   0.000001   4.980544   0.385473   0.359752   0.355824
    28  H    0.000000   0.000000   0.385473   0.507062  -0.028810  -0.026504
    29  H    0.000000   0.000000   0.359752  -0.028810   0.596290  -0.045273
    30  H    0.000000   0.000001   0.355824  -0.026504  -0.045273   0.555840
    31  C    0.000000   0.000000  -0.000001   0.000000  -0.000001   0.000000
    32  H    0.000000   0.000000   0.000000   0.000000   0.000000   0.000000
    33  H    0.000000   0.000000   0.000002   0.000000  -0.000002   0.000000
    34  H    0.000000   0.000000   0.000000   0.000000   0.000000   0.000000
              31         32         33         34
     1  C    0.000001   0.000000  -0.000002   0.000000
     2  C    0.000000   0.000000   0.000001   0.000000
     3  C   -0.000009   0.000000  -0.000021   0.000004
     4  C   -0.004042  -0.000061   0.004006  -0.001441
     5  C    0.000049   0.000002  -0.000290   0.000041
     6  H    0.000001   0.000000   0.000000   0.000000
     7  H    0.000000   0.000000   0.000000   0.000000
     8  H    0.000000   0.000000   0.000000   0.000000
     9  H    0.003741  -0.000154   0.003263  -0.000105
    10  H   -0.000004   0.000000  -0.000005   0.000009
    11  O    0.000022  -0.000010   0.000230   0.000017
    12  O    0.000000   0.000000   0.000000   0.000000
    13  O   -0.000001   0.000000   0.000000   0.000000
    14  O   -0.000002   0.000000   0.000006   0.000000
    15  C   -0.046046   0.005047  -0.004027  -0.009073
    16  H    0.005269  -0.000173  -0.000313   0.000144
    17  H   -0.007917  -0.000081  -0.001194   0.012466
    18  O    0.243064  -0.031360  -0.038000  -0.035218
    19  C    0.000000   0.000000   0.000000   0.000000
    20  H    0.000000   0.000000   0.000000   0.000000
    21  H    0.000000   0.000000   0.000000   0.000000
    22  H    0.000000   0.000000   0.000000   0.000000
    23  C    0.000000   0.000000   0.000000   0.000000
    24  H    0.000000   0.000000   0.000000   0.000000
    25  H    0.000000   0.000000   0.000000   0.000000
    26  H    0.000000   0.000000   0.000000   0.000000
    27  C   -0.000001   0.000000   0.000002   0.000000
    28  H    0.000000   0.000000   0.000000   0.000000
    29  H   -0.000001   0.000000  -0.000002   0.000000
    30  H    0.000000   0.000000   0.000000   0.000000
    31  C    4.912853   0.387359   0.362921   0.368228
    32  H    0.387359   0.517165  -0.032145  -0.028323
    33  H    0.362921  -0.032145   0.595719  -0.045099
    34  H    0.368228  -0.028323  -0.045099   0.577122
 Mulliken charges:
               1
     1  C    0.093211
     2  C    0.028303
     3  C    0.295376
     4  C    0.012047
     5  C    0.098860
     6  H    0.273960
     7  H    0.235921
     8  H    0.199172
     9  H    0.237180
    10  H    0.211391
    11  O   -0.300084
    12  O   -0.457885
    13  O   -0.483491
    14  O   -0.476320
    15  C   -0.048200
    16  H    0.196466
    17  H    0.182033
    18  O   -0.464803
    19  C   -0.235122
    20  H    0.203275
    21  H    0.181850
    22  H    0.185112
    23  C   -0.227610
    24  H    0.158892
    25  H    0.191599
    26  H    0.172433
    27  C   -0.264836
    28  H    0.190665
    29  H    0.155836
    30  H    0.181340
    31  C   -0.225485
    32  H    0.182735
    33  H    0.154949
    34  H    0.161228
 Sum of Mulliken charges =   1.00000
 Mulliken charges with hydrogens summed into heavy atoms:
               1
     1  C    0.292383
     2  C    0.264224
     3  C    0.569336
     4  C    0.249226
     5  C    0.310251
    11  O   -0.300084
    12  O   -0.457885
    13  O   -0.483491
    14  O   -0.476320
    15  C    0.330299
    18  O   -0.464803
    19  C    0.335115
    23  C    0.295315
    27  C    0.263005
    31  C    0.273427
 Electronic spatial extent (au):  <R**2>=           3475.8158
 Charge=              1.0000 electrons
 Dipole moment (field-independent basis, Debye):
    X=              3.3740    Y=             -0.0150    Z=             -3.2824  Tot=              4.7072
 Quadrupole moment (field-independent basis, Debye-Ang):
   XX=            -56.6943   YY=            -75.6555   ZZ=            -80.7504
   XY=              6.0393   XZ=            -11.2447   YZ=              4.5324
 Traceless Quadrupole moment (field-independent basis, Debye-Ang):
   XX=             14.3391   YY=             -4.6221   ZZ=             -9.7170
   XY=              6.0393   XZ=            -11.2447   YZ=              4.5324
[...]
 -0.00007992,0.00006728,-0.00002191,-0.00003450,0.00003815,0.00001330,-
 0.00005786,-0.00004190,-0.00002305,-0.00001902,0.00001553,0.00004573,0
 .00000426,0.00000611,-0.00000435,-0.00000868,-0.00000530,0.00000272,0.
 00001759,-0.00000346,-0.00000560,0.00013039,0.00004354,0.00005023,-0.0
 0003461,-0.00001636,0.00001397,-0.00002370,-0.00003336,0.00000083,-0.0
 0001073,0.00000759,-0.00000474,-0.05512249,-0.07594700,-0.04366692,0.0
 1608306,0.00977349,0.01311600,0.06013065,0.08691579,0.00057256,-0.0001
 2377,0.00002630,-0.00003106,-0.00005785,-0.00011670,-0.00004351,0.0005
 4161,-0.00086793,-0.00005543,-0.00100807,0.00055530,-0.00052111,0.0038
 7181,-0.00107031,0.00002858,-0.00003265,0.00006690,0.00000879,-0.00001
 204,0.00001559,0.00011826,0.00006123,-0.00008230,-0.00000651,-0.000607
 63,-0.00019190,0.00018618,-0.00013642,0.00010104,-0.00039233,0.0005576
 2,-0.00018689,-0.00019460,-0.00005078,0.00001454,-0.00031536,-0.000468
 50,0.00016219,-0.00564463,-0.01752403,-0.01329510,0.00015080,0.0004762
 3,0.00007215,-0.00009664,0.00004888,-0.00001465,0.00000050,-0.00000729
 ,0.00000357,0.00033331,-0.00008311,0.00016854,0.00006030,0.00004747,-0
 .00006798,-0.00002327,-0.00000586,0.00001173,0.00000650,-0.00000331,0.
 00000281,-0.00000039,0.00000013,0.00000004,0.00017339,0.00008307,0.000
 03654,-0.00003805,-0.00001349,0.00001251,-0.00002603,-0.00004080,-0.00
 000270,-0.00002029,0.00000156,-0.00000881,-0.11058274,-0.04616213,-0.1
 4827170,-0.01786078,-0.00717030,-0.01296608,0.12354847,0.06184750,0.16
 390109,-0.00018195,0.00089444,-0.00005701,0.00021697,0.00069723,-0.000
 38748,-0.00018026,0.00074204,-0.00107337,-0.00065957,0.00028959,0.0005
 5969,0.00053075,-0.00168100,0.00116320,0.00002997,-0.00002940,-0.00002
 435,-0.00024616,0.00023213,-0.00011491,-0.00001204,0.00003107,0.000093
 73,0.00019455,-0.00003263,0.00000562,0.00001204,0.00029033,-0.00015942
 ,0.00040810,-0.00028195,-0.00009197,-0.00239580,-0.00216704,0.00265863
 ,0.00026678,0.00012024,-0.00023638,-0.00461858,0.00871577,0.00734648,0
 .00005566,-0.00004269,-0.00013114,-0.00001605,0.00003144,-0.00000740,0
 .00003544,-0.00003748,0.00001241,-0.00005096,0.00002486,-0.00004951,-0
 .00001363,-0.00063129,0.00000637,0.00001292,0.00005601,-0.00002197,-0.
 00004893,0.00001000,0.00002187,-0.00019277,-0.00001934,0.00012513,-0.0
 0002741,0.00003368,-0.00000927,0.00001152,0.00000506,-0.00001335,0.000
 00964,0.00000799,-0.00000331,-0.00000040,-0.00000743,-0.00000135,-0.24
 700221,-0.04554014,0.10410612,0.00734317,0.00019864,-0.00360326,-0.017
 65917,-0.00619606,0.01074903,0.26417709,-0.00042111,0.00003748,0.00090
 200,0.00054601,-0.00164091,0.00054322,0.00075778,0.00022027,0.00013754
 ,0.00010707,-0.00081130,0.00003547,0.00084490,0.00556646,-0.00281461,-
 0.00000994,0.00000340,0.00002949,-0.00028056,0.00029146,0.00010661,-0.
 00017826,-0.00057374,-0.00019422,-0.00005079,0.00004003,-0.00008501,-0
 .00017732,-0.00047232,0.00027099,-0.00016841,-0.00023955,0.00014922,-0
 .00055775,-0.00126856,0.00083073,0.00005745,0.00035330,-0.00010584,0.0
 3280046,-0.00514318,-0.02311569,0.00009474,0.00016797,0.00014064,-0.00
 001020,0.00000245,0.00000032,-0.00002308,0.00002990,0.00000195,0.00013
 701,-0.00004854,0.00006337,-0.00118531,0.00003847,0.00017886,0.0000481
 4,-0.00001258,-0.00001201,0.00021452,0.00009434,-0.00020478,0.00009791
 ,0.00011814,-0.00007423,-0.00007865,0.00000324,-0.00000524,-0.00000793
 ,-0.00000897,0.00000596,0.00001463,0.00001437,0.00000743,0.00001166,-0
 .00000615,0.00001025,-0.05017385,-0.06567492,0.03034984,-0.01943447,-0
 .00218190,0.00877598,-0.00724226,0.00020454,0.00603846,0.04428792,0.07
 092408,0.00061442,-0.00054295,0.00045317,-0.00082537,0.00049931,0.0000
 6842,-0.00042545,0.00046947,-0.00054008,-0.00038750,-0.00063152,-0.000
 02622,-0.00130758,0.00209836,-0.00052876,-0.00000140,0.00000719,-0.000
 03225,0.00029599,-0.00031937,0.00004495,-0.00004814,-0.00020128,-0.000
 11157,0.00006010,0.00001408,-0.00008197,0.00003020,-0.00025723,0.00008
 833,-0.00008341,-0.00018545,0.00042403,0.00137746,0.00171845,-0.001754
 28,-0.00048223,-0.00042734,0.00005016,0.01656701,-0.00721743,-0.009796
 54,0.00004418,0.00024098,-0.00001693,-0.00004136,0.00002890,-0.0000122
 7,0.00000225,-0.00000219,0.00000494,0.00019630,-0.00002688,0.00011470,
 0.00085604,0.00010139,-0.00042579,-0.00005510,0.00000584,0.00004977,-0
 .00006251,-0.00004455,0.00006962,-0.00007822,-0.00012887,0.00006639,0.
 00019849,0.00003371,0.00004907,-0.00001960,0.00000764,0.00001026,-0.00
 003406,-0.00004923,-0.00001204,-0.00002157,-0.00000597,-0.00002127,0.1
 0376942,0.02545248,-0.11221073,0.02006138,0.00503803,-0.00901957,-0.01
 927952,-0.00366425,0.01196189,-0.12086225,-0.02197752,0.12112040,-0.00
 004012,-0.00037877,0.00027182,-0.00024713,0.00013592,-0.00011753,-0.00
 221077,-0.00025014,0.00036817,0.00130899,0.00020141,0.00257205,0.00014
 055,-0.00069367,-0.00195318,0.00013442,0.00016649,-0.00004479,0.000076
 74,-0.00003921,0.00002524,0.00019554,0.00012320,-0.00000630,-0.0004374
 9,0.00030301,-0.00038275,-0.00016133,-0.00006830,-0.00018623,0.0015316
 5,0.00010472,0.00010157,0.00090650,-0.00008458,0.00000774,0.00061819,0
 .00060450,0.00019896,0.00102893,-0.00107321,0.00094045,-0.04415645,-0.
 01677287,-0.00033076,0.00070531,0.00139054,-0.00079976,0.00571897,0.00
 110434,0.00426716,-0.16356318,-0.05482063,0.02373496,-0.00044321,-0.00
 005233,0.00034487,0.00008269,0.00000231,-0.00002426,0.00001654,0.00003
 059,-0.00006489,0.00009823,0.00002040,-0.00005741,-0.00036934,-0.00047
 228,-0.00005910,0.00008297,0.00004144,-0.00000642,0.00001318,0.0000678
 0,-0.00000438,0.00010334,0.00004406,0.00005039,-0.00025172,0.00053674,
 0.00033738,0.00005316,-0.00010362,0.00003758,0.00000645,0.00004315,-0.
 00011199,0.00000492,-0.00003028,-0.00008091,0.50636576,-0.00017931,-0.
 00007525,0.00003573,-0.00007308,0.00018752,-0.00001338,-0.00117224,-0.
 00020339,0.00042512,0.00377501,0.00426075,0.00210821,0.00033771,-0.001
 10431,-0.00062236,0.00001887,0.00009021,-0.00005394,0.00002131,-0.0000
 1003,0.00000860,0.00006159,0.00002680,0.00000773,0.00112706,-0.0002579
 1,0.00065268,-0.00022641,-0.00004946,-0.00019275,0.00086033,-0.0006221
 1,-0.00030245,0.00021116,-0.00006296,-0.00005616,0.00028510,0.00021795
 ,0.00005120,0.00058001,-0.00067876,0.00064040,-0.01457911,-0.01195080,
 -0.00498402,-0.00121277,0.00063580,-0.00174104,-0.00065576,0.00027831,
 0.00365610,-0.05593833,-0.09164659,0.02191841,-0.00012531,-0.00001381,
 0.00009431,0.00002762,0.00000018,-0.00000543,0.00000758,0.00001318,-0.
 00001797,0.00002469,0.00000309,-0.00001805,-0.00014895,-0.00017334,-0.
 00001985,0.00003761,0.00001739,-0.00000933,0.00000295,0.00001558,-0.00
 000026,0.00004026,0.00001570,0.00002174,-0.00004959,0.00038874,0.00027
 194,0.00002335,-0.00005863,-0.00000224,-0.00001715,-0.00000612,-0.0001
 0594,-0.00001030,-0.00004106,-0.00005034,-0.04173730,0.55078932,0.0002
 1373,-0.00007719,-0.00010662,0.00017454,-0.00002286,-0.00001366,0.0006
 7303,0.00004264,-0.00012926,-0.00238756,-0.00182814,-0.00093898,0.0001
 1821,0.00052737,0.00095237,-0.00002520,-0.00008656,0.00004470,-0.00000
 573,0.00001112,-0.00000737,-0.00010461,-0.00002152,0.00000290,-0.00050
 320,0.00013506,-0.00001021,0.00009630,-0.00001493,0.00011075,-0.000414
 09,0.00005838,-0.00008380,-0.00035620,0.00005641,0.00004160,-0.0007393
 8,-0.00044490,-0.00023026,-0.00049222,0.00057547,-0.00053557,-0.024533
 02,-0.01598128,0.00681641,-0.00467126,-0.00123665,-0.00307703,-0.00456
 112,-0.00101610,0.00107537,0.06064761,0.03858212,-0.11084896,0.0001720
 8,0.00003242,-0.00013074,-0.00003467,-0.00000103,0.00001135,-0.0000098
 5,-0.00001296,0.00002431,-0.00003430,-0.00001038,0.00002136,0.00018585
 ,0.00038527,-0.00003408,-0.00006801,-0.00003725,0.00001232,-0.00000112
 ,-0.00003936,0.00000698,-0.00009940,-0.00005682,-0.00003070,0.00010849
 ,-0.00029266,-0.00018437,-0.00003106,0.00005766,-0.00000739,0.00000060
 ,-0.00001301,0.00006579,-0.00000095,0.00002485,0.00003850,0.06042231,0
 .02367258,0.60018351,0.00007731,-0.00000730,-0.00003129,0.00006220,-0.
 00002166,0.00000314,0.00031797,0.00003306,-0.00005814,-0.00007084,-0.0
 0062371,-0.00048229,0.00012818,0.00016367,0.00029638,-0.00003162,-0.00
 002290,0.00000889,-0.00000881,0.00000340,-0.00000309,-0.00003762,-0.00
 000848,0.00000206,0.00016531,0.00006268,0.00006762,0.00002174,0.000009
 42,0.00003627,-0.00027016,-0.00004048,0.00008194,-0.00014092,0.0000195
 2,0.00001999,-0.00024414,-0.00015849,-0.00006460,-0.00021001,0.0002003
 2,-0.00017481,-0.00237706,-0.00185014,0.00395857,-0.00106901,-0.000109
 61,-0.00093262,0.00000608,-0.00006298,-0.00022746,-0.02864950,-0.00847
 702,-0.02126967,0.00007078,0.00001142,-0.00005848,-0.00001381,-0.00000
 112,0.00000441,-0.00000276,-0.00000507,0.00001174,-0.00001427,-0.00000
 330,0.00000903,0.00007491,0.00013707,-0.00001546,-0.00002614,-0.000011
 10,0.00000622,-0.00000078,-0.00001402,0.00000008,-0.00003313,-0.000019
 66,-0.00000970,0.00005059,-0.00011201,-0.00007083,-0.00001011,0.000021
 14,-0.00000283,0.00000134,-0.00000421,0.00001865,-0.00000498,0.0000083
 6,0.00001356,-0.14773762,-0.00802753,-0.12707298,0.17172443,0.00006311
 ,-0.00003642,0.00004160,0.00001768,-0.00000108,0.00000080,0.00008202,-
 0.00001505,-0.00003582,-0.00037420,-0.00040352,-0.00005538,0.00000048,
 0.00019117,-0.00001697,0.00001199,-0.00001494,0.00000816,0.00000118,0.
 00000107,-0.00000137,-0.00000442,0.00001128,-0.00000699,-0.00037474,0.
 00027238,-0.00015759,0.00002624,0.00000010,0.00003060,-0.00000729,0.00
 012918,-0.00005516,-0.00003233,0.00000582,0.00000618,-0.00011302,-0.00
 006241,-0.00004117,-0.00006108,0.00005660,-0.00007686,-0.00237845,-0.0
 0108987,0.00172076,-0.00077896,-0.00000085,-0.00039135,0.00017314,0.00
 003868,0.00020489,-0.01615922,-0.00328331,-0.01353499,0.00001586,0.000
 00381,-0.00001206,-0.00000295,-0.00000015,0.00000133,-0.00000090,-0.00
 000074,0.00000211,-0.00000323,-0.00000128,0.00000151,0.00002011,0.0000
 5672,-0.00000919,-0.00001041,-0.00000518,0.00000290,0.00000069,-0.0000
 0370,-0.00000021,-0.00001442,-0.00000915,-0.00000429,-0.00000025,-0.00
 002978,-0.00002159,-0.00000236,0.00000613,0.00000098,-0.00000159,0.000
 00150,0.00001000,0.00000143,0.00000390,0.00000499,-0.00500587,-0.05203
 046,-0.00994892,0.01765894,0.05247969,-0.00002868,0.00004116,-0.000027
 28,0.00000745,-0.00000372,0.00000455,0.00008759,0.00003361,-0.00000243
 ,0.00023366,0.00025449,0.00006322,0.00000316,-0.00013069,0.00004588,-0
 .00000903,-0.00000837,0.00000161,-0.00000374,0.00000113,-0.00000011,-0
 .00000529,-0.00001037,0.00000292,0.00005593,-0.00015935,0.00004993,0.0
 0000054,-0.00000072,-0.00000043,-0.00014841,0.00002506,0.00006514,-0.0
 0003386,0.00000076,-0.00000058,0.00002736,0.00000626,0.00001188,0.0000
 0383,0.00000045,0.00002907,0.00312304,0.00122069,0.00059395,0.00026463
 ,0.00018636,0.00047847,0.00008519,0.00024529,0.00032899,0.01117287,0.0
 0159309,0.01317958,0.00001703,0.00000117,-0.00001372,-0.00000294,-0.00
 000014,0.00000063,-0.00000033,-0.00000104,0.00000278,-0.00000408,-0.00
 000048,0.00000218,0.00001318,-0.00000211,0.00000389,0.00000024,0.00000
 164,0.00000031,-0.00000077,-0.00000128,-0.00000096,0.00000283,0.000002
 00,0.00000010,0.00001214,-0.00000765,-0.00000026,0.00000071,0.00000029
 ,-0.00000285,-0.00000086,0.00000021,-0.00000274,-0.00000158,-0.0000015
 5,0.00000170,-0.13840857,-0.01535705,-0.22818895,0.14235716,0.01308222
 ,0.23576038,0.00007073,-0.00002178,0.00011054,0.00002912,0.00002801,0.
 00002838,-0.00000463,-0.00006191,0.00009168,-0.00060775,0.00088937,0.0
 0016332,0.00038254,0.00007507,-0.00006334,-0.00000192,-0.00000019,-0.0
 0001448,-0.00000309,0.00000445,-0.00000390,0.00001034,0.00002159,-0.00
 001740,-0.00231536,0.00041363,-0.00010414,-0.00001539,0.00000442,0.000
 00026,0.00010011,-0.00008693,-0.00023126,-0.00006639,0.00000151,-0.000
 01849,-0.00006560,-0.00002507,-0.00003474,-0.00003428,0.00002251,-0.00
 003610,0.00435629,-0.00152857,0.00280040,-0.00041732,0.00007560,-0.000
 50699,-0.00056224,-0.00005522,-0.00035294,-0.00218074,-0.03585620,0.01
 504551,0.00002348,0.00000189,-0.00002154,-0.00000446,-0.00000066,0.000
 00128,0.00000014,-0.00000160,0.00000411,-0.00000640,-0.00000077,0.0000
 0389,0.00001065,0.00003999,-0.00000313,-0.00000518,-0.00000385,0.00000
 150,0.00000089,-0.00000105,0.00000030,-0.00000928,-0.00000547,-0.00000
 441,-0.00001225,0.00000077,-0.00000254,0.00000261,0.00000128,-0.000000
 95,-0.00000073,-0.00001288,-0.00000551,0.00000154,-0.00000359,0.000000
 82,-0.06924133,0.05933200,-0.02338052,-0.00288533,0.01888131,-0.005123
 17,0.07441007,0.00007833,-0.00008028,0.00004909,0.00000686,-0.00002127
 ,0.00001251,0.00013207,-0.00005480,-0.00008516,-0.00041361,-0.00049528
 ,-0.00027850,-0.00018549,0.00033776,-0.00000492,0.00001717,-0.00001959
 ,0.00001033,0.00000371,0.00000298,-0.00000501,0.00000158,0.00001724,-0
 .00001268,-0.00004442,0.00060833,0.00003185,0.00004725,-0.00000225,0.0
 0004671,0.00005570,0.00018863,-0.00007277,-0.00002874,0.00002033,0.000
 00445,-0.00012265,-0.00002272,-0.00005240,-0.00007390,0.00011661,-0.00
 011977,0.00342441,0.00061212,0.00327756,-0.00052906,0.00002336,-0.0003
 4656,0.00000375,-0.00022979,-0.00063298,-0.01330241,-0.01413872,0.0083
 0483,0.00001206,0.00000105,-0.00000969,-0.00000398,0.00000030,0.000000
 48,-0.00000139,-0.00000289,0.00000124,-0.00000238,-0.00000001,0.000002
 98,0.00002067,0.00004844,-0.00000161,-0.00000745,-0.00000618,0.0000025
 8,0.00000297,0.00000157,0.00000282,-0.00001450,-0.00000685,-0.00000715
 ,-0.00002177,-0.00004645,-0.00004714,-0.00000369,0.00000651,0.00000067
 ,0.00000650,0.00000488,0.00002066,0.00000594,0.00000513,0.00000722,0.0
 5730527,-0.26035500,0.07395102,0.00076901,0.00375729,-0.00120813,-0.05
 357461,0.28519921,-0.00004394,-0.00000552,0.00004173,-0.00004447,0.000
 01725,0.00000049,-0.00016398,0.00000833,-0.00001706,0.00029506,0.00026
 782,0.00081628,0.00004888,-0.00017423,-0.00020608,0.00001355,0.0000238
 9,-0.00000729,0.00000451,-0.00000438,0.00000028,0.00002304,0.00000859,
 -0.00000249,0.00010445,0.00020245,-0.00025278,-0.00003274,-0.00001746,
 -0.00003464,0.00013970,-0.00009376,0.00000865,0.00008190,-0.00001861,-
 0.00001484,0.00011859,0.00007258,0.00003254,0.00015861,-0.00016585,0.0
 0011753,-0.00165284,-0.00118432,-0.00148981,0.00030227,0.00000912,0.00
 010581,0.00036088,-0.00021609,0.00024593,0.00543971,0.01495867,-0.0035
 3086,-0.00003942,-0.00000508,0.00003334,0.00000888,0.00000067,-0.00000
 184,0.00000191,0.00000436,-0.00000664,0.00000805,0.00000116,-0.0000060
 3,-0.00004640,-0.00006806,-0.00000003,0.00001290,0.00000630,-0.0000036
 2,0.00000094,0.00000720,-0.00000130,0.00001564,0.00000790,0.00000639,-
 0.00002610,0.00010794,0.00007583,0.00000306,-0.00001427,0.00000015,-0.
 00001033,0.00000134,-0.00001908,0.00000138,-0.00000825,-0.00001438,-0.
 02105678,0.07347819,-0.08158103,-0.00656510,0.02407908,-0.00675304,0.0
 1722743,-0.08900558,0.08294511,0.00001599,0.00004724,-0.00001351,0.000
 02324,-0.00004680,0.00002144,0.00036636,0.00002918,-0.00011143,-0.0005
 4280,-0.00004781,-0.00070046,0.00005393,0.00021646,0.00029121,-0.00001
 786,0.00000579,-0.00000836,-0.00001122,0.00000405,-0.00000525,-0.00002
 161,-0.00001365,0.00000085,0.00006076,0.00002363,0.00006197,0.00001424
 ,-0.00000484,-0.00001391,-0.00008437,-0.00018426,-0.00008661,-0.000091
 00,0.00000660,-0.00000450,-0.00006325,-0.00008445,-0.00002344,-0.00015
 439,0.00012531,-0.00017392,0.00411997,0.00282842,0.00693827,0.00017762
 ,-0.00008287,-0.00016908,-0.00020234,-0.00005950,-0.00165947,-0.028721
 11,0.00424412,0.02503026,0.00005139,0.00000478,-0.00003725,-0.00000894
 ,-0.00000003,0.00000252,-0.00000179,-0.00000348,0.00000743,-0.00001104
 ,-0.00000208,0.00000653,0.00003790,0.00004848,0.00000614,-0.00000678,-
 0.00000459,-0.00000112,-0.00000280,-0.00000901,0.00000066,-0.00001131,
 -0.00000483,-0.00000550,0.00003527,-0.00006746,-0.00003893,-0.00000717
 ,0.00001225,-0.00000487,-0.00000132,-0.00000681,0.00001488,-0.00000018
 ,0.00000519,0.00000854,-0.09033332,0.05737893,0.06671368,0.01113781,-0
 .01162848,-0.01369722,-0.00095883,0.00643680,0.00531079,0.10515892,0.0
 0002413,-0.00001825,0.00002050,-0.00000647,-0.00003836,0.00000231,0.00
 005099,0.00001866,-0.00005396,0.00007639,-0.00063283,-0.00025087,-0.00
 003510,0.00013600,-0.00006628,-0.00000480,0.00000726,-0.00000366,-0.00
 000229,-0.00000032,-0.00000123,0.00000706,0.00000517,-0.00000301,-0.00
 007919,0.00002563,-0.00012877,0.00001776,0.00001572,0.00001713,-0.0000
 9729,0.00003302,0.00009940,0.00002089,0.00000575,0.00001018,-0.0000102
 3,0.00000869,0.00000456,-0.00003917,0.00003706,-0.00000641,0.00075872,
 0.00182713,0.00309282,0.00018258,0.00007732,0.00031427,0.00152796,-0.0
 0029769,-0.00064323,-0.01451070,0.01150907,0.01541918,-0.00000515,-0.0
 0000179,0.00000224,0.00000021,-0.00000031,-0.00000085,0.00000039,-0.00
 000065,0.00000019,0.00000161,0.00000148,-0.00000009,0.00000071,-0.0000
 0091,-0.00000186,-0.00000101,0.00000029,0.00000182,0.00000049,0.000001
 28,-0.00000109,0.00000156,-0.00000017,0.00000043,-0.00001109,-0.000036
 21,-0.00003343,0.00000287,0.00000155,0.00000329,0.00000656,0.00000281,
 0.00000776,0.00000094,0.00000474,0.00000434,0.05935720,-0.13760052,-0.
 10696986,0.00048277,-0.00002743,0.00019677,0.01144694,-0.01546965,-0.0
 2228136,-0.05916626,0.14040644,-0.00002799,-0.00006107,0.00001773,-0.0
 0003874,0.00002182,-0.00001541,-0.00036910,-0.00005806,0.00006010,0.00
 037664,0.00006838,-0.00003666,-0.00006934,-0.00007616,-0.00025434,0.00
 001421,0.00002247,-0.00000660,0.00001054,-0.00000570,0.00000295,0.0000
 2709,0.00001585,0.00000099,0.00002498,0.00000871,0.00002354,-0.0000265
 6,-0.00000373,-0.00003393,0.00022099,0.00001286,0.00000663,0.00013436,
 -0.00000847,0.00000304,0.00011635,0.00011815,0.00003177,0.00013752,-0.
 00014187,0.00013353,-0.00421348,0.00064827,0.00076161,0.00002063,0.000
 15801,0.00035082,0.00156646,-0.00004850,0.00051691,0.01523503,0.000232
 99,-0.00962570,-0.00006751,-0.00000886,0.00004959,0.00001201,0.0000001
 5,-0.00000374,0.00000281,0.00000402,-0.00000935,0.00001497,0.00000357,
 -0.00000810,-0.00005417,-0.00008626,-0.00000507,0.00001402,0.00000806,
 -0.00000059,0.00000271,0.00001274,-0.00000027,0.00001849,0.00000957,0.
 00000764,-0.00003848,0.00007325,0.00004158,0.00000717,-0.00001518,0.00
 000557,0.00000299,0.00000602,-0.00001364,0.00000054,-0.00000422,-0.000
 01166,0.07001537,-0.10349040,-0.18326923,0.01014366,-0.01482820,-0.015
 63378,-0.00555384,0.00616304,0.00951279,-0.08766035,0.11124877,0.19740
 128\\-0.00000167,0.00000190,0.00000147,0.00000004,0.00000820,0.0000071
 5,0.00001104,-0.00000941,-0.00000133,0.00000366,0.00000021,0.00000143,
 0.00000584,-0.00000212,-0.00000411,-0.00000277,0.00001904,-0.00000658,
 -0.00000314,0.00000352,-0.00000342,0.00000323,-0.00000402,0.00000003,0
 .00000244,-0.00000477,-0.00000250,0.00000331,-0.00001052,0.00000331,-0
 .00000589,0.00000946,0.00000117,-0.00000973,0.00000743,-0.00002367,-0.
 00000504,-0.00000695,0.00001245,0.00001124,-0.00001176,-0.00000568,-0.
 00000224,-0.00001105,0.00001125,-0.00000126,0.00000074,0.00001126,0.00
 000071,-0.00000617,0.00001208,-0.00000373,0.00000558,0.00000750,-0.000
 00044,0.00001626,-0.00000898,-0.00000115,0.00001129,-0.00001524,-0.000
 01031,0.00001607,-0.00001377,-0.00000365,0.00000919,-0.00000961,-0.000
 00417,-0.00000179,0.00000701,-0.00000301,0.00000737,0.00001517,-0.0000
 0299,-0.00000182,0.00001700,0.00000038,-0.00000595,0.00000857,0.000006
 65,-0.00000775,-0.00001322,0.00000821,-0.00001005,-0.00001722,0.000005
 57,-0.00000384,-0.00001360,0.00000220,-0.00000236,-0.00001302,-0.00000
 061,-0.00000356,0.00000849,-0.00000281,-0.00000092,0.00001064,0.000000
 30,-0.00000379,0.00000313,-0.00000019,-0.00000767,0.00001281\\\@


 HOW IS IT THAT THE SKY FEEDS THE STARS?

                           -- LUCRETIUS
 Job cpu time:       0 days  3 hours 23 minutes 50.5 seconds.
 Elapsed time:       0 days  0 hours 50 minutes 58.2 seconds.
 File lengths (MBytes):  RWF=    378 Int=      0 D2E=      0 Chk=     16 Scr=      1
 Normal termination of Gaussian 16 at Fri May 24 09:40:19 2019.
