 Entering Gaussian System, Link 0=g16
 Input=clay-glucose_cation-051-b3lyp_d3bj-631gd-pcm_thf.gjf
 Output=clay-glucose_cation-051-b3lyp_d3bj-631gd-pcm_thf.out
 Initial command:
 /n/sw/g16_nehalem/g16/l1.exe "/scratch/Gau-14742.inp" -scrdir="/scratch/"
 Entering Link 1 = /n/sw/g16_nehalem/g16/l1.exe PID=     14757.
  
 Copyright (c) 1988,1990,1992,1993,1995,1998,2003,2009,2016,
            Gaussian, Inc.  All Rights Reserved.
  
 This is part of the Gaussian(R) 16 program.  It is based on
 the Gaussian(R) 09 system (copyright 2009, Gaussian, Inc.),
 the Gaussian(R) 03 system (copyright 2003, Gaussian, Inc.),
 the Gaussian(R) 98 system (copyright 1998, Gaussian, Inc.),
 the Gaussian(R) 94 system (copyright 1995, Gaussian, Inc.),
 the Gaussian 92(TM) system (copyright 1992, Gaussian, Inc.),
 the Gaussian 90(TM) system (copyright 1990, Gaussian, Inc.),
 the Gaussian 88(TM) system (copyright 1988, Gaussian, Inc.),
 the Gaussian 86(TM) system (copyright 1986, Carnegie Mellon
 University), and the Gaussian 82(TM) system (copyright 1983,
 Carnegie Mellon University). Gaussian is a federally registered
 trademark of Gaussian, Inc.
  
 This software contains proprietary and confidential information,
 including trade secrets, belonging to Gaussian, Inc.
  
 This software is provided under written license and may be
 used, copied, transmitted, or stored only in accord with that
 written license.
  
 The following legend is applicable only to US Government
 contracts under FAR:
  
                    RESTRICTED RIGHTS LEGEND
  
 Use, reproduction and disclosure by the US Government is
 subject to restrictions as set forth in subparagraphs (a)
 and (c) of the Commercial Computer Software - Restricted
 Rights clause in FAR 52.227-19.
  
 Gaussian, Inc.
 340 Quinnipiac St., Bldg. 40, Wallingford CT 06492
  
  
 ---------------------------------------------------------------
 Warning -- This program may not be used in any manner that
 competes with the business of Gaussian, Inc. or will provide
 assistance to any competitor of Gaussian, Inc.  The licensee
 of this program is prohibited from giving any competitor of
 Gaussian, Inc. access to this program.  By using this program,
 the user acknowledges that Gaussian, Inc. is engaged in the
 business of creating and licensing software in the field of
 computational chemistry and represents and warrants to the
 licensee that it is not a competitor of Gaussian, Inc. and that
 it will not use this program in any manner prohibited above.
 ---------------------------------------------------------------
  

 Cite this work as:
 Gaussian 16, Revision A.03,
 M. J. Frisch, G. W. Trucks, H. B. Schlegel, G. E. Scuseria, 
 M. A. Robb, J. R. Cheeseman, G. Scalmani, V. Barone, 
 G. A. Petersson, H. Nakatsuji, X. Li, M. Caricato, A. V. Marenich, 
 J. Bloino, B. G. Janesko, R. Gomperts, B. Mennucci, H. P. Hratchian, 
 J. V. Ortiz, A. F. Izmaylov, J. L. Sonnenberg, D. Williams-Young, 
 F. Ding, F. Lipparini, F. Egidi, J. Goings, B. Peng, A. Petrone, 
 T. Henderson, D. Ranasinghe, V. G. Zakrzewski, J. Gao, N. Rega, 
 G. Zheng, W. Liang, M. Hada, M. Ehara, K. Toyota, R. Fukuda, 
 J. Hasegawa, M. Ishida, T. Nakajima, Y. Honda, O. Kitao, H. Nakai, 
 T. Vreven, K. Throssell, J. A. Montgomery, Jr., J. E. Peralta, 
 F. Ogliaro, M. J. Bearpark, J. J. Heyd, E. N. Brothers, K. N. Kudin, 
 V. N. Staroverov, T. A. Keith, R. Kobayashi, J. Normand, 
 K. Raghavachari, A. P. Rendell, J. C. Burant, S. S. Iyengar, 
 J. Tomasi, M. Cossi, J. M. Millam, M. Klene, C. Adamo, R. Cammi, 
 J. W. Ochterski, R. L. Martin, K. Morokuma, O. Farkas, 
 J. B. Foresman, and D. J. Fox, Gaussian, Inc., Wallingford CT, 2016.
 
 ******************************************
 Gaussian 16:  ES64L-G16RevA.03 25-Dec-2016
                24-May-2019 
 ******************************************
 %nprocshared=4
 Will use up to    4 processors via shared memory.
 %mem=3GB
 -------------------------------------------------------------------
 #p b3lyp 6-31g* opt freq=noraman scrf=(pcm,solvent=tetrahydrofuran)
 -------------------------------------------------------------------
 1/18=20,19=15,26=3,38=1/1,3;
 2/9=110,12=2,17=6,18=5,40=1/2;
 3/5=1,6=6,7=1,11=2,25=1,30=1,70=2201,71=1,72=20,74=-5/1,2,3;
 4//1;
 5/5=2,38=5,53=20/2;
 6/7=2,8=2,9=2,10=2,28=1/1;
 7//1,2,3,16;
 1/18=20,19=15,26=3/3(2);
 2/9=110/2;
 99//99;
 2/9=110/2;
 3/5=1,6=6,7=1,11=2,25=1,30=1,70=2205,71=1,72=20,74=-5/1,2,3;
 4/5=5,16=3,69=1/1;
 5/5=2,38=5,53=20/2;
 7//1,2,3,16;
 1/18=20,19=15,26=3/3(-5);
 2/9=110/2;
 6/7=2,8=2,9=2,10=2,19=2,28=1/1;
 99/9=1/99;
 Leave Link    1 at Fri May 24 08:30:12 2019, MaxMem=   402653184 cpu:               0.5 elap:               0.2
 (Enter /n/sw/g16_nehalem/g16/l101.exe)
 -----
 title
 -----
 Symbolic Z-matrix:
 Charge =  1 Multiplicity = 1
 6                    -0.83815   0.57273   0.67087 
 6                    -1.5296   -0.49829  -0.26276 
 6                    -1.19503  -0.2552   -1.68539 
 6                     1.05705   0.30972  -1.11245 
 6                     0.49893   1.10886   0.06609 
 1                    -1.95842  -0.31312  -2.46238 
 1                    -1.09763  -1.48219  -0.00653 
 1                    -1.53474   1.41369   0.67232 
 1                     1.7296    0.95251  -1.67681 
 1                     1.27539   1.11221   0.84161 
 8                    -0.048     0.07074  -2.09893 
 8                    -2.91139  -0.46141  -0.07181 
 8                    -0.78666   0.1479    2.00165 
 8                     0.28756   2.41116  -0.45383 
 6                     1.74591  -1.02894  -0.82633 
 1                     1.06042  -1.76872  -0.38669 
 1                     2.11357  -1.44221  -1.77622 
 8                     2.79794  -0.72109   0.05463 
 6                    -3.56662  -1.73698  -0.1062 
 1                    -3.1543   -2.40657   0.65876 
 1                    -4.61764  -1.54053   0.10652 
 1                    -3.47785  -2.21001  -1.09239 
 6                     0.05736  -0.95494   2.32927 
 1                    -0.33197  -1.8992    1.92269 
 1                     0.04664  -1.02311   3.41804 
 1                     1.08869  -0.80726   1.98794 
 6                     0.30246   3.44406   0.53259 
 1                     1.26538   3.46583   1.05929 
 1                     0.15787   4.38208  -0.00574 
 1                    -0.50492   3.32418   1.26659 
 6                     3.7011   -1.81029   0.24552 
 1                     3.18737  -2.67956   0.67715 
 1                     4.46695  -1.45911   0.9386 
 1                     4.16944  -2.10164  -0.70371 
 
 ITRead=  0  0  0  0  0  0  0  0  0  0  0  0  0  0  0  0  0  0  0  0
 ITRead=  0  0  0  0  0  0  0  0  0  0  0  0  0  0
 MicOpt= -1 -1 -1 -1 -1 -1 -1 -1 -1 -1 -1 -1 -1 -1 -1 -1 -1 -1 -1 -1
 MicOpt= -1 -1 -1 -1 -1 -1 -1 -1 -1 -1 -1 -1 -1 -1
 NAtoms=     34 NQM=       34 NQMF=       0 NMMI=      0 NMMIF=      0
                NMic=       0 NMicF=      0.
                    Isotopes and Nuclear Properties:
 (Nuclear quadrupole moments (NQMom) in fm**2, nuclear magnetic moments (NMagM)
  in nuclear magnetons)

  Atom         1           2           3           4           5           6           7           8           9          10
 IAtWgt=          12          12          12          12          12           1           1           1           1           1
 AtmWgt=  12.0000000  12.0000000  12.0000000  12.0000000  12.0000000   1.0078250   1.0078250   1.0078250   1.0078250   1.0078250
 NucSpn=           0           0           0           0           0           1           1           1           1           1
 AtZEff=   0.0000000   0.0000000   0.0000000   0.0000000   0.0000000   0.0000000   0.0000000   0.0000000   0.0000000   0.0000000
 NQMom=    0.0000000   0.0000000   0.0000000   0.0000000   0.0000000   0.0000000   0.0000000   0.0000000   0.0000000   0.0000000
 NMagM=    0.0000000   0.0000000   0.0000000   0.0000000   0.0000000   2.7928460   2.7928460   2.7928460   2.7928460   2.7928460
 AtZNuc=   6.0000000   6.0000000   6.0000000   6.0000000   6.0000000   1.0000000   1.0000000   1.0000000   1.0000000   1.0000000

  Atom        11          12          13          14          15          16          17          18          19          20
 IAtWgt=          16          16          16          16          12           1           1          16          12           1
 AtmWgt=  15.9949146  15.9949146  15.9949146  15.9949146  12.0000000   1.0078250   1.0078250  15.9949146  12.0000000   1.0078250
 NucSpn=           0           0           0           0           0           1           1           0           0           1
 AtZEff=   0.0000000   0.0000000   0.0000000   0.0000000   0.0000000   0.0000000   0.0000000   0.0000000   0.0000000   0.0000000
 NQMom=    0.0000000   0.0000000   0.0000000   0.0000000   0.0000000   0.0000000   0.0000000   0.0000000   0.0000000   0.0000000
 NMagM=    0.0000000   0.0000000   0.0000000   0.0000000   0.0000000   2.7928460   2.7928460   0.0000000   0.0000000   2.7928460
 AtZNuc=   8.0000000   8.0000000   8.0000000   8.0000000   6.0000000   1.0000000   1.0000000   8.0000000   6.0000000   1.0000000

  Atom        21          22          23          24          25          26          27          28          29          30
 IAtWgt=           1           1          12           1           1           1          12           1           1           1
 AtmWgt=   1.0078250   1.0078250  12.0000000   1.0078250   1.0078250   1.0078250  12.0000000   1.0078250   1.0078250   1.0078250
 NucSpn=           1           1           0           1           1           1           0           1           1           1
 AtZEff=   0.0000000   0.0000000   0.0000000   0.0000000   0.0000000   0.0000000   0.0000000   0.0000000   0.0000000   0.0000000
 NQMom=    0.0000000   0.0000000   0.0000000   0.0000000   0.0000000   0.0000000   0.0000000   0.0000000   0.0000000   0.0000000
 NMagM=    2.7928460   2.7928460   0.0000000   2.7928460   2.7928460   2.7928460   0.0000000   2.7928460   2.7928460   2.7928460
 AtZNuc=   1.0000000   1.0000000   6.0000000   1.0000000   1.0000000   1.0000000   6.0000000   1.0000000   1.0000000   1.0000000

  Atom        31          32          33          34
 IAtWgt=          12           1           1           1
 AtmWgt=  12.0000000   1.0078250   1.0078250   1.0078250
 NucSpn=           0           1           1           1
 AtZEff=   0.0000000   0.0000000   0.0000000   0.0000000
 NQMom=    0.0000000   0.0000000   0.0000000   0.0000000
 NMagM=    0.0000000   2.7928460   2.7928460   2.7928460
 AtZNuc=   6.0000000   1.0000000   1.0000000   1.0000000
 Leave Link  101 at Fri May 24 08:30:13 2019, MaxMem=   402653184 cpu:               1.4 elap:               0.6
 (Enter /n/sw/g16_nehalem/g16/l103.exe)

 GradGradGradGradGradGradGradGradGradGradGradGradGradGradGradGradGradGrad
 Berny optimization.
 Initialization pass.
                           ----------------------------
                           !    Initial Parameters    !
                           ! (Angstroms and Degrees)  !
 --------------------------                            --------------------------
 ! Name  Definition              Value          Derivative Info.                !
 --------------------------------------------------------------------------------
 ! R1    R(1,2)                  1.5801         estimate D2E/DX2                !
 ! R2    R(1,5)                  1.5624         estimate D2E/DX2                !
 ! R3    R(1,8)                  1.092          estimate D2E/DX2                !
 ! R4    R(1,13)                 1.3979         estimate D2E/DX2                !
 ! R5    R(2,3)                  1.4815         estimate D2E/DX2                !
 ! R6    R(2,7)                  1.1047         estimate D2E/DX2                !
 ! R7    R(2,12)                 1.3954         estimate D2E/DX2                !
 ! R8    R(3,6)                  1.0908         estimate D2E/DX2                !
 ! R9    R(3,11)                 1.2621         estimate D2E/DX2                !
 ! R10   R(4,5)                  1.5294         estimate D2E/DX2                !
 ! R11   R(4,9)                  1.0881         estimate D2E/DX2                !
 ! R12   R(4,11)                 1.5005         estimate D2E/DX2                !
 ! R13   R(4,15)                 1.5325         estimate D2E/DX2                !
 ! R14   R(5,10)                 1.0974         estimate D2E/DX2                !
 ! R15   R(5,14)                 1.4181         estimate D2E/DX2                !
 ! R16   R(12,19)                1.4344         estimate D2E/DX2                !
 ! R17   R(13,23)                1.4269         estimate D2E/DX2                !
 ! R18   R(14,27)                1.4283         estimate D2E/DX2                !
 ! R19   R(15,16)                1.1002         estimate D2E/DX2                !
 ! R20   R(15,17)                1.0992         estimate D2E/DX2                !
 ! R21   R(15,18)                1.4063         estimate D2E/DX2                !
 ! R22   R(18,31)                1.4278         estimate D2E/DX2                !
 ! R23   R(19,20)                1.0971         estimate D2E/DX2                !
 ! R24   R(19,21)                1.0902         estimate D2E/DX2                !
 ! R25   R(19,22)                1.0974         estimate D2E/DX2                !
 ! R26   R(23,24)                1.0993         estimate D2E/DX2                !
 ! R27   R(23,25)                1.091          estimate D2E/DX2                !
 ! R28   R(23,26)                1.0963         estimate D2E/DX2                !
 ! R29   R(27,28)                1.0978         estimate D2E/DX2                !
 ! R30   R(27,29)                1.0911         estimate D2E/DX2                !
 ! R31   R(27,30)                1.0977         estimate D2E/DX2                !
 ! R32   R(31,32)                1.0981         estimate D2E/DX2                !
 ! R33   R(31,33)                1.091          estimate D2E/DX2                !
 ! R34   R(31,34)                1.0978         estimate D2E/DX2                !
 ! A1    A(2,1,5)              112.2325         estimate D2E/DX2                !
 ! A2    A(2,1,8)              104.1011         estimate D2E/DX2                !
 ! A3    A(2,1,13)             111.8766         estimate D2E/DX2                !
 ! A4    A(5,1,8)              106.3898         estimate D2E/DX2                !
 ! A5    A(5,1,13)             116.1851         estimate D2E/DX2                !
 ! A6    A(8,1,13)             104.8492         estimate D2E/DX2                !
 ! A7    A(1,2,3)              110.9359         estimate D2E/DX2                !
 ! A8    A(1,2,7)              107.1897         estimate D2E/DX2                !
 ! A9    A(1,2,12)             109.5453         estimate D2E/DX2                !
 ! A10   A(3,2,7)              106.2941         estimate D2E/DX2                !
 ! A11   A(3,2,12)             110.5293         estimate D2E/DX2                !
 ! A12   A(7,2,12)             112.2732         estimate D2E/DX2                !
 ! A13   A(2,3,6)              121.1473         estimate D2E/DX2                !
 ! A14   A(2,3,11)             124.211          estimate D2E/DX2                !
 ! A15   A(6,3,11)             114.6047         estimate D2E/DX2                !
 ! A16   A(5,4,9)              108.455          estimate D2E/DX2                !
 ! A17   A(5,4,11)             108.7286         estimate D2E/DX2                !
 ! A18   A(5,4,15)             118.4639         estimate D2E/DX2                !
 ! A19   A(9,4,11)             102.0226         estimate D2E/DX2                !
 ! A20   A(9,4,15)             109.5745         estimate D2E/DX2                !
 ! A21   A(11,4,15)            108.3411         estimate D2E/DX2                !
 ! A22   A(1,5,4)              115.5499         estimate D2E/DX2                !
 ! A23   A(1,5,10)             109.4514         estimate D2E/DX2                !
 ! A24   A(1,5,14)             109.238          estimate D2E/DX2                !
 ! A25   A(4,5,10)             106.7356         estimate D2E/DX2                !
 ! A26   A(4,5,14)             104.5794         estimate D2E/DX2                !
 ! A27   A(10,5,14)            111.2072         estimate D2E/DX2                !
 ! A28   A(3,11,4)             119.672          estimate D2E/DX2                !
 ! A29   A(2,12,19)            115.1853         estimate D2E/DX2                !
 ! A30   A(1,13,23)            118.3765         estimate D2E/DX2                !
 ! A31   A(5,14,27)            114.1643         estimate D2E/DX2                !
 ! A32   A(4,15,16)            112.4514         estimate D2E/DX2                !
 ! A33   A(4,15,17)            108.5077         estimate D2E/DX2                !
 ! A34   A(4,15,18)            105.1894         estimate D2E/DX2                !
 ! A35   A(16,15,17)           107.5124         estimate D2E/DX2                !
 ! A36   A(16,15,18)           111.2832         estimate D2E/DX2                !
 ! A37   A(17,15,18)           111.9278         estimate D2E/DX2                !
 ! A38   A(15,18,31)           112.9531         estimate D2E/DX2                !
 ! A39   A(12,19,20)           110.7543         estimate D2E/DX2                !
 ! A40   A(12,19,21)           105.9897         estimate D2E/DX2                !
 ! A41   A(12,19,22)           111.5871         estimate D2E/DX2                !
 ! A42   A(20,19,21)           109.6503         estimate D2E/DX2                !
 ! A43   A(20,19,22)           109.4591         estimate D2E/DX2                !
 ! A44   A(21,19,22)           109.3307         estimate D2E/DX2                !
 ! A45   A(13,23,24)           111.6834         estimate D2E/DX2                !
 ! A46   A(13,23,25)           105.7618         estimate D2E/DX2                !
 ! A47   A(13,23,26)           112.3866         estimate D2E/DX2                !
 ! A48   A(24,23,25)           108.1764         estimate D2E/DX2                !
 ! A49   A(24,23,26)           109.4943         estimate D2E/DX2                !
 ! A50   A(25,23,26)           109.1696         estimate D2E/DX2                !
 ! A51   A(14,27,28)           110.7836         estimate D2E/DX2                !
 ! A52   A(14,27,29)           106.2344         estimate D2E/DX2                !
 ! A53   A(14,27,30)           112.033          estimate D2E/DX2                !
 ! A54   A(28,27,29)           109.6275         estimate D2E/DX2                !
 ! A55   A(28,27,30)           109.0561         estimate D2E/DX2                !
 ! A56   A(29,27,30)           109.0452         estimate D2E/DX2                !
 ! A57   A(18,31,32)           111.1314         estimate D2E/DX2                !
 ! A58   A(18,31,33)           106.4653         estimate D2E/DX2                !
 ! A59   A(18,31,34)           110.8981         estimate D2E/DX2                !
 ! A60   A(32,31,33)           109.4827         estimate D2E/DX2                !
 ! A61   A(32,31,34)           109.2296         estimate D2E/DX2                !
 ! A62   A(33,31,34)           109.5872         estimate D2E/DX2                !
 ! D1    D(5,1,2,3)            -28.9551         estimate D2E/DX2                !
 ! D2    D(5,1,2,7)             86.6902         estimate D2E/DX2                !
 ! D3    D(5,1,2,12)          -151.2484         estimate D2E/DX2                !
 ! D4    D(8,1,2,3)             85.6892         estimate D2E/DX2                !
 ! D5    D(8,1,2,7)           -158.6655         estimate D2E/DX2                !
 ! D6    D(8,1,2,12)           -36.6041         estimate D2E/DX2                !
 ! D7    D(13,1,2,3)          -161.6294         estimate D2E/DX2                !
 ! D8    D(13,1,2,7)           -45.9841         estimate D2E/DX2                !
 ! D9    D(13,1,2,12)           76.0773         estimate D2E/DX2                !
 ! D10   D(2,1,5,4)            -13.2328         estimate D2E/DX2                !
 ! D11   D(2,1,5,10)          -133.718          estimate D2E/DX2                !
 ! D12   D(2,1,5,14)           104.3052         estimate D2E/DX2                !
 ! D13   D(8,1,5,4)           -126.4722         estimate D2E/DX2                !
 ! D14   D(8,1,5,10)           113.0427         estimate D2E/DX2                !
 ! D15   D(8,1,5,14)            -8.9342         estimate D2E/DX2                !
 ! D16   D(13,1,5,4)           117.2763         estimate D2E/DX2                !
 ! D17   D(13,1,5,10)           -3.2088         estimate D2E/DX2                !
 ! D18   D(13,1,5,14)         -125.1857         estimate D2E/DX2                !
 ! D19   D(2,1,13,23)           67.9546         estimate D2E/DX2                !
 ! D20   D(5,1,13,23)          -62.7228         estimate D2E/DX2                !
 ! D21   D(8,1,13,23)         -179.8314         estimate D2E/DX2                !
 ! D22   D(1,2,3,6)           -136.3408         estimate D2E/DX2                !
 ! D23   D(1,2,3,11)            41.3251         estimate D2E/DX2                !
 ! D24   D(7,2,3,6)            107.4596         estimate D2E/DX2                !
 ! D25   D(7,2,3,11)           -74.8745         estimate D2E/DX2                !
 ! D26   D(12,2,3,6)           -14.6217         estimate D2E/DX2                !
 ! D27   D(12,2,3,11)          163.0442         estimate D2E/DX2                !
 ! D28   D(1,2,12,19)         -142.2638         estimate D2E/DX2                !
 ! D29   D(3,2,12,19)           95.2006         estimate D2E/DX2                !
 ! D30   D(7,2,12,19)          -23.2973         estimate D2E/DX2                !
 ! D31   D(2,3,11,4)            -3.5007         estimate D2E/DX2                !
 ! D32   D(6,3,11,4)           174.3023         estimate D2E/DX2                !
 ! D33   D(9,4,5,1)            158.4355         estimate D2E/DX2                !
 ! D34   D(9,4,5,10)           -79.615          estimate D2E/DX2                !
 ! D35   D(9,4,5,14)            38.3232         estimate D2E/DX2                !
 ! D36   D(11,4,5,1)            48.2529         estimate D2E/DX2                !
 ! D37   D(11,4,5,10)          170.2024         estimate D2E/DX2                !
 ! D38   D(11,4,5,14)          -71.8594         estimate D2E/DX2                !
 ! D39   D(15,4,5,1)           -75.9248         estimate D2E/DX2                !
 ! D40   D(15,4,5,10)           46.0247         estimate D2E/DX2                !
 ! D41   D(15,4,5,14)          163.9629         estimate D2E/DX2                !
 ! D42   D(5,4,11,3)           -42.3482         estimate D2E/DX2                !
 ! D43   D(9,4,11,3)          -156.802          estimate D2E/DX2                !
 ! D44   D(15,4,11,3)           87.6364         estimate D2E/DX2                !
 ! D45   D(5,4,15,16)           63.2281         estimate D2E/DX2                !
 ! D46   D(5,4,15,17)         -177.9773         estimate D2E/DX2                !
 ! D47   D(5,4,15,18)          -58.0473         estimate D2E/DX2                !
 ! D48   D(9,4,15,16)         -171.6757         estimate D2E/DX2                !
 ! D49   D(9,4,15,17)          -52.8811         estimate D2E/DX2                !
 ! D50   D(9,4,15,18)           67.049          estimate D2E/DX2                !
 ! D51   D(11,4,15,16)         -61.1402         estimate D2E/DX2                !
 ! D52   D(11,4,15,17)          57.6544         estimate D2E/DX2                !
 ! D53   D(11,4,15,18)         177.5844         estimate D2E/DX2                !
 ! D54   D(1,5,14,27)           80.3004         estimate D2E/DX2                !
 ! D55   D(4,5,14,27)         -155.4517         estimate D2E/DX2                !
 ! D56   D(10,5,14,27)         -40.6126         estimate D2E/DX2                !
 ! D57   D(2,12,19,20)          58.3771         estimate D2E/DX2                !
 ! D58   D(2,12,19,21)         177.2375         estimate D2E/DX2                !
 ! D59   D(2,12,19,22)         -63.8355         estimate D2E/DX2                !
 ! D60   D(1,13,23,24)         -69.9957         estimate D2E/DX2                !
 ! D61   D(1,13,23,25)         172.5501         estimate D2E/DX2                !
 ! D62   D(1,13,23,26)          53.5204         estimate D2E/DX2                !
 ! D63   D(5,14,27,28)          59.4408         estimate D2E/DX2                !
 ! D64   D(5,14,27,29)         178.4347         estimate D2E/DX2                !
 ! D65   D(5,14,27,30)         -62.5869         estimate D2E/DX2                !
 ! D66   D(4,15,18,31)        -169.4166         estimate D2E/DX2                !
 ! D67   D(16,15,18,31)         68.5476         estimate D2E/DX2                !
 ! D68   D(17,15,18,31)        -51.7796         estimate D2E/DX2                !
 ! D69   D(15,18,31,32)        -60.9067         estimate D2E/DX2                !
 ! D70   D(15,18,31,33)        179.9439         estimate D2E/DX2                !
 ! D71   D(15,18,31,34)         60.7976         estimate D2E/DX2                !
 --------------------------------------------------------------------------------
 Trust Radius=3.00D-01 FncErr=1.00D-07 GrdErr=1.00D-06 EigMax=2.50D+02 EigMin=1.00D-04
 Number of steps in this run=    177 maximum allowed number of steps=    204.
 GradGradGradGradGradGradGradGradGradGradGradGradGradGradGradGradGradGrad

 Leave Link  103 at Fri May 24 08:30:13 2019, MaxMem=   402653184 cpu:               0.3 elap:               0.1
 (Enter /n/sw/g16_nehalem/g16/l202.exe)
                          Input orientation:                          
 ---------------------------------------------------------------------
 Center     Atomic      Atomic             Coordinates (Angstroms)
 Number     Number       Type             X           Y           Z
 ---------------------------------------------------------------------
      1          6           0       -0.838150    0.572730    0.670867
      2          6           0       -1.529600   -0.498293   -0.262756
      3          6           0       -1.195029   -0.255195   -1.685390
      4          6           0        1.057053    0.309724   -1.112449
      5          6           0        0.498932    1.108855    0.066087
      6          1           0       -1.958420   -0.313124   -2.462380
      7          1           0       -1.097630   -1.482191   -0.006527
      8          1           0       -1.534735    1.413693    0.672318
      9          1           0        1.729598    0.952511   -1.676807
     10          1           0        1.275393    1.112207    0.841612
     11          8           0       -0.047996    0.070742   -2.098928
     12          8           0       -2.911391   -0.461412   -0.071810
     13          8           0       -0.786661    0.147897    2.001648
     14          8           0        0.287564    2.411161   -0.453829
     15          6           0        1.745914   -1.028943   -0.826330
     16          1           0        1.060415   -1.768721   -0.386692
     17          1           0        2.113568   -1.442208   -1.776216
     18          8           0        2.797941   -0.721093    0.054630
     19          6           0       -3.566621   -1.736978   -0.106197
     20          1           0       -3.154297   -2.406572    0.658764
     21          1           0       -4.617644   -1.540530    0.106516
     22          1           0       -3.477845   -2.210013   -1.092386
     23          6           0        0.057359   -0.954935    2.329265
     24          1           0       -0.331972   -1.899199    1.922687
     25          1           0        0.046642   -1.023115    3.418044
     26          1           0        1.088688   -0.807258    1.987944
     27          6           0        0.302459    3.444058    0.532587
     28          1           0        1.265375    3.465827    1.059293
     29          1           0        0.157867    4.382076   -0.005742
     30          1           0       -0.504918    3.324177    1.266594
     31          6           0        3.701099   -1.810292    0.245523
     32          1           0        3.187367   -2.679556    0.677151
     33          1           0        4.466954   -1.459114    0.938596
     34          1           0        4.169440   -2.101644   -0.703711
 ---------------------------------------------------------------------
                    Distance matrix (angstroms):
                    1          2          3          4          5
     1  C    0.000000
     2  C    1.580141   0.000000
     3  C    2.522849   1.481527   0.000000
     4  C    2.615565   2.840008   2.391499   0.000000
     5  C    1.562363   2.608832   2.792456   1.529397   0.000000
     6  H    3.443396   2.248671   1.090796   3.362043   3.801809
     7  H    2.179195   1.104675   2.081727   3.012753   3.044307
     8  H    1.091994   2.128399   2.908500   3.334892   2.143885
     9  H    3.499877   3.837544   3.164186   1.088114   2.139313
    10  H    2.187979   3.417795   3.789263   2.123677   1.097425
    11  O    2.923713   2.427031   1.262115   1.500462   2.462539
    12  O    2.432971   1.395409   2.364755   4.174461   3.757001
    13  O    1.397896   2.469220   3.731420   3.622578   2.514475
    14  O    2.431461   3.435625   3.290027   2.332795   1.418094
    15  C    3.388856   3.365739   3.160034   1.532456   2.630884
    16  H    3.194585   2.887477   3.010715   2.201515   2.966600
    17  H    4.331377   4.056379   3.516257   2.150832   3.536814
    18  O    3.908310   4.344880   4.380473   2.335669   2.938415
    19  C    3.658297   2.389206   3.211539   5.155569   4.965598
    20  H    3.773715   2.670275   3.736604   5.315160   5.104466
    21  H    4.366799   3.280036   4.071524   6.091921   5.761964
    22  H    4.221458   2.722853   3.063367   5.187945   5.307702
    23  C    2.426104   3.073359   4.263281   3.800545   3.094542
    24  H    2.816683   2.858848   4.057812   4.002597   3.631219
    25  H    3.297963   4.038349   5.308153   4.829364   3.998184
    26  H    2.711414   3.466488   4.360449   3.295616   2.777199
    27  C    3.092674   4.419405   4.565782   3.619338   2.389434
    28  H    3.598014   5.027320   5.237640   3.836776   2.670058
    29  H    3.995118   5.170261   5.114277   4.314787   3.291726
    30  H    2.834854   4.242660   4.690668   4.145664   2.712302
    31  C    5.144365   5.416632   5.488062   3.650964   4.336760
    32  H    5.175151   5.281204   5.537556   4.083712   4.685418
    33  H    5.687196   6.190726   6.355531   4.354652   4.806343
    34  H    5.841036   5.936685   5.757655   3.958373   4.936853
                    6          7          8          9         10
     6  H    0.000000
     7  H    2.852874   0.000000
     8  H    3.603850   3.006333   0.000000
     9  H    3.977491   4.087888   4.048079   0.000000
    10  H    4.837921   3.616833   2.831320   2.564028   0.000000
    11  O    1.982213   2.809177   3.419607   2.028680   3.388626
    12  O    2.577784   2.082302   2.442320   5.110183   4.565060
    13  O    4.638222   2.605121   1.982164   4.528796   2.554925
    14  O    4.062075   4.156565   2.363033   2.388053   2.083568
    15  C    4.112316   2.993869   4.356039   2.156325   2.754622
    16  H    3.942158   2.209928   4.240762   3.085013   3.139218
    17  H    4.280974   3.666768   5.240382   2.427343   3.752412
    18  O    5.396735   3.969696   4.869387   2.634422   2.509678
    19  C    3.188302   2.484103   3.829017   6.144111   5.697482
    20  H    3.943880   2.350951   4.149408   6.371088   5.660158
    21  H    3.895796   3.522312   4.307191   7.048615   6.504250
    22  H    2.789933   2.715555   4.474495   6.120504   6.113163
    23  C    5.237857   2.658557   3.300096   4.741661   2.823082
    24  H    4.938601   2.117072   3.739694   5.033754   3.580630
    25  H    6.253299   3.639752   3.997224   5.717775   3.564748
    26  H    5.416126   3.035364   3.680468   4.115574   2.243498
    27  C    5.310162   5.149643   2.741749   3.622976   2.545511
    28  H    6.088966   5.585933   3.493082   3.744129   2.363686
    29  H    5.706018   5.997158   3.483671   4.126101   3.557937
    30  H    5.408130   5.007326   2.250252   4.391067   2.871050
    31  C    6.450148   4.816532   6.163618   3.900673   3.844525
    32  H    6.475784   4.501366   6.249237   4.567069   4.249725
    33  H    7.359712   5.644323   6.659144   4.488807   4.099654
    34  H    6.621359   5.349001   6.840224   4.028350   4.592643
                   11         12         13         14         15
    11  O    0.000000
    12  O    3.548440   0.000000
    13  O    4.167290   3.030670   0.000000
    14  O    2.880367   4.316356   3.507947   0.000000
    15  C    2.459050   4.752040   3.974462   3.754978   0.000000
    16  H    2.746625   4.193263   3.576211   4.251261   1.100210
    17  H    2.658105   5.396033   5.021157   4.464465   1.099200
    18  O    3.655704   5.716633   4.170779   4.046176   1.406280
    19  C    4.429396   1.434426   3.965343   5.672975   5.407674
    20  H    4.836430   2.091982   3.732874   6.024518   5.302399
    21  H    5.323708   2.026720   4.595513   6.323837   6.451883
    22  H    4.240146   2.102392   4.730249   5.995107   5.362217
    23  C    4.546648   3.849961   1.426864   4.373695   3.579731
    24  H    4.487170   3.563517   2.098471   4.960933   3.554160
    25  H    5.625163   4.609181   2.017880   5.181090   4.571900
    26  H    4.331912   4.512519   2.104624   4.118528   2.898487
    27  C    4.292662   5.093802   3.769483   1.428326   4.892643
    28  H    4.819326   5.843627   4.013421   2.087576   4.897903
    29  H    4.797021   5.734465   4.780169   2.025366   5.698630
    30  H    4.703228   4.681145   3.272375   2.102732   5.328811
    31  C    4.805253   6.756123   5.201776   5.473754   2.362652
    32  H    5.073296   6.532684   5.053878   5.966856   2.657586
    33  H    5.652591   7.513741   5.595805   5.863888   3.271707
    34  H    4.944963   7.295740   6.078021   5.957920   2.653149
                   16         17         18         19         20
    16  H    0.000000
    17  H    1.773843   0.000000
    18  O    2.076364   2.083356   0.000000
    19  C    4.635639   5.927934   6.447134   0.000000
    20  H    4.389035   5.882986   6.215702   1.097056   0.000000
    21  H    5.704006   6.990248   7.460903   1.090178   1.787845
    22  H    4.613951   5.685160   6.551185   1.097366   1.791604
    23  C    3.007456   4.617402   3.569235   4.435797   3.900328
    24  H    2.699814   4.457734   3.830656   3.821733   3.133759
    25  H    4.007453   5.606082   4.355849   5.097602   4.446750
    26  H    2.562051   3.952523   2.581990   5.188613   4.725193
    27  C    5.347208   5.699674   4.878971   6.497766   6.796687
    28  H    5.434462   5.731348   4.570384   7.195536   7.360638
    29  H    6.228324   6.393874   5.745952   7.164128   7.582726
    30  H    5.578641   6.231660   5.361151   6.072386   6.342724
    31  C    2.715628   2.596761   1.427757   7.276595   6.893676
    32  H    2.546627   2.950099   2.091593   6.864287   6.347563
    33  H    3.668345   3.592898   2.027727   8.105993   7.685015
    34  H    3.142829   2.410754   2.088543   7.767667   7.455632
                   21         22         23         24         25
    21  H    0.000000
    22  H    1.784577   0.000000
    23  C    5.209529   5.077458   0.000000
    24  H    4.668416   4.368499   1.099327   0.000000
    25  H    5.743649   5.845914   1.090964   1.773969   0.000000
    26  H    6.053072   5.684134   1.096334   1.793005   1.782594
    27  C    7.016770   6.992836   4.758074   5.557452   5.324184
    28  H    7.783399   7.703442   4.755551   5.663962   5.215325
    29  H    7.608901   7.606237   5.826324   6.588869   6.399279
    30  H    6.475003   6.710465   4.444797   5.267260   4.881793
    31  C    8.324277   7.313482   4.283743   4.368804   4.903019
    32  H    7.908300   6.912075   3.937099   3.813930   4.485582
    33  H    9.122988   8.234596   4.651095   4.918516   5.086936
    34  H    8.842181   7.657923   5.236707   5.215521   5.928706
                   26         27         28         29         30
    26  H    0.000000
    27  C    4.561788   0.000000
    28  H    4.376399   1.097771   0.000000
    29  H    5.636524   1.091138   1.788962   0.000000
    30  H    4.486500   1.097723   1.788009   1.782491   0.000000
    31  C    3.296483   6.264292   5.867913   7.138841   6.715351
    32  H    3.102923   6.770690   6.450257   7.714328   7.072851
    33  H    3.597044   6.445848   5.875348   7.319802   6.907023
    34  H    4.290859   6.872902   6.522155   7.656272   7.427736
                   31         32         33         34
    31  C    0.000000
    32  H    1.098109   0.000000
    33  H    1.090967   1.787505   0.000000
    34  H    1.097850   1.790315   1.788444   0.000000
 Stoichiometry    C10H19O5(1+)
 Framework group  C1[X(C10H19O5)]
 Deg. of freedom    96
 Full point group                 C1      NOp   1
 Largest Abelian subgroup         C1      NOp   1
 Largest concise Abelian subgroup C1      NOp   1
                         Standard orientation:                         
 ---------------------------------------------------------------------
 Center     Atomic      Atomic             Coordinates (Angstroms)
 Number     Number       Type             X           Y           Z
 ---------------------------------------------------------------------
      1          6           0       -0.838150    0.572730    0.670867
      2          6           0       -1.529600   -0.498293   -0.262756
      3          6           0       -1.195029   -0.255195   -1.685390
      4          6           0        1.057053    0.309724   -1.112449
      5          6           0        0.498932    1.108855    0.066087
      6          1           0       -1.958420   -0.313124   -2.462380
      7          1           0       -1.097630   -1.482191   -0.006527
      8          1           0       -1.534735    1.413693    0.672318
      9          1           0        1.729598    0.952511   -1.676807
     10          1           0        1.275393    1.112207    0.841612
     11          8           0       -0.047996    0.070742   -2.098928
     12          8           0       -2.911391   -0.461412   -0.071810
     13          8           0       -0.786661    0.147897    2.001648
     14          8           0        0.287564    2.411161   -0.453829
     15          6           0        1.745914   -1.028943   -0.826330
     16          1           0        1.060415   -1.768721   -0.386692
     17          1           0        2.113568   -1.442208   -1.776216
     18          8           0        2.797941   -0.721093    0.054630
     19          6           0       -3.566621   -1.736978   -0.106197
     20          1           0       -3.154297   -2.406572    0.658764
     21          1           0       -4.617644   -1.540530    0.106516
     22          1           0       -3.477845   -2.210013   -1.092386
     23          6           0        0.057359   -0.954935    2.329265
     24          1           0       -0.331972   -1.899199    1.922687
     25          1           0        0.046642   -1.023115    3.418044
     26          1           0        1.088688   -0.807258    1.987944
     27          6           0        0.302459    3.444058    0.532587
     28          1           0        1.265375    3.465827    1.059293
     29          1           0        0.157867    4.382076   -0.005742
     30          1           0       -0.504918    3.324177    1.266594
     31          6           0        3.701099   -1.810292    0.245523
     32          1           0        3.187367   -2.679556    0.677151
     33          1           0        4.466954   -1.459114    0.938596
     34          1           0        4.169440   -2.101644   -0.703711
 ---------------------------------------------------------------------
 Rotational constants (GHZ):           0.6593436           0.4516135           0.3991607
 Leave Link  202 at Fri May 24 08:30:13 2019, MaxMem=   402653184 cpu:               0.3 elap:               0.1
 (Enter /n/sw/g16_nehalem/g16/l301.exe)
 Standard basis: 6-31G(d) (6D, 7F)
 Ernie: Thresh=  0.10000D-02 Tol=  0.10000D-05 Strict=F.
 There are   263 symmetry adapted cartesian basis functions of A   symmetry.
 There are   263 symmetry adapted basis functions of A   symmetry.
   263 basis functions,   496 primitive gaussians,   263 cartesian basis functions
    59 alpha electrons       59 beta electrons
       nuclear repulsion energy      1166.1613148171 Hartrees.
 IExCor=  402 DFT=T Ex+Corr=B3LYP ExCW=0 ScaHFX=  0.200000
 ScaDFX=  0.800000  0.720000  1.000000  0.810000 ScalE2=  1.000000  1.000000
 IRadAn=      5 IRanWt=     -1 IRanGd=            0 ICorTp=0 IEmpDi=  4
 NAtoms=   34 NActive=   34 NUniq=   34 SFac= 1.00D+00 NAtFMM=   60 NAOKFM=F Big=F
 Integral buffers will be    131072 words long.
 Raffenetti 2 integral format.
 Two-electron integral symmetry is turned on.
 ------------------------------------------------------------------------------
 Polarizable Continuum Model (PCM)
 =================================
 Model                : PCM.
 Atomic radii         : UFF (Universal Force Field).
 Polarization charges : Total charges.
 Charge compensation  : None.
 Solution method      : On-the-fly selection.
 Cavity type          : Scaled VdW (van der Waals Surface) (Alpha=1.100).
 Cavity algorithm     : GePol (No added spheres)
                        Default sphere list used, NSphG=   34.
                        Lebedev-Laikov grids with approx.  5.0 points / Ang**2.
                        Smoothing algorithm: York/Karplus (Gamma=1.0000).
                        Polarization charges: spherical gaussians, with
                                              point-specific exponents (IZeta= 3).
                        Self-potential: point-specific (ISelfS= 7).
                        Self-field    : sphere-specific E.n sum rule (ISelfD= 2).
 1st derivatives      : Analytical E(r).r(x)/FMM algorithm (CHGder, D1EAlg=3).
                        Cavity 1st derivative terms included.
 Solvent              : TetraHydroFuran, Eps=   7.425700 Eps(inf)=   1.974025
 ------------------------------------------------------------------------------
 GePol: Number of generator spheres                  =      34
 GePol: Total number of spheres                      =      34
 GePol: Number of exposed spheres                    =      34 (100.00%)
 GePol: Number of points                             =    2290
 GePol: Average weight of points                     =       0.13
 GePol: Minimum weight of points                     =   0.45D-10
 GePol: Maximum weight of points                     =    0.20577
 GePol: Number of points with low weight             =     155
 GePol: Fraction of low-weight points (<1% of avg)   =       6.77%
 GePol: Cavity surface area                          =    299.504 Ang**2
 GePol: Cavity volume                                =    320.193 Ang**3
 Leave Link  301 at Fri May 24 08:30:13 2019, MaxMem=   402653184 cpu:               0.7 elap:               0.4
 (Enter /n/sw/g16_nehalem/g16/l302.exe)
 NPDir=0 NMtPBC=     1 NCelOv=     1 NCel=       1 NClECP=     1 NCelD=      1
         NCelK=      1 NCelE2=     1 NClLst=     1 CellRange=     0.0.
 One-electron integrals computed using PRISM.
 One-electron integral symmetry used in STVInt
 NBasis=   263 RedAO= T EigKep=  1.40D-03  NBF=   263
 NBsUse=   263 1.00D-06 EigRej= -1.00D+00 NBFU=   263
 Precomputing XC quadrature grid using
 IXCGrd= 4 IRadAn=           5 IRanWt=          -1 IRanGd=           0 AccXCQ= 0.00D+00.
 Generated NRdTot=       0 NPtTot=           0 NUsed=           0 NTot=          32
 NSgBfM=   262   262   262   262   262 MxSgAt=    34 MxSgA2=    34.
 Leave Link  302 at Fri May 24 08:30:15 2019, MaxMem=   402653184 cpu:               7.3 elap:               2.0
 (Enter /n/sw/g16_nehalem/g16/l303.exe)
 DipDrv:  MaxL=1.
 Leave Link  303 at Fri May 24 08:30:16 2019, MaxMem=   402653184 cpu:               0.6 elap:               0.2
 (Enter /n/sw/g16_nehalem/g16/l401.exe)
 ExpMin= 1.61D-01 ExpMax= 5.48D+03 ExpMxC= 8.25D+02 IAcc=3 IRadAn=         5 AccDes= 0.00D+00
 Harris functional with IExCor=  402 and IRadAn=       5 diagonalized for initial guess.
 HarFok:  IExCor=  402 AccDes= 0.00D+00 IRadAn=         5 IDoV= 1 UseB2=F ITyADJ=14
 ICtDFT=  3500011 ScaDFX=  1.000000  1.000000  1.000000  1.000000
 FoFCou: FMM=F IPFlag=           0 FMFlag=      100000 FMFlg1=           0
         NFxFlg=           0 DoJE=T BraDBF=F KetDBF=T FulRan=T
         wScrn=  0.000000 ICntrl=       500 IOpCl=  0 I1Cent=   200000004 NGrid=           0
         NMat0=    1 NMatS0=      1 NMatT0=    0 NMatD0=    1 NMtDS0=    0 NMtDT0=    0
 Petite list used in FoFCou.
 Harris En= -768.254267226899    
 JPrj=0 DoOrth=F DoCkMO=F.
 Leave Link  401 at Fri May 24 08:30:28 2019, MaxMem=   402653184 cpu:              44.5 elap:              11.8
 (Enter /n/sw/g16_nehalem/g16/l502.exe)
 Integral symmetry usage will be decided dynamically.
 Closed shell SCF:
 Using DIIS extrapolation, IDIIS=  1040.
 NGot=   402653184 LenX=   402510103 LenY=   402440493
 Requested convergence on RMS density matrix=1.00D-08 within 128 cycles.
 Requested convergence on MAX density matrix=1.00D-06.
 Requested convergence on             energy=1.00D-06.
 No special actions if energy rises.
 Fock matrices will be formed incrementally for  20 cycles.

 Cycle   1  Pass 1  IDiag  1:
 FoFJK:  IHMeth= 1 ICntrl=       0 DoSepK=F KAlg= 0 I1Cent=           0 FoldK=F
 IRaf= 890000000 NMat=       1 IRICut=       1 DoRegI=T DoRafI=F ISym2E= 0 IDoP0=0 IntGTp=1.
 FoFCou: FMM=F IPFlag=           0 FMFlag=      100000 FMFlg1=           0
         NFxFlg=           0 DoJE=F BraDBF=F KetDBF=F FulRan=T
         wScrn=  0.000000 ICntrl=         0 IOpCl=  0 I1Cent=           0 NGrid=           0
         NMat0=    1 NMatS0=      1 NMatT0=    0 NMatD0=    1 NMtDS0=    0 NMtDT0=    0
 Symmetry not used in FoFCou.
 Inv3:  Mode=1 IEnd=    15732300.
 Iteration    1 A*A^-1 deviation from unit magnitude is 7.22D-15 for   2279.
 Iteration    1 A*A^-1 deviation from orthogonality  is 2.94D-15 for   1713    558.
 Iteration    1 A^-1*A deviation from unit magnitude is 7.22D-15 for   2279.
 Iteration    1 A^-1*A deviation from orthogonality  is 1.07D-15 for   2157   1213.
 E= -768.083026361284    
 DIIS: error= 2.69D-02 at cycle   1 NSaved=   1.
 NSaved= 1 IEnMin= 1 EnMin= -768.083026361284     IErMin= 1 ErrMin= 2.69D-02
 ErrMax= 2.69D-02  0.00D+00 EMaxC= 1.00D-01 BMatC= 2.56D-01 BMatP= 2.56D-01
 IDIUse=3 WtCom= 7.31D-01 WtEn= 2.69D-01
 Coeff-Com:  0.100D+01
 Coeff-En:   0.100D+01
 Coeff:      0.100D+01
 Gap=     0.015 Goal=   None    Shift=    0.000
 GapD=    0.015 DampG=0.250 DampE=0.500 DampFc=0.2500 IDamp=-1.
 Damping current iteration by 2.50D-01
 RMSDP=4.93D-03 MaxDP=1.46D-01              OVMax= 4.57D-01

 Cycle   2  Pass 1  IDiag  1:
 RMSU=  1.23D-03    CP:  9.95D-01
 E= -768.155961157743     Delta-E=       -0.072934796459 Rises=F Damp=T
 DIIS: error= 1.30D-02 at cycle   2 NSaved=   2.
 NSaved= 2 IEnMin= 2 EnMin= -768.155961157743     IErMin= 2 ErrMin= 1.30D-02
 ErrMax= 1.30D-02  0.00D+00 EMaxC= 1.00D-01 BMatC= 6.85D-02 BMatP= 2.56D-01
 IDIUse=3 WtCom= 8.70D-01 WtEn= 1.30D-01
 Coeff-Com: -0.658D+00 0.166D+01
 Coeff-En:   0.000D+00 0.100D+01
 Coeff:     -0.573D+00 0.157D+01
 Gap=     0.106 Goal=   None    Shift=    0.000
 RMSDP=1.46D-03 MaxDP=4.24D-02 DE=-7.29D-02 OVMax= 4.33D-01

 Cycle   3  Pass 1  IDiag  1:
 RMSU=  1.43D-03    CP:  9.86D-01  1.19D+00
 E= -768.282297503379     Delta-E=       -0.126336345637 Rises=F Damp=F
 DIIS: error= 7.13D-03 at cycle   3 NSaved=   3.
 NSaved= 3 IEnMin= 3 EnMin= -768.282297503379     IErMin= 3 ErrMin= 7.13D-03
 ErrMax= 7.13D-03  0.00D+00 EMaxC= 1.00D-01 BMatC= 4.49D-02 BMatP= 6.85D-02
 IDIUse=3 WtCom= 9.29D-01 WtEn= 7.13D-02
 Coeff-Com: -0.488D+00 0.100D+01 0.484D+00
 Coeff-En:   0.000D+00 0.000D+00 0.100D+01
 Coeff:     -0.453D+00 0.932D+00 0.521D+00
 Gap=     0.149 Goal=   None    Shift=    0.000
 RMSDP=8.47D-04 MaxDP=2.91D-02 DE=-1.26D-01 OVMax= 5.27D-02

 Cycle   4  Pass 1  IDiag  1:
 RMSU=  6.06D-04    CP:  9.90D-01  1.39D+00  6.28D-01
 E= -768.319622642328     Delta-E=       -0.037325138949 Rises=F Damp=F
 DIIS: error= 2.62D-03 at cycle   4 NSaved=   4.
 NSaved= 4 IEnMin= 4 EnMin= -768.319622642328     IErMin= 4 ErrMin= 2.62D-03
 ErrMax= 2.62D-03  0.00D+00 EMaxC= 1.00D-01 BMatC= 3.03D-03 BMatP= 4.49D-02
 IDIUse=3 WtCom= 9.74D-01 WtEn= 2.62D-02
 Coeff-Com: -0.215D+00 0.365D+00 0.211D+00 0.639D+00
 Coeff-En:   0.000D+00 0.000D+00 0.000D+00 0.100D+01
 Coeff:     -0.210D+00 0.356D+00 0.206D+00 0.648D+00
 Gap=     0.132 Goal=   None    Shift=    0.000
 RMSDP=2.22D-04 MaxDP=1.21D-02 DE=-3.73D-02 OVMax= 1.09D-02

 Cycle   5  Pass 1  IDiag  1:
 RMSU=  1.91D-04    CP:  9.90D-01  1.42D+00  6.77D-01  8.78D-01
 E= -768.321633506607     Delta-E=       -0.002010864279 Rises=F Damp=F
 DIIS: error= 1.12D-03 at cycle   5 NSaved=   5.
 NSaved= 5 IEnMin= 5 EnMin= -768.321633506607     IErMin= 5 ErrMin= 1.12D-03
 ErrMax= 1.12D-03  0.00D+00 EMaxC= 1.00D-01 BMatC= 9.41D-04 BMatP= 3.03D-03
 IDIUse=3 WtCom= 9.89D-01 WtEn= 1.12D-02
 Coeff-Com: -0.951D-01 0.143D+00 0.462D-01 0.372D+00 0.534D+00
 Coeff-En:   0.000D+00 0.000D+00 0.000D+00 0.143D+00 0.857D+00
 Coeff:     -0.941D-01 0.141D+00 0.457D-01 0.369D+00 0.538D+00
 Gap=     0.132 Goal=   None    Shift=    0.000
 RMSDP=9.64D-05 MaxDP=6.44D-03 DE=-2.01D-03 OVMax= 4.82D-03

 Cycle   6  Pass 1  IDiag  1:
 RMSU=  6.96D-05    CP:  9.89D-01  1.44D+00  6.74D-01  9.52D-01  7.65D-01
 E= -768.322254162331     Delta-E=       -0.000620655724 Rises=F Damp=F
 DIIS: error= 3.72D-04 at cycle   6 NSaved=   6.
 NSaved= 6 IEnMin= 6 EnMin= -768.322254162331     IErMin= 6 ErrMin= 3.72D-04
 ErrMax= 3.72D-04  0.00D+00 EMaxC= 1.00D-01 BMatC= 1.22D-04 BMatP= 9.41D-04
 IDIUse=3 WtCom= 9.96D-01 WtEn= 3.72D-03
 Coeff-Com: -0.344D-01 0.444D-01-0.112D-01 0.138D+00 0.324D+00 0.539D+00
 Coeff-En:   0.000D+00 0.000D+00 0.000D+00 0.000D+00 0.000D+00 0.100D+01
 Coeff:     -0.343D-01 0.442D-01-0.111D-01 0.137D+00 0.323D+00 0.541D+00
 Gap=     0.132 Goal=   None    Shift=    0.000
 RMSDP=3.64D-05 MaxDP=2.22D-03 DE=-6.21D-04 OVMax= 1.93D-03

 Cycle   7  Pass 1  IDiag  1:
 RMSU=  2.61D-05    CP:  9.90D-01  1.44D+00  6.71D-01  9.82D-01  8.30D-01
                    CP:  8.49D-01
 E= -768.322347862443     Delta-E=       -0.000093700112 Rises=F Damp=F
 DIIS: error= 1.24D-04 at cycle   7 NSaved=   7.
 NSaved= 7 IEnMin= 7 EnMin= -768.322347862443     IErMin= 7 ErrMin= 1.24D-04
 ErrMax= 1.24D-04  0.00D+00 EMaxC= 1.00D-01 BMatC= 1.19D-05 BMatP= 1.22D-04
 IDIUse=3 WtCom= 9.99D-01 WtEn= 1.24D-03
 Coeff-Com: -0.911D-02 0.958D-02-0.161D-01 0.283D-01 0.114D+00 0.294D+00
 Coeff-Com:  0.580D+00
 Coeff-En:   0.000D+00 0.000D+00 0.000D+00 0.000D+00 0.000D+00 0.000D+00
 Coeff-En:   0.100D+01
 Coeff:     -0.910D-02 0.957D-02-0.161D-01 0.283D-01 0.114D+00 0.293D+00
 Coeff:      0.580D+00
 Gap=     0.131 Goal=   None    Shift=    0.000
 RMSDP=1.40D-05 MaxDP=6.18D-04 DE=-9.37D-05 OVMax= 6.95D-04

 Cycle   8  Pass 1  IDiag  1:
 RMSU=  8.38D-06    CP:  9.90D-01  1.45D+00  6.70D-01  9.93D-01  8.59D-01
                    CP:  9.01D-01  8.14D-01
 E= -768.322358616229     Delta-E=       -0.000010753786 Rises=F Damp=F
 DIIS: error= 3.01D-05 at cycle   8 NSaved=   8.
 NSaved= 8 IEnMin= 8 EnMin= -768.322358616229     IErMin= 8 ErrMin= 3.01D-05
 ErrMax= 3.01D-05  0.00D+00 EMaxC= 1.00D-01 BMatC= 8.80D-07 BMatP= 1.19D-05
 IDIUse=1 WtCom= 1.00D+00 WtEn= 0.00D+00
 Coeff-Com: -0.407D-03-0.538D-04-0.569D-02-0.684D-02 0.178D-02 0.395D-01
 Coeff-Com:  0.231D+00 0.741D+00
 Coeff:     -0.407D-03-0.538D-04-0.569D-02-0.684D-02 0.178D-02 0.395D-01
 Coeff:      0.231D+00 0.741D+00
 Gap=     0.131 Goal=   None    Shift=    0.000
 RMSDP=5.61D-06 MaxDP=2.08D-04 DE=-1.08D-05 OVMax= 7.02D-04

 Cycle   9  Pass 1  IDiag  1:
 RMSU=  3.20D-06    CP:  9.90D-01  1.44D+00  6.70D-01  9.98D-01  8.68D-01
                    CP:  9.30D-01  8.94D-01  1.01D+00
 E= -768.322359391930     Delta-E=       -0.000000775701 Rises=F Damp=F
 DIIS: error= 1.41D-05 at cycle   9 NSaved=   9.
 NSaved= 9 IEnMin= 9 EnMin= -768.322359391930     IErMin= 9 ErrMin= 1.41D-05
 ErrMax= 1.41D-05  0.00D+00 EMaxC= 1.00D-01 BMatC= 1.59D-07 BMatP= 8.80D-07
 IDIUse=1 WtCom= 1.00D+00 WtEn= 0.00D+00
 Coeff-Com:  0.243D-03-0.361D-03-0.162D-02-0.572D-02-0.920D-02-0.612D-02
 Coeff-Com:  0.694D-01 0.424D+00 0.529D+00
 Coeff:      0.243D-03-0.361D-03-0.162D-02-0.572D-02-0.920D-02-0.612D-02
 Coeff:      0.694D-01 0.424D+00 0.529D+00
 Gap=     0.131 Goal=   None    Shift=    0.000
 RMSDP=1.74D-06 MaxDP=4.87D-05 DE=-7.76D-07 OVMax= 1.86D-04

 Cycle  10  Pass 1  IDiag  1:
 RMSU=  1.02D-06    CP:  9.90D-01  1.44D+00  6.70D-01  9.98D-01  8.70D-01
                    CP:  9.40D-01  9.14D-01  1.06D+00  7.27D-01
 E= -768.322359529514     Delta-E=       -0.000000137584 Rises=F Damp=F
 DIIS: error= 2.27D-06 at cycle  10 NSaved=  10.
 NSaved=10 IEnMin=10 EnMin= -768.322359529514     IErMin=10 ErrMin= 2.27D-06
 ErrMax= 2.27D-06  0.00D+00 EMaxC= 1.00D-01 BMatC= 5.53D-09 BMatP= 1.59D-07
 IDIUse=1 WtCom= 1.00D+00 WtEn= 0.00D+00
 Coeff-Com:  0.195D-03-0.237D-03-0.115D-03-0.157D-02-0.404D-02-0.641D-02
 Coeff-Com: -0.134D-02 0.689D-01 0.158D+00 0.786D+00
 Coeff:      0.195D-03-0.237D-03-0.115D-03-0.157D-02-0.404D-02-0.641D-02
 Coeff:     -0.134D-02 0.689D-01 0.158D+00 0.786D+00
 Gap=     0.131 Goal=   None    Shift=    0.000
 RMSDP=6.45D-07 MaxDP=2.09D-05 DE=-1.38D-07 OVMax= 8.34D-05

 Cycle  11  Pass 1  IDiag  1:
 RMSU=  2.51D-07    CP:  9.90D-01  1.44D+00  6.70D-01  9.99D-01  8.71D-01
                    CP:  9.43D-01  9.23D-01  1.09D+00  7.75D-01  9.78D-01
 E= -768.322359537332     Delta-E=       -0.000000007817 Rises=F Damp=F
 DIIS: error= 5.97D-07 at cycle  11 NSaved=  11.
 NSaved=11 IEnMin=11 EnMin= -768.322359537332     IErMin=11 ErrMin= 5.97D-07
 ErrMax= 5.97D-07  0.00D+00 EMaxC= 1.00D-01 BMatC= 5.25D-10 BMatP= 5.53D-09
 IDIUse=1 WtCom= 1.00D+00 WtEn= 0.00D+00
 Coeff-Com:  0.407D-04-0.436D-04 0.454D-04-0.197D-03-0.963D-03-0.174D-02
 Coeff-Com: -0.522D-02 0.126D-02 0.264D-01 0.316D+00 0.664D+00
 Coeff:      0.407D-04-0.436D-04 0.454D-04-0.197D-03-0.963D-03-0.174D-02
 Coeff:     -0.522D-02 0.126D-02 0.264D-01 0.316D+00 0.664D+00
 Gap=     0.131 Goal=   None    Shift=    0.000
 RMSDP=1.61D-07 MaxDP=4.56D-06 DE=-7.82D-09 OVMax= 2.27D-05

 Cycle  12  Pass 1  IDiag  1:
 RMSU=  9.55D-08    CP:  9.90D-01  1.44D+00  6.70D-01  9.99D-01  8.71D-01
                    CP:  9.44D-01  9.24D-01  1.10D+00  7.88D-01  1.02D+00
                    CP:  8.60D-01
 E= -768.322359537830     Delta-E=       -0.000000000498 Rises=F Damp=F
 DIIS: error= 2.97D-07 at cycle  12 NSaved=  12.
 NSaved=12 IEnMin=12 EnMin= -768.322359537830     IErMin=12 ErrMin= 2.97D-07
 ErrMax= 2.97D-07  0.00D+00 EMaxC= 1.00D-01 BMatC= 1.07D-10 BMatP= 5.25D-10
 IDIUse=1 WtCom= 1.00D+00 WtEn= 0.00D+00
 Coeff-Com:  0.864D-05-0.948D-05 0.371D-04 0.718D-04-0.602D-04-0.114D-03
 Coeff-Com: -0.301D-02-0.867D-02-0.790D-02 0.634D-01 0.353D+00 0.603D+00
 Coeff:      0.864D-05-0.948D-05 0.371D-04 0.718D-04-0.602D-04-0.114D-03
 Coeff:     -0.301D-02-0.867D-02-0.790D-02 0.634D-01 0.353D+00 0.603D+00
 Gap=     0.131 Goal=   None    Shift=    0.000
 RMSDP=6.06D-08 MaxDP=2.55D-06 DE=-4.98D-10 OVMax= 6.10D-06

 Cycle  13  Pass 1  IDiag  1:
 RMSU=  2.79D-08    CP:  9.90D-01  1.44D+00  6.70D-01  9.99D-01  8.71D-01
                    CP:  9.44D-01  9.24D-01  1.10D+00  7.91D-01  1.04D+00
                    CP:  9.26D-01  7.09D-01
 E= -768.322359537973     Delta-E=       -0.000000000143 Rises=F Damp=F
 DIIS: error= 5.30D-08 at cycle  13 NSaved=  13.
 NSaved=13 IEnMin=13 EnMin= -768.322359537973     IErMin=13 ErrMin= 5.30D-08
 ErrMax= 5.30D-08  0.00D+00 EMaxC= 1.00D-01 BMatC= 3.65D-12 BMatP= 1.07D-10
 IDIUse=1 WtCom= 1.00D+00 WtEn= 0.00D+00
 Coeff-Com: -0.139D-05 0.192D-05 0.105D-04 0.471D-04 0.556D-04 0.123D-03
 Coeff-Com: -0.749D-03-0.314D-02-0.534D-02-0.522D-03 0.840D-01 0.221D+00
 Coeff-Com:  0.705D+00
 Coeff:     -0.139D-05 0.192D-05 0.105D-04 0.471D-04 0.556D-04 0.123D-03
 Coeff:     -0.749D-03-0.314D-02-0.534D-02-0.522D-03 0.840D-01 0.221D+00
 Coeff:      0.705D+00
 Gap=     0.131 Goal=   None    Shift=    0.000
 RMSDP=1.23D-08 MaxDP=3.00D-07 DE=-1.43D-10 OVMax= 1.24D-06

 Cycle  14  Pass 1  IDiag  1:
 RMSU=  7.91D-09    CP:  9.90D-01  1.44D+00  6.70D-01  9.99D-01  8.72D-01
                    CP:  9.44D-01  9.24D-01  1.10D+00  7.91D-01  1.04D+00
                    CP:  9.41D-01  7.61D-01  9.04D-01
 E= -768.322359537984     Delta-E=       -0.000000000011 Rises=F Damp=F
 DIIS: error= 2.97D-08 at cycle  14 NSaved=  14.
 NSaved=14 IEnMin=14 EnMin= -768.322359537984     IErMin=14 ErrMin= 2.97D-08
 ErrMax= 2.97D-08  0.00D+00 EMaxC= 1.00D-01 BMatC= 6.32D-13 BMatP= 3.65D-12
 IDIUse=1 WtCom= 1.00D+00 WtEn= 0.00D+00
 Coeff-Com: -0.104D-05 0.124D-05 0.112D-05 0.122D-04 0.251D-04 0.612D-04
 Coeff-Com: -0.559D-04-0.488D-03-0.169D-02-0.609D-02 0.466D-02 0.432D-01
 Coeff-Com:  0.339D+00 0.621D+00
 Coeff:     -0.104D-05 0.124D-05 0.112D-05 0.122D-04 0.251D-04 0.612D-04
 Coeff:     -0.559D-04-0.488D-03-0.169D-02-0.609D-02 0.466D-02 0.432D-01
 Coeff:      0.339D+00 0.621D+00
 Gap=     0.131 Goal=   None    Shift=    0.000
 RMSDP=3.87D-09 MaxDP=1.08D-07 DE=-1.14D-11 OVMax= 1.97D-07

 Error on total polarization charges =  0.01234
 SCF Done:  E(RB3LYP) =  -768.322359538     A.U. after   14 cycles
            NFock= 14  Conv=0.39D-08     -V/T= 2.0091
 KE= 7.614067338989D+02 PE=-4.107010935492D+03 EE= 1.411120527238D+03
 Leave Link  502 at Fri May 24 08:36:29 2019, MaxMem=   402653184 cpu:            1271.3 elap:             361.5
 (Enter /n/sw/g16_nehalem/g16/l601.exe)
 Copying SCF densities to generalized density rwf, IOpCl= 0 IROHF=0.

 **********************************************************************

            Population analysis using the SCF density.

 **********************************************************************

 Orbital symmetries:
       Occupied  (A) (A) (A) (A) (A) (A) (A) (A) (A) (A) (A) (A)
                 (A) (A) (A) (A) (A) (A) (A) (A) (A) (A) (A) (A)
                 (A) (A) (A) (A) (A) (A) (A) (A) (A) (A) (A) (A)
                 (A) (A) (A) (A) (A) (A) (A) (A) (A) (A) (A) (A)
                 (A) (A) (A) (A) (A) (A) (A) (A) (A) (A) (A)
       Virtual   (A) (A) (A) (A) (A) (A) (A) (A) (A) (A) (A) (A)
                 (A) (A) (A) (A) (A) (A) (A) (A) (A) (A) (A) (A)
                 (A) (A) (A) (A) (A) (A) (A) (A) (A) (A) (A) (A)
                 (A) (A) (A) (A) (A) (A) (A) (A) (A) (A) (A) (A)
                 (A) (A) (A) (A) (A) (A) (A) (A) (A) (A) (A) (A)
                 (A) (A) (A) (A) (A) (A) (A) (A) (A) (A) (A) (A)
                 (A) (A) (A) (A) (A) (A) (A) (A) (A) (A) (A) (A)
                 (A) (A) (A) (A) (A) (A) (A) (A) (A) (A) (A) (A)
                 (A) (A) (A) (A) (A) (A) (A) (A) (A) (A) (A) (A)
                 (A) (A) (A) (A) (A) (A) (A) (A) (A) (A) (A) (A)
                 (A) (A) (A) (A) (A) (A) (A) (A) (A) (A) (A) (A)
                 (A) (A) (A) (A) (A) (A) (A) (A) (A) (A) (A) (A)
                 (A) (A) (A) (A) (A) (A) (A) (A) (A) (A) (A) (A)
                 (A) (A) (A) (A) (A) (A) (A) (A) (A) (A) (A) (A)
                 (A) (A) (A) (A) (A) (A) (A) (A) (A) (A) (A) (A)
                 (A) (A) (A) (A) (A) (A) (A) (A) (A) (A) (A) (A)
                 (A) (A) (A) (A) (A) (A) (A) (A) (A) (A) (A) (A)
 The electronic state is 1-A.
 Alpha  occ. eigenvalues --  -19.32927 -19.20960 -19.19964 -19.19589 -19.19157
 Alpha  occ. eigenvalues --  -10.39535 -10.32281 -10.32123 -10.30272 -10.29615
 Alpha  occ. eigenvalues --  -10.28917 -10.26200 -10.25816 -10.25251 -10.25114
 Alpha  occ. eigenvalues --   -1.21750  -1.09999  -1.08276  -1.07733  -1.07072
 Alpha  occ. eigenvalues --   -0.87182  -0.85646  -0.77832  -0.75396  -0.74806
 Alpha  occ. eigenvalues --   -0.71470  -0.69065  -0.68173  -0.66974  -0.62104
 Alpha  occ. eigenvalues --   -0.60132  -0.59102  -0.56612  -0.54572  -0.53828
 Alpha  occ. eigenvalues --   -0.52839  -0.52683  -0.51496  -0.50762  -0.49016
 Alpha  occ. eigenvalues --   -0.48328  -0.48242  -0.47514  -0.46497  -0.45693
 Alpha  occ. eigenvalues --   -0.44714  -0.43223  -0.42174  -0.41831  -0.40765
 Alpha  occ. eigenvalues --   -0.39909  -0.37675  -0.36619  -0.36126  -0.35053
 Alpha  occ. eigenvalues --   -0.32151  -0.31670  -0.29892  -0.28542
 Alpha virt. eigenvalues --   -0.15435   0.00383   0.03425   0.03913   0.05445
 Alpha virt. eigenvalues --    0.07258   0.07695   0.08511   0.09012   0.09959
 Alpha virt. eigenvalues --    0.10060   0.11219   0.12259   0.12600   0.13268
 Alpha virt. eigenvalues --    0.13788   0.14310   0.14437   0.14507   0.15613
 Alpha virt. eigenvalues --    0.15913   0.16300   0.16468   0.17395   0.18057
 Alpha virt. eigenvalues --    0.18656   0.19310   0.20901   0.21570   0.22884
 Alpha virt. eigenvalues --    0.24153   0.24823   0.26403   0.27547   0.30793
 Alpha virt. eigenvalues --    0.43472   0.44868   0.46173   0.46988   0.47458
 Alpha virt. eigenvalues --    0.48815   0.49715   0.50147   0.51268   0.52015
 Alpha virt. eigenvalues --    0.52765   0.54388   0.54558   0.54864   0.55480
 Alpha virt. eigenvalues --    0.56574   0.57278   0.59552   0.60647   0.62186
 Alpha virt. eigenvalues --    0.62998   0.64017   0.67023   0.68410   0.71470
 Alpha virt. eigenvalues --    0.71832   0.72839   0.73901   0.75125   0.77392
 Alpha virt. eigenvalues --    0.77983   0.79532   0.80576   0.82184   0.82780
 Alpha virt. eigenvalues --    0.83074   0.83445   0.84007   0.84802   0.85105
 Alpha virt. eigenvalues --    0.85458   0.87344   0.87454   0.88868   0.89429
 Alpha virt. eigenvalues --    0.91080   0.92465   0.93114   0.93841   0.94721
 Alpha virt. eigenvalues --    0.95642   0.96861   0.97961   1.00700   1.02752
 Alpha virt. eigenvalues --    1.04138   1.06052   1.06727   1.08508   1.10730
 Alpha virt. eigenvalues --    1.14104   1.15083   1.16419   1.18255   1.19376
 Alpha virt. eigenvalues --    1.22824   1.25416   1.29330   1.30400   1.32767
 Alpha virt. eigenvalues --    1.33983   1.35476   1.38134   1.40184   1.41586
 Alpha virt. eigenvalues --    1.42696   1.44827   1.45958   1.48441   1.50682
 Alpha virt. eigenvalues --    1.51215   1.53393   1.55084   1.57202   1.57465
 Alpha virt. eigenvalues --    1.59114   1.62710   1.65063   1.68454   1.69333
 Alpha virt. eigenvalues --    1.73008   1.77195   1.78798   1.80305   1.82126
 Alpha virt. eigenvalues --    1.83204   1.84822   1.86198   1.89969   1.90695
 Alpha virt. eigenvalues --    1.91947   1.94311   1.96219   1.97555   1.99039
 Alpha virt. eigenvalues --    2.00205   2.01082   2.02002   2.03062   2.04174
 Alpha virt. eigenvalues --    2.04916   2.05922   2.07011   2.08676   2.09053
 Alpha virt. eigenvalues --    2.10664   2.12780   2.13750   2.14937   2.16580
 Alpha virt. eigenvalues --    2.18313   2.19336   2.23314   2.23968   2.25117
 Alpha virt. eigenvalues --    2.28436   2.31543   2.32835   2.35122   2.36141
 Alpha virt. eigenvalues --    2.37241   2.39652   2.42773   2.44853   2.46600
 Alpha virt. eigenvalues --    2.51142   2.51675   2.53826   2.55739   2.60418
 Alpha virt. eigenvalues --    2.64737   2.66244   2.67546   2.72397   2.74622
 Alpha virt. eigenvalues --    2.77645   2.82996   2.85503   2.89687   2.91771
 Alpha virt. eigenvalues --    2.94706   2.96382   3.01634   3.06178   3.82898
 Alpha virt. eigenvalues --    3.88836   3.94949   4.00486   4.04469   4.15288
 Alpha virt. eigenvalues --    4.21562   4.23232   4.23598   4.24514   4.30477
 Alpha virt. eigenvalues --    4.33559   4.47457   4.55393   4.72050
          Condensed to atoms (all electrons):
               1          2          3          4          5          6
     1  C    4.980497   0.263993  -0.039374  -0.030583   0.249016   0.001345
     2  C    0.263993   5.152392   0.276512  -0.005520  -0.042747  -0.038423
     3  C   -0.039374   0.276512   4.874580  -0.047686   0.001634   0.362247
     4  C   -0.030583  -0.005520  -0.047686   5.079298   0.312900   0.003220
     5  C    0.249016  -0.042747   0.001634   0.312900   5.106623  -0.000247
     6  H    0.001345  -0.038423   0.362247   0.003220  -0.000247   0.418638
     7  H   -0.025212   0.336916  -0.051411   0.002346  -0.003829   0.002282
     8  H    0.382381  -0.045812  -0.003185   0.003375  -0.045967  -0.000065
     9  H    0.003945  -0.000190   0.002944   0.364711  -0.037288  -0.000070
    10  H   -0.045361   0.002968   0.000612  -0.035239   0.355085   0.000014
    11  O   -0.005274  -0.025364   0.358276   0.131404  -0.029256  -0.033659
    12  O   -0.032909   0.196151  -0.031157   0.000166   0.002560   0.001939
    13  O    0.247509  -0.034028   0.002701   0.001590  -0.029738  -0.000039
    14  O   -0.040410   0.000491   0.006129  -0.045313   0.184247  -0.000006
    15  C    0.000663  -0.002068  -0.001818   0.316807  -0.038734  -0.000174
    16  H    0.002502  -0.001932   0.002858  -0.038166  -0.010345   0.000040
    17  H   -0.000212   0.000130   0.000152  -0.026667   0.005456  -0.000013
    18  O   -0.000052   0.000076  -0.000043  -0.041020  -0.001566   0.000001
    19  C    0.002850  -0.031319  -0.001939   0.000015  -0.000152   0.001354
    20  H   -0.000105  -0.009684  -0.000393   0.000004  -0.000016   0.000081
    21  H   -0.000140   0.004833  -0.000150   0.000000   0.000002  -0.000070
    22  H   -0.000015  -0.003370   0.003005  -0.000004   0.000022   0.000142
    23  C   -0.043908  -0.008182   0.000099   0.000396  -0.006742  -0.000004
    24  H   -0.006983   0.003588  -0.000654   0.000145  -0.000981   0.000006
    25  H    0.004553   0.000013   0.000000   0.000011   0.000021   0.000000
    26  H   -0.004619  -0.000860   0.000165  -0.004185   0.008645   0.000000
    27  C   -0.003348   0.000360  -0.000199   0.004397  -0.037659  -0.000002
    28  H   -0.001378  -0.000022   0.000018   0.000321  -0.007767   0.000000
    29  H   -0.000069   0.000007   0.000006  -0.000234   0.005242   0.000000
    30  H    0.007102  -0.000015  -0.000045  -0.000034  -0.006132   0.000000
    31  C   -0.000023   0.000001  -0.000002   0.004277   0.000205   0.000000
    32  H    0.000010  -0.000006   0.000002   0.000114  -0.000099   0.000000
    33  H   -0.000001   0.000000   0.000000  -0.000237   0.000016   0.000000
    34  H   -0.000001   0.000000   0.000000  -0.000055   0.000032   0.000000
               7          8          9         10         11         12
     1  C   -0.025212   0.382381   0.003945  -0.045361  -0.005274  -0.032909
     2  C    0.336916  -0.045812  -0.000190   0.002968  -0.025364   0.196151
     3  C   -0.051411  -0.003185   0.002944   0.000612   0.358276  -0.031157
     4  C    0.002346   0.003375   0.364711  -0.035239   0.131404   0.000166
     5  C   -0.003829  -0.045967  -0.037288   0.355085  -0.029256   0.002560
     6  H    0.002282  -0.000065  -0.000070   0.000014  -0.033659   0.001939
     7  H    0.521746   0.004651  -0.000018   0.000113   0.000413  -0.026682
     8  H    0.004651   0.506490  -0.000182   0.001913   0.000701   0.003077
     9  H   -0.000018  -0.000182   0.473263  -0.000907  -0.027854   0.000003
    10  H    0.000113   0.001913  -0.000907   0.519125   0.002405  -0.000045
    11  O    0.000413   0.000701  -0.027854   0.002405   7.959414   0.001622
    12  O   -0.026682   0.003077   0.000003  -0.000045   0.001622   8.224536
    13  O   -0.008216  -0.036296  -0.000070   0.002701   0.000036   0.001225
    14  O    0.000022   0.002149   0.005365  -0.027724  -0.001073  -0.000033
    15  C    0.000502   0.000072  -0.028594  -0.004215  -0.024062   0.000032
    16  H    0.005320  -0.000022   0.005012   0.000530   0.000494   0.000060
    17  H   -0.000082   0.000001  -0.008142   0.000259   0.001072  -0.000001
    18  O   -0.000105  -0.000006   0.004096   0.010424   0.000986   0.000000
    19  C   -0.004556  -0.000169   0.000000   0.000002  -0.000002   0.226514
    20  H    0.010581   0.000084   0.000000   0.000000   0.000012  -0.033034
    21  H   -0.000108  -0.000028   0.000000   0.000000   0.000001  -0.029373
    22  H   -0.000858   0.000011   0.000000   0.000000  -0.000123  -0.035086
    23  C    0.005407   0.005371  -0.000011   0.000212   0.000005   0.000013
    24  H    0.006964  -0.000239  -0.000003   0.000367   0.000017   0.000036
    25  H   -0.000183  -0.000138   0.000000  -0.000092   0.000000  -0.000011
    26  H   -0.000851  -0.000183   0.000044   0.002037  -0.000009   0.000004
    27  C   -0.000008   0.001482   0.000014  -0.004148   0.000022  -0.000004
    28  H    0.000000   0.000388  -0.000111   0.010673  -0.000003   0.000000
    29  H    0.000000  -0.000290  -0.000069  -0.000043   0.000003   0.000000
    30  H   -0.000002   0.001498   0.000069  -0.001558   0.000001   0.000000
    31  C    0.000005   0.000000  -0.000058  -0.000220  -0.000044   0.000000
    32  H    0.000006   0.000000   0.000034   0.000052   0.000003   0.000000
    33  H    0.000000   0.000000  -0.000005  -0.000021   0.000000   0.000000
    34  H   -0.000001   0.000000  -0.000061   0.000018  -0.000001   0.000000
              13         14         15         16         17         18
     1  C    0.247509  -0.040410   0.000663   0.002502  -0.000212  -0.000052
     2  C   -0.034028   0.000491  -0.002068  -0.001932   0.000130   0.000076
     3  C    0.002701   0.006129  -0.001818   0.002858   0.000152  -0.000043
     4  C    0.001590  -0.045313   0.316807  -0.038166  -0.026667  -0.041020
     5  C   -0.029738   0.184247  -0.038734  -0.010345   0.005456  -0.001566
     6  H   -0.000039  -0.000006  -0.000174   0.000040  -0.000013   0.000001
     7  H   -0.008216   0.000022   0.000502   0.005320  -0.000082  -0.000105
     8  H   -0.036296   0.002149   0.000072  -0.000022   0.000001  -0.000006
     9  H   -0.000070   0.005365  -0.028594   0.005012  -0.008142   0.004096
    10  H    0.002701  -0.027724  -0.004215   0.000530   0.000259   0.010424
    11  O    0.000036  -0.001073  -0.024062   0.000494   0.001072   0.000986
    12  O    0.001225  -0.000033   0.000032   0.000060  -0.000001   0.000000
    13  O    8.179982   0.001593   0.000282  -0.000450   0.000002   0.000040
    14  O    0.001593   8.268785   0.003095  -0.000029  -0.000054   0.000007
    15  C    0.000282   0.003095   4.925557   0.353015   0.359997   0.224505
    16  H   -0.000450  -0.000029   0.353015   0.611469  -0.050944  -0.041141
    17  H    0.000002  -0.000054   0.359997  -0.050944   0.557067  -0.031468
    18  O    0.000040   0.000007   0.224505  -0.041141  -0.031468   8.204454
    19  C   -0.000134   0.000000  -0.000006  -0.000008   0.000000   0.000000
    20  H    0.000153   0.000000  -0.000004   0.000000   0.000000   0.000000
    21  H    0.000001   0.000000   0.000000   0.000000   0.000000   0.000000
    22  H    0.000005   0.000000   0.000001  -0.000001   0.000000   0.000000
    23  C    0.236676   0.000063   0.000712   0.002598  -0.000060  -0.005208
    24  H   -0.037357  -0.000002  -0.000630   0.000777   0.000012   0.000046
    25  H   -0.030383   0.000001   0.000042  -0.000037   0.000000   0.000046
    26  H   -0.034503  -0.000027  -0.000942  -0.003235   0.000379   0.015971
    27  C   -0.000046   0.238212  -0.000175  -0.000002   0.000003   0.000013
    28  H    0.000098  -0.035469   0.000010   0.000000   0.000000  -0.000013
    29  H    0.000009  -0.030856   0.000001   0.000000   0.000000   0.000000
    30  H   -0.000313  -0.036243   0.000015   0.000000   0.000000   0.000000
    31  C    0.000000   0.000000  -0.037823  -0.002439  -0.005059   0.234240
    32  H   -0.000001   0.000000  -0.007951   0.009883  -0.002218  -0.034806
    33  H    0.000000   0.000000   0.005451  -0.000163  -0.000052  -0.030753
    34  H    0.000000   0.000000  -0.007412  -0.001992   0.011053  -0.034469
              19         20         21         22         23         24
     1  C    0.002850  -0.000105  -0.000140  -0.000015  -0.043908  -0.006983
     2  C   -0.031319  -0.009684   0.004833  -0.003370  -0.008182   0.003588
     3  C   -0.001939  -0.000393  -0.000150   0.003005   0.000099  -0.000654
     4  C    0.000015   0.000004   0.000000  -0.000004   0.000396   0.000145
     5  C   -0.000152  -0.000016   0.000002   0.000022  -0.006742  -0.000981
     6  H    0.001354   0.000081  -0.000070   0.000142  -0.000004   0.000006
     7  H   -0.004556   0.010581  -0.000108  -0.000858   0.005407   0.006964
     8  H   -0.000169   0.000084  -0.000028   0.000011   0.005371  -0.000239
     9  H    0.000000   0.000000   0.000000   0.000000  -0.000011  -0.000003
    10  H    0.000002   0.000000   0.000000   0.000000   0.000212   0.000367
    11  O   -0.000002   0.000012   0.000001  -0.000123   0.000005   0.000017
    12  O    0.226514  -0.033034  -0.029373  -0.035086   0.000013   0.000036
    13  O   -0.000134   0.000153   0.000001   0.000005   0.236676  -0.037357
    14  O    0.000000   0.000000   0.000000   0.000000   0.000063  -0.000002
    15  C   -0.000006  -0.000004   0.000000   0.000001   0.000712  -0.000630
    16  H   -0.000008   0.000000   0.000000  -0.000001   0.002598   0.000777
    17  H    0.000000   0.000000   0.000000   0.000000  -0.000060   0.000012
    18  O    0.000000   0.000000   0.000000   0.000000  -0.005208   0.000046
    19  C    4.917842   0.371167   0.386897   0.365930  -0.000104   0.000247
    20  H    0.371167   0.551762  -0.026124  -0.042269  -0.000070   0.000286
    21  H    0.386897  -0.026124   0.494818  -0.029445   0.000002  -0.000003
    22  H    0.365930  -0.042269  -0.029445   0.573902   0.000003  -0.000021
    23  C   -0.000104  -0.000070   0.000002   0.000003   4.976789   0.360759
    24  H    0.000247   0.000286  -0.000003  -0.000021   0.360759   0.586148
    25  H   -0.000002   0.000009   0.000000   0.000000   0.385504  -0.029620
    26  H   -0.000001   0.000004   0.000000   0.000000   0.349046  -0.044778
    27  C    0.000000   0.000000   0.000000   0.000000  -0.000017   0.000000
    28  H    0.000000   0.000000   0.000000   0.000000   0.000013   0.000000
    29  H    0.000000   0.000000   0.000000   0.000000   0.000000   0.000000
    30  H    0.000000   0.000000   0.000000   0.000000  -0.000019   0.000001
    31  C    0.000000   0.000000   0.000000   0.000000   0.000139  -0.000009
    32  H    0.000000   0.000000   0.000000   0.000000   0.000396   0.000048
    33  H    0.000000   0.000000   0.000000   0.000000   0.000016   0.000000
    34  H    0.000000   0.000000   0.000000   0.000000  -0.000019   0.000000
              25         26         27         28         29         30
     1  C    0.004553  -0.004619  -0.003348  -0.001378  -0.000069   0.007102
     2  C    0.000013  -0.000860   0.000360  -0.000022   0.000007  -0.000015
     3  C    0.000000   0.000165  -0.000199   0.000018   0.000006  -0.000045
     4  C    0.000011  -0.004185   0.004397   0.000321  -0.000234  -0.000034
     5  C    0.000021   0.008645  -0.037659  -0.007767   0.005242  -0.006132
     6  H    0.000000   0.000000  -0.000002   0.000000   0.000000   0.000000
     7  H   -0.000183  -0.000851  -0.000008   0.000000   0.000000  -0.000002
     8  H   -0.000138  -0.000183   0.001482   0.000388  -0.000290   0.001498
     9  H    0.000000   0.000044   0.000014  -0.000111  -0.000069   0.000069
    10  H   -0.000092   0.002037  -0.004148   0.010673  -0.000043  -0.001558
    11  O    0.000000  -0.000009   0.000022  -0.000003   0.000003   0.000001
    12  O   -0.000011   0.000004  -0.000004   0.000000   0.000000   0.000000
    13  O   -0.030383  -0.034503  -0.000046   0.000098   0.000009  -0.000313
    14  O    0.000001  -0.000027   0.238212  -0.035469  -0.030856  -0.036243
    15  C    0.000042  -0.000942  -0.000175   0.000010   0.000001   0.000015
    16  H   -0.000037  -0.003235  -0.000002   0.000000   0.000000   0.000000
    17  H    0.000000   0.000379   0.000003   0.000000   0.000000   0.000000
    18  O    0.000046   0.015971   0.000013  -0.000013   0.000000   0.000000
    19  C   -0.000002  -0.000001   0.000000   0.000000   0.000000   0.000000
    20  H    0.000009   0.000004   0.000000   0.000000   0.000000   0.000000
    21  H    0.000000   0.000000   0.000000   0.000000   0.000000   0.000000
    22  H    0.000000   0.000000   0.000000   0.000000   0.000000   0.000000
    23  C    0.385504   0.349046  -0.000017   0.000013   0.000000  -0.000019
    24  H   -0.029620  -0.044778   0.000000   0.000000   0.000000   0.000001
    25  H    0.497417  -0.025043   0.000001   0.000001   0.000000  -0.000004
    26  H   -0.025043   0.566988   0.000011  -0.000017   0.000000   0.000010
    27  C    0.000001   0.000011   4.906514   0.371743   0.386086   0.363721
    28  H    0.000001  -0.000017   0.371743   0.567413  -0.028396  -0.043956
    29  H    0.000000   0.000000   0.386086  -0.028396   0.512499  -0.030308
    30  H   -0.000004   0.000010   0.363721  -0.043956  -0.030308   0.582309
    31  C   -0.000002  -0.000253   0.000000   0.000000   0.000000   0.000000
    32  H   -0.000011  -0.000809   0.000000   0.000000   0.000000   0.000000
    33  H    0.000000  -0.000091   0.000000   0.000000   0.000000   0.000000
    34  H    0.000000   0.000142   0.000000   0.000000   0.000000   0.000000
              31         32         33         34
     1  C   -0.000023   0.000010  -0.000001  -0.000001
     2  C    0.000001  -0.000006   0.000000   0.000000
     3  C   -0.000002   0.000002   0.000000   0.000000
     4  C    0.004277   0.000114  -0.000237  -0.000055
     5  C    0.000205  -0.000099   0.000016   0.000032
     6  H    0.000000   0.000000   0.000000   0.000000
     7  H    0.000005   0.000006   0.000000  -0.000001
     8  H    0.000000   0.000000   0.000000   0.000000
     9  H   -0.000058   0.000034  -0.000005  -0.000061
    10  H   -0.000220   0.000052  -0.000021   0.000018
    11  O   -0.000044   0.000003   0.000000  -0.000001
    12  O    0.000000   0.000000   0.000000   0.000000
    13  O    0.000000  -0.000001   0.000000   0.000000
    14  O    0.000000   0.000000   0.000000   0.000000
    15  C   -0.037823  -0.007951   0.005451  -0.007412
    16  H   -0.002439   0.009883  -0.000163  -0.001992
    17  H   -0.005059  -0.002218  -0.000052   0.011053
    18  O    0.234240  -0.034806  -0.030753  -0.034469
    19  C    0.000000   0.000000   0.000000   0.000000
    20  H    0.000000   0.000000   0.000000   0.000000
    21  H    0.000000   0.000000   0.000000   0.000000
    22  H    0.000000   0.000000   0.000000   0.000000
    23  C    0.000139   0.000396   0.000016  -0.000019
    24  H   -0.000009   0.000048   0.000000   0.000000
    25  H   -0.000002  -0.000011   0.000000   0.000000
    26  H   -0.000253  -0.000809  -0.000091   0.000142
    27  C    0.000000   0.000000   0.000000   0.000000
    28  H    0.000000   0.000000   0.000000   0.000000
    29  H    0.000000   0.000000   0.000000   0.000000
    30  H    0.000000   0.000000   0.000000   0.000000
    31  C    4.896685   0.368101   0.386295   0.370607
    32  H    0.368101   0.580206  -0.029982  -0.043353
    33  H    0.386295  -0.029982   0.512348  -0.028644
    34  H    0.370607  -0.043353  -0.028644   0.569421
 Mulliken charges:
               1
     1  C    0.133608
     2  C    0.011109
     3  C    0.286114
     4  C    0.049444
     5  C    0.067559
     6  H    0.281462
     7  H    0.224847
     8  H    0.218936
     9  H    0.244132
    10  H    0.210061
    11  O   -0.310164
    12  O   -0.469603
    13  O   -0.463031
    14  O   -0.492922
    15  C   -0.036151
    16  H    0.156345
    17  H    0.189388
    18  O   -0.474253
    19  C   -0.234427
    20  H    0.177554
    21  H    0.198885
    22  H    0.168172
    23  C   -0.259875
    24  H    0.161832
    25  H    0.197909
    26  H    0.176958
    27  C   -0.226972
    28  H    0.166456
    29  H    0.186410
    30  H    0.163902
    31  C   -0.214624
    32  H    0.160380
    33  H    0.185822
    34  H    0.164734
 Sum of Mulliken charges =   1.00000
 Mulliken charges with hydrogens summed into heavy atoms:
               1
     1  C    0.352544
     2  C    0.235956
[...]
 00011513,0.00005016,0.00004467,0.00013369,-0.00000520,0.00000526,-0.00
 001354,0.00000191,-0.00002057,-0.00002085,0.00000382,0.00000144,-0.000
 01917,-0.00000751,-0.00006122,0.00019164,-0.00003403,0.00000502,-0.000
 03047,-0.00001701,-0.00000156,-0.00002124,0.00002832,-0.00001274,-0.00
 000638,-0.00003312,0.03024107,-0.24318778,0.11919628,0.00029860,0.0029
 8173,0.00032965,-0.03444431,0.27418029,0.00042941,-0.00026549,-0.00015
 041,-0.00005835,0.00005278,-0.00003167,0.00001302,0.00004656,0.0000100
 1,0.00023508,-0.00120444,0.00057848,-0.00011412,-0.00402193,-0.0026161
 1,-0.00000695,-0.00000444,0.00001256,0.00001458,0.00004853,0.00004332,
 -0.00026397,-0.00004132,0.00000970,0.00000223,0.00003303,-0.00000694,0
 .00025451,-0.00013336,0.00004269,0.00003863,0.00003439,0.00008459,-0.0
 0007577,-0.00004431,-0.00001139,-0.00008663,-0.00000186,0.00025978,0.0
 0391266,-0.03038714,0.01160972,0.00001698,-0.00004595,-0.00045244,-0.0
 0001019,0.00000807,0.00001094,0.00009345,-0.00011242,0.00003580,0.0000
 5410,-0.00002168,0.00003426,0.00000468,0.00002977,-0.00000314,0.000002
 11,-0.00000424,0.00000129,-0.00000431,-0.00000593,0.00000081,0.0000004
 5,-0.00000282,-0.00000061,0.00001917,-0.00001130,0.00001363,0.00000166
 ,0.00001794,0.00000250,-0.00000786,-0.00000418,0.00000745,-0.00001480,
 -0.00000312,-0.00002553,-0.02063481,0.13204518,-0.12826776,-0.00008564
 ,0.01139461,-0.00572036,0.02046152,-0.12441657,0.13330180,0.00028912,-
 0.00004491,-0.00069110,0.00021086,0.00010386,0.00015859,-0.00007366,-0
 .00016329,0.00003735,-0.00010124,0.00013074,-0.00004673,0.00053782,-0.
 00163980,0.00109455,0.00000858,0.00001605,-0.00001985,-0.00003369,-0.0
 0007130,-0.00003200,-0.00005538,-0.00036536,-0.00006354,0.00003128,0.0
 0000742,-0.00006172,-0.00039106,-0.00004345,-0.00023148,0.00003116,0.0
 0007462,0.00002332,-0.00000345,0.00000352,-0.00002535,-0.00011138,0.00
 007412,-0.00023818,0.00732748,0.00645974,0.00037157,0.00000320,-0.0000
 2328,0.00010152,-0.00000174,0.00001923,-0.00000930,-0.00001722,0.00002
 572,-0.00000768,-0.00001258,0.00004756,-0.00002125,-0.00000541,0.00000
 437,0.00000362,0.00000114,0.00000358,-0.00000123,0.00000050,-0.0000006
 0,-0.00000003,-0.00000145,-0.00000382,-0.00000249,-0.00006956,0.000161
 49,-0.00012044,0.00000574,-0.00004353,-0.00001166,-0.00000508,0.000017
 34,0.,0.00002144,-0.00001121,0.00001461,-0.19788871,-0.02918477,0.1221
 1201,-0.02058828,-0.00557133,0.01888819,0.00467141,0.00011477,-0.00416
 710,0.20620452,0.00010748,-0.00050572,-0.00046039,0.00004701,0.0003354
 3,0.00025036,0.00034743,0.00020022,-0.00032416,0.00037139,-0.00032432,
 0.00020981,0.00168843,0.00412209,-0.00156077,-0.00000899,-0.00003954,0
 .00000975,-0.00000950,0.00002046,0.00001854,-0.00091304,-0.00103181,-0
 .00043098,-0.00016448,0.00001388,0.00023385,0.00019211,-0.00051416,0.0
 0003071,-0.00029124,-0.00003597,0.00022570,0.00002708,0.00001406,0.000
 02856,-0.00030732,0.00016260,0.00035959,0.01954429,-0.00465070,-0.0271
 3595,-0.00017459,-0.00015200,-0.00014068,0.00003098,-0.00006501,0.0000
 1429,0.00002961,-0.00004202,0.00000911,0.00002075,-0.00000776,0.000008
 61,-0.00002619,-0.00004246,-0.00000506,0.00000008,0.00000486,0.0000001
 1,0.00000528,0.00000585,-0.00000194,-0.00000204,0.00000520,0.00000393,
 0.00012962,-0.00006065,0.00004160,-0.00002088,0.00003862,0.00000686,-0
 .00002119,0.00001780,-0.00001035,-0.00002972,0.00000745,-0.00000785,-0
 .03036022,-0.06014407,0.02907572,0.00163569,0.00186200,0.00053475,-0.0
 2174861,-0.00117760,0.01699472,0.02992010,0.06196942,0.00077898,-0.000
 81569,0.00050892,-0.00019747,0.00018040,-0.00001426,0.00029484,0.00025
 955,-0.00013613,0.00032056,-0.00043851,0.00039114,-0.00073155,0.004298
 83,-0.00111315,-0.00002200,-0.00001451,0.00002528,0.00003924,0.0001072
 1,0.00009014,-0.00059240,-0.00033329,-0.00015228,-0.00022358,0.0001267
 9,0.00027016,-0.00011395,-0.00055139,0.00028516,-0.00026668,-0.0001597
 2,-0.00001795,-0.00020143,-0.00010931,-0.00001567,-0.00032043,-0.00006
 947,0.00029820,0.01632312,-0.01162522,-0.02390524,-0.00024659,-0.00007
 167,-0.00029394,0.00004211,-0.00007712,0.00002881,0.00007241,-0.000096
 67,0.00001773,0.00013368,-0.00008597,0.00003631,-0.00000095,0.00005775
 ,-0.00000947,0.00000338,-0.00000363,0.00000246,-0.00001340,-0.00001660
 ,0.00000217,0.00000184,-0.00000451,-0.00000114,0.00001821,0.00006953,-
 0.00004882,-0.00000088,0.00000169,-0.00000452,-0.00001151,0.00000424,0
 .00001389,-0.00002764,0.00000374,-0.00002292,0.12053452,0.02524027,-0.
 15563464,-0.01116970,-0.00093348,0.01205902,0.01270260,0.00296767,-0.0
 0876668,-0.13706453,-0.01796869,0.17612885,-0.00037280,-0.00013330,0.0
 0027086,-0.00045283,0.00023670,-0.00024210,-0.00083079,0.00014627,0.00
 043671,-0.00476627,-0.00061439,-0.00241272,-0.00007376,0.00085541,-0.0
 0000469,0.00009602,0.00010581,-0.00005840,-0.00006119,-0.00026691,0.00
 005976,0.00010634,-0.00001584,-0.00003895,0.00013438,0.00049305,-0.000
 19543,-0.00037499,0.00058972,0.00061545,0.00190250,0.00006548,0.000042
 05,0.00075196,0.00013473,-0.00003309,0.00058744,-0.00023323,-0.0001751
 8,0.00032677,-0.00116556,-0.00016839,-0.03676991,0.02506305,-0.0135686
 7,0.00351104,0.00196686,0.00120274,0.00471151,-0.00017454,0.00320516,-
 0.12300254,0.05050908,-0.02412718,-0.00020790,-0.00036150,-0.00000762,
 -0.00001530,0.00003486,0.00000027,0.00005356,0.00003691,-0.00000485,-0
 .00000332,0.00004856,0.00001677,-0.00101729,-0.00007265,-0.00011409,0.
 00000485,0.00001027,0.00009006,0.00031063,-0.00001016,-0.00018544,-0.0
 0003845,0.00035994,0.00085721,0.00005758,0.00047684,0.00048740,-0.0000
 3876,-0.00000939,-0.00008175,0.00000407,-0.00011344,-0.00004137,0.0000
 2147,-0.00003306,-0.00009604,0.54984666,0.00025535,-0.00003604,-0.0007
 1571,0.00082651,0.00016456,0.00048554,0.00181595,0.00047994,-0.0012075
 4,-0.00037035,-0.00289802,-0.00005828,0.00015877,-0.00096614,-0.000630
 25,-0.00010785,-0.00036595,0.00008831,0.00009537,0.00025972,-0.0001673
 5,-0.00009124,0.00003049,0.00008729,0.00020904,-0.00012132,0.00007899,
 0.00018541,-0.00036500,-0.00020217,-0.00390772,0.00132792,-0.00082413,
 -0.00094706,-0.00025234,0.00012768,-0.00030498,-0.00008154,0.00056443,
 -0.00033654,0.00139467,0.00038402,0.00018834,0.00391651,0.00399651,-0.
 00578194,0.00146195,-0.00339793,-0.00386999,0.00050050,-0.00316262,0.0
 8411639,-0.16808950,0.01536951,0.00027056,0.00050078,-0.00003575,0.000
 00944,-0.00005270,0.00002088,-0.00006293,-0.00005534,0.00000678,-0.000
 00638,-0.00006208,-0.00001912,0.00065931,0.00012393,0.00005940,-0.0001
 4837,-0.00007848,-0.00003406,-0.00024014,0.00001375,0.00015950,0.00025
 480,-0.00005397,-0.00075810,-0.00007411,-0.00048209,-0.00055581,0.0000
 4423,0.00001675,0.00008436,-0.00000240,0.00013459,0.00005348,-0.000032
 25,0.00003250,0.00011227,0.07669949,0.51117285,-0.00024904,-0.00025284
 ,0.00008601,0.00015760,0.00011145,0.00016661,0.00015953,0.00018120,-0.
 00057079,-0.00249080,-0.00176496,-0.00289069,-0.00001837,-0.00027348,-
 0.00041456,-0.00002325,-0.00023188,0.00002448,-0.00008229,-0.00001086,
 -0.00000493,0.00006088,0.00003834,-0.00000003,0.00002061,-0.00013755,-
 0.00007645,-0.00000350,0.00046727,0.00066255,-0.00170248,0.00099643,-0
 .00016428,0.00002884,0.00004918,0.00004291,0.00004487,0.00015278,0.000
 01617,0.00035449,-0.00032301,0.00016733,-0.02327138,0.02123307,-0.0130
 1881,0.00204743,-0.00079819,0.00164972,-0.00252479,0.00269644,0.001535
 79,-0.00879096,-0.00860853,-0.07198061,0.00000658,-0.00002933,0.000006
 78,-0.00000560,0.00000427,-0.00000513,0.00000085,0.00000515,0.00000030
 ,-0.00000061,0.00000242,0.00000297,-0.00018772,-0.00000602,-0.00011713
 ,0.00011447,0.00005195,-0.00001745,0.00009153,0.00002607,-0.00003104,-
 0.00026035,-0.00018928,0.00030921,-0.00001362,0.00018115,0.00016649,-0
 .00000970,0.00001043,-0.00002589,0.00000289,-0.00002710,-0.00001340,0.
 00001156,-0.00001304,-0.00002795,0.01336857,0.02774002,0.60015114,-0.0
 0000894,0.00003338,-0.00005064,0.00001404,0.00001173,0.00002406,0.0000
 0589,0.00002227,-0.00010289,0.00063019,-0.00006594,0.00022371,0.000002
 07,-0.00006162,0.00006991,-0.00001571,-0.00002078,0.00001073,-0.000013
 18,-0.00000885,0.00001021,-0.00000744,-0.00000260,0.00000569,-0.000128
 54,-0.00014500,-0.00000626,0.00003792,-0.00005212,-0.00007883,-0.00035
 562,-0.00001037,-0.00002654,-0.00001123,-0.00001094,0.00000318,0.00003
 183,-0.00002390,0.00000780,-0.00000862,0.00004940,-0.00000658,0.005337
 35,0.00297040,0.00056284,-0.00014184,-0.00147454,0.00112660,-0.0006510
 0,-0.00005555,-0.00008869,0.00753185,0.02810755,-0.01351877,0.00000047
 ,0.00000171,-0.00000014,-0.00000077,-0.00000015,-0.00000110,-0.0000013
 3,-0.00000054,0.00000042,0.00000053,-0.00000069,0.00000002,-0.00001307
 ,-0.00004408,-0.00002288,-0.00001382,0.00001439,0.00001644,0.00001756,
 -0.00000635,-0.00000434,-0.00043913,0.00016067,-0.00017623,-0.00000433
 ,-0.00002439,-0.00002260,0.00000135,-0.00000045,0.00000633,-0.00000138
 ,0.00000495,0.00000139,0.00000129,0.00000271,0.00000355,-0.12107123,-0
 .10367873,0.05183010,0.12329126,-0.00003729,-0.00006159,0.00029532,-0.
 00012793,-0.00001536,-0.00014326,-0.00034616,-0.00007000,0.00029013,-0
 .00039874,0.00054758,-0.00046578,-0.00003833,0.00020154,-0.00001414,0.
 00003037,0.00006708,-0.00002417,0.00000787,-0.00004900,0.00003975,0.00
 002525,0.00000371,-0.00003119,-0.00009702,0.00025192,-0.00010702,-0.00
 010179,0.00013022,0.00020045,0.00080423,-0.00017032,0.00003955,0.00017
 675,0.00005223,-0.00002835,-0.00006141,0.00012895,-0.00017474,0.000101
 33,-0.00028354,-0.00004898,-0.00388909,-0.00010086,-0.00337021,0.00163
 477,0.00026354,0.00073546,0.00039075,0.00011621,0.00049599,0.00342393,
 -0.03323099,0.01345070,-0.00004429,-0.00009520,0.00001453,-0.00000202,
 0.00001115,-0.00000473,0.00001130,0.00001102,-0.00000148,0.00000097,0.
 00001150,0.00000219,0.00003636,-0.00002913,-0.00003236,0.00003848,0.00
 002692,0.00000004,0.00002063,-0.00000110,-0.00002012,0.00005104,-0.000
 16704,0.00005833,-0.00000034,0.00010740,0.00011924,-0.00000905,-0.0000
 0150,-0.00001448,0.00000128,-0.00002648,-0.00001077,0.00001129,-0.0000
 0805,-0.00002350,-0.09906692,-0.19732153,0.07526163,0.10099615,0.22717
 487,0.00003387,0.00002398,0.00003402,0.00000850,0.00001287,-0.00000638
 ,0.00001087,0.00001614,-0.00004372,-0.00000158,-0.00021375,0.00006867,
 0.00002040,-0.00004717,0.00003631,-0.00000701,-0.00000826,0.00000352,-
 0.00001562,0.00000590,0.00001783,-0.00000640,-0.00000106,-0.00000487,0
 .00002891,-0.00010692,0.00001287,0.00001929,-0.00004225,-0.00003811,-0
 .00017059,0.00006720,-0.00005304,-0.00000878,-0.00002609,0.00000011,-0
 .00007660,0.00002235,-0.00002380,-0.00001749,0.00001720,-0.00001949,0.
 00169796,0.00103427,0.00066329,-0.00040215,-0.00016877,-0.00001857,0.0
 0023088,0.00003151,-0.00037644,-0.00410159,0.00592127,0.00129716,0.000
 00466,0.00001648,-0.00000055,-0.00000055,0.00000005,0.00000399,-0.0000
 0010,-0.00000324,-0.00000001,-0.00000173,-0.00000111,-0.00000440,0.000
 11106,0.00004980,0.00003597,-0.00003457,-0.00003059,0.00000192,-0.0000
 1728,-0.00001182,0.00000094,0.00008856,-0.00013699,0.00006941,0.000008
 16,-0.00001131,-0.00001012,-0.00000071,-0.00000032,0.00000110,0.000000
 08,0.00000225,-0.00000023,-0.00000075,-0.00000102,0.00000155,0.0511264
 9,0.07566838,-0.09497791,-0.05422759,-0.08748130,0.09297097,0.00000194
 ,-0.00001897,-0.00018512,0.00016474,0.00005299,0.00011432,0.00038096,0
 .00013165,-0.00030022,-0.00028748,-0.00090110,-0.00048836,0.00001294,-
 0.00020507,-0.00013052,-0.00002248,-0.00008606,0.00001979,0.00000858,0
 .00002771,-0.00003381,-0.00001366,0.00000605,0.00002027,-0.00001889,0.
 00003501,-0.00000981,0.00001361,-0.00001230,-0.00002640,-0.00085711,0.
 00032888,-0.00011925,-0.00015216,-0.00003380,0.00003165,0.00001187,-0.
 00001776,0.00015000,-0.00002633,0.00024958,0.00010113,-0.00055259,0.00
 419137,0.00092096,0.00000638,-0.00013288,0.00007849,0.00000146,-0.0000
 4725,-0.00030018,-0.02217382,-0.00052732,-0.01643224,0.00004165,0.0000
 7062,-0.00000695,0.00000133,-0.00000880,0.00000046,-0.00001117,-0.0000
 0726,0.00000095,-0.00000036,-0.00000966,0.00000021,-0.00000689,0.00001
 372,0.00001690,0.00004035,0.00001244,-0.00000761,-0.00003099,0.0000049
 4,0.00002795,0.00000309,-0.00003360,-0.00010441,-0.00003321,-0.0000857
 0,-0.00010715,0.00001374,0.00000634,0.00001750,0.00000156,0.00002265,0
 .00001233,-0.00000460,0.00000722,0.00001970,-0.17924501,-0.06570383,-0
 .11734182,-0.00905670,-0.00604901,-0.00982051,0.19935474,0.00003017,0.
 00003992,0.00011717,-0.00013346,-0.00008335,-0.00009269,-0.00028204,-0
 .00013783,0.00029101,0.00068456,0.00107016,0.00049139,-0.00001348,0.00
 017794,0.00010628,0.00001737,0.00010210,-0.00001686,-0.00000270,-0.000
 01936,0.00002492,0.00000477,-0.00000760,-0.00001346,-0.00004407,0.0000
 4803,0.00002405,-0.00000718,-0.00001968,-0.00003461,0.00087884,-0.0004
 4172,0.00018250,0.00010413,0.00003233,-0.00002636,-0.00001325,0.000016
 73,-0.00009452,-0.00000993,-0.00012476,-0.00005790,0.00368485,-0.00374
 039,0.00091308,0.00049907,0.00005462,0.00003618,-0.00006794,-0.0001128
 0,0.00022651,0.02730200,0.00585204,0.02175840,-0.00003192,-0.00005629,
 0.00000582,0.00000091,0.00000577,-0.00000376,0.00000667,0.00000697,-0.
 00000078,0.00000185,0.00000662,0.00000231,-0.00000114,-0.00000823,0.00
 001149,0.00000359,0.00000360,-0.00000273,-0.00000108,0.00000227,-0.000
 00538,-0.00000562,0.00000002,0.00001448,0.00001873,0.00003950,0.000054
 33,-0.00000667,-0.00000521,-0.00001215,-0.00000104,-0.00001255,-0.0000
 0637,-0.00000048,-0.00000206,-0.00000921,-0.07581787,-0.08617006,-0.06
 807064,-0.01602866,-0.00608585,-0.01676776,0.06458723,0.09084243,0.000
 02243,0.00000988,-0.00005611,0.00006024,0.00000224,0.00003391,0.000136
 37,0.00002010,-0.00009253,-0.00019452,-0.00028203,0.00031926,-0.000004
 66,-0.00002843,-0.00008619,-0.00000994,-0.00002229,0.00000790,-0.00000
 422,0.00001939,-0.00000663,-0.00000811,0.00000127,0.00000619,0.0000109
 1,-0.00003400,-0.00000529,0.00001140,-0.00003020,-0.00003207,-0.000263
 01,0.00007984,-0.00002471,-0.00006482,-0.00001536,0.00000882,-0.000020
 28,-0.00000603,0.00003777,-0.00002934,0.00015295,0.00005151,0.00065836
 ,0.00119028,0.00125232,-0.00036043,-0.00010980,-0.00004141,0.00021033,
 0.00006727,0.00037500,-0.00462238,0.00148292,-0.00241204,0.00001756,0.
 00003096,-0.00000250,0.00000064,-0.00000313,0.00000024,-0.00000484,-0.
 00000333,0.00000073,0.00000016,-0.00000402,-0.00000031,0.00004486,0.00
 001128,-0.00000132,-0.00000211,-0.00000386,-0.00000442,-0.00000928,-0.
 00000161,0.00000774,0.00002378,-0.00000129,-0.00002739,-0.00001895,-0.
 00004207,-0.00005925,0.00000463,0.00000130,0.00001258,-0.00000085,0.00
 001396,0.00000682,0.00000051,0.00000441,0.00001053,-0.12156349,-0.0606
 2913,-0.16502038,0.01039296,0.00410682,0.01046768,0.13519682,0.0639984
 6,0.17082646,0.00006922,0.00003926,-0.00001699,0.00004214,0.00000825,-
 0.00002170,0.00006714,0.00001431,0.00000153,0.00037368,-0.00016105,-0.
 00005463,0.00010929,-0.00012320,0.00021310,-0.00001080,-0.00000383,0.0
 0000660,0.00003390,0.00001310,0.00000344,-0.00002337,-0.00000328,0.000
 00110,-0.00002031,-0.00001518,0.00001718,-0.00000404,-0.00014634,-0.00
 020461,-0.00020409,0.00004635,-0.00011670,-0.00009019,-0.00003478,-0.0
 0000523,-0.00008269,0.00003308,-0.00000869,-0.00010727,0.00014327,-0.0
 0007091,0.00268808,0.00151990,0.00558611,-0.00042685,-0.00031514,-0.00
 031278,0.00015376,-0.00059138,-0.00132502,-0.01846065,0.01780678,0.013
 76341,0.00002351,0.00004570,0.00000486,0.00000159,-0.00000398,0.000001
 01,-0.00000611,-0.00000559,0.00000018,-0.00000040,-0.00000639,-0.00000
 447,0.00016018,-0.00003255,0.00004280,-0.00001863,0.00000014,-0.000000
 26,-0.00005216,-0.00000582,0.00002596,0.00006642,0.00000849,-0.0001860
 0,0.00000438,-0.00008078,-0.00006883,0.00000409,-0.00000237,0.00001264
 ,-0.00000129,0.00001349,0.00000391,-0.00000254,0.00000381,0.00001197,-
 0.09408445,0.01987784,0.08867552,-0.00495977,0.00250664,0.01552190,0.0
 1243451,-0.00535621,-0.01961074,0.10232370,-0.00008392,-0.00004451,0.0
 0012299,-0.00009316,-0.00000632,-0.00003636,-0.00020425,-0.00004718,0.
 00009098,-0.00046872,0.00030422,-0.00030342,-0.00010336,0.00012958,-0.
 00015426,0.00001549,0.00002109,-0.00001307,-0.00002346,-0.00002860,0.0
 0001525,0.00002806,0.00000342,-0.00001157,0.00001280,-0.00000445,-0.00
 002690,-0.00001201,0.00018849,0.00023718,0.00034640,-0.00005133,0.0000
 9720,0.00014356,0.00004856,-0.00000813,0.00006044,0.00001862,-0.000055
 81,0.00013771,-0.00029659,0.00003913,-0.00386207,-0.00035650,-0.003234
 79,0.00056842,0.00006138,0.00050043,0.00027729,0.00050254,0.00119482,0
 .02486503,-0.01807302,-0.02141851,-0.00003528,-0.00007147,0.00000441,-
 0.00000240,0.00000764,-0.00000145,0.00001023,0.00000814,-0.00000129,-0
 .00000021,0.00000965,0.00000217,-0.00014961,-0.00000108,-0.00006219,0.
 00004455,0.00001587,0.00000134,0.00006471,0.00000373,-0.00003435,-0.00
 007680,0.00000439,0.00021796,0.00000461,0.00012105,0.00011888,-0.00000
 719,0.00000148,-0.00002320,0.00000317,-0.00002648,-0.00000942,0.000003
 88,-0.00000854,-0.00002178,0.02025574,-0.06407934,-0.04847257,-0.01065
 905,0.00861169,0.02217005,0.00413197,-0.00127333,-0.00997676,-0.035192
 54,0.07430722,-0.00003099,0.00001115,-0.00000630,-0.00006075,0.0000126
 9,-0.00001496,-0.00009649,-0.00002524,0.00007068,-0.00015147,0.0003449
 0,0.00030470,-0.00008877,0.00020370,-0.00001114,0.00001084,0.00002684,
 -0.00000808,-0.00000634,-0.00002323,0.00000066,0.00000573,-0.00000448,
 0.00000030,-0.00000206,0.00002898,-0.00002271,-0.00003902,0.00005136,-
 0.00001369,0.00031992,-0.00008437,0.00002834,0.00007949,0.00001298,-0.
 00000304,0.00007888,-0.00006238,0.00001359,-0.00001273,-0.00008089,-0.
 00000818,-0.00135182,0.00112823,0.00344743,0.00016954,0.00013668,-0.00
 048380,0.00207194,-0.00057615,0.00030753,-0.00294607,-0.00133824,0.010
 60376,-0.00002472,-0.00003645,-0.00000602,-0.00000082,0.00000255,0.000
 00078,0.00000579,0.00000349,-0.00000058,-0.00000041,0.00000526,0.00000
 310,-0.00009435,0.00002491,0.00001222,-0.00000286,-0.00000710,0.000004
 98,0.00000820,-0.00000315,-0.00000896,-0.00001295,0.00002029,0.0000537
 7,-0.00000676,0.00003106,0.00002071,0.00000091,-0.00000114,-0.00000687
 ,0.00000176,-0.00000903,0.00000053,-0.00000099,-0.00000011,-0.00000553
 ,0.09133996,-0.05268940,-0.25563101,0.00403812,-0.00311358,-0.01010965
 ,0.00868495,-0.00304319,-0.01555289,-0.10188566,0.05905304,0.26702033\
 \0.00000342,0.00000471,0.00001799,-0.00001685,0.00000964,-0.00000297,-
 0.00001005,-0.00000408,0.00001029,0.00000270,0.00000392,0.00000479,0.0
 0000842,-0.00000762,-0.00000901,-0.00000301,-0.00000289,0.00000609,0.0
 0000409,-0.00000262,0.00000486,0.00000495,0.00000450,-0.00000196,-0.00
 000468,-0.00000446,-0.00000785,0.00000084,-0.00000109,-0.00000440,-0.0
 0000421,-0.00001291,-0.00000547,0.00000882,0.00000168,0.00000696,0.000
 00355,0.00000120,-0.00000741,-0.00000576,-0.00000124,-0.00000670,0.000
 00198,-0.00000038,0.00000332,-0.00000291,-0.00000107,0.00000199,-0.000
 00704,-0.00000841,-0.00000293,-0.00000509,-0.00000548,-0.00001033,-0.0
 0000459,0.00000100,0.00001194,0.00000022,0.00000501,0.00001074,-0.0000
 0093,0.00000576,0.00001451,-0.00000686,0.00000159,0.00001217,0.0000044
 2,0.00001064,0.00000428,0.00000153,0.00000349,0.00000362,0.00000535,0.
 00000710,0.00000133,0.00000398,0.00000214,-0.00000197,0.00000870,0.000
 00164,-0.00000486,0.00000568,0.00000073,-0.00001203,0.00000467,-0.0000
 0009,-0.00001121,0.00000573,0.00000170,-0.00000747,-0.00000178,-0.0000
 0192,-0.00000529,-0.00000196,-0.00000294,-0.00000135,0.00000076,-0.000
 00331,-0.00000651,-0.00000412,-0.00000595,-0.00000513\\\@


 "ANNA, YOU MUSN'T SPEAK OF OXIDIZED MURIATIC ACID
 ANYMORE, FROM NOW ON YOU MUST SAY CHLORINE."
   -- JENS JACOB BERZELIUS, IN 1820, TO HIS COOK, WHO HAD
 COMPLAINED OF THE SMELL OF THE FLASK SHE WAS CLEANING.
 Job cpu time:       0 days  3 hours  5 minutes 23.3 seconds.
 Elapsed time:       0 days  0 hours 53 minutes 55.3 seconds.
 File lengths (MBytes):  RWF=    377 Int=      0 D2E=      0 Chk=     16 Scr=      1
 Normal termination of Gaussian 16 at Fri May 24 09:31:31 2019.
