 Entering Gaussian System, Link 0=g16
 Input=clay-glucose_cation-102-b3lyp_d3bj-631gd-pcm_thf.gjf
 Output=clay-glucose_cation-102-b3lyp_d3bj-631gd-pcm_thf.out
 Initial command:
 /n/sw/g16_nehalem/g16/l1.exe "/scratch/Gau-44088.inp" -scrdir="/scratch/"
 Entering Link 1 = /n/sw/g16_nehalem/g16/l1.exe PID=     44095.
  
 Copyright (c) 1988,1990,1992,1993,1995,1998,2003,2009,2016,
            Gaussian, Inc.  All Rights Reserved.
  
 This is part of the Gaussian(R) 16 program.  It is based on
 the Gaussian(R) 09 system (copyright 2009, Gaussian, Inc.),
 the Gaussian(R) 03 system (copyright 2003, Gaussian, Inc.),
 the Gaussian(R) 98 system (copyright 1998, Gaussian, Inc.),
 the Gaussian(R) 94 system (copyright 1995, Gaussian, Inc.),
 the Gaussian 92(TM) system (copyright 1992, Gaussian, Inc.),
 the Gaussian 90(TM) system (copyright 1990, Gaussian, Inc.),
 the Gaussian 88(TM) system (copyright 1988, Gaussian, Inc.),
 the Gaussian 86(TM) system (copyright 1986, Carnegie Mellon
 University), and the Gaussian 82(TM) system (copyright 1983,
 Carnegie Mellon University). Gaussian is a federally registered
 trademark of Gaussian, Inc.
  
 This software contains proprietary and confidential information,
 including trade secrets, belonging to Gaussian, Inc.
  
 This software is provided under written license and may be
 used, copied, transmitted, or stored only in accord with that
 written license.
  
 The following legend is applicable only to US Government
 contracts under FAR:
  
                    RESTRICTED RIGHTS LEGEND
  
 Use, reproduction and disclosure by the US Government is
 subject to restrictions as set forth in subparagraphs (a)
 and (c) of the Commercial Computer Software - Restricted
 Rights clause in FAR 52.227-19.
  
 Gaussian, Inc.
 340 Quinnipiac St., Bldg. 40, Wallingford CT 06492
  
  
 ---------------------------------------------------------------
 Warning -- This program may not be used in any manner that
 competes with the business of Gaussian, Inc. or will provide
 assistance to any competitor of Gaussian, Inc.  The licensee
 of this program is prohibited from giving any competitor of
 Gaussian, Inc. access to this program.  By using this program,
 the user acknowledges that Gaussian, Inc. is engaged in the
 business of creating and licensing software in the field of
 computational chemistry and represents and warrants to the
 licensee that it is not a competitor of Gaussian, Inc. and that
 it will not use this program in any manner prohibited above.
 ---------------------------------------------------------------
  

 Cite this work as:
 Gaussian 16, Revision A.03,
 M. J. Frisch, G. W. Trucks, H. B. Schlegel, G. E. Scuseria, 
 M. A. Robb, J. R. Cheeseman, G. Scalmani, V. Barone, 
 G. A. Petersson, H. Nakatsuji, X. Li, M. Caricato, A. V. Marenich, 
 J. Bloino, B. G. Janesko, R. Gomperts, B. Mennucci, H. P. Hratchian, 
 J. V. Ortiz, A. F. Izmaylov, J. L. Sonnenberg, D. Williams-Young, 
 F. Ding, F. Lipparini, F. Egidi, J. Goings, B. Peng, A. Petrone, 
 T. Henderson, D. Ranasinghe, V. G. Zakrzewski, J. Gao, N. Rega, 
 G. Zheng, W. Liang, M. Hada, M. Ehara, K. Toyota, R. Fukuda, 
 J. Hasegawa, M. Ishida, T. Nakajima, Y. Honda, O. Kitao, H. Nakai, 
 T. Vreven, K. Throssell, J. A. Montgomery, Jr., J. E. Peralta, 
 F. Ogliaro, M. J. Bearpark, J. J. Heyd, E. N. Brothers, K. N. Kudin, 
 V. N. Staroverov, T. A. Keith, R. Kobayashi, J. Normand, 
 K. Raghavachari, A. P. Rendell, J. C. Burant, S. S. Iyengar, 
 J. Tomasi, M. Cossi, J. M. Millam, M. Klene, C. Adamo, R. Cammi, 
 J. W. Ochterski, R. L. Martin, K. Morokuma, O. Farkas, 
 J. B. Foresman, and D. J. Fox, Gaussian, Inc., Wallingford CT, 2016.
 
 ******************************************
 Gaussian 16:  ES64L-G16RevA.03 25-Dec-2016
                24-May-2019 
 ******************************************
 %nprocshared=4
 Will use up to    4 processors via shared memory.
 %mem=3GB
 -------------------------------------------------------------------
 #p b3lyp 6-31g* opt freq=noraman scrf=(pcm,solvent=tetrahydrofuran)
 -------------------------------------------------------------------
 1/18=20,19=15,26=3,38=1/1,3;
 2/9=110,12=2,17=6,18=5,40=1/2;
 3/5=1,6=6,7=1,11=2,25=1,30=1,70=2201,71=1,72=20,74=-5/1,2,3;
 4//1;
 5/5=2,38=5,53=20/2;
 6/7=2,8=2,9=2,10=2,28=1/1;
 7//1,2,3,16;
 1/18=20,19=15,26=3/3(2);
 2/9=110/2;
 99//99;
 2/9=110/2;
 3/5=1,6=6,7=1,11=2,25=1,30=1,70=2205,71=1,72=20,74=-5/1,2,3;
 4/5=5,16=3,69=1/1;
 5/5=2,38=5,53=20/2;
 7//1,2,3,16;
 1/18=20,19=15,26=3/3(-5);
 2/9=110/2;
 6/7=2,8=2,9=2,10=2,19=2,28=1/1;
 99/9=1/99;
 Leave Link    1 at Fri May 24 08:30:49 2019, MaxMem=   402653184 cpu:               0.4 elap:               0.2
 (Enter /n/sw/g16_nehalem/g16/l101.exe)
 -----
 title
 -----
 Symbolic Z-matrix:
 Charge =  1 Multiplicity = 1
 6                    -0.91023   0.67258  -0.54233 
 6                    -1.70669  -0.54889   0.02702 
 6                    -1.16747  -1.75881  -0.6419 
 6                     1.13106  -0.94533  -0.53971 
 6                     0.60156   0.48269  -0.25138 
 1                    -1.82567  -2.54817  -1.00835 
 1                    -1.49701  -0.63379   1.10939 
 1                    -1.04695   0.69081  -1.6282 
 1                     1.72286  -0.92094  -1.45425 
 1                     0.77924   0.71433   0.80849 
 8                     0.04703  -1.92237  -0.92039 
 8                    -3.06769  -0.4106   -0.24651 
 8                    -1.41544   1.89962  -0.09622 
 8                     1.39617   1.31461  -1.07256 
 6                     1.9432   -1.66525   0.56987 
 1                     1.8343   -2.74214   0.41201 
 1                     1.53294  -1.41429   1.56022 
 8                     3.31504  -1.39321   0.48451 
 6                    -3.93608  -1.0996    0.66405 
 1                    -3.76525  -0.76301   1.69391 
 1                    -4.95224  -0.85097   0.35795 
 1                    -3.79669  -2.18654   0.61035 
 6                    -1.60897   2.08315   1.30733 
 1                    -0.69455   1.91505   1.88794 
 1                    -1.91506   3.12324   1.42639 
 1                    -2.40881   1.43524   1.68577 
 6                     1.51366   2.68212  -0.65964 
 1                     0.57158   3.22217  -0.78145 
 1                     1.84202   2.74633   0.38628 
 1                     2.27849   3.11976  -1.30354 
 6                     3.73228  -0.13144   1.00483 
 1                     3.41943   0.69537   0.35676 
 1                     3.3437    0.02704   2.02048 
 1                     4.82298  -0.16122   1.04037 
 
 ITRead=  0  0  0  0  0  0  0  0  0  0  0  0  0  0  0  0  0  0  0  0
 ITRead=  0  0  0  0  0  0  0  0  0  0  0  0  0  0
 MicOpt= -1 -1 -1 -1 -1 -1 -1 -1 -1 -1 -1 -1 -1 -1 -1 -1 -1 -1 -1 -1
 MicOpt= -1 -1 -1 -1 -1 -1 -1 -1 -1 -1 -1 -1 -1 -1
 NAtoms=     34 NQM=       34 NQMF=       0 NMMI=      0 NMMIF=      0
                NMic=       0 NMicF=      0.
                    Isotopes and Nuclear Properties:
 (Nuclear quadrupole moments (NQMom) in fm**2, nuclear magnetic moments (NMagM)
  in nuclear magnetons)

  Atom         1           2           3           4           5           6           7           8           9          10
 IAtWgt=          12          12          12          12          12           1           1           1           1           1
 AtmWgt=  12.0000000  12.0000000  12.0000000  12.0000000  12.0000000   1.0078250   1.0078250   1.0078250   1.0078250   1.0078250
 NucSpn=           0           0           0           0           0           1           1           1           1           1
 AtZEff=   0.0000000   0.0000000   0.0000000   0.0000000   0.0000000   0.0000000   0.0000000   0.0000000   0.0000000   0.0000000
 NQMom=    0.0000000   0.0000000   0.0000000   0.0000000   0.0000000   0.0000000   0.0000000   0.0000000   0.0000000   0.0000000
 NMagM=    0.0000000   0.0000000   0.0000000   0.0000000   0.0000000   2.7928460   2.7928460   2.7928460   2.7928460   2.7928460
 AtZNuc=   6.0000000   6.0000000   6.0000000   6.0000000   6.0000000   1.0000000   1.0000000   1.0000000   1.0000000   1.0000000

  Atom        11          12          13          14          15          16          17          18          19          20
 IAtWgt=          16          16          16          16          12           1           1          16          12           1
 AtmWgt=  15.9949146  15.9949146  15.9949146  15.9949146  12.0000000   1.0078250   1.0078250  15.9949146  12.0000000   1.0078250
 NucSpn=           0           0           0           0           0           1           1           0           0           1
 AtZEff=   0.0000000   0.0000000   0.0000000   0.0000000   0.0000000   0.0000000   0.0000000   0.0000000   0.0000000   0.0000000
 NQMom=    0.0000000   0.0000000   0.0000000   0.0000000   0.0000000   0.0000000   0.0000000   0.0000000   0.0000000   0.0000000
 NMagM=    0.0000000   0.0000000   0.0000000   0.0000000   0.0000000   2.7928460   2.7928460   0.0000000   0.0000000   2.7928460
 AtZNuc=   8.0000000   8.0000000   8.0000000   8.0000000   6.0000000   1.0000000   1.0000000   8.0000000   6.0000000   1.0000000

  Atom        21          22          23          24          25          26          27          28          29          30
 IAtWgt=           1           1          12           1           1           1          12           1           1           1
 AtmWgt=   1.0078250   1.0078250  12.0000000   1.0078250   1.0078250   1.0078250  12.0000000   1.0078250   1.0078250   1.0078250
 NucSpn=           1           1           0           1           1           1           0           1           1           1
 AtZEff=   0.0000000   0.0000000   0.0000000   0.0000000   0.0000000   0.0000000   0.0000000   0.0000000   0.0000000   0.0000000
 NQMom=    0.0000000   0.0000000   0.0000000   0.0000000   0.0000000   0.0000000   0.0000000   0.0000000   0.0000000   0.0000000
 NMagM=    2.7928460   2.7928460   0.0000000   2.7928460   2.7928460   2.7928460   0.0000000   2.7928460   2.7928460   2.7928460
 AtZNuc=   1.0000000   1.0000000   6.0000000   1.0000000   1.0000000   1.0000000   6.0000000   1.0000000   1.0000000   1.0000000

  Atom        31          32          33          34
 IAtWgt=          12           1           1           1
 AtmWgt=  12.0000000   1.0078250   1.0078250   1.0078250
 NucSpn=           0           1           1           1
 AtZEff=   0.0000000   0.0000000   0.0000000   0.0000000
 NQMom=    0.0000000   0.0000000   0.0000000   0.0000000
 NMagM=    0.0000000   2.7928460   2.7928460   2.7928460
 AtZNuc=   6.0000000   1.0000000   1.0000000   1.0000000
 Leave Link  101 at Fri May 24 08:30:49 2019, MaxMem=   402653184 cpu:               1.3 elap:               0.3
 (Enter /n/sw/g16_nehalem/g16/l103.exe)

 GradGradGradGradGradGradGradGradGradGradGradGradGradGradGradGradGradGrad
 Berny optimization.
 Initialization pass.
                           ----------------------------
                           !    Initial Parameters    !
                           ! (Angstroms and Degrees)  !
 --------------------------                            --------------------------
 ! Name  Definition              Value          Derivative Info.                !
 --------------------------------------------------------------------------------
 ! R1    R(1,2)                  1.5654         estimate D2E/DX2                !
 ! R2    R(1,5)                  1.5512         estimate D2E/DX2                !
 ! R3    R(1,8)                  1.0946         estimate D2E/DX2                !
 ! R4    R(1,13)                 1.4            estimate D2E/DX2                !
 ! R5    R(2,3)                  1.4839         estimate D2E/DX2                !
 ! R6    R(2,7)                  1.1058         estimate D2E/DX2                !
 ! R7    R(2,12)                 1.3951         estimate D2E/DX2                !
 ! R8    R(3,6)                  1.0911         estimate D2E/DX2                !
 ! R9    R(3,11)                 1.2567         estimate D2E/DX2                !
 ! R10   R(4,5)                  1.5501         estimate D2E/DX2                !
 ! R11   R(4,9)                  1.0896         estimate D2E/DX2                !
 ! R12   R(4,11)                 1.5082         estimate D2E/DX2                !
 ! R13   R(4,15)                 1.5521         estimate D2E/DX2                !
 ! R14   R(5,10)                 1.0993         estimate D2E/DX2                !
 ! R15   R(5,14)                 1.4134         estimate D2E/DX2                !
 ! R16   R(12,19)                1.4346         estimate D2E/DX2                !
 ! R17   R(13,23)                1.4287         estimate D2E/DX2                !
 ! R18   R(14,27)                1.4333         estimate D2E/DX2                !
 ! R19   R(15,16)                1.0938         estimate D2E/DX2                !
 ! R20   R(15,17)                1.1009         estimate D2E/DX2                !
 ! R21   R(15,18)                1.4012         estimate D2E/DX2                !
 ! R22   R(18,31)                1.4272         estimate D2E/DX2                !
 ! R23   R(19,20)                1.0969         estimate D2E/DX2                !
 ! R24   R(19,21)                1.09           estimate D2E/DX2                !
 ! R25   R(19,22)                1.0972         estimate D2E/DX2                !
 ! R26   R(23,24)                1.0961         estimate D2E/DX2                !
 ! R27   R(23,25)                1.0907         estimate D2E/DX2                !
 ! R28   R(23,26)                1.0967         estimate D2E/DX2                !
 ! R29   R(27,28)                1.0927         estimate D2E/DX2                !
 ! R30   R(27,29)                1.0981         estimate D2E/DX2                !
 ! R31   R(27,30)                1.0914         estimate D2E/DX2                !
 ! R32   R(31,32)                1.0961         estimate D2E/DX2                !
 ! R33   R(31,33)                1.0989         estimate D2E/DX2                !
 ! R34   R(31,34)                1.0917         estimate D2E/DX2                !
 ! A1    A(2,1,5)              109.3974         estimate D2E/DX2                !
 ! A2    A(2,1,8)              108.0744         estimate D2E/DX2                !
 ! A3    A(2,1,13)             112.6069         estimate D2E/DX2                !
 ! A4    A(5,1,8)              108.0494         estimate D2E/DX2                !
 ! A5    A(5,1,13)             113.5303         estimate D2E/DX2                !
 ! A6    A(8,1,13)             104.8597         estimate D2E/DX2                !
 ! A7    A(1,2,3)              106.7011         estimate D2E/DX2                !
 ! A8    A(1,2,7)              108.6297         estimate D2E/DX2                !
 ! A9    A(1,2,12)             110.3466         estimate D2E/DX2                !
 ! A10   A(3,2,7)              108.0428         estimate D2E/DX2                !
 ! A11   A(3,2,12)             110.2994         estimate D2E/DX2                !
 ! A12   A(7,2,12)             112.614          estimate D2E/DX2                !
 ! A13   A(2,3,6)              121.4686         estimate D2E/DX2                !
 ! A14   A(2,3,11)             123.8601         estimate D2E/DX2                !
 ! A15   A(6,3,11)             114.4805         estimate D2E/DX2                !
 ! A16   A(5,4,9)              108.7258         estimate D2E/DX2                !
 ! A17   A(5,4,11)             113.4675         estimate D2E/DX2                !
 ! A18   A(5,4,15)             118.2344         estimate D2E/DX2                !
 ! A19   A(9,4,11)             101.1294         estimate D2E/DX2                !
 ! A20   A(9,4,15)             109.0402         estimate D2E/DX2                !
 ! A21   A(11,4,15)            104.8356         estimate D2E/DX2                !
 ! A22   A(1,5,4)              114.256          estimate D2E/DX2                !
 ! A23   A(1,5,10)             108.2134         estimate D2E/DX2                !
 ! A24   A(1,5,14)             111.5228         estimate D2E/DX2                !
 ! A25   A(4,5,10)             108.5561         estimate D2E/DX2                !
 ! A26   A(4,5,14)             104.0118         estimate D2E/DX2                !
 ! A27   A(10,5,14)            110.1959         estimate D2E/DX2                !
 ! A28   A(3,11,4)             123.6675         estimate D2E/DX2                !
 ! A29   A(2,12,19)            114.7393         estimate D2E/DX2                !
 ! A30   A(1,13,23)            118.3294         estimate D2E/DX2                !
 ! A31   A(5,14,27)            116.1207         estimate D2E/DX2                !
 ! A32   A(4,15,16)            107.5408         estimate D2E/DX2                !
 ! A33   A(4,15,17)            110.0208         estimate D2E/DX2                !
 ! A34   A(4,15,18)            112.2527         estimate D2E/DX2                !
 ! A35   A(16,15,17)           108.4904         estimate D2E/DX2                !
 ! A36   A(16,15,18)           106.2497         estimate D2E/DX2                !
 ! A37   A(17,15,18)           112.0482         estimate D2E/DX2                !
 ! A38   A(15,18,31)           115.828          estimate D2E/DX2                !
 ! A39   A(12,19,20)           110.7509         estimate D2E/DX2                !
 ! A40   A(12,19,21)           106.0527         estimate D2E/DX2                !
 ! A41   A(12,19,22)           111.5825         estimate D2E/DX2                !
 ! A42   A(20,19,21)           109.8086         estimate D2E/DX2                !
 ! A43   A(20,19,22)           109.2796         estimate D2E/DX2                !
 ! A44   A(21,19,22)           109.3095         estimate D2E/DX2                !
 ! A45   A(13,23,24)           112.8094         estimate D2E/DX2                !
 ! A46   A(13,23,25)           105.5309         estimate D2E/DX2                !
 ! A47   A(13,23,26)           111.2173         estimate D2E/DX2                !
 ! A48   A(24,23,25)           108.8157         estimate D2E/DX2                !
 ! A49   A(24,23,26)           109.5742         estimate D2E/DX2                !
 ! A50   A(25,23,26)           108.7251         estimate D2E/DX2                !
 ! A51   A(14,27,28)           111.6385         estimate D2E/DX2                !
 ! A52   A(14,27,29)           110.7745         estimate D2E/DX2                !
 ! A53   A(14,27,30)           105.668          estimate D2E/DX2                !
 ! A54   A(28,27,29)           109.5777         estimate D2E/DX2                !
 ! A55   A(28,27,30)           109.8913         estimate D2E/DX2                !
 ! A56   A(29,27,30)           109.2042         estimate D2E/DX2                !
 ! A57   A(18,31,32)           111.5853         estimate D2E/DX2                !
 ! A58   A(18,31,33)           111.166          estimate D2E/DX2                !
 ! A59   A(18,31,34)           106.2508         estimate D2E/DX2                !
 ! A60   A(32,31,33)           109.6774         estimate D2E/DX2                !
 ! A61   A(32,31,34)           108.9644         estimate D2E/DX2                !
 ! A62   A(33,31,34)           109.0941         estimate D2E/DX2                !
 ! D1    D(5,1,2,3)            -59.0347         estimate D2E/DX2                !
 ! D2    D(5,1,2,7)             57.222          estimate D2E/DX2                !
 ! D3    D(5,1,2,12)          -178.8742         estimate D2E/DX2                !
 ! D4    D(8,1,2,3)             58.381          estimate D2E/DX2                !
 ! D5    D(8,1,2,7)            174.6378         estimate D2E/DX2                !
 ! D6    D(8,1,2,12)           -61.4585         estimate D2E/DX2                !
 ! D7    D(13,1,2,3)           173.7289         estimate D2E/DX2                !
 ! D8    D(13,1,2,7)           -70.0144         estimate D2E/DX2                !
 ! D9    D(13,1,2,12)           53.8894         estimate D2E/DX2                !
 ! D10   D(2,1,5,4)             44.4563         estimate D2E/DX2                !
 ! D11   D(2,1,5,10)           -76.5894         estimate D2E/DX2                !
 ! D12   D(2,1,5,14)           162.0484         estimate D2E/DX2                !
 ! D13   D(8,1,5,4)            -72.9751         estimate D2E/DX2                !
 ! D14   D(8,1,5,10)           165.9791         estimate D2E/DX2                !
 ! D15   D(8,1,5,14)            44.6169         estimate D2E/DX2                !
 ! D16   D(13,1,5,4)           171.1704         estimate D2E/DX2                !
 ! D17   D(13,1,5,10)           50.1246         estimate D2E/DX2                !
 ! D18   D(13,1,5,14)          -71.2376         estimate D2E/DX2                !
 ! D19   D(2,1,13,23)           51.2693         estimate D2E/DX2                !
 ! D20   D(5,1,13,23)          -73.7399         estimate D2E/DX2                !
 ! D21   D(8,1,13,23)          168.5393         estimate D2E/DX2                !
 ! D22   D(1,2,3,6)           -137.18           estimate D2E/DX2                !
 ! D23   D(1,2,3,11)            37.5185         estimate D2E/DX2                !
 ! D24   D(7,2,3,6)            106.1723         estimate D2E/DX2                !
 ! D25   D(7,2,3,11)           -79.1291         estimate D2E/DX2                !
 ! D26   D(12,2,3,6)           -17.3101         estimate D2E/DX2                !
 ! D27   D(12,2,3,11)          157.3885         estimate D2E/DX2                !
 ! D28   D(1,2,12,19)         -154.422          estimate D2E/DX2                !
 ! D29   D(3,2,12,19)           87.9344         estimate D2E/DX2                !
 ! D30   D(7,2,12,19)          -32.8509         estimate D2E/DX2                !
 ! D31   D(2,3,11,4)             3.6995         estimate D2E/DX2                !
 ! D32   D(6,3,11,4)           178.732          estimate D2E/DX2                !
 ! D33   D(9,4,5,1)            105.9498         estimate D2E/DX2                !
 ! D34   D(9,4,5,10)          -133.1943         estimate D2E/DX2                !
 ! D35   D(9,4,5,14)           -15.8652         estimate D2E/DX2                !
 ! D36   D(11,4,5,1)            -5.7263         estimate D2E/DX2                !
 ! D37   D(11,4,5,10)          115.1296         estimate D2E/DX2                !
 ! D38   D(11,4,5,14)         -127.5413         estimate D2E/DX2                !
 ! D39   D(15,4,5,1)          -129.0898         estimate D2E/DX2                !
 ! D40   D(15,4,5,10)           -8.234          estimate D2E/DX2                !
 ! D41   D(15,4,5,14)          109.0951         estimate D2E/DX2                !
 ! D42   D(5,4,11,3)           -21.147          estimate D2E/DX2                !
 ! D43   D(9,4,11,3)          -137.3852         estimate D2E/DX2                !
 ! D44   D(15,4,11,3)          109.2828         estimate D2E/DX2                !
 ! D45   D(5,4,15,16)          154.3452         estimate D2E/DX2                !
 ! D46   D(5,4,15,17)           36.3642         estimate D2E/DX2                !
 ! D47   D(5,4,15,18)          -89.1408         estimate D2E/DX2                !
 ! D48   D(9,4,15,16)          -80.8487         estimate D2E/DX2                !
 ! D49   D(9,4,15,17)          161.1703         estimate D2E/DX2                !
 ! D50   D(9,4,15,18)           35.6653         estimate D2E/DX2                !
 ! D51   D(11,4,15,16)          26.7683         estimate D2E/DX2                !
 ! D52   D(11,4,15,17)         -91.2128         estimate D2E/DX2                !
 ! D53   D(11,4,15,18)         143.2822         estimate D2E/DX2                !
 ! D54   D(1,5,14,27)           80.0451         estimate D2E/DX2                !
 ! D55   D(4,5,14,27)         -156.3431         estimate D2E/DX2                !
 ! D56   D(10,5,14,27)         -40.1578         estimate D2E/DX2                !
 ! D57   D(2,12,19,20)          57.6953         estimate D2E/DX2                !
 ! D58   D(2,12,19,21)         176.7807         estimate D2E/DX2                !
 ! D59   D(2,12,19,22)         -64.2819         estimate D2E/DX2                !
 ! D60   D(1,13,23,24)          56.2631         estimate D2E/DX2                !
 ! D61   D(1,13,23,25)         174.9498         estimate D2E/DX2                !
 ! D62   D(1,13,23,26)         -67.3199         estimate D2E/DX2                !
 ! D63   D(5,14,27,28)         -69.5668         estimate D2E/DX2                !
 ! D64   D(5,14,27,29)          52.8483         estimate D2E/DX2                !
 ! D65   D(5,14,27,30)         170.9988         estimate D2E/DX2                !
 ! D66   D(4,15,18,31)          78.8246         estimate D2E/DX2                !
 ! D67   D(16,15,18,31)       -163.8885         estimate D2E/DX2                !
 ! D68   D(17,15,18,31)        -45.5647         estimate D2E/DX2                !
 ! D69   D(15,18,31,32)        -72.0997         estimate D2E/DX2                !
 ! D70   D(15,18,31,33)         50.6861         estimate D2E/DX2                !
 ! D71   D(15,18,31,34)        169.2569         estimate D2E/DX2                !
 --------------------------------------------------------------------------------
 Trust Radius=3.00D-01 FncErr=1.00D-07 GrdErr=1.00D-06 EigMax=2.50D+02 EigMin=1.00D-04
 Number of steps in this run=    177 maximum allowed number of steps=    204.
 GradGradGradGradGradGradGradGradGradGradGradGradGradGradGradGradGradGrad

 Leave Link  103 at Fri May 24 08:30:49 2019, MaxMem=   402653184 cpu:               0.2 elap:               0.1
 (Enter /n/sw/g16_nehalem/g16/l202.exe)
                          Input orientation:                          
 ---------------------------------------------------------------------
 Center     Atomic      Atomic             Coordinates (Angstroms)
 Number     Number       Type             X           Y           Z
 ---------------------------------------------------------------------
      1          6           0       -0.910232    0.672582   -0.542332
      2          6           0       -1.706685   -0.548888    0.027015
      3          6           0       -1.167471   -1.758805   -0.641902
      4          6           0        1.131064   -0.945326   -0.539708
      5          6           0        0.601556    0.482685   -0.251383
      6          1           0       -1.825671   -2.548170   -1.008347
      7          1           0       -1.497005   -0.633793    1.109392
      8          1           0       -1.046950    0.690808   -1.628200
      9          1           0        1.722856   -0.920938   -1.454253
     10          1           0        0.779243    0.714329    0.808490
     11          8           0        0.047034   -1.922368   -0.920385
     12          8           0       -3.067693   -0.410601   -0.246514
     13          8           0       -1.415439    1.899621   -0.096220
     14          8           0        1.396165    1.314608   -1.072563
     15          6           0        1.943195   -1.665250    0.569874
     16          1           0        1.834297   -2.742141    0.412008
     17          1           0        1.532940   -1.414289    1.560223
     18          8           0        3.315037   -1.393214    0.484514
     19          6           0       -3.936083   -1.099599    0.664051
     20          1           0       -3.765252   -0.763010    1.693913
     21          1           0       -4.952235   -0.850972    0.357945
     22          1           0       -3.796693   -2.186535    0.610350
     23          6           0       -1.608971    2.083150    1.307328
     24          1           0       -0.694549    1.915047    1.887940
     25          1           0       -1.915056    3.123237    1.426392
     26          1           0       -2.408811    1.435240    1.685765
     27          6           0        1.513657    2.682123   -0.659637
     28          1           0        0.571582    3.222167   -0.781453
     29          1           0        1.842020    2.746332    0.386279
     30          1           0        2.278490    3.119762   -1.303536
     31          6           0        3.732278   -0.131444    1.004830
     32          1           0        3.419425    0.695369    0.356764
     33          1           0        3.343704    0.027040    2.020481
     34          1           0        4.822976   -0.161219    1.040368
 ---------------------------------------------------------------------
                    Distance matrix (angstroms):
                    1          2          3          4          5
     1  C    0.000000
     2  C    1.565402   0.000000
     3  C    2.446984   1.483948   0.000000
     4  C    2.604712   2.920815   2.440380   0.000000
     5  C    1.551198   2.543546   2.882055   1.550073   0.000000
     6  H    3.380598   2.254609   1.091149   3.395735   3.956072
     7  H    2.186118   1.105764   2.107433   3.118226   2.739013
     8  H    1.094593   2.170676   2.643466   2.933512   2.157895
     9  H    3.209994   3.754241   3.117038   1.089589   2.162029
    10  H    2.163513   2.895904   3.465505   2.166996   1.099346
    11  O    2.791603   2.420650   1.256713   1.508193   2.557213
    12  O    2.432166   1.395093   2.363224   4.242812   3.776423
    13  O    1.399955   2.468847   3.707201   3.843837   2.469828
    14  O    2.452103   3.782772   4.025365   2.336988   1.413448
    15  C    3.852857   3.855202   3.339670   1.552102   2.662345
    16  H    4.483697   4.182957   3.329908   2.151475   3.515571
    17  H    3.839903   3.687115   3.501466   2.188867   2.783505
    18  O    4.814024   5.112718   4.636308   2.453441   3.379870
    19  C    3.708337   2.383131   3.131338   5.210452   4.892015
    20  H    3.900366   2.657460   3.632644   5.384813   4.940136
    21  H    4.412426   3.276334   4.018494   6.149895   5.744085
    22  H    4.223137   2.718511   2.943450   5.210184   5.216504
    23  C    2.428823   2.928545   4.330709   4.482299   3.142849
    24  H    2.737966   3.249375   4.485638   4.172298   2.882404
    25  H    3.300190   3.935248   5.354536   5.449551   4.015069
    26  H    2.791380   2.679775   4.142570   4.811501   3.704351
    27  C    3.150754   4.613190   5.187543   3.649541   2.415808
    28  H    2.958604   4.479395   5.277676   4.211824   2.790454
    29  H    3.568984   4.856012   5.514567   3.871853   2.658846
    30  H    4.090974   5.577722   6.009395   4.292431   3.297470
    31  C    4.959140   5.541904   5.419185   3.132781   3.428797
    32  H    4.422084   5.285254   5.297161   2.955019   2.890582
    33  H    5.008064   5.460039   5.534277   3.520773   3.590035
    34  H    6.005817   6.619188   6.423999   4.091660   4.461347
                    6          7          8          9         10
     6  H    0.000000
     7  H    2.873618   0.000000
     8  H    3.388451   3.074334   0.000000
     9  H    3.929219   4.125801   3.209331   0.000000
    10  H    4.553062   2.662570   3.045159   2.946949   0.000000
    11  O    1.976459   2.857355   2.920016   2.023921   3.236867
    12  O    2.586930   2.086949   2.684317   4.966733   4.144565
    13  O    4.558850   2.806838   1.985945   4.432686   2.653309
    14  O    5.030448   4.114320   2.581990   2.291305   2.068644
    15  C    4.180273   3.631798   4.395851   2.167865   2.659721
    16  H    3.930700   4.003629   4.924345   2.610006   3.635591
    17  H    4.377614   3.161169   4.610131   3.060479   2.379953
    18  O    5.476261   4.911511   5.275760   2.552822   3.313148
    19  C    3.057632   2.522777   4.099642   6.045058   5.054255
    20  H    3.775047   2.345913   4.532018   6.328919   4.859932
    21  H    3.810858   3.542662   4.644686   6.917066   5.958439
    22  H    2.576022   2.819329   4.566322   6.027416   5.421574
    23  C    5.182512   2.726444   3.297243   5.268012   2.797513
    24  H    5.439506   2.783282   3.739811   5.005688   2.186092
    25  H    6.172585   3.793485   4.000106   6.155312   3.666591
    26  H    4.844156   2.333344   3.659400   5.699295   3.384230
    27  C    6.215197   4.815480   3.385286   3.695569   2.562611
    28  H    6.252607   4.766841   3.121603   4.352403   2.976624
    29  H    6.590045   4.805957   4.077923   4.104952   2.331693
    30  H    7.004051   5.845148   4.130832   4.081507   3.534756
    31  C    6.386254   5.254397   5.518149   3.272334   3.078035
    32  H    6.316257   5.148243   4.887597   2.961516   2.678615
    33  H    6.521345   4.969834   5.747287   3.949631   2.918518
    34  H    7.355221   6.338001   6.504094   4.051056   4.143927
                   11         12         13         14         15
    11  O    0.000000
    12  O    3.527190   0.000000
    13  O    4.174407   2.844232   0.000000
    14  O    3.510175   4.856411   3.033250   0.000000
    15  C    2.425368   5.229688   4.942915   3.446215   0.000000
    16  H    2.375207   5.468019   5.689028   4.342018   1.093835
    17  H    2.935895   5.043561   4.734843   3.794357   1.100946
    18  O    3.596330   6.499167   5.792876   3.665905   1.401157
    19  C    4.364929   1.434555   3.990862   6.105497   5.907177
    20  H    4.765731   2.091898   3.976908   6.213704   5.887603
    21  H    5.270171   2.027510   4.503438   6.858445   6.946576
    22  H    4.145741   2.102284   4.781870   6.485058   5.763653
    23  C    4.873318   3.280410   1.428665   3.909652   5.216534
    24  H    4.812732   3.949221   2.111116   3.673716   4.638267
    25  H    5.900448   4.076174   2.016234   4.525494   6.208811
    26  H    4.908841   2.752264   2.092345   4.701145   5.458773
    27  C    4.839453   5.542958   3.083724   1.433321   4.538265
    28  H    5.173074   5.169863   2.483329   2.098443   5.253023
    29  H    5.169730   5.871280   3.400112   2.092090   4.416560
    30  H    5.527140   6.493260   4.073263   2.022480   5.149605
    31  C    4.527128   6.919783   5.642387   3.444423   2.396365
    32  H    4.456083   6.608314   5.003132   2.553432   2.792345
    33  H    4.828759   6.814456   5.535018   3.875263   2.632400
    34  H    5.454890   7.998807   6.667587   4.287841   3.282775
                   16         17         18         19         20
    16  H    0.000000
    17  H    1.781125   0.000000
    18  O    2.004358   2.081697   0.000000
    19  C    6.004894   5.550889   7.259283   0.000000
    20  H    6.075787   5.339745   7.210430   1.096855   0.000000
    21  H    7.045315   6.619690   8.286002   1.089991   1.789267
    22  H    5.661809   5.468419   7.156947   1.097152   1.789279
    23  C    5.995092   4.708252   6.083419   3.994890   3.591604
    24  H    5.501167   4.019152   5.384327   4.592770   4.079075
    25  H    7.034862   5.700503   6.974191   4.743212   4.312506
    26  H    6.089083   4.865488   6.496583   3.130794   2.583080
    27  C    5.538400   4.659264   4.600263   6.764114   6.728671
    28  H    6.212227   5.282460   5.516426   6.409851   6.388834
    29  H    5.488539   4.334102   4.394914   6.946569   6.742914
    30  H    6.123913   5.414294   4.963719   7.765006   7.783793
    31  C    3.281693   2.606001   1.427194   7.736744   7.555572
    32  H    3.785784   3.075353   2.095089   7.577588   7.452142
    33  H    3.540319   2.359689   2.092161   7.490295   7.160173
    34  H    3.998524   3.558760   2.025010   8.817215   8.634057
                   21         22         23         24         25
    21  H    0.000000
    22  H    1.784016   0.000000
    23  C    4.548386   4.847898   0.000000
    24  H    5.302795   5.298916   1.096146   0.000000
    25  H    5.114721   5.692114   1.090709   1.778310   0.000000
    26  H    3.668634   4.024921   1.096698   1.791587   1.777752
    27  C    7.438144   7.315498   3.738787   3.457561   4.037595
    28  H    6.957100   7.090346   3.227255   3.230682   3.326821
    29  H    7.687867   7.495230   3.632834   3.062712   3.916569
    30  H    8.414905   8.290211   4.796199   4.525021   5.003833
    31  C    8.738246   7.814373   5.790067   4.956290   6.531695
    32  H    8.513276   7.774448   5.302290   4.555974   5.957796
    33  H    8.506323   7.607473   5.409729   4.459779   6.131389
    34  H    9.823248   8.864847   6.817507   5.955866   7.505847
                   26         27         28         29         30
    26  H    0.000000
    27  C    4.737234   0.000000
    28  H    4.261809   1.092699   0.000000
    29  H    4.634349   1.098128   1.789980   0.000000
    30  H    5.808987   1.091377   1.787902   1.784778   0.000000
    31  C    6.374256   3.950809   4.942420   3.498182   4.244101
    32  H    6.023453   2.934657   3.973721   2.587572   3.152144
    33  H    5.931820   4.193038   5.073887   3.510017   4.663550
    34  H    7.433973   4.682542   5.730679   4.215185   4.767927
                   31         32         33         34
    31  C    0.000000
    32  H    1.096123   0.000000
    33  H    1.098933   1.794534   0.000000
    34  H    1.091683   1.780734   1.784463   0.000000
 Stoichiometry    C10H19O5(1+)
 Framework group  C1[X(C10H19O5)]
 Deg. of freedom    96
 Full point group                 C1      NOp   1
 Largest Abelian subgroup         C1      NOp   1
 Largest concise Abelian subgroup C1      NOp   1
                         Standard orientation:                         
 ---------------------------------------------------------------------
 Center     Atomic      Atomic             Coordinates (Angstroms)
 Number     Number       Type             X           Y           Z
 ---------------------------------------------------------------------
      1          6           0       -0.910232    0.672582   -0.542332
      2          6           0       -1.706685   -0.548888    0.027015
      3          6           0       -1.167471   -1.758805   -0.641902
      4          6           0        1.131064   -0.945326   -0.539708
      5          6           0        0.601556    0.482685   -0.251383
      6          1           0       -1.825671   -2.548170   -1.008347
      7          1           0       -1.497005   -0.633793    1.109392
      8          1           0       -1.046950    0.690808   -1.628200
      9          1           0        1.722856   -0.920938   -1.454253
     10          1           0        0.779243    0.714329    0.808490
     11          8           0        0.047034   -1.922368   -0.920385
     12          8           0       -3.067693   -0.410601   -0.246514
     13          8           0       -1.415439    1.899621   -0.096220
     14          8           0        1.396165    1.314608   -1.072563
     15          6           0        1.943195   -1.665250    0.569874
     16          1           0        1.834297   -2.742141    0.412008
     17          1           0        1.532940   -1.414289    1.560223
     18          8           0        3.315037   -1.393214    0.484514
     19          6           0       -3.936083   -1.099599    0.664051
     20          1           0       -3.765252   -0.763010    1.693913
     21          1           0       -4.952235   -0.850972    0.357945
     22          1           0       -3.796693   -2.186535    0.610350
     23          6           0       -1.608971    2.083150    1.307328
     24          1           0       -0.694549    1.915047    1.887940
     25          1           0       -1.915056    3.123237    1.426392
     26          1           0       -2.408811    1.435240    1.685765
     27          6           0        1.513657    2.682123   -0.659637
     28          1           0        0.571582    3.222167   -0.781453
     29          1           0        1.842020    2.746332    0.386279
     30          1           0        2.278490    3.119762   -1.303536
     31          6           0        3.732278   -0.131444    1.004830
     32          1           0        3.419425    0.695369    0.356764
     33          1           0        3.343704    0.027040    2.020481
     34          1           0        4.822976   -0.161219    1.040368
 ---------------------------------------------------------------------
 Rotational constants (GHZ):           0.8171879           0.4249220           0.3249439
 Leave Link  202 at Fri May 24 08:30:50 2019, MaxMem=   402653184 cpu:               0.5 elap:               0.2
 (Enter /n/sw/g16_nehalem/g16/l301.exe)
 Standard basis: 6-31G(d) (6D, 7F)
 Ernie: Thresh=  0.10000D-02 Tol=  0.10000D-05 Strict=F.
 There are   263 symmetry adapted cartesian basis functions of A   symmetry.
 There are   263 symmetry adapted basis functions of A   symmetry.
   263 basis functions,   496 primitive gaussians,   263 cartesian basis functions
    59 alpha electrons       59 beta electrons
       nuclear repulsion energy      1157.1286136178 Hartrees.
 IExCor=  402 DFT=T Ex+Corr=B3LYP ExCW=0 ScaHFX=  0.200000
 ScaDFX=  0.800000  0.720000  1.000000  0.810000 ScalE2=  1.000000  1.000000
 IRadAn=      5 IRanWt=     -1 IRanGd=            0 ICorTp=0 IEmpDi=  4
 NAtoms=   34 NActive=   34 NUniq=   34 SFac= 1.00D+00 NAtFMM=   60 NAOKFM=F Big=F
 Integral buffers will be    131072 words long.
 Raffenetti 2 integral format.
 Two-electron integral symmetry is turned on.
 ------------------------------------------------------------------------------
 Polarizable Continuum Model (PCM)
 =================================
 Model                : PCM.
 Atomic radii         : UFF (Universal Force Field).
 Polarization charges : Total charges.
 Charge compensation  : None.
 Solution method      : On-the-fly selection.
 Cavity type          : Scaled VdW (van der Waals Surface) (Alpha=1.100).
 Cavity algorithm     : GePol (No added spheres)
                        Default sphere list used, NSphG=   34.
                        Lebedev-Laikov grids with approx.  5.0 points / Ang**2.
                        Smoothing algorithm: York/Karplus (Gamma=1.0000).
                        Polarization charges: spherical gaussians, with
                                              point-specific exponents (IZeta= 3).
                        Self-potential: point-specific (ISelfS= 7).
                        Self-field    : sphere-specific E.n sum rule (ISelfD= 2).
 1st derivatives      : Analytical E(r).r(x)/FMM algorithm (CHGder, D1EAlg=3).
                        Cavity 1st derivative terms included.
 Solvent              : TetraHydroFuran, Eps=   7.425700 Eps(inf)=   1.974025
 ------------------------------------------------------------------------------
 GePol: Number of generator spheres                  =      34
 GePol: Total number of spheres                      =      34
 GePol: Number of exposed spheres                    =      34 (100.00%)
 GePol: Number of points                             =    2253
 GePol: Average weight of points                     =       0.13
 GePol: Minimum weight of points                     =   0.15D-08
 GePol: Maximum weight of points                     =    0.20577
 GePol: Number of points with low weight             =     147
 GePol: Fraction of low-weight points (<1% of avg)   =       6.52%
 GePol: Cavity surface area                          =    295.428 Ang**2
 GePol: Cavity volume                                =    320.328 Ang**3
 Leave Link  301 at Fri May 24 08:30:50 2019, MaxMem=   402653184 cpu:               0.7 elap:               0.2
 (Enter /n/sw/g16_nehalem/g16/l302.exe)
 NPDir=0 NMtPBC=     1 NCelOv=     1 NCel=       1 NClECP=     1 NCelD=      1
         NCelK=      1 NCelE2=     1 NClLst=     1 CellRange=     0.0.
 One-electron integrals computed using PRISM.
 One-electron integral symmetry used in STVInt
 NBasis=   263 RedAO= T EigKep=  1.60D-03  NBF=   263
 NBsUse=   263 1.00D-06 EigRej= -1.00D+00 NBFU=   263
 Precomputing XC quadrature grid using
 IXCGrd= 4 IRadAn=           5 IRanWt=          -1 IRanGd=           0 AccXCQ= 0.00D+00.
 Generated NRdTot=       0 NPtTot=           0 NUsed=           0 NTot=          32
 NSgBfM=   262   262   262   262   262 MxSgAt=    34 MxSgA2=    34.
 Leave Link  302 at Fri May 24 08:30:51 2019, MaxMem=   402653184 cpu:               4.9 elap:               1.5
 (Enter /n/sw/g16_nehalem/g16/l303.exe)
 DipDrv:  MaxL=1.
 Leave Link  303 at Fri May 24 08:30:52 2019, MaxMem=   402653184 cpu:               0.8 elap:               0.4
 (Enter /n/sw/g16_nehalem/g16/l401.exe)
 ExpMin= 1.61D-01 ExpMax= 5.48D+03 ExpMxC= 8.25D+02 IAcc=3 IRadAn=         5 AccDes= 0.00D+00
 Harris functional with IExCor=  402 and IRadAn=       5 diagonalized for initial guess.
 HarFok:  IExCor=  402 AccDes= 0.00D+00 IRadAn=         5 IDoV= 1 UseB2=F ITyADJ=14
 ICtDFT=  3500011 ScaDFX=  1.000000  1.000000  1.000000  1.000000
 FoFCou: FMM=F IPFlag=           0 FMFlag=      100000 FMFlg1=           0
         NFxFlg=           0 DoJE=T BraDBF=F KetDBF=T FulRan=T
         wScrn=  0.000000 ICntrl=       500 IOpCl=  0 I1Cent=   200000004 NGrid=           0
         NMat0=    1 NMatS0=      1 NMatT0=    0 NMatD0=    1 NMtDS0=    0 NMtDT0=    0
 Petite list used in FoFCou.
 Harris En= -768.253645404898    
 JPrj=0 DoOrth=F DoCkMO=F.
 Leave Link  401 at Fri May 24 08:30:58 2019, MaxMem=   402653184 cpu:              26.4 elap:               6.7
 (Enter /n/sw/g16_nehalem/g16/l502.exe)
 Integral symmetry usage will be decided dynamically.
 Closed shell SCF:
 Using DIIS extrapolation, IDIIS=  1040.
 NGot=   402653184 LenX=   402510103 LenY=   402440493
 Requested convergence on RMS density matrix=1.00D-08 within 128 cycles.
 Requested convergence on MAX density matrix=1.00D-06.
 Requested convergence on             energy=1.00D-06.
 No special actions if energy rises.
 Fock matrices will be formed incrementally for  20 cycles.

 Cycle   1  Pass 1  IDiag  1:
 FoFJK:  IHMeth= 1 ICntrl=       0 DoSepK=F KAlg= 0 I1Cent=           0 FoldK=F
 IRaf= 880000000 NMat=       1 IRICut=       1 DoRegI=T DoRafI=F ISym2E= 0 IDoP0=0 IntGTp=1.
 FoFCou: FMM=F IPFlag=           0 FMFlag=      100000 FMFlg1=           0
         NFxFlg=           0 DoJE=F BraDBF=F KetDBF=F FulRan=T
         wScrn=  0.000000 ICntrl=         0 IOpCl=  0 I1Cent=           0 NGrid=           0
         NMat0=    1 NMatS0=      1 NMatT0=    0 NMatD0=    1 NMtDS0=    0 NMtDT0=    0
 Symmetry not used in FoFCou.
 Inv3:  Mode=1 IEnd=    15228027.
 Iteration    1 A*A^-1 deviation from unit magnitude is 3.77D-15 for   2231.
 Iteration    1 A*A^-1 deviation from orthogonality  is 2.44D-15 for   2246   1324.
 Iteration    1 A^-1*A deviation from unit magnitude is 3.77D-15 for   2241.
 Iteration    1 A^-1*A deviation from orthogonality  is 1.97D-15 for   2055   1307.
 E= -768.077275173256    
 DIIS: error= 2.33D-02 at cycle   1 NSaved=   1.
 NSaved= 1 IEnMin= 1 EnMin= -768.077275173256     IErMin= 1 ErrMin= 2.33D-02
 ErrMax= 2.33D-02  0.00D+00 EMaxC= 1.00D-01 BMatC= 2.56D-01 BMatP= 2.56D-01
 IDIUse=3 WtCom= 7.67D-01 WtEn= 2.33D-01
 Coeff-Com:  0.100D+01
 Coeff-En:   0.100D+01
 Coeff:      0.100D+01
 Gap=     0.007 Goal=   None    Shift=    0.000
 GapD=    0.007 DampG=0.250 DampE=0.500 DampFc=0.2500 IDamp=-1.
 Damping current iteration by 2.50D-01
 RMSDP=5.06D-03 MaxDP=1.47D-01              OVMax= 4.64D-01

 Cycle   2  Pass 1  IDiag  1:
 RMSU=  1.26D-03    CP:  9.94D-01
 E= -768.148322070718     Delta-E=       -0.071046897462 Rises=F Damp=T
 DIIS: error= 1.13D-02 at cycle   2 NSaved=   2.
 NSaved= 2 IEnMin= 2 EnMin= -768.148322070718     IErMin= 2 ErrMin= 1.13D-02
 ErrMax= 1.13D-02  0.00D+00 EMaxC= 1.00D-01 BMatC= 6.79D-02 BMatP= 2.56D-01
 IDIUse=3 WtCom= 8.87D-01 WtEn= 1.13D-01
 Coeff-Com: -0.614D+00 0.161D+01
 Coeff-En:   0.000D+00 0.100D+01
 Coeff:     -0.545D+00 0.154D+01
 Gap=     0.126 Goal=   None    Shift=    0.000
 RMSDP=1.50D-03 MaxDP=4.55D-02 DE=-7.10D-02 OVMax= 5.17D-01

 Cycle   3  Pass 1  IDiag  1:
 RMSU=  1.49D-03    CP:  9.86D-01  1.07D+00
 E= -768.271455244300     Delta-E=       -0.123133173582 Rises=F Damp=F
 DIIS: error= 8.18D-03 at cycle   3 NSaved=   3.
 NSaved= 3 IEnMin= 3 EnMin= -768.271455244300     IErMin= 3 ErrMin= 8.18D-03
 ErrMax= 8.18D-03  0.00D+00 EMaxC= 1.00D-01 BMatC= 5.19D-02 BMatP= 6.79D-02
 IDIUse=3 WtCom= 9.18D-01 WtEn= 8.18D-02
 Coeff-Com: -0.489D+00 0.101D+01 0.480D+00
 Coeff-En:   0.000D+00 0.000D+00 0.100D+01
 Coeff:     -0.449D+00 0.927D+00 0.522D+00
 Gap=     0.142 Goal=   None    Shift=    0.000
 RMSDP=9.15D-04 MaxDP=2.93D-02 DE=-1.23D-01 OVMax= 4.82D-02

 Cycle   4  Pass 1  IDiag  1:
 RMSU=  6.51D-04    CP:  9.90D-01  1.31D+00  6.26D-01
 E= -768.315180220064     Delta-E=       -0.043724975764 Rises=F Damp=F
 DIIS: error= 2.23D-03 at cycle   4 NSaved=   4.
 NSaved= 4 IEnMin= 4 EnMin= -768.315180220064     IErMin= 4 ErrMin= 2.23D-03
 ErrMax= 2.23D-03  0.00D+00 EMaxC= 1.00D-01 BMatC= 3.25D-03 BMatP= 5.19D-02
 IDIUse=3 WtCom= 9.78D-01 WtEn= 2.23D-02
 Coeff-Com: -0.220D+00 0.376D+00 0.213D+00 0.631D+00
 Coeff-En:   0.000D+00 0.000D+00 0.000D+00 0.100D+01
 Coeff:     -0.215D+00 0.367D+00 0.208D+00 0.639D+00
 Gap=     0.130 Goal=   None    Shift=    0.000
 RMSDP=2.25D-04 MaxDP=1.20D-02 DE=-4.37D-02 OVMax= 1.21D-02

 Cycle   5  Pass 1  IDiag  1:
 RMSU=  2.03D-04    CP:  9.89D-01  1.34D+00  6.74D-01  9.19D-01
 E= -768.317294632090     Delta-E=       -0.002114412027 Rises=F Damp=F
 DIIS: error= 1.28D-03 at cycle   5 NSaved=   5.
 NSaved= 5 IEnMin= 5 EnMin= -768.317294632090     IErMin= 5 ErrMin= 1.28D-03
 ErrMax= 1.28D-03  0.00D+00 EMaxC= 1.00D-01 BMatC= 1.11D-03 BMatP= 3.25D-03
 IDIUse=3 WtCom= 9.87D-01 WtEn= 1.28D-02
 Coeff-Com: -0.967D-01 0.144D+00 0.429D-01 0.368D+00 0.542D+00
 Coeff-En:   0.000D+00 0.000D+00 0.000D+00 0.158D+00 0.842D+00
 Coeff:     -0.954D-01 0.142D+00 0.424D-01 0.365D+00 0.546D+00
 Gap=     0.130 Goal=   None    Shift=    0.000
 RMSDP=1.05D-04 MaxDP=6.66D-03 DE=-2.11D-03 OVMax= 5.18D-03

 Cycle   6  Pass 1  IDiag  1:
 RMSU=  7.40D-05    CP:  9.89D-01  1.37D+00  6.71D-01  9.92D-01  7.54D-01
 E= -768.318020117654     Delta-E=       -0.000725485563 Rises=F Damp=F
 DIIS: error= 5.02D-04 at cycle   6 NSaved=   6.
 NSaved= 6 IEnMin= 6 EnMin= -768.318020117654     IErMin= 6 ErrMin= 5.02D-04
 ErrMax= 5.02D-04  0.00D+00 EMaxC= 1.00D-01 BMatC= 1.43D-04 BMatP= 1.11D-03
 IDIUse=3 WtCom= 9.95D-01 WtEn= 5.02D-03
 Coeff-Com: -0.369D-01 0.474D-01-0.114D-01 0.140D+00 0.333D+00 0.528D+00
 Coeff-En:   0.000D+00 0.000D+00 0.000D+00 0.000D+00 0.000D+00 0.100D+01
 Coeff:     -0.367D-01 0.471D-01-0.114D-01 0.139D+00 0.331D+00 0.530D+00
 Gap=     0.129 Goal=   None    Shift=    0.000
 RMSDP=3.84D-05 MaxDP=2.20D-03 DE=-7.25D-04 OVMax= 1.89D-03

 Cycle   7  Pass 1  IDiag  1:
 RMSU=  2.77D-05    CP:  9.89D-01  1.37D+00  6.68D-01  1.02D+00  8.18D-01
                    CP:  8.17D-01
 E= -768.318130816909     Delta-E=       -0.000110699255 Rises=F Damp=F
 DIIS: error= 1.40D-04 at cycle   7 NSaved=   7.
 NSaved= 7 IEnMin= 7 EnMin= -768.318130816909     IErMin= 7 ErrMin= 1.40D-04
 ErrMax= 1.40D-04  0.00D+00 EMaxC= 1.00D-01 BMatC= 1.39D-05 BMatP= 1.43D-04
 IDIUse=3 WtCom= 9.99D-01 WtEn= 1.40D-03
 Coeff-Com: -0.866D-02 0.869D-02-0.170D-01 0.230D-01 0.109D+00 0.284D+00
 Coeff-Com:  0.601D+00
 Coeff-En:   0.000D+00 0.000D+00 0.000D+00 0.000D+00 0.000D+00 0.000D+00
 Coeff-En:   0.100D+01
 Coeff:     -0.865D-02 0.868D-02-0.170D-01 0.230D-01 0.109D+00 0.283D+00
 Coeff:      0.601D+00
 Gap=     0.129 Goal=   None    Shift=    0.000
 RMSDP=1.61D-05 MaxDP=6.90D-04 DE=-1.11D-04 OVMax= 7.46D-04

 Cycle   8  Pass 1  IDiag  1:
 RMSU=  8.55D-06    CP:  9.89D-01  1.37D+00  6.67D-01  1.03D+00  8.48D-01
                    CP:  8.79D-01  7.97D-01
 E= -768.318143676798     Delta-E=       -0.000012859889 Rises=F Damp=F
 DIIS: error= 4.77D-05 at cycle   8 NSaved=   8.
 NSaved= 8 IEnMin= 8 EnMin= -768.318143676798     IErMin= 8 ErrMin= 4.77D-05
 ErrMax= 4.77D-05  0.00D+00 EMaxC= 1.00D-01 BMatC= 9.47D-07 BMatP= 1.39D-05
 IDIUse=1 WtCom= 1.00D+00 WtEn= 0.00D+00
 Coeff-Com: -0.581D-03 0.122D-03-0.586D-02-0.669D-02 0.439D-02 0.443D-01
 Coeff-Com:  0.244D+00 0.720D+00
 Coeff:     -0.581D-03 0.122D-03-0.586D-02-0.669D-02 0.439D-02 0.443D-01
 Coeff:      0.244D+00 0.720D+00
 Gap=     0.129 Goal=   None    Shift=    0.000
 RMSDP=5.19D-06 MaxDP=1.94D-04 DE=-1.29D-05 OVMax= 5.39D-04

 Cycle   9  Pass 1  IDiag  1:
 RMSU=  3.22D-06    CP:  9.89D-01  1.37D+00  6.67D-01  1.04D+00  8.57D-01
                    CP:  9.03D-01  8.66D-01  9.57D-01
 E= -768.318144437471     Delta-E=       -0.000000760674 Rises=F Damp=F
 DIIS: error= 1.45D-05 at cycle   9 NSaved=   9.
 NSaved= 9 IEnMin= 9 EnMin= -768.318144437471     IErMin= 9 ErrMin= 1.45D-05
 ErrMax= 1.45D-05  0.00D+00 EMaxC= 1.00D-01 BMatC= 1.66D-07 BMatP= 9.47D-07
 IDIUse=1 WtCom= 1.00D+00 WtEn= 0.00D+00
 Coeff-Com:  0.170D-03-0.254D-03-0.155D-02-0.532D-02-0.772D-02-0.393D-02
 Coeff-Com:  0.746D-01 0.407D+00 0.537D+00
 Coeff:      0.170D-03-0.254D-03-0.155D-02-0.532D-02-0.772D-02-0.393D-02
 Coeff:      0.746D-01 0.407D+00 0.537D+00
 Gap=     0.129 Goal=   None    Shift=    0.000
 RMSDP=1.72D-06 MaxDP=5.26D-05 DE=-7.61D-07 OVMax= 1.69D-04

 Cycle  10  Pass 1  IDiag  1:
 RMSU=  1.01D-06    CP:  9.89D-01  1.37D+00  6.67D-01  1.04D+00  8.58D-01
                    CP:  9.10D-01  8.84D-01  1.03D+00  7.16D-01
 E= -768.318144581453     Delta-E=       -0.000000143982 Rises=F Damp=F
 DIIS: error= 2.36D-06 at cycle  10 NSaved=  10.
 NSaved=10 IEnMin=10 EnMin= -768.318144581453     IErMin=10 ErrMin= 2.36D-06
 ErrMax= 2.36D-06  0.00D+00 EMaxC= 1.00D-01 BMatC= 5.18D-09 BMatP= 1.66D-07
 IDIUse=1 WtCom= 1.00D+00 WtEn= 0.00D+00
 Coeff-Com:  0.198D-03-0.247D-03-0.150D-03-0.156D-02-0.370D-02-0.560D-02
 Coeff-Com:  0.370D-02 0.731D-01 0.168D+00 0.766D+00
 Coeff:      0.198D-03-0.247D-03-0.150D-03-0.156D-02-0.370D-02-0.560D-02
 Coeff:      0.370D-02 0.731D-01 0.168D+00 0.766D+00
 Gap=     0.129 Goal=   None    Shift=    0.000
 RMSDP=5.39D-07 MaxDP=1.26D-05 DE=-1.44D-07 OVMax= 6.49D-05

 Cycle  11  Pass 1  IDiag  1:
 RMSU=  2.51D-07    CP:  9.89D-01  1.37D+00  6.67D-01  1.04D+00  8.59D-01
                    CP:  9.12D-01  8.91D-01  1.05D+00  7.53D-01  9.83D-01
 E= -768.318144587564     Delta-E=       -0.000000006111 Rises=F Damp=F
 DIIS: error= 8.22D-07 at cycle  11 NSaved=  11.
 NSaved=11 IEnMin=11 EnMin= -768.318144587564     IErMin=11 ErrMin= 8.22D-07
 ErrMax= 8.22D-07  0.00D+00 EMaxC= 1.00D-01 BMatC= 7.37D-10 BMatP= 5.18D-09
 IDIUse=1 WtCom= 1.00D+00 WtEn= 0.00D+00
 Coeff-Com:  0.526D-04-0.592D-04 0.362D-04-0.265D-03-0.109D-02-0.192D-02
 Coeff-Com: -0.346D-02 0.561D-02 0.399D-01 0.364D+00 0.597D+00
 Coeff:      0.526D-04-0.592D-04 0.362D-04-0.265D-03-0.109D-02-0.192D-02
 Coeff:     -0.346D-02 0.561D-02 0.399D-01 0.364D+00 0.597D+00
 Gap=     0.129 Goal=   None    Shift=    0.000
 RMSDP=1.62D-07 MaxDP=4.34D-06 DE=-6.11D-09 OVMax= 1.92D-05

 Cycle  12  Pass 1  IDiag  1:
 RMSU=  1.01D-07    CP:  9.89D-01  1.37D+00  6.67D-01  1.04D+00  8.59D-01
                    CP:  9.13D-01  8.91D-01  1.05D+00  7.70D-01  1.03D+00
                    CP:  7.78D-01
 E= -768.318144588315     Delta-E=       -0.000000000750 Rises=F Damp=F
 DIIS: error= 2.73D-07 at cycle  12 NSaved=  12.
 NSaved=12 IEnMin=12 EnMin= -768.318144588315     IErMin=12 ErrMin= 2.73D-07
 ErrMax= 2.73D-07  0.00D+00 EMaxC= 1.00D-01 BMatC= 8.22D-11 BMatP= 7.37D-10
 IDIUse=1 WtCom= 1.00D+00 WtEn= 0.00D+00
 Coeff-Com:  0.118D-04-0.139D-04 0.333D-04 0.551D-04-0.923D-04-0.122D-03
 Coeff-Com: -0.230D-02-0.718D-02-0.447D-02 0.575D-01 0.278D+00 0.679D+00
 Coeff:      0.118D-04-0.139D-04 0.333D-04 0.551D-04-0.923D-04-0.122D-03
 Coeff:     -0.230D-02-0.718D-02-0.447D-02 0.575D-01 0.278D+00 0.679D+00
 Gap=     0.129 Goal=   None    Shift=    0.000
 RMSDP=5.71D-08 MaxDP=1.74D-06 DE=-7.50D-10 OVMax= 6.94D-06

 Cycle  13  Pass 1  IDiag  1:
 RMSU=  2.71D-08    CP:  9.89D-01  1.37D+00  6.67D-01  1.04D+00  8.59D-01
                    CP:  9.13D-01  8.92D-01  1.05D+00  7.72D-01  1.05D+00
                    CP:  8.62D-01  7.90D-01
 E= -768.318144588400     Delta-E=       -0.000000000085 Rises=F Damp=F
 DIIS: error= 5.12D-08 at cycle  13 NSaved=  13.
 NSaved=13 IEnMin=13 EnMin= -768.318144588400     IErMin=13 ErrMin= 5.12D-08
 ErrMax= 5.12D-08  0.00D+00 EMaxC= 1.00D-01 BMatC= 3.25D-12 BMatP= 8.22D-11
 IDIUse=1 WtCom= 1.00D+00 WtEn= 0.00D+00
 Coeff-Com:  0.168D-06-0.145D-06 0.104D-04 0.414D-04 0.342D-04 0.103D-03
 Coeff-Com: -0.620D-03-0.288D-02-0.414D-02-0.123D-02 0.682D-01 0.251D+00
 Coeff-Com:  0.690D+00
 Coeff:      0.168D-06-0.145D-06 0.104D-04 0.414D-04 0.342D-04 0.103D-03
 Coeff:     -0.620D-03-0.288D-02-0.414D-02-0.123D-02 0.682D-01 0.251D+00
 Coeff:      0.690D+00
 Gap=     0.129 Goal=   None    Shift=    0.000
 RMSDP=1.16D-08 MaxDP=3.02D-07 DE=-8.53D-11 OVMax= 1.34D-06

 Cycle  14  Pass 1  IDiag  1:
 RMSU=  7.01D-09    CP:  9.89D-01  1.37D+00  6.67D-01  1.04D+00  8.59D-01
                    CP:  9.13D-01  8.92D-01  1.05D+00  7.72D-01  1.05D+00
                    CP:  8.77D-01  8.39D-01  9.29D-01
 E= -768.318144588403     Delta-E=       -0.000000000003 Rises=F Damp=F
 DIIS: error= 2.04D-08 at cycle  14 NSaved=  14.
 NSaved=14 IEnMin=14 EnMin= -768.318144588403     IErMin=14 ErrMin= 2.04D-08
 ErrMax= 2.04D-08  0.00D+00 EMaxC= 1.00D-01 BMatC= 4.80D-13 BMatP= 3.25D-12
 IDIUse=1 WtCom= 1.00D+00 WtEn= 0.00D+00
 Coeff-Com: -0.572D-06 0.588D-06 0.110D-05 0.109D-04 0.201D-04 0.570D-04
 Coeff-Com: -0.302D-04-0.480D-03-0.142D-02-0.714D-02-0.475D-03 0.381D-01
 Coeff-Com:  0.311D+00 0.660D+00
 Coeff:     -0.572D-06 0.588D-06 0.110D-05 0.109D-04 0.201D-04 0.570D-04
 Coeff:     -0.302D-04-0.480D-03-0.142D-02-0.714D-02-0.475D-03 0.381D-01
 Coeff:      0.311D+00 0.660D+00
 Gap=     0.129 Goal=   None    Shift=    0.000
 RMSDP=3.86D-09 MaxDP=1.05D-07 DE=-3.41D-12 OVMax= 4.04D-07

 Error on total polarization charges =  0.01343
 SCF Done:  E(RB3LYP) =  -768.318144588     A.U. after   14 cycles
            NFock= 14  Conv=0.39D-08     -V/T= 2.0091
 KE= 7.613878060171D+02 PE=-4.088606978290D+03 EE= 1.401772414067D+03
 Leave Link  502 at Fri May 24 08:34:03 2019, MaxMem=   402653184 cpu:             737.6 elap:             184.6
 (Enter /n/sw/g16_nehalem/g16/l601.exe)
 Copying SCF densities to generalized density rwf, IOpCl= 0 IROHF=0.

 **********************************************************************

            Population analysis using the SCF density.

 **********************************************************************

 Orbital symmetries:
       Occupied  (A) (A) (A) (A) (A) (A) (A) (A) (A) (A) (A) (A)
                 (A) (A) (A) (A) (A) (A) (A) (A) (A) (A) (A) (A)
                 (A) (A) (A) (A) (A) (A) (A) (A) (A) (A) (A) (A)
                 (A) (A) (A) (A) (A) (A) (A) (A) (A) (A) (A) (A)
                 (A) (A) (A) (A) (A) (A) (A) (A) (A) (A) (A)
       Virtual   (A) (A) (A) (A) (A) (A) (A) (A) (A) (A) (A) (A)
                 (A) (A) (A) (A) (A) (A) (A) (A) (A) (A) (A) (A)
                 (A) (A) (A) (A) (A) (A) (A) (A) (A) (A) (A) (A)
                 (A) (A) (A) (A) (A) (A) (A) (A) (A) (A) (A) (A)
                 (A) (A) (A) (A) (A) (A) (A) (A) (A) (A) (A) (A)
                 (A) (A) (A) (A) (A) (A) (A) (A) (A) (A) (A) (A)
                 (A) (A) (A) (A) (A) (A) (A) (A) (A) (A) (A) (A)
                 (A) (A) (A) (A) (A) (A) (A) (A) (A) (A) (A) (A)
                 (A) (A) (A) (A) (A) (A) (A) (A) (A) (A) (A) (A)
                 (A) (A) (A) (A) (A) (A) (A) (A) (A) (A) (A) (A)
                 (A) (A) (A) (A) (A) (A) (A) (A) (A) (A) (A) (A)
                 (A) (A) (A) (A) (A) (A) (A) (A) (A) (A) (A) (A)
                 (A) (A) (A) (A) (A) (A) (A) (A) (A) (A) (A) (A)
                 (A) (A) (A) (A) (A) (A) (A) (A) (A) (A) (A) (A)
                 (A) (A) (A) (A) (A) (A) (A) (A) (A) (A) (A) (A)
                 (A) (A) (A) (A) (A) (A) (A) (A) (A) (A) (A) (A)
                 (A) (A) (A) (A) (A) (A) (A) (A) (A) (A) (A) (A)
 The electronic state is 1-A.
 Alpha  occ. eigenvalues --  -19.33188 -19.21298 -19.20087 -19.19431 -19.18692
 Alpha  occ. eigenvalues --  -10.39669 -10.32305 -10.32104 -10.30308 -10.30077
 Alpha  occ. eigenvalues --  -10.28304 -10.26441 -10.25855 -10.24861 -10.24747
 Alpha  occ. eigenvalues --   -1.21871  -1.10383  -1.08460  -1.07026  -1.06669
 Alpha  occ. eigenvalues --   -0.87048  -0.86184  -0.77487  -0.75400  -0.74711
 Alpha  occ. eigenvalues --   -0.71827  -0.69389  -0.68153  -0.65475  -0.62742
 Alpha  occ. eigenvalues --   -0.60599  -0.59472  -0.56060  -0.54484  -0.54150
 Alpha  occ. eigenvalues --   -0.52791  -0.52288  -0.51016  -0.50291  -0.49576
 Alpha  occ. eigenvalues --   -0.48815  -0.48071  -0.46785  -0.46256  -0.45638
 Alpha  occ. eigenvalues --   -0.44482  -0.43458  -0.42250  -0.41729  -0.41154
 Alpha  occ. eigenvalues --   -0.39955  -0.38067  -0.35880  -0.35285  -0.34502
 Alpha  occ. eigenvalues --   -0.32690  -0.32026  -0.29525  -0.28143
 Alpha virt. eigenvalues --   -0.15285  -0.01249   0.03416   0.04210   0.05558
 Alpha virt. eigenvalues --    0.06960   0.07465   0.09495   0.09825   0.10064
 Alpha virt. eigenvalues --    0.10775   0.11256   0.11659   0.12271   0.12298
 Alpha virt. eigenvalues --    0.13250   0.13349   0.14306   0.14499   0.15031
 Alpha virt. eigenvalues --    0.15710   0.16226   0.17155   0.17844   0.18210
 Alpha virt. eigenvalues --    0.18838   0.19528   0.20708   0.22145   0.23078
 Alpha virt. eigenvalues --    0.24037   0.24640   0.26357   0.27360   0.28905
 Alpha virt. eigenvalues --    0.43129   0.44754   0.45815   0.46834   0.47768
 Alpha virt. eigenvalues --    0.48885   0.49659   0.49809   0.50919   0.51354
 Alpha virt. eigenvalues --    0.53321   0.54043   0.54888   0.55796   0.56132
 Alpha virt. eigenvalues --    0.57115   0.57281   0.59134   0.61141   0.62171
 Alpha virt. eigenvalues --    0.64096   0.65026   0.66073   0.66974   0.72012
 Alpha virt. eigenvalues --    0.73477   0.74826   0.75798   0.76217   0.77967
 Alpha virt. eigenvalues --    0.78270   0.78585   0.81107   0.81987   0.82429
 Alpha virt. eigenvalues --    0.82924   0.83381   0.84113   0.84248   0.84787
 Alpha virt. eigenvalues --    0.86092   0.87032   0.87947   0.88728   0.89270
 Alpha virt. eigenvalues --    0.89677   0.91560   0.93631   0.94125   0.96207
 Alpha virt. eigenvalues --    0.96885   0.97352   0.98897   1.01351   1.02696
 Alpha virt. eigenvalues --    1.04035   1.04926   1.06703   1.09996   1.12086
 Alpha virt. eigenvalues --    1.14702   1.17161   1.17988   1.19530   1.21057
 Alpha virt. eigenvalues --    1.22640   1.26777   1.27941   1.29582   1.31763
 Alpha virt. eigenvalues --    1.32983   1.37079   1.39628   1.40042   1.44575
 Alpha virt. eigenvalues --    1.44949   1.46431   1.47008   1.49105   1.49384
 Alpha virt. eigenvalues --    1.52203   1.53523   1.55303   1.56982   1.59364
 Alpha virt. eigenvalues --    1.60787   1.62215   1.65665   1.69476   1.70772
 Alpha virt. eigenvalues --    1.72355   1.73773   1.75097   1.76109   1.79467
 Alpha virt. eigenvalues --    1.81269   1.83050   1.83981   1.86160   1.88960
 Alpha virt. eigenvalues --    1.92790   1.92903   1.95475   1.96845   2.00302
 Alpha virt. eigenvalues --    2.01278   2.01941   2.02478   2.03270   2.03922
 Alpha virt. eigenvalues --    2.05209   2.05532   2.06764   2.08683   2.11610
 Alpha virt. eigenvalues --    2.12988   2.13262   2.14887   2.16029   2.16724
 Alpha virt. eigenvalues --    2.18270   2.20505   2.21539   2.23173   2.25597
 Alpha virt. eigenvalues --    2.27540   2.28401   2.32109   2.33030   2.35826
 Alpha virt. eigenvalues --    2.36631   2.39657   2.42173   2.43202   2.47370
 Alpha virt. eigenvalues --    2.50299   2.53221   2.56711   2.57355   2.60637
 Alpha virt. eigenvalues --    2.62476   2.64396   2.65994   2.74400   2.75046
 Alpha virt. eigenvalues --    2.77050   2.79815   2.82804   2.88852   2.90738
 Alpha virt. eigenvalues --    2.92787   2.96429   3.01108   3.06685   3.85686
 Alpha virt. eigenvalues --    3.89889   3.91836   4.01762   4.04300   4.14395
 Alpha virt. eigenvalues --    4.19935   4.21807   4.23336   4.24472   4.27775
 Alpha virt. eigenvalues --    4.38024   4.48019   4.49529   4.68828
          Condensed to atoms (all electrons):
               1          2          3          4          5          6
     1  C    4.948760   0.233543  -0.028971  -0.032188   0.292711   0.001848
     2  C    0.233543   5.181810   0.289275  -0.001544  -0.045023  -0.040892
     3  C   -0.028971   0.289275   4.825106  -0.034702  -0.005116   0.364189
     4  C   -0.032188  -0.001544  -0.034702   5.200255   0.280613   0.002627
     5  C    0.292711  -0.045023  -0.005116   0.280613   5.048830  -0.000196
     6  H    0.001848  -0.040892   0.364189   0.002627  -0.000196   0.418939
     7  H   -0.031158   0.345051  -0.049410   0.001135  -0.004746   0.002233
     8  H    0.376083  -0.040978  -0.004511  -0.001383  -0.047517   0.000122
     9  H   -0.000458   0.000049   0.001200   0.356756  -0.039082  -0.000105
    10  H   -0.045989  -0.001947   0.000017  -0.047185   0.350239   0.000003
    11  O   -0.001235  -0.030540   0.377107   0.111298  -0.023760  -0.032906
    12  O   -0.028241   0.182351  -0.029437   0.000021   0.002740   0.001059
    13  O    0.272099  -0.039804   0.001980   0.002447  -0.037710  -0.000043
    14  O   -0.034196   0.003138   0.000036  -0.035392   0.195415   0.000002
    15  C    0.001123  -0.000128  -0.000053   0.285428  -0.021329  -0.000045
    16  H   -0.000141   0.000081   0.000995  -0.048263   0.003993  -0.000059
    17  H   -0.000002  -0.000247   0.001081  -0.051694  -0.007878   0.000019
    18  O   -0.000004   0.000003  -0.000028  -0.047309   0.002321   0.000001
    19  C    0.003159  -0.033914  -0.001782   0.000007  -0.000121   0.001895
    20  H    0.000140  -0.010430  -0.000824   0.000001   0.000013   0.000098
    21  H   -0.000132   0.004818  -0.000121   0.000000   0.000001  -0.000086
    22  H   -0.000144  -0.003999   0.003990  -0.000004   0.000011   0.000570
    23  C   -0.041339  -0.005251   0.000450   0.000227  -0.007752   0.000000
    24  H   -0.003036  -0.002373   0.000045  -0.000429   0.004052   0.000000
    25  H    0.005146  -0.000046  -0.000007   0.000001  -0.000015   0.000000
    26  H   -0.011775   0.008657   0.000086   0.000026  -0.000397   0.000006
    27  C   -0.003042   0.000102  -0.000009   0.005269  -0.031116   0.000000
    28  H    0.001183  -0.000054  -0.000002  -0.000103  -0.002867   0.000000
    29  H   -0.000744   0.000055  -0.000002  -0.000160  -0.009478   0.000000
    30  H   -0.000012   0.000008   0.000000  -0.000115   0.004488   0.000000
    31  C    0.000016   0.000003   0.000006  -0.004638   0.002233   0.000000
    32  H    0.000327  -0.000009  -0.000001   0.004244  -0.002424   0.000000
    33  H   -0.000005  -0.000001   0.000002  -0.001442  -0.000521   0.000000
    34  H   -0.000001   0.000000   0.000000  -0.000127   0.000009   0.000000
               7          8          9         10         11         12
     1  C   -0.031158   0.376083  -0.000458  -0.045989  -0.001235  -0.028241
     2  C    0.345051  -0.040978   0.000049  -0.001947  -0.030540   0.182351
     3  C   -0.049410  -0.004511   0.001200   0.000017   0.377107  -0.029437
     4  C    0.001135  -0.001383   0.356756  -0.047185   0.111298   0.000021
     5  C   -0.004746  -0.047517  -0.039082   0.350239  -0.023760   0.002740
     6  H    0.002233   0.000122  -0.000105   0.000003  -0.032906   0.001059
     7  H    0.525463   0.005000   0.000015   0.004089   0.000882  -0.032374
     8  H    0.005000   0.537826   0.000642   0.005619   0.001385  -0.000221
     9  H    0.000015   0.000642   0.463332   0.004927  -0.021537   0.000002
    10  H    0.004089   0.005619   0.004927   0.581072   0.001918  -0.000086
    11  O    0.000882   0.001385  -0.021537   0.001918   7.944292   0.001657
    12  O   -0.032374  -0.000221   0.000002  -0.000086   0.001657   8.236941
    13  O   -0.004496  -0.040528  -0.000045  -0.004193   0.000050   0.003030
    14  O    0.000014   0.002798   0.007790  -0.036852   0.000810  -0.000009
    15  C    0.000276   0.000009  -0.032158  -0.001766  -0.025602   0.000001
    16  H   -0.000025   0.000007  -0.002244   0.000155   0.001580  -0.000001
    17  H    0.000301  -0.000005   0.004847   0.005570   0.001915   0.000001
    18  O   -0.000002   0.000000   0.004946  -0.000267   0.001217   0.000000
    19  C   -0.004668  -0.000144   0.000000   0.000004   0.000023   0.225589
    20  H    0.012364   0.000022   0.000000  -0.000001   0.000012  -0.034260
    21  H   -0.000060   0.000003   0.000000   0.000000   0.000001  -0.028913
    22  H   -0.001836  -0.000003   0.000000   0.000000  -0.000125  -0.035331
    23  C    0.004589   0.005456  -0.000004   0.002854  -0.000001  -0.001618
    24  H   -0.000688  -0.000301   0.000002   0.004163  -0.000003   0.000241
    25  H   -0.000069  -0.000122   0.000000  -0.000073   0.000000  -0.000028
    26  H    0.000070  -0.000129   0.000000  -0.000142  -0.000003   0.002783
    27  C   -0.000017  -0.000025  -0.000162  -0.006278  -0.000049  -0.000001
    28  H   -0.000003  -0.000350   0.000023  -0.001362   0.000004   0.000002
    29  H    0.000004   0.000140   0.000108   0.012580  -0.000002   0.000000
    30  H    0.000000  -0.000034  -0.000076  -0.000044   0.000000   0.000000
    31  C    0.000000   0.000000  -0.000395   0.001005   0.000004   0.000000
    32  H    0.000000  -0.000005   0.000218  -0.001966  -0.000025   0.000000
    33  H    0.000001   0.000000   0.000243   0.001367   0.000004   0.000000
    34  H    0.000000   0.000000  -0.000040  -0.000026   0.000001   0.000000
              13         14         15         16         17         18
     1  C    0.272099  -0.034196   0.001123  -0.000141  -0.000002  -0.000004
     2  C   -0.039804   0.003138  -0.000128   0.000081  -0.000247   0.000003
     3  C    0.001980   0.000036  -0.000053   0.000995   0.001081  -0.000028
     4  C    0.002447  -0.035392   0.285428  -0.048263  -0.051694  -0.047309
     5  C   -0.037710   0.195415  -0.021329   0.003993  -0.007878   0.002321
     6  H   -0.000043   0.000002  -0.000045  -0.000059   0.000019   0.000001
     7  H   -0.004496   0.000014   0.000276  -0.000025   0.000301  -0.000002
     8  H   -0.040528   0.002798   0.000009   0.000007  -0.000005   0.000000
     9  H   -0.000045   0.007790  -0.032158  -0.002244   0.004847   0.004946
    10  H   -0.004193  -0.036852  -0.001766   0.000155   0.005570  -0.000267
    11  O    0.000050   0.000810  -0.025602   0.001580   0.001915   0.001217
    12  O    0.003030  -0.000009   0.000001  -0.000001   0.000001   0.000000
    13  O    8.170499   0.000585  -0.000018   0.000001  -0.000007   0.000000
    14  O    0.000585   8.253695   0.000949  -0.000091   0.000086  -0.000090
    15  C   -0.000018   0.000949   4.896831   0.381293   0.355461   0.268708
    16  H    0.000001  -0.000091   0.381293   0.523919  -0.030479  -0.033125
    17  H   -0.000007   0.000086   0.355461  -0.030479   0.580533  -0.032601
    18  O    0.000000  -0.000090   0.268708  -0.033125  -0.032601   8.158365
    19  C   -0.000023   0.000000  -0.000001   0.000000   0.000000   0.000000
    20  H   -0.000031   0.000000   0.000000   0.000000   0.000000   0.000000
    21  H    0.000006   0.000000   0.000000   0.000000   0.000000   0.000000
    22  H   -0.000003   0.000000   0.000000   0.000000   0.000000   0.000000
    23  C    0.233904  -0.000050  -0.000007   0.000000  -0.000013   0.000000
    24  H   -0.035920   0.000068   0.000016  -0.000001   0.000018   0.000000
    25  H   -0.030522  -0.000004   0.000000   0.000000   0.000000   0.000000
    26  H   -0.034778  -0.000005  -0.000002   0.000000   0.000000   0.000000
    27  C   -0.002861   0.224777  -0.000184   0.000004   0.000000   0.000016
    28  H    0.008916  -0.032114  -0.000006   0.000000   0.000000   0.000000
    29  H    0.000055  -0.035634   0.000045   0.000000  -0.000002  -0.000006
    30  H    0.000237  -0.032465   0.000005   0.000000   0.000000   0.000000
    31  C    0.000000  -0.004853  -0.044613   0.005459  -0.008457   0.240314
    32  H   -0.000006   0.013648  -0.002640  -0.000424  -0.001181  -0.038078
    33  H    0.000000   0.000063  -0.009796   0.000045   0.013269  -0.034141
    34  H    0.000000   0.000069   0.004733  -0.000163  -0.000024  -0.032271
              19         20         21         22         23         24
     1  C    0.003159   0.000140  -0.000132  -0.000144  -0.041339  -0.003036
     2  C   -0.033914  -0.010430   0.004818  -0.003999  -0.005251  -0.002373
     3  C   -0.001782  -0.000824  -0.000121   0.003990   0.000450   0.000045
     4  C    0.000007   0.000001   0.000000  -0.000004   0.000227  -0.000429
     5  C   -0.000121   0.000013   0.000001   0.000011  -0.007752   0.004052
     6  H    0.001895   0.000098  -0.000086   0.000570   0.000000   0.000000
     7  H   -0.004668   0.012364  -0.000060  -0.001836   0.004589  -0.000688
     8  H   -0.000144   0.000022   0.000003  -0.000003   0.005456  -0.000301
     9  H    0.000000   0.000000   0.000000   0.000000  -0.000004   0.000002
    10  H    0.000004  -0.000001   0.000000   0.000000   0.002854   0.004163
    11  O    0.000023   0.000012   0.000001  -0.000125  -0.000001  -0.000003
    12  O    0.225589  -0.034260  -0.028913  -0.035331  -0.001618   0.000241
    13  O   -0.000023  -0.000031   0.000006  -0.000003   0.233904  -0.035920
    14  O    0.000000   0.000000   0.000000   0.000000  -0.000050   0.000068
    15  C   -0.000001   0.000000   0.000000   0.000000  -0.000007   0.000016
    16  H    0.000000   0.000000   0.000000   0.000000   0.000000  -0.000001
    17  H    0.000000   0.000000   0.000000   0.000000  -0.000013   0.000018
    18  O    0.000000   0.000000   0.000000   0.000000   0.000000   0.000000
    19  C    4.922807   0.368998   0.387089   0.367613  -0.000720   0.000007
    20  H    0.368998   0.556507  -0.025958  -0.042759   0.000097  -0.000026
    21  H    0.387089  -0.025958   0.490653  -0.028988   0.000019   0.000000
    22  H    0.367613  -0.042759  -0.028988   0.570955   0.000012   0.000000
    23  C   -0.000720   0.000097   0.000019   0.000012   4.942515   0.359803
    24  H    0.000007  -0.000026   0.000000   0.000000   0.359803   0.580028
    25  H    0.000007   0.000002   0.000000   0.000000   0.388185  -0.028642
    26  H    0.000694   0.000812  -0.000100   0.000096   0.364531  -0.043471
    27  C    0.000000   0.000000   0.000000   0.000000   0.000463  -0.000175
    28  H    0.000000   0.000000   0.000000   0.000000  -0.000615   0.000075
    29  H    0.000000   0.000000   0.000000   0.000000  -0.000083   0.000394
    30  H    0.000000   0.000000   0.000000   0.000000  -0.000007  -0.000017
    31  C    0.000000   0.000000   0.000000   0.000000   0.000000  -0.000006
    32  H    0.000000   0.000000   0.000000   0.000000   0.000000   0.000004
    33  H    0.000000   0.000000   0.000000   0.000000  -0.000001   0.000000
    34  H    0.000000   0.000000   0.000000   0.000000   0.000000   0.000000
              25         26         27         28         29         30
     1  C    0.005146  -0.011775  -0.003042   0.001183  -0.000744  -0.000012
     2  C   -0.000046   0.008657   0.000102  -0.000054   0.000055   0.000008
     3  C   -0.000007   0.000086  -0.000009  -0.000002  -0.000002   0.000000
     4  C    0.000001   0.000026   0.005269  -0.000103  -0.000160  -0.000115
     5  C   -0.000015  -0.000397  -0.031116  -0.002867  -0.009478   0.004488
     6  H    0.000000   0.000006   0.000000   0.000000   0.000000   0.000000
     7  H   -0.000069   0.000070  -0.000017  -0.000003   0.000004   0.000000
     8  H   -0.000122  -0.000129  -0.000025  -0.000350   0.000140  -0.000034
     9  H    0.000000   0.000000  -0.000162   0.000023   0.000108  -0.000076
    10  H   -0.000073  -0.000142  -0.006278  -0.001362   0.012580  -0.000044
    11  O    0.000000  -0.000003  -0.000049   0.000004  -0.000002   0.000000
    12  O   -0.000028   0.002783  -0.000001   0.000002   0.000000   0.000000
    13  O   -0.030522  -0.034778  -0.002861   0.008916   0.000055   0.000237
    14  O   -0.000004  -0.000005   0.224777  -0.032114  -0.035634  -0.032465
    15  C    0.000000  -0.000002  -0.000184  -0.000006   0.000045   0.000005
    16  H    0.000000   0.000000   0.000004   0.000000   0.000000   0.000000
    17  H    0.000000   0.000000   0.000000   0.000000  -0.000002   0.000000
    18  O    0.000000   0.000000   0.000016   0.000000  -0.000006   0.000000
    19  C    0.000007   0.000694   0.000000   0.000000   0.000000   0.000000
    20  H    0.000002   0.000812   0.000000   0.000000   0.000000   0.000000
    21  H    0.000000  -0.000100   0.000000   0.000000   0.000000   0.000000
    22  H    0.000000   0.000096   0.000000   0.000000   0.000000   0.000000
    23  C    0.388185   0.364531   0.000463  -0.000615  -0.000083  -0.000007
    24  H   -0.028642  -0.043471  -0.000175   0.000075   0.000394  -0.000017
    25  H    0.497155  -0.028153   0.000069  -0.000219   0.000025  -0.000001
    26  H   -0.028153   0.570658   0.000017   0.000089   0.000006   0.000000
    27  C    0.000069   0.000017   4.921327   0.370962   0.366139   0.381749
    28  H   -0.000219   0.000089   0.370962   0.546629  -0.041198  -0.029336
    29  H    0.000025   0.000006   0.366139  -0.041198   0.580083  -0.028242
    30  H   -0.000001   0.000000   0.381749  -0.029336  -0.028242   0.521152
    31  C    0.000000   0.000000  -0.000083  -0.000017   0.000865   0.000071
    32  H    0.000000   0.000000  -0.000685   0.000273  -0.001025  -0.000348
    33  H    0.000000   0.000000  -0.000018  -0.000001   0.000126  -0.000002
    34  H    0.000000   0.000000   0.000007   0.000000  -0.000031  -0.000001
              31         32         33         34
     1  C    0.000016   0.000327  -0.000005  -0.000001
     2  C    0.000003  -0.000009  -0.000001   0.000000
     3  C    0.000006  -0.000001   0.000002   0.000000
     4  C   -0.004638   0.004244  -0.001442  -0.000127
     5  C    0.002233  -0.002424  -0.000521   0.000009
     6  H    0.000000   0.000000   0.000000   0.000000
     7  H    0.000000   0.000000   0.000001   0.000000
     8  H    0.000000  -0.000005   0.000000   0.000000
     9  H   -0.000395   0.000218   0.000243  -0.000040
    10  H    0.001005  -0.001966   0.001367  -0.000026
    11  O    0.000004  -0.000025   0.000004   0.000001
    12  O    0.000000   0.000000   0.000000   0.000000
    13  O    0.000000  -0.000006   0.000000   0.000000
    14  O   -0.004853   0.013648   0.000063   0.000069
    15  C   -0.044613  -0.002640  -0.009796   0.004733
    16  H    0.005459  -0.000424   0.000045  -0.000163
    17  H   -0.008457  -0.001181   0.013269  -0.000024
    18  O    0.240314  -0.038078  -0.034141  -0.032271
    19  C    0.000000   0.000000   0.000000   0.000000
    20  H    0.000000   0.000000   0.000000   0.000000
    21  H    0.000000   0.000000   0.000000   0.000000
    22  H    0.000000   0.000000   0.000000   0.000000
    23  C    0.000000   0.000000  -0.000001   0.000000
    24  H   -0.000006   0.000004   0.000000   0.000000
    25  H    0.000000   0.000000   0.000000   0.000000
    26  H    0.000000   0.000000   0.000000   0.000000
    27  C   -0.000083  -0.000685  -0.000018   0.000007
    28  H   -0.000017   0.000273  -0.000001   0.000000
    29  H    0.000865  -0.001025   0.000126  -0.000031
    30  H    0.000071  -0.000348  -0.000002  -0.000001
    31  C    4.941236   0.357609   0.363969   0.385022
    32  H    0.357609   0.580232  -0.044334  -0.030894
    33  H    0.363969  -0.044334   0.583436  -0.027436
    34  H    0.385022  -0.030894  -0.027436   0.517579
 Mulliken charges:
               1
     1  C    0.126676
     2  C    0.008236
     3  C    0.289411
     4  C    0.056322
     5  C    0.099380
     6  H    0.280722
     7  H    0.228064
     8  H    0.201143
     9  H    0.251207
    10  H    0.172595
    11  O   -0.308372
    12  O   -0.465898
    13  O   -0.462821
    14  O   -0.492189
    15  C   -0.056530
    16  H    0.197482
    17  H    0.169490
    18  O   -0.457965
    19  C   -0.236520
    20  H    0.175224
    21  H    0.201767
    22  H    0.169946
    23  C   -0.245641
    24  H    0.166171
    25  H    0.197313
    26  H    0.170423
    27  C   -0.226199
    28  H    0.180092
    29  H    0.155981
    30  H    0.182989
    31  C   -0.234753
    32  H    0.167490
    33  H    0.155172
    34  H    0.183592
 Sum of Mulliken charges =   1.00000
 Mulliken charges with hydrogens summed into heavy atoms:
               1
     1  C    0.327819
     2  C    0.236300
[...]
 0003387,0.00004697,-0.00003592,0.00003386,0.00013639,0.00024412,0.0000
 4775,0.00001662,0.00003839,-0.00006767,0.00000006,-0.00000241,0.000011
 32,-0.00001732,-0.00000676,0.00001344,0.00000119,-0.00000979,0.0000062
 5,0.00002200,0.00011278,0.00005433,-0.00032063,0.00016323,0.00014728,-
 0.00000406,0.00000727,0.00001064,0.00000101,-0.00002242,-0.00003429,-0
 .00019570,-0.05086896,0.00377286,0.00287211,0.00324630,0.01479427,0.00
 307745,0.06236167,0.00029441,-0.00032749,-0.00022055,-0.00002585,-0.00
 005932,-0.00003388,-0.00006977,0.00015417,0.00006810,0.00011176,0.0001
 6207,0.00051335,0.00200245,0.00245437,0.00200296,-0.00001027,0.0000250
 0,-0.00003374,0.00001591,0.00003575,0.00000252,0.00014015,-0.00000331,
 -0.00004362,-0.00014342,0.00021680,-0.00008885,-0.00157777,-0.00160002
 ,0.00048402,-0.00002804,-0.00012857,0.00005187,-0.00023227,-0.00011818
 ,0.00009664,-0.00035304,0.00002535,0.00028037,-0.00262009,-0.01279442,
 -0.00800189,-0.00032027,-0.00001867,-0.00018154,0.00005105,-0.00002763
 ,0.00004135,0.00002966,-0.00000605,0.00000102,0.00024372,0.00037577,0.
 00005514,0.00004628,0.00005668,-0.00009512,-0.00000114,-0.00000400,0.0
 0001774,-0.00002064,-0.00000811,0.00001358,-0.00000150,-0.00001536,0.0
 0000982,0.00000492,-0.00000309,-0.00036356,0.00064163,0.00012429,-0.00
 003627,-0.00001572,0.00000660,0.00002261,0.00002726,-0.00002108,0.0000
 4692,-0.07258935,-0.00146247,-0.28253615,-0.00015491,0.00115766,-0.002
 65131,0.08115322,0.01177711,0.30666873,0.00013704,0.00098477,0.0002676
 9,0.00002695,-0.00037404,-0.00003026,-0.00023035,0.00016843,0.00015958
 ,-0.00003805,0.00005472,0.00011162,0.00160133,0.00144366,-0.00152963,-
 0.00000108,0.00002231,-0.00004780,0.00000552,0.00006953,-0.00000436,0.
 00002622,-0.00000589,-0.00001258,-0.00000245,0.00002263,0.00003354,-0.
 00008628,-0.00004894,0.00014087,0.00017692,-0.00005618,-0.00001834,-0.
 00011785,-0.00007386,0.00004415,-0.00128108,-0.00091280,0.00044191,0.0
 0042817,-0.00475811,-0.00011730,-0.00008169,-0.00002442,-0.00010834,0.
 00001344,-0.00002174,0.00002134,0.00000408,0.00000768,0.00000681,0.000
 06397,-0.00002220,0.00003273,0.00004589,0.00004384,-0.00005528,-0.0000
 0185,-0.00000150,0.00000864,-0.00001463,-0.00000296,0.00000882,-0.0000
 0128,-0.00001182,0.00000509,0.00020601,-0.00008641,-0.00064894,0.00003
 040,0.00000530,0.00004115,0.00000963,0.00002129,0.00001060,-0.00003701
 ,-0.00005586,0.00010679,-0.19060834,-0.07294854,0.11715183,-0.01673728
 ,-0.01070435,0.01782432,0.00914105,0.00526473,-0.00656918,0.19734251,0
 .00042225,-0.00147989,0.00020662,-0.00010408,0.00015455,-0.00003075,0.
 00028868,0.00013621,0.00000367,-0.00103446,0.00017302,0.00090519,-0.00
 036435,-0.00431214,-0.00355077,-0.00004421,0.00004697,-0.00003589,-0.0
 0000033,0.00007290,-0.00001924,-0.00002172,0.00000053,0.00001000,-0.00
 002536,0.00000982,-0.00007951,0.00015333,-0.00000399,0.00014408,-0.000
 22126,-0.00075633,-0.00012326,-0.00034313,-0.00017042,0.00010795,0.000
 54770,0.00102286,0.00000811,-0.02638376,-0.02833513,0.02042537,-0.0002
 4153,-0.00009047,-0.00025012,0.00006317,-0.00006028,0.00006071,0.00002
 165,0.00002036,-0.00001140,0.00023961,0.00011624,0.00006558,0.00004284
 ,0.00006904,-0.00012716,-0.00000035,-0.00000568,0.00002254,-0.00002846
 ,-0.00001277,0.00002216,-0.00000034,-0.00001740,0.00001374,-0.00010605
 ,0.00004980,0.00015283,-0.00005126,-0.00006348,0.00004465,-0.00003191,
 0.00000875,0.00002117,0.00002137,0.00000459,-0.00001420,-0.06541982,-0
 .08309617,0.05741585,0.00926403,0.00883332,-0.00974788,0.00145881,0.00
 203586,0.00040218,0.08199713,0.10579273,0.00000168,-0.00004899,0.00012
 547,-0.00006825,-0.00012210,0.00003501,-0.00008051,0.00004843,0.000053
 19,-0.00019967,-0.00006746,0.00041767,-0.00100067,-0.00219286,0.000223
 99,-0.00000407,0.00001714,-0.00001760,-0.00001408,0.00003312,-0.000012
 22,0.00001364,0.00001154,0.00001832,0.00001341,0.00002448,-0.00004421,
 -0.00009441,-0.00017990,0.00044672,0.00014658,0.00000590,-0.00001682,-
 0.00001627,-0.00001585,0.00000299,0.00006170,0.00001879,0.00004199,-0.
 00906799,-0.00707738,0.00798464,0.00008827,-0.00004892,-0.00003887,-0.
 00000022,-0.00000141,0.00000664,-0.00000759,-0.00000272,-0.00000142,-0
 .00003898,-0.00004896,0.00001762,-0.00000969,0.00000057,-0.00000690,0.
 00000027,-0.00000079,0.00000182,-0.00000164,-0.00000074,0.00000386,0.0
 0000167,0.00000239,-0.00000025,-0.00015278,0.00002619,-0.00003970,-0.0
 0006510,-0.00006484,0.00015765,0.00000763,-0.00000476,0.00000877,0.000
 04470,-0.00000130,0.00003111,0.11958673,0.06700684,-0.15466465,-0.0041
 4880,-0.00240843,0.00413691,0.02214799,0.01102829,-0.01581630,-0.12721
 329,-0.06599978,0.15699552,-0.00015865,0.00014899,-0.00027495,-0.00021
 781,-0.00013367,0.00004616,-0.00041310,0.00049624,0.00009495,0.0003176
 3,-0.00154156,-0.00015228,-0.00017646,0.00110451,-0.00004017,0.0000827
 2,0.00001054,-0.00013083,0.00003022,0.00000738,0.00002388,-0.00005141,
 -0.00000933,0.00005003,-0.00016499,0.00040674,-0.00046797,0.00033780,0
 .00007294,-0.00003306,0.00091577,-0.00030071,0.00031708,0.00018619,-0.
 00003829,-0.00003208,0.00016223,-0.00023875,-0.00004211,-0.00127241,0.
 00001658,-0.00080108,-0.02639257,-0.04012010,-0.01604308,-0.00414408,-
 0.00026475,-0.00013722,0.00306436,-0.00124090,-0.00184518,-0.09204227,
 -0.01016828,0.00313096,-0.00006943,-0.00002920,0.00006599,0.00000377,0
 .00000354,-0.00001459,0.00001553,0.00000143,-0.00000584,0.00000337,0.0
 0000621,-0.00001147,0.00000635,0.00003006,0.00007539,0.00000423,0.0000
 1109,-0.00000701,0.00000452,-0.00001153,-0.00000700,-0.00000550,-0.000
 00225,-0.00001610,-0.00000087,-0.00034683,0.00001205,0.00002220,0.0000
 0801,0.00003161,-0.00016215,-0.00014134,-0.00001142,-0.00001316,-0.000
 00148,-0.00005004,0.61627724,0.00027027,0.00076183,-0.00086971,-0.0008
 1392,-0.00089801,-0.00003072,-0.00199833,0.00186272,0.00101845,0.00207
 919,0.00295273,-0.00127715,0.00139057,0.00301452,0.00015704,0.00022231
 ,0.00013274,-0.00058425,0.00017827,0.00009575,0.00007965,-0.00012654,-
 0.00001653,0.00004647,-0.00024464,0.00107236,-0.00056615,0.00002750,-0
 .00016821,-0.00047259,0.00511060,-0.00170308,0.00197548,0.00045754,-0.
 00024254,-0.00005159,0.00011793,-0.00082094,-0.00012432,-0.00370789,-0
 .00051677,-0.00063950,-0.01491350,-0.01367396,-0.00285242,0.00025641,0
 .00249336,-0.00015708,0.00640758,0.00109623,-0.00033130,-0.04302463,-0
 .19143241,-0.05030981,-0.00020537,-0.00000948,0.00018134,0.00000917,0.
 00000106,-0.00003487,0.00003503,0.00000006,-0.00000879,0.00001877,0.00
 000337,-0.00003732,0.00018137,0.00009705,0.00023151,-0.00001038,0.0000
 3997,-0.00006079,-0.00000595,-0.00002671,-0.00002388,-0.00005609,-0.00
 002985,-0.00004509,0.00023954,-0.00084348,0.00062691,-0.00012386,0.000
 03449,-0.00024550,0.00033986,-0.00032009,-0.00041729,0.00006142,-0.000
 14206,0.00006975,-0.03835211,0.48355637,-0.00042755,0.00024132,-0.0001
 5824,-0.00037895,-0.00032436,0.00009836,-0.00110576,0.00077934,0.00038
 418,-0.00155098,-0.00153282,-0.00033818,-0.00033144,0.00028932,0.00092
 331,0.00011819,-0.00001306,-0.00016160,0.00004213,0.00000113,0.0000248
 6,0.00003782,0.00002912,-0.00000278,-0.00020984,-0.00000012,-0.0003618
 9,0.00021023,-0.00020180,-0.00006626,0.00182960,-0.00055959,0.00024806
 ,0.00038435,-0.00002503,-0.00013856,0.00039582,-0.00052628,-0.00034808
 ,0.00008411,-0.00045471,-0.00021285,-0.00370833,0.00257362,-0.00640954
 ,0.00353000,0.00166519,0.00065829,0.00378977,0.00398300,0.00271045,-0.
 01625997,-0.05954026,-0.08358734,-0.00014288,-0.00004993,0.00018316,0.
 00000569,-0.00000397,-0.00003062,0.00003021,0.00000723,-0.00001810,0.0
 0001134,0.00001684,-0.00002176,0.00002383,0.00005965,0.00037444,-0.000
 02817,0.00001394,-0.00001414,0.00000192,-0.00002378,-0.00003209,0.0000
 0443,0.00000610,-0.00005655,0.00031424,0.00037238,-0.00004807,0.000075
 12,-0.00004274,0.00010997,-0.00019369,0.00023556,0.00016126,-0.0000594
 9,-0.00003596,-0.00004868,-0.01885016,-0.04557270,0.56048766,-0.000056
 61,0.00033465,-0.00010142,-0.00006075,-0.00004528,0.00004241,-0.000099
 51,0.00004636,0.00010202,-0.00010425,0.00012054,-0.00033827,-0.0019725
 2,-0.00047501,-0.00004669,0.00003440,0.00000337,-0.00003779,0.00000264
 ,-0.00001106,-0.00000534,-0.00001616,-0.00001648,0.00000275,0.00000278
 ,0.00001632,-0.00011441,-0.00066829,-0.00013390,-0.00021189,0.00063631
 ,0.00019729,0.00024470,0.00016226,0.00004909,-0.00005667,0.00009994,-0
 .00006573,-0.00008252,-0.00011000,0.00002144,0.00001059,0.00256827,-0.
 00081704,0.00156257,-0.00028505,0.00005895,-0.00015255,-0.00020982,-0.
 00007445,0.00014526,0.00528259,-0.01390153,0.00607962,-0.00003952,-0.0
 0003230,0.00006027,0.00000225,0.00000153,-0.00001104,0.00001389,0.0000
 0474,-0.00000864,0.00000282,0.00001052,-0.00000750,-0.00005418,0.00000
 614,0.00010828,-0.00000475,0.00000811,0.00001123,0.00001035,-0.0000102
 3,-0.00000804,0.00001052,0.00001071,-0.00001334,-0.00039747,0.00139109
 ,-0.00027285,-0.00001436,-0.00025803,-0.00001563,0.00038436,0.00036082
 ,-0.00000264,-0.00001772,-0.00010989,0.00011930,-0.08072398,0.05988247
 ,-0.04852829,0.07806837,-0.00018024,-0.00008326,0.00025940,0.00011066,
 0.00017021,-0.00000794,0.00031300,-0.00028657,-0.00011400,-0.00151468,
 -0.00000248,-0.00022516,-0.00071876,-0.00068207,-0.00010515,-0.0000170
 3,-0.00003294,0.00009444,-0.00002731,-0.00002836,-0.00000970,0.0000644
 4,0.00000974,-0.00002490,-0.00003493,-0.00019364,-0.00006355,-0.000112
 20,0.00013935,0.00019083,-0.00050812,0.00044079,-0.00029908,-0.0000348
 5,0.00005366,-0.00000411,0.00000708,0.00011160,-0.00002151,0.00187457,
 -0.00087961,0.00062236,0.00637803,0.00039203,0.00085807,-0.00089679,-0
 .00016411,-0.00030701,-0.00080399,-0.00009785,0.00009022,-0.00076287,-
 0.03871776,0.00820748,0.00002048,-0.00001137,-0.00001070,-0.00000101,0
 .00000009,0.00000219,-0.00000204,0.00000134,-0.00000128,-0.00000314,0.
 00000239,0.00000496,-0.00004062,-0.00001354,-0.00000745,0.00000212,-0.
 00000215,0.00000829,0.00000417,0.00000151,0.00000143,0.00001129,0.0000
 0671,0.00000207,0.00089754,0.00022833,0.00059034,0.00000390,-0.0000918
 6,-0.00003705,0.00017819,-0.00052428,-0.00002180,-0.00004441,-0.000021
 02,0.00000513,0.05583060,-0.18280966,0.11447998,-0.06069316,0.21568080
 ,0.00033601,0.00015072,-0.00037396,0.00008778,-0.00004203,-0.00001206,
 -0.00006797,-0.00000617,0.00008377,-0.00010550,0.00047539,-0.00005711,
 -0.00044102,0.00005345,0.00061065,0.00001882,0.00000316,0.00000811,-0.
 00000033,0.00001776,-0.00000767,-0.00012023,-0.00001222,0.00000230,-0.
 00009671,-0.00000769,-0.00016745,0.00040153,0.00001689,-0.00023242,0.0
 0046549,0.00016517,0.00003263,-0.00002766,0.00000610,0.00000466,-0.000
 09796,0.00004450,0.00006760,-0.00085281,0.00049357,-0.00126851,0.00204
 942,0.00006657,0.00124373,-0.00017672,0.00004242,0.00000599,-0.0004532
 8,-0.00018896,-0.00032738,0.00394952,-0.01715534,0.01310634,0.00002023
 ,0.00001230,-0.00001478,-0.00000135,0.00000003,0.00000303,-0.00000263,
 0.00000028,0.00000162,-0.00000007,-0.00000254,0.00000111,0.00003268,-0
 .00000967,-0.00001474,0.00000682,0.00000727,-0.00001205,-0.00000323,0.
 00000345,0.00000187,-0.00001097,0.00000041,0.00000466,-0.00010102,0.00
 067942,0.00040112,-0.00005547,-0.00018593,-0.00016735,-0.00000893,-0.0
 0042298,-0.00043535,-0.00003481,-0.00000798,-0.00004545,-0.04872756,0.
 11918848,-0.15542437,0.05342380,-0.12406834,0.15855816,-0.00005977,0.0
 0005101,0.00008433,-0.00005242,-0.00004258,-0.00000970,-0.00016365,0.0
 0003325,0.00000941,-0.00050397,0.00015201,0.00004788,0.00003669,0.0000
 2560,-0.00025419,0.00000723,-0.00000635,0.00000120,0.00000927,0.000003
 73,0.00000561,0.00003791,-0.00000026,0.00000233,0.00000237,0.00000238,
 0.00012209,-0.00044393,0.00017708,-0.00048919,0.00012065,0.00000799,-0
 .00001749,0.00005933,0.00000365,-0.00001003,0.00003918,-0.00006338,-0.
 00004940,-0.00015567,-0.00002362,0.00005635,0.00398863,-0.00044291,-0.
 00450770,0.00014194,0.00009645,0.00004992,0.00073050,0.00118480,0.0015
 0480,0.00307634,-0.00533084,-0.01097422,-0.00002169,-0.00001063,0.0000
 2399,-0.00000019,0.00000080,-0.00000456,0.00000448,0.00000129,-0.00000
 165,0.00000160,0.00000347,-0.00000365,-0.00001299,0.00000359,0.0000407
 7,-0.00000500,0.00000547,-0.00000260,0.00000386,-0.00000435,-0.0000026
 2,0.00000183,0.00000304,-0.00000545,0.00002350,0.00000883,-0.00003180,
 0.00000485,0.00000030,0.00000943,0.00000544,0.00002204,0.00001251,-0.0
 0000215,-0.00001306,0.00001431,-0.09016740,0.01103663,0.08726468,0.005
 00119,-0.00073689,-0.01004371,0.08709412,0.00004389,-0.00005055,0.0000
 0669,0.00009417,0.00007599,-0.00001529,0.00014529,-0.00017910,-0.00009
 212,-0.00049587,-0.00011134,0.00041351,-0.00035416,-0.00017003,0.00021
 916,-0.00002090,-0.00001832,0.00006777,-0.00002002,-0.00000301,-0.0000
 0802,-0.00002117,-0.00000073,-0.00000699,0.00010705,-0.00021442,0.0002
 0164,-0.00000942,0.00021199,-0.00008643,-0.00050715,0.00018004,-0.0002
 5952,-0.00005541,0.00001775,0.00001016,-0.00003305,0.00008493,0.000019
 20,0.00063147,-0.00014231,0.00010288,0.00682475,0.00188675,-0.00192830
 ,0.00011497,0.00003829,0.00032050,-0.00047100,0.00101954,0.00167578,0.
 00368586,-0.01916496,-0.03748209,0.00002532,0.00000622,-0.00002349,-0.
 00000165,0.00000064,0.00000429,-0.00000426,-0.00000024,0.00000184,-0.0
 0000196,-0.00000188,0.00000330,0.00000349,-0.00001044,-0.00001613,0.00
 000771,0.00000130,-0.00000032,-0.00000047,0.00000346,0.00000244,-0.000
 00137,0.00000101,0.00000283,-0.00005782,0.00022155,0.00007407,0.000011
 79,-0.00002059,-0.00001302,-0.00002252,0.00000033,-0.00000066,-0.00000
 595,0.00002562,-0.00003457,0.00739776,-0.05372796,-0.01761992,-0.00954
 598,0.00597256,0.02144937,-0.00907160,0.06316227,-0.00004260,-0.000033
 55,0.00020793,0.00006539,0.00008165,-0.00001320,0.00015063,-0.00024276
 ,-0.00007906,-0.00011671,-0.00008119,-0.00011703,0.00029718,-0.0000197
 5,-0.00077882,-0.00001979,-0.00000894,0.00006560,-0.00002604,-0.000001
 09,-0.00001269,0.00006035,-0.00000829,0.00000976,0.00013120,-0.0000892
 4,0.00015008,-0.00079968,0.00033796,-0.00051077,-0.00037527,0.00024395
 ,-0.00015253,-0.00005542,0.00002509,0.00002639,-0.00004567,0.00010709,
 0.00006390,-0.00053757,0.00025298,0.00005729,0.00359762,0.00137224,0.0
 0140502,-0.00032359,0.00000654,0.00043755,-0.00148172,-0.00034654,-0.0
 0001572,-0.00183060,-0.01465530,-0.01123072,0.00002484,-0.00000022,-0.
 00003499,-0.00000094,0.00000251,0.00000544,-0.00000414,-0.00000046,0.0
 0000309,-0.00000235,0.,0.00000362,-0.00005229,-0.00001730,-0.00008977,
 0.00000906,-0.00000343,0.00001210,0.00000616,0.00000241,0.00000627,0.0
 0000879,0.00000285,0.00001362,-0.00005744,-0.00026722,-0.00019972,-0.0
 0001437,0.00002658,0.00002621,0.00003858,0.00001844,0.00003171,0.00001
 811,-0.00001430,0.00004435,0.08579870,-0.02112355,-0.26629444,0.009070
 96,-0.00138877,-0.01659484,-0.09315933,0.03445005,0.29028099,0.0001476
 7,-0.00010606,-0.00002721,0.00010159,0.00006435,-0.00000188,0.00023858
 ,-0.00012213,-0.00007475,0.00018826,0.00004814,0.00024836,0.00003568,0
 .00000544,0.00009191,-0.00002283,0.00000083,0.00003627,-0.00001653,0.0
 0000630,-0.00001054,-0.00003297,-0.00000214,-0.00000548,-0.00001036,-0
 .00002265,0.00003487,0.00010797,-0.00007051,-0.00007588,-0.00046373,0.
 00006387,-0.00014549,-0.00012538,-0.00001111,0.00002619,-0.00010090,0.
 00011998,0.00006543,-0.00024009,0.00023187,-0.00014572,0.00288147,-0.0
 0099910,-0.00129698,-0.00057184,-0.00013764,-0.00016205,0.00007999,0.0
 0015851,-0.00005973,-0.01063623,-0.00705180,-0.00158579,0.00004046,0.0
 0002372,-0.00004558,-0.00000152,-0.00000221,0.00000884,-0.00001064,-0.
 00000214,0.00000477,-0.00000202,-0.00000689,0.00000710,0.00002914,-0.0
 0001331,-0.00005811,-0.00000239,-0.00000501,0.00000107,-0.00000640,0.0
 0000919,0.00000534,-0.00000476,-0.00000209,0.00001128,-0.00000841,-0.0
 0024310,0.00004043,-0.00001650,0.00002967,-0.00001471,0.00001008,-0.00
 002255,-0.00002764,0.00001315,0.00002623,-0.00001386,-0.32525787,0.015
 26078,-0.00637800,-0.00744800,0.00143693,0.00063784,-0.00880209,0.0016
 0819,-0.00033205,0.34990742,-0.00014010,-0.00005428,0.00022457,0.00009
 279,0.00011874,0.00001259,0.00030141,-0.00025802,-0.00017877,-0.000249
 72,-0.00078371,0.00039482,-0.00030397,-0.00046789,-0.00027548,-0.00002
 256,-0.00002565,0.00009227,-0.00002589,-0.00001882,-0.00000810,0.00006
 404,-0.00000184,-0.00000588,-0.00004532,-0.00007580,-0.00004611,-0.000
 17173,0.00010748,0.00018982,-0.00075882,0.00028681,-0.00033678,-0.0000
 2221,0.00005083,-0.00000212,0.00002734,0.00008519,-0.00001865,0.000744
 64,-0.00011548,0.00031308,-0.00139512,-0.00438128,-0.00341141,-0.00138
 803,-0.00034712,-0.00009542,0.00001310,0.00002447,0.00019062,-0.040378
 18,-0.00746052,-0.00303998,0.00001897,-0.00000832,-0.00001115,-0.00000
 108,0.00000118,0.00000179,-0.00000128,0.00000127,-0.00000061,-0.000002
 14,0.00000196,0.00000309,-0.00005111,-0.00001229,-0.00000743,0.0000026
 3,-0.00000048,0.00001249,0.00000722,-0.00000002,0.00000165,0.00001191,
 0.00000676,0.00000274,-0.00000259,0.00031683,-0.00013504,0.00002595,-0
 .00002780,0.00004471,-0.00004660,0.00010359,0.00006370,-0.00000745,-0.
 00000593,0.00002320,0.02738845,-0.04983286,0.00177332,0.02366592,0.001
 43138,-0.00076686,0.00292305,0.00090564,0.00137155,-0.01027353,0.06043
 601,0.00007957,-0.00002686,0.00002811,0.00005018,0.00001422,-0.0000167
 6,0.00005098,-0.00007547,-0.00003236,0.00011510,0.00013342,0.00031644,
 0.00027880,0.00014676,-0.00030094,-0.00000787,-0.00000301,0.00003314,-
 0.00000804,0.00000719,-0.00000481,-0.00000455,-0.00000620,0.00000714,0
 .00000345,0.00000796,0.00005610,-0.00006330,0.00003910,-0.00000420,-0.
 00016198,0.00006642,-0.00008355,-0.00006131,-0.00000398,0.00001946,-0.
 00006487,0.00006836,0.00005044,-0.00059969,0.00023210,-0.00020127,0.00
 041670,-0.00140067,-0.00096590,-0.00052464,-0.00008078,0.00026635,-0.0
 0037608,-0.00005729,0.00031258,-0.01576998,-0.00453698,-0.00054688,0.0
 0001991,0.00001017,-0.00002650,-0.00000114,-0.00000014,0.00000446,-0.0
 0000549,-0.00000087,0.00000342,-0.00000080,-0.00000271,0.00000344,-0.0
 0000044,-0.00001024,-0.00005231,0.00000151,0.00000054,-0.00000063,0.00
 000014,0.00000402,0.00000505,-0.00000148,-0.00000040,0.00000892,-0.000
 04068,-0.00027863,0.00001538,-0.00001911,0.00003049,-0.00001871,0.0000
 3557,-0.00003914,-0.00003158,0.00001402,0.00001582,-0.00000119,-0.0019
 4561,0.00226130,-0.05258986,-0.02096827,0.00130032,0.00101814,0.030317
 68,-0.00143859,0.00327339,0.00924174,0.00362379,0.04945551\\0.00000126
 ,0.00001803,0.00000294,-0.00000934,-0.00000181,0.00002341,-0.00002539,
 0.00000555,-0.00001113,-0.00000763,0.00000410,-0.00000594,0.00000248,0
 .00000514,-0.00000177,-0.00001063,0.00000955,-0.00000998,0.00000543,0.
 00000126,-0.00000196,-0.00000864,0.00001836,0.00001090,-0.00001180,0.0
 0001263,-0.00002160,0.00000307,-0.00000586,-0.00000216,-0.00000326,0.0
 0000742,-0.00001733,-0.00000290,0.00000029,0.00001010,-0.00000668,0.00
 000121,0.00001813,-0.00000850,0.00000719,-0.00000116,0.00000220,-0.000
 00800,-0.00003066,-0.00000117,-0.00000065,-0.00003886,0.00000507,-0.00
 001334,-0.00001295,0.00000016,-0.00001425,-0.00001847,0.00000167,0.000
 00397,0.00001711,0.00000680,-0.00000452,0.00001676,-0.00000204,0.00000
 994,0.00002274,-0.00000081,0.00000370,0.00000664,0.00001326,-0.0000028
 3,0.00002971,0.00001323,-0.00001116,0.00001823,0.00001303,-0.00000393,
 0.00003315,0.00000944,-0.00000597,0.00002382,0.00000261,0.00000187,0.0
 0001169,-0.00000325,0.00000877,0.00001668,0.00000479,-0.00000518,0.000
 00656,-0.00000374,0.00000883,0.00000697,0.00000337,-0.00001720,-0.0000
 3462,-0.00000052,-0.00000292,-0.00001792,0.00001323,-0.00001642,-0.000
 01950,0.00000523,-0.00001379,-0.00002954\\\@


 SEE YOU NOW,
 YOUR BAIT OF FALSEHOOD TAKES THIS CARP OF TRUTH.
 AND THUS DO WE OF WISDOM AND OF REACH...
 BY INDIRECTIONS FIND DIRECTIONS OUT.    -- HAMLET, II, 1
 Job cpu time:       0 days  1 hours 50 minutes 57.9 seconds.
 Elapsed time:       0 days  0 hours 27 minutes 45.7 seconds.
 File lengths (MBytes):  RWF=    374 Int=      0 D2E=      0 Chk=     16 Scr=      1
 Normal termination of Gaussian 16 at Fri May 24 09:02:26 2019.
