 Entering Gaussian System, Link 0=g16
 Input=clay-glucose_cation-202-b3lyp_d3bj-631gd-pcm_thf.gjf
 Output=clay-glucose_cation-202-b3lyp_d3bj-631gd-pcm_thf.out
 Initial command:
 /n/sw/g16_nehalem/g16/l1.exe "/scratch/Gau-60802.inp" -scrdir="/scratch/"
 Entering Link 1 = /n/sw/g16_nehalem/g16/l1.exe PID=     60811.
  
 Copyright (c) 1988,1990,1992,1993,1995,1998,2003,2009,2016,
            Gaussian, Inc.  All Rights Reserved.
  
 This is part of the Gaussian(R) 16 program.  It is based on
 the Gaussian(R) 09 system (copyright 2009, Gaussian, Inc.),
 the Gaussian(R) 03 system (copyright 2003, Gaussian, Inc.),
 the Gaussian(R) 98 system (copyright 1998, Gaussian, Inc.),
 the Gaussian(R) 94 system (copyright 1995, Gaussian, Inc.),
 the Gaussian 92(TM) system (copyright 1992, Gaussian, Inc.),
 the Gaussian 90(TM) system (copyright 1990, Gaussian, Inc.),
 the Gaussian 88(TM) system (copyright 1988, Gaussian, Inc.),
 the Gaussian 86(TM) system (copyright 1986, Carnegie Mellon
 University), and the Gaussian 82(TM) system (copyright 1983,
 Carnegie Mellon University). Gaussian is a federally registered
 trademark of Gaussian, Inc.
  
 This software contains proprietary and confidential information,
 including trade secrets, belonging to Gaussian, Inc.
  
 This software is provided under written license and may be
 used, copied, transmitted, or stored only in accord with that
 written license.
  
 The following legend is applicable only to US Government
 contracts under FAR:
  
                    RESTRICTED RIGHTS LEGEND
  
 Use, reproduction and disclosure by the US Government is
 subject to restrictions as set forth in subparagraphs (a)
 and (c) of the Commercial Computer Software - Restricted
 Rights clause in FAR 52.227-19.
  
 Gaussian, Inc.
 340 Quinnipiac St., Bldg. 40, Wallingford CT 06492
  
  
 ---------------------------------------------------------------
 Warning -- This program may not be used in any manner that
 competes with the business of Gaussian, Inc. or will provide
 assistance to any competitor of Gaussian, Inc.  The licensee
 of this program is prohibited from giving any competitor of
 Gaussian, Inc. access to this program.  By using this program,
 the user acknowledges that Gaussian, Inc. is engaged in the
 business of creating and licensing software in the field of
 computational chemistry and represents and warrants to the
 licensee that it is not a competitor of Gaussian, Inc. and that
 it will not use this program in any manner prohibited above.
 ---------------------------------------------------------------
  

 Cite this work as:
 Gaussian 16, Revision A.03,
 M. J. Frisch, G. W. Trucks, H. B. Schlegel, G. E. Scuseria, 
 M. A. Robb, J. R. Cheeseman, G. Scalmani, V. Barone, 
 G. A. Petersson, H. Nakatsuji, X. Li, M. Caricato, A. V. Marenich, 
 J. Bloino, B. G. Janesko, R. Gomperts, B. Mennucci, H. P. Hratchian, 
 J. V. Ortiz, A. F. Izmaylov, J. L. Sonnenberg, D. Williams-Young, 
 F. Ding, F. Lipparini, F. Egidi, J. Goings, B. Peng, A. Petrone, 
 T. Henderson, D. Ranasinghe, V. G. Zakrzewski, J. Gao, N. Rega, 
 G. Zheng, W. Liang, M. Hada, M. Ehara, K. Toyota, R. Fukuda, 
 J. Hasegawa, M. Ishida, T. Nakajima, Y. Honda, O. Kitao, H. Nakai, 
 T. Vreven, K. Throssell, J. A. Montgomery, Jr., J. E. Peralta, 
 F. Ogliaro, M. J. Bearpark, J. J. Heyd, E. N. Brothers, K. N. Kudin, 
 V. N. Staroverov, T. A. Keith, R. Kobayashi, J. Normand, 
 K. Raghavachari, A. P. Rendell, J. C. Burant, S. S. Iyengar, 
 J. Tomasi, M. Cossi, J. M. Millam, M. Klene, C. Adamo, R. Cammi, 
 J. W. Ochterski, R. L. Martin, K. Morokuma, O. Farkas, 
 J. B. Foresman, and D. J. Fox, Gaussian, Inc., Wallingford CT, 2016.
 
 ******************************************
 Gaussian 16:  ES64L-G16RevA.03 25-Dec-2016
                24-May-2019 
 ******************************************
 %nprocshared=4
 Will use up to    4 processors via shared memory.
 %mem=3GB
 -------------------------------------------------------------------
 #p b3lyp 6-31g* opt freq=noraman scrf=(pcm,solvent=tetrahydrofuran)
 -------------------------------------------------------------------
 1/18=20,19=15,26=3,38=1/1,3;
 2/9=110,12=2,17=6,18=5,40=1/2;
 3/5=1,6=6,7=1,11=2,25=1,30=1,70=2201,71=1,72=20,74=-5/1,2,3;
 4//1;
 5/5=2,38=5,53=20/2;
 6/7=2,8=2,9=2,10=2,28=1/1;
 7//1,2,3,16;
 1/18=20,19=15,26=3/3(2);
 2/9=110/2;
 99//99;
 2/9=110/2;
 3/5=1,6=6,7=1,11=2,25=1,30=1,70=2205,71=1,72=20,74=-5/1,2,3;
 4/5=5,16=3,69=1/1;
 5/5=2,38=5,53=20/2;
 7//1,2,3,16;
 1/18=20,19=15,26=3/3(-5);
 2/9=110/2;
 6/7=2,8=2,9=2,10=2,19=2,28=1/1;
 99/9=1/99;
 Leave Link    1 at Fri May 24 08:32:16 2019, MaxMem=   402653184 cpu:               0.7 elap:               0.2
 (Enter /n/sw/g16_nehalem/g16/l101.exe)
 -----
 title
 -----
 Symbolic Z-matrix:
 Charge =  1 Multiplicity = 1
 6                     1.25291   0.39139  -0.11254 
 6                     1.40082  -1.08398  -0.57785 
 6                     0.21414  -1.92917  -0.22678 
 6                    -1.25835  -0.03123   0.18795 
 6                    -0.17724   0.85322  -0.46254 
 1                     0.30765  -3.01751  -0.24152 
 1                     1.37567  -1.0601   -1.68314 
 1                     1.42154   0.45086   0.97228 
 1                    -1.30603   0.09175   1.27138 
 1                    -0.28015   0.78735  -1.55223 
 8                    -0.92946  -1.50869   0.06238 
 8                     2.5863   -1.75953  -0.25464 
 8                     2.12743   1.2347   -0.81161 
 8                    -0.46702   2.19798  -0.15719 
 6                    -2.63976   0.12968  -0.41309 
 1                    -2.64593  -0.24024  -1.45118 
 1                    -2.84884   1.20978  -0.44096 
 8                    -3.55255  -0.56694   0.39751 
 6                     2.85079  -1.9477    1.1456 
 1                     3.12507  -1.00791   1.63486 
 1                     1.99215  -2.39382   1.66586 
 1                     3.69269  -2.63836   1.19484 
 6                     3.46427   1.31729  -0.30653 
 1                     4.01052   0.38126  -0.45936 
 1                     3.94852   2.11693  -0.86945 
 1                     3.46602   1.57837   0.76029 
 6                    -0.02635   2.71286   1.1038 
 1                     1.06281   2.82109   1.12703 
 1                    -0.48462   3.69923   1.18927 
 1                    -0.35499   2.09861   1.95126 
 6                    -4.8918   -0.46501  -0.07306 
 1                    -5.2268    0.58148  -0.09828 
 1                    -4.99571  -0.89619  -1.07879 
 1                    -5.51368  -1.02685   0.62634 
 
 ITRead=  0  0  0  0  0  0  0  0  0  0  0  0  0  0  0  0  0  0  0  0
 ITRead=  0  0  0  0  0  0  0  0  0  0  0  0  0  0
 MicOpt= -1 -1 -1 -1 -1 -1 -1 -1 -1 -1 -1 -1 -1 -1 -1 -1 -1 -1 -1 -1
 MicOpt= -1 -1 -1 -1 -1 -1 -1 -1 -1 -1 -1 -1 -1 -1
 NAtoms=     34 NQM=       34 NQMF=       0 NMMI=      0 NMMIF=      0
                NMic=       0 NMicF=      0.
                    Isotopes and Nuclear Properties:
 (Nuclear quadrupole moments (NQMom) in fm**2, nuclear magnetic moments (NMagM)
  in nuclear magnetons)

  Atom         1           2           3           4           5           6           7           8           9          10
 IAtWgt=          12          12          12          12          12           1           1           1           1           1
 AtmWgt=  12.0000000  12.0000000  12.0000000  12.0000000  12.0000000   1.0078250   1.0078250   1.0078250   1.0078250   1.0078250
 NucSpn=           0           0           0           0           0           1           1           1           1           1
 AtZEff=   0.0000000   0.0000000   0.0000000   0.0000000   0.0000000   0.0000000   0.0000000   0.0000000   0.0000000   0.0000000
 NQMom=    0.0000000   0.0000000   0.0000000   0.0000000   0.0000000   0.0000000   0.0000000   0.0000000   0.0000000   0.0000000
 NMagM=    0.0000000   0.0000000   0.0000000   0.0000000   0.0000000   2.7928460   2.7928460   2.7928460   2.7928460   2.7928460
 AtZNuc=   6.0000000   6.0000000   6.0000000   6.0000000   6.0000000   1.0000000   1.0000000   1.0000000   1.0000000   1.0000000

  Atom        11          12          13          14          15          16          17          18          19          20
 IAtWgt=          16          16          16          16          12           1           1          16          12           1
 AtmWgt=  15.9949146  15.9949146  15.9949146  15.9949146  12.0000000   1.0078250   1.0078250  15.9949146  12.0000000   1.0078250
 NucSpn=           0           0           0           0           0           1           1           0           0           1
 AtZEff=   0.0000000   0.0000000   0.0000000   0.0000000   0.0000000   0.0000000   0.0000000   0.0000000   0.0000000   0.0000000
 NQMom=    0.0000000   0.0000000   0.0000000   0.0000000   0.0000000   0.0000000   0.0000000   0.0000000   0.0000000   0.0000000
 NMagM=    0.0000000   0.0000000   0.0000000   0.0000000   0.0000000   2.7928460   2.7928460   0.0000000   0.0000000   2.7928460
 AtZNuc=   8.0000000   8.0000000   8.0000000   8.0000000   6.0000000   1.0000000   1.0000000   8.0000000   6.0000000   1.0000000

  Atom        21          22          23          24          25          26          27          28          29          30
 IAtWgt=           1           1          12           1           1           1          12           1           1           1
 AtmWgt=   1.0078250   1.0078250  12.0000000   1.0078250   1.0078250   1.0078250  12.0000000   1.0078250   1.0078250   1.0078250
 NucSpn=           1           1           0           1           1           1           0           1           1           1
 AtZEff=   0.0000000   0.0000000   0.0000000   0.0000000   0.0000000   0.0000000   0.0000000   0.0000000   0.0000000   0.0000000
 NQMom=    0.0000000   0.0000000   0.0000000   0.0000000   0.0000000   0.0000000   0.0000000   0.0000000   0.0000000   0.0000000
 NMagM=    2.7928460   2.7928460   0.0000000   2.7928460   2.7928460   2.7928460   0.0000000   2.7928460   2.7928460   2.7928460
 AtZNuc=   1.0000000   1.0000000   6.0000000   1.0000000   1.0000000   1.0000000   6.0000000   1.0000000   1.0000000   1.0000000

  Atom        31          32          33          34
 IAtWgt=          12           1           1           1
 AtmWgt=  12.0000000   1.0078250   1.0078250   1.0078250
 NucSpn=           0           1           1           1
 AtZEff=   0.0000000   0.0000000   0.0000000   0.0000000
 NQMom=    0.0000000   0.0000000   0.0000000   0.0000000
 NMagM=    0.0000000   2.7928460   2.7928460   2.7928460
 AtZNuc=   6.0000000   1.0000000   1.0000000   1.0000000
 Leave Link  101 at Fri May 24 08:32:17 2019, MaxMem=   402653184 cpu:               1.7 elap:               0.8
 (Enter /n/sw/g16_nehalem/g16/l103.exe)

 GradGradGradGradGradGradGradGradGradGradGradGradGradGradGradGradGradGrad
 Berny optimization.
 Initialization pass.
                           ----------------------------
                           !    Initial Parameters    !
                           ! (Angstroms and Degrees)  !
 --------------------------                            --------------------------
 ! Name  Definition              Value          Derivative Info.                !
 --------------------------------------------------------------------------------
 ! R1    R(1,2)                  1.5541         estimate D2E/DX2                !
 ! R2    R(1,5)                  1.5431         estimate D2E/DX2                !
 ! R3    R(1,8)                  1.0995         estimate D2E/DX2                !
 ! R4    R(1,13)                 1.4017         estimate D2E/DX2                !
 ! R5    R(2,3)                  1.4986         estimate D2E/DX2                !
 ! R6    R(2,7)                  1.1058         estimate D2E/DX2                !
 ! R7    R(2,12)                 1.4022         estimate D2E/DX2                !
 ! R8    R(3,6)                  1.0925         estimate D2E/DX2                !
 ! R9    R(3,11)                 1.2523         estimate D2E/DX2                !
 ! R10   R(4,5)                  1.5408         estimate D2E/DX2                !
 ! R11   R(4,9)                  1.0914         estimate D2E/DX2                !
 ! R12   R(4,11)                 1.5188         estimate D2E/DX2                !
 ! R13   R(4,15)                 1.5151         estimate D2E/DX2                !
 ! R14   R(5,10)                 1.0965         estimate D2E/DX2                !
 ! R15   R(5,14)                 1.4091         estimate D2E/DX2                !
 ! R16   R(12,19)                1.4374         estimate D2E/DX2                !
 ! R17   R(13,23)                1.4315         estimate D2E/DX2                !
 ! R18   R(14,27)                1.4316         estimate D2E/DX2                !
 ! R19   R(15,16)                1.102          estimate D2E/DX2                !
 ! R20   R(15,17)                1.1005         estimate D2E/DX2                !
 ! R21   R(15,18)                1.4055         estimate D2E/DX2                !
 ! R22   R(18,31)                1.4232         estimate D2E/DX2                !
 ! R23   R(19,20)                1.0944         estimate D2E/DX2                !
 ! R24   R(19,21)                1.0986         estimate D2E/DX2                !
 ! R25   R(19,22)                1.0901         estimate D2E/DX2                !
 ! R26   R(23,24)                1.0945         estimate D2E/DX2                !
 ! R27   R(23,25)                1.0912         estimate D2E/DX2                !
 ! R28   R(23,26)                1.0983         estimate D2E/DX2                !
 ! R29   R(27,28)                1.0948         estimate D2E/DX2                !
 ! R30   R(27,29)                1.091          estimate D2E/DX2                !
 ! R31   R(27,30)                1.097          estimate D2E/DX2                !
 ! R32   R(31,32)                1.0991         estimate D2E/DX2                !
 ! R33   R(31,33)                1.0992         estimate D2E/DX2                !
 ! R34   R(31,34)                1.0916         estimate D2E/DX2                !
 ! A1    A(2,1,5)              107.7239         estimate D2E/DX2                !
 ! A2    A(2,1,8)              109.4008         estimate D2E/DX2                !
 ! A3    A(2,1,13)             111.2525         estimate D2E/DX2                !
 ! A4    A(5,1,8)              110.4722         estimate D2E/DX2                !
 ! A5    A(5,1,13)             106.5626         estimate D2E/DX2                !
 ! A6    A(8,1,13)             111.3384         estimate D2E/DX2                !
 ! A7    A(1,2,3)              112.9497         estimate D2E/DX2                !
 ! A8    A(1,2,7)              106.0571         estimate D2E/DX2                !
 ! A9    A(1,2,12)             117.9583         estimate D2E/DX2                !
 ! A10   A(3,2,7)              103.198          estimate D2E/DX2                !
 ! A11   A(3,2,12)             110.1062         estimate D2E/DX2                !
 ! A12   A(7,2,12)             105.071          estimate D2E/DX2                !
 ! A13   A(2,3,6)              119.4012         estimate D2E/DX2                !
 ! A14   A(2,3,11)             126.0051         estimate D2E/DX2                !
 ! A15   A(6,3,11)             114.5688         estimate D2E/DX2                !
 ! A16   A(5,4,9)              112.6463         estimate D2E/DX2                !
 ! A17   A(5,4,11)             111.8103         estimate D2E/DX2                !
 ! A18   A(5,4,15)             114.2865         estimate D2E/DX2                !
 ! A19   A(9,4,11)             101.6036         estimate D2E/DX2                !
 ! A20   A(9,4,15)             109.9991         estimate D2E/DX2                !
 ! A21   A(11,4,15)            105.5426         estimate D2E/DX2                !
 ! A22   A(1,5,4)              112.5037         estimate D2E/DX2                !
 ! A23   A(1,5,10)             107.1219         estimate D2E/DX2                !
 ! A24   A(1,5,14)             115.2817         estimate D2E/DX2                !
 ! A25   A(4,5,10)             108.6148         estimate D2E/DX2                !
 ! A26   A(4,5,14)             108.1808         estimate D2E/DX2                !
 ! A27   A(10,5,14)            104.6773         estimate D2E/DX2                !
 ! A28   A(3,11,4)             122.9195         estimate D2E/DX2                !
 ! A29   A(2,12,19)            116.3072         estimate D2E/DX2                !
 ! A30   A(1,13,23)            116.1937         estimate D2E/DX2                !
 ! A31   A(5,14,27)            118.087          estimate D2E/DX2                !
 ! A32   A(4,15,16)            110.0684         estimate D2E/DX2                !
 ! A33   A(4,15,17)            106.7092         estimate D2E/DX2                !
 ! A34   A(4,15,18)            108.1017         estimate D2E/DX2                !
 ! A35   A(16,15,17)           107.7291         estimate D2E/DX2                !
 ! A36   A(16,15,18)           111.916          estimate D2E/DX2                !
 ! A37   A(17,15,18)           112.1889         estimate D2E/DX2                !
 ! A38   A(15,18,31)           112.6401         estimate D2E/DX2                !
 ! A39   A(12,19,20)           111.6654         estimate D2E/DX2                !
 ! A40   A(12,19,21)           111.7567         estimate D2E/DX2                !
 ! A41   A(12,19,22)           105.6087         estimate D2E/DX2                !
 ! A42   A(20,19,21)           109.4428         estimate D2E/DX2                !
 ! A43   A(20,19,22)           109.2881         estimate D2E/DX2                !
 ! A44   A(21,19,22)           108.9634         estimate D2E/DX2                !
 ! A45   A(13,23,24)           111.5608         estimate D2E/DX2                !
 ! A46   A(13,23,25)           105.9434         estimate D2E/DX2                !
 ! A47   A(13,23,26)           110.9732         estimate D2E/DX2                !
 ! A48   A(24,23,25)           109.462          estimate D2E/DX2                !
 ! A49   A(24,23,26)           109.7634         estimate D2E/DX2                !
 ! A50   A(25,23,26)           109.0368         estimate D2E/DX2                !
 ! A51   A(14,27,28)           111.1308         estimate D2E/DX2                !
 ! A52   A(14,27,29)           105.3602         estimate D2E/DX2                !
 ! A53   A(14,27,30)           112.7587         estimate D2E/DX2                !
 ! A54   A(28,27,29)           109.0779         estimate D2E/DX2                !
 ! A55   A(28,27,30)           109.6935         estimate D2E/DX2                !
 ! A56   A(29,27,30)           108.6555         estimate D2E/DX2                !
 ! A57   A(18,31,32)           111.2604         estimate D2E/DX2                !
 ! A58   A(18,31,33)           111.3089         estimate D2E/DX2                !
 ! A59   A(18,31,34)           106.702          estimate D2E/DX2                !
 ! A60   A(32,31,33)           108.8861         estimate D2E/DX2                !
 ! A61   A(32,31,34)           109.3374         estimate D2E/DX2                !
 ! A62   A(33,31,34)           109.2982         estimate D2E/DX2                !
 ! D1    D(5,1,2,3)            -44.026          estimate D2E/DX2                !
 ! D2    D(5,1,2,7)             68.3006         estimate D2E/DX2                !
 ! D3    D(5,1,2,12)          -174.3709         estimate D2E/DX2                !
 ! D4    D(8,1,2,3)             76.0958         estimate D2E/DX2                !
 ! D5    D(8,1,2,7)           -171.5777         estimate D2E/DX2                !
 ! D6    D(8,1,2,12)           -54.2491         estimate D2E/DX2                !
 ! D7    D(13,1,2,3)          -160.4753         estimate D2E/DX2                !
 ! D8    D(13,1,2,7)           -48.1488         estimate D2E/DX2                !
 ! D9    D(13,1,2,12)           69.1798         estimate D2E/DX2                !
 ! D10   D(2,1,5,4)             57.8502         estimate D2E/DX2                !
 ! D11   D(2,1,5,10)           -61.4353         estimate D2E/DX2                !
 ! D12   D(2,1,5,14)          -177.4567         estimate D2E/DX2                !
 ! D13   D(8,1,5,4)            -61.5925         estimate D2E/DX2                !
 ! D14   D(8,1,5,10)           179.122          estimate D2E/DX2                !
 ! D15   D(8,1,5,14)            63.1006         estimate D2E/DX2                !
 ! D16   D(13,1,5,4)           177.3264         estimate D2E/DX2                !
 ! D17   D(13,1,5,10)           58.041          estimate D2E/DX2                !
 ! D18   D(13,1,5,14)          -57.9804         estimate D2E/DX2                !
 ! D19   D(2,1,13,23)          -83.9279         estimate D2E/DX2                !
 ! D20   D(5,1,13,23)          158.9137         estimate D2E/DX2                !
 ! D21   D(8,1,13,23)           38.3877         estimate D2E/DX2                !
 ! D22   D(1,2,3,6)           -162.8459         estimate D2E/DX2                !
 ! D23   D(1,2,3,11)            19.0743         estimate D2E/DX2                !
 ! D24   D(7,2,3,6)             83.0861         estimate D2E/DX2                !
 ! D25   D(7,2,3,11)           -94.9937         estimate D2E/DX2                !
 ! D26   D(12,2,3,6)           -28.6449         estimate D2E/DX2                !
 ! D27   D(12,2,3,11)          153.2753         estimate D2E/DX2                !
 ! D28   D(1,2,12,19)           63.1476         estimate D2E/DX2                !
 ! D29   D(3,2,12,19)          -68.4883         estimate D2E/DX2                !
 ! D30   D(7,2,12,19)         -178.9982         estimate D2E/DX2                !
 ! D31   D(2,3,11,4)            -4.1856         estimate D2E/DX2                !
 ! D32   D(6,3,11,4)           177.6538         estimate D2E/DX2                !
 ! D33   D(9,4,5,1)             69.5202         estimate D2E/DX2                !
 ! D34   D(9,4,5,10)          -172.068          estimate D2E/DX2                !
 ! D35   D(9,4,5,14)           -58.9873         estimate D2E/DX2                !
 ! D36   D(11,4,5,1)           -44.1646         estimate D2E/DX2                !
 ! D37   D(11,4,5,10)           74.2472         estimate D2E/DX2                !
 ! D38   D(11,4,5,14)         -172.6721         estimate D2E/DX2                !
 ! D39   D(15,4,5,1)          -163.9803         estimate D2E/DX2                !
 ! D40   D(15,4,5,10)          -45.5685         estimate D2E/DX2                !
 ! D41   D(15,4,5,14)           67.5122         estimate D2E/DX2                !
 ! D42   D(5,4,11,3)            16.4611         estimate D2E/DX2                !
 ! D43   D(9,4,11,3)          -103.9069         estimate D2E/DX2                !
 ! D44   D(15,4,11,3)          141.2899         estimate D2E/DX2                !
 ! D45   D(5,4,15,16)           66.4412         estimate D2E/DX2                !
 ! D46   D(5,4,15,17)          -50.1845         estimate D2E/DX2                !
 ! D47   D(5,4,15,18)         -171.0464         estimate D2E/DX2                !
 ! D48   D(9,4,15,16)         -165.6969         estimate D2E/DX2                !
 ! D49   D(9,4,15,17)           77.6775         estimate D2E/DX2                !
 ! D50   D(9,4,15,18)          -43.1844         estimate D2E/DX2                !
 ! D51   D(11,4,15,16)         -56.8284         estimate D2E/DX2                !
 ! D52   D(11,4,15,17)        -173.4541         estimate D2E/DX2                !
 ! D53   D(11,4,15,18)          65.684          estimate D2E/DX2                !
 ! D54   D(1,5,14,27)          -43.5152         estimate D2E/DX2                !
 ! D55   D(4,5,14,27)           83.4006         estimate D2E/DX2                !
 ! D56   D(10,5,14,27)        -160.9205         estimate D2E/DX2                !
 ! D57   D(2,12,19,20)         -71.6413         estimate D2E/DX2                !
 ! D58   D(2,12,19,21)          51.3272         estimate D2E/DX2                !
 ! D59   D(2,12,19,22)         169.6722         estimate D2E/DX2                !
 ! D60   D(1,13,23,24)          69.2453         estimate D2E/DX2                !
 ! D61   D(1,13,23,25)        -171.7119         estimate D2E/DX2                !
 ! D62   D(1,13,23,26)         -53.4956         estimate D2E/DX2                !
 ! D63   D(5,14,27,28)          70.4492         estimate D2E/DX2                !
 ! D64   D(5,14,27,29)        -171.5448         estimate D2E/DX2                !
 ! D65   D(5,14,27,30)         -53.1872         estimate D2E/DX2                !
 ! D66   D(4,15,18,31)         179.2637         estimate D2E/DX2                !
 ! D67   D(16,15,18,31)        -59.361          estimate D2E/DX2                !
 ! D68   D(17,15,18,31)         61.8763         estimate D2E/DX2                !
 ! D69   D(15,18,31,32)        -60.2521         estimate D2E/DX2                !
 ! D70   D(15,18,31,33)         61.388          estimate D2E/DX2                !
 ! D71   D(15,18,31,34)       -179.4422         estimate D2E/DX2                !
 --------------------------------------------------------------------------------
 Trust Radius=3.00D-01 FncErr=1.00D-07 GrdErr=1.00D-06 EigMax=2.50D+02 EigMin=1.00D-04
 Number of steps in this run=    177 maximum allowed number of steps=    204.
 GradGradGradGradGradGradGradGradGradGradGradGradGradGradGradGradGradGrad

 Leave Link  103 at Fri May 24 08:32:17 2019, MaxMem=   402653184 cpu:               0.3 elap:               0.1
 (Enter /n/sw/g16_nehalem/g16/l202.exe)
                          Input orientation:                          
 ---------------------------------------------------------------------
 Center     Atomic      Atomic             Coordinates (Angstroms)
 Number     Number       Type             X           Y           Z
 ---------------------------------------------------------------------
      1          6           0        1.252914    0.391394   -0.112542
      2          6           0        1.400819   -1.083985   -0.577846
      3          6           0        0.214141   -1.929168   -0.226783
      4          6           0       -1.258353   -0.031228    0.187953
      5          6           0       -0.177240    0.853220   -0.462535
      6          1           0        0.307652   -3.017510   -0.241516
      7          1           0        1.375669   -1.060103   -1.683140
      8          1           0        1.421538    0.450858    0.972277
      9          1           0       -1.306030    0.091754    1.271382
     10          1           0       -0.280151    0.787350   -1.552230
     11          8           0       -0.929463   -1.508689    0.062384
     12          8           0        2.586300   -1.759531   -0.254642
     13          8           0        2.127425    1.234702   -0.811611
     14          8           0       -0.467024    2.197979   -0.157186
     15          6           0       -2.639756    0.129682   -0.413086
     16          1           0       -2.645926   -0.240235   -1.451176
     17          1           0       -2.848840    1.209780   -0.440961
     18          8           0       -3.552548   -0.566942    0.397512
     19          6           0        2.850794   -1.947703    1.145603
     20          1           0        3.125072   -1.007911    1.634856
     21          1           0        1.992151   -2.393820    1.665859
     22          1           0        3.692694   -2.638362    1.194837
     23          6           0        3.464269    1.317292   -0.306527
     24          1           0        4.010519    0.381255   -0.459357
     25          1           0        3.948517    2.116928   -0.869453
     26          1           0        3.466017    1.578371    0.760285
     27          6           0       -0.026354    2.712861    1.103795
     28          1           0        1.062811    2.821087    1.127031
     29          1           0       -0.484616    3.699229    1.189267
     30          1           0       -0.354993    2.098606    1.951257
     31          6           0       -4.891802   -0.465011   -0.073057
     32          1           0       -5.226802    0.581479   -0.098281
     33          1           0       -4.995708   -0.896191   -1.078788
     34          1           0       -5.513677   -1.026849    0.626335
 ---------------------------------------------------------------------
                    Distance matrix (angstroms):
                    1          2          3          4          5
     1  C    0.000000
     2  C    1.554068   0.000000
     3  C    2.545016   1.498594   0.000000
     4  C    2.564248   2.960733   2.437708   0.000000
     5  C    1.543087   2.501266   2.819653   1.540840   0.000000
     6  H    3.539884   2.246475   1.092451   3.399220   3.907239
     7  H    2.142123   1.105838   2.055577   3.390818   2.749947
     8  H    1.099455   2.181526   2.925761   2.833617   2.185560
     9  H    2.924590   3.482677   2.939310   1.091428   2.204646
    10  H    2.140040   2.697588   3.062777   2.157588   1.096524
    11  O    2.898911   2.453667   1.252298   1.518824   2.533771
    12  O    2.534677   1.402208   2.378380   4.238429   3.808785
    13  O    1.401655   2.441088   3.743361   3.750360   2.361962
    14  O    2.494780   3.799616   4.183560   2.390541   1.409109
    15  C    3.913017   4.222130   3.523961   1.515062   2.567087
    16  H    4.170354   4.225017   3.540002   2.157727   2.875320
    17  H    4.195474   4.831118   4.390982   2.113122   2.695375
    18  O    4.926564   5.074889   4.053807   2.365214   3.761548
    19  C    3.099601   2.412201   2.972495   4.634119   4.427219
    20  H    2.918292   2.806223   3.576022   4.718247   4.332219
    21  H    3.386237   2.664499   2.638051   4.281568   4.447425
    22  H    4.103802   3.288036   3.824172   5.685405   5.469407
    23  C    2.405204   3.177668   4.594474   4.936211   3.674274
    24  H    2.779347   2.995247   4.450239   5.324487   4.214272
    25  H    3.288869   4.101420   5.543418   5.730984   4.334099
    26  H    2.658678   3.625435   4.883834   5.023748   3.910812
    27  C    2.916370   4.390988   4.834947   3.144298   2.436067
    28  H    2.734244   4.274394   5.011784   3.795441   2.817259
    29  H    3.956702   5.436606   5.845709   3.939240   3.304950
    30  H    3.123972   4.428106   4.614188   2.908865   2.721943
    31  C    6.204234   6.343108   5.313948   3.668548   4.910857
    32  H    6.482519   6.850483   5.993640   4.025659   5.069970
    33  H    6.452657   6.418860   5.379171   4.039878   5.163123
    34  H    6.952993   7.018801   5.860878   4.392177   5.761758
                    6          7          8          9         10
     6  H    0.000000
     7  H    2.655256   0.000000
     8  H    3.839741   3.055544   0.000000
     9  H    3.815803   4.153009   2.767318   0.000000
    10  H    4.066994   2.484343   3.063023   3.083677   0.000000
    11  O    1.974677   2.926041   3.192951   2.040808   2.881038
    12  O    2.602868   1.998858   2.783491   4.572334   4.048071
    13  O    4.660246   2.567261   2.072425   4.175381   2.558332
    14  O    5.273382   4.042172   2.809766   2.679724   1.992723
    15  C    4.315260   4.376330   4.303080   2.148883   2.701465
    16  H    4.230858   4.110866   4.784872   3.052517   2.581285
    17  H    5.279508   4.953974   4.561725   2.561711   2.830464
    18  O    4.616794   5.372117   5.109580   2.498874   4.042794
    19  C    3.088067   3.311437   2.797483   4.631888   4.955970
    20  H    3.936638   3.751297   2.338599   4.579961   4.997602
    21  H    2.620039   3.657136   2.983094   4.148697   5.063526
    22  H    3.696670   4.017743   3.840698   5.696195   5.921603
    23  C    5.362739   3.450988   2.561015   5.171798   3.981620
    24  H    5.030933   3.243084   2.959264   5.598657   4.446249
    25  H    6.325556   4.168352   3.543075   6.024514   4.485041
    26  H    5.665774   4.159498   2.344381   5.024309   4.472942
    27  C    5.895640   4.895706   2.688930   2.921619   3.290361
    28  H    6.044204   4.801935   2.402211   3.616836   3.621888
    29  H    6.912989   5.861964   3.772588   3.700722   4.004579
    30  H    5.605533   5.116784   2.613338   2.322532   3.741579
    31  C    5.794649   6.498284   6.464503   3.869789   5.002368
    32  H    6.603289   6.985642   6.735249   4.181897   5.160010
    33  H    5.772924   6.402074   6.870404   4.484758   5.029407
    34  H    6.213193   7.266214   7.099331   4.401324   5.952080
                   11         12         13         14         15
    11  O    0.000000
    12  O    3.538929   0.000000
    13  O    4.199360   3.079969   0.000000
    14  O    3.741851   4.999417   2.843825   0.000000
    15  C    2.415664   5.559307   4.909777   3.010665   0.000000
    16  H    2.616502   5.578185   5.036801   3.516662   1.102047
    17  H    3.365626   6.196150   4.990112   2.594246   1.100502
    18  O    2.807093   6.287530   6.080295   4.180064   1.405540
    19  C    3.956822   1.437377   3.805476   5.467344   6.073811
    20  H    4.377522   2.103666   3.465518   5.137344   6.222654
    21  H    3.448248   2.107999   4.395717   5.518664   5.669624
    22  H    4.891109   2.024214   4.634277   6.520845   7.095591
    23  C    5.237093   3.200056   1.431462   4.031498   6.219397
    24  H    5.314840   2.579394   2.097260   4.841506   6.655193
    25  H    6.148830   4.154583   2.024363   4.473354   6.896576
    26  H    5.416387   3.597995   2.093035   4.085888   6.384040
    27  C    4.440904   5.354774   3.239213   1.431561   3.975376
    28  H    4.883604   5.021165   2.721829   2.092336   4.829557
    29  H    5.346977   6.427555   4.110981   2.016680   4.466971
    30  H    4.112230   5.329392   3.813420   2.113754   3.832352
    31  C    4.099724   7.591493   7.259754   5.165003   2.353931
    32  H    4.781395   8.157778   7.417560   5.027129   2.645001
    33  H    4.267526   7.675377   7.439833   5.561674   2.654446
    34  H    4.643838   8.180622   8.097453   6.040044   3.267626
                   16         17         18         19         20
    16  H    0.000000
    17  H    1.778834   0.000000
    18  O    2.084790   2.086860   0.000000
    19  C    6.314479   6.706170   6.593097   0.000000
    20  H    6.589183   6.701850   6.805592   1.094443   0.000000
    21  H    5.988789   6.392168   5.974100   1.098615   1.790311
    22  H    7.275335   7.763743   7.577601   1.090059   1.781623
    23  C    6.408634   6.315455   7.299434   3.625634   3.048047
    24  H    6.758566   6.909240   7.670286   3.056944   2.664494
    25  H    7.027183   6.870996   8.066866   4.667619   4.088306
    26  H    6.749351   6.438654   7.348076   3.600023   2.751358
    27  C    4.702213   3.551331   4.867236   5.477279   4.904860
    28  H    5.456517   4.511754   5.771696   5.092994   4.378588
    29  H    5.211773   3.800599   5.314066   6.558560   5.948577
    30  H    4.721769   3.568192   4.443380   5.224822   4.675619
    31  C    2.644560   2.667203   1.423175   7.976923   8.214741
    32  H    3.027616   2.483323   2.089930   8.555207   8.676619
    33  H    2.467879   3.074245   2.090593   8.223210   8.562909
    34  H    3.627507   3.639091   2.027289   8.431013   8.697440
                   21         22         23         24         25
    21  H    0.000000
    22  H    1.781435   0.000000
    23  C    4.453065   4.237154   0.000000
    24  H    4.036260   3.457666   1.094491   0.000000
    25  H    5.531909   5.190330   1.091238   1.784540   0.000000
    26  H    4.332510   4.245121   1.098296   1.793626   1.782946
    27  C    5.519825   6.517300   4.015105   4.916927   4.477549
    28  H    5.324403   6.060236   3.175451   4.142269   3.578979
    29  H    6.594449   7.590455   4.848166   5.825217   5.137575
    30  H    5.076655   6.276528   4.504975   5.274282   5.145575
    31  C    7.357509   8.945646   8.547224   8.950794   9.244019
    32  H    8.004866   9.570629   8.724649   9.246543   9.334816
    33  H    7.655466   9.148380   8.778787   9.117439   9.440438
    34  H    7.699784   9.363623   9.325703   9.688746  10.082352
                   26         27         28         29         30
    26  H    0.000000
    27  C    3.688051   0.000000
    28  H    2.730246   1.094775   0.000000
    29  H    4.504394   1.090977   1.780319   0.000000
    30  H    4.035985   1.097044   1.792065   1.777477   0.000000
    31  C    8.644247   5.929286   6.906234   6.193355   5.590404
    32  H    8.791816   5.747385   6.787965   5.819491   5.498800
    33  H    9.005911   6.517929   7.442409   6.827292   6.299700
    34  H    9.350937   6.657636   7.635935   6.924172   6.175428
                   31         32         33         34
    31  C    0.000000
    32  H    1.099092   0.000000
    33  H    1.099185   1.788381   0.000000
    34  H    1.091577   1.787200   1.786843   0.000000
 Stoichiometry    C10H19O5(1+)
 Framework group  C1[X(C10H19O5)]
 Deg. of freedom    96
 Full point group                 C1      NOp   1
 Largest Abelian subgroup         C1      NOp   1
 Largest concise Abelian subgroup C1      NOp   1
                         Standard orientation:                         
 ---------------------------------------------------------------------
 Center     Atomic      Atomic             Coordinates (Angstroms)
 Number     Number       Type             X           Y           Z
 ---------------------------------------------------------------------
      1          6           0        1.252914    0.391394   -0.112542
      2          6           0        1.400819   -1.083985   -0.577846
      3          6           0        0.214141   -1.929168   -0.226783
      4          6           0       -1.258353   -0.031228    0.187953
      5          6           0       -0.177240    0.853220   -0.462535
      6          1           0        0.307652   -3.017510   -0.241516
      7          1           0        1.375669   -1.060103   -1.683140
      8          1           0        1.421538    0.450858    0.972277
      9          1           0       -1.306030    0.091754    1.271382
     10          1           0       -0.280151    0.787350   -1.552230
     11          8           0       -0.929463   -1.508689    0.062384
     12          8           0        2.586300   -1.759531   -0.254642
     13          8           0        2.127425    1.234702   -0.811611
     14          8           0       -0.467024    2.197979   -0.157186
     15          6           0       -2.639756    0.129682   -0.413086
     16          1           0       -2.645926   -0.240235   -1.451176
     17          1           0       -2.848840    1.209780   -0.440961
     18          8           0       -3.552548   -0.566942    0.397512
     19          6           0        2.850794   -1.947703    1.145603
     20          1           0        3.125072   -1.007911    1.634856
     21          1           0        1.992151   -2.393820    1.665859
     22          1           0        3.692694   -2.638362    1.194837
     23          6           0        3.464269    1.317292   -0.306527
     24          1           0        4.010519    0.381255   -0.459357
     25          1           0        3.948517    2.116928   -0.869453
     26          1           0        3.466017    1.578371    0.760285
     27          6           0       -0.026354    2.712861    1.103795
     28          1           0        1.062811    2.821087    1.127031
     29          1           0       -0.484616    3.699229    1.189267
     30          1           0       -0.354993    2.098606    1.951257
     31          6           0       -4.891802   -0.465011   -0.073057
     32          1           0       -5.226802    0.581479   -0.098281
     33          1           0       -4.995708   -0.896191   -1.078788
     34          1           0       -5.513677   -1.026849    0.626335
 ---------------------------------------------------------------------
 Rotational constants (GHZ):           0.8959103           0.3790289           0.2916970
 Leave Link  202 at Fri May 24 08:32:18 2019, MaxMem=   402653184 cpu:               0.9 elap:               0.5
 (Enter /n/sw/g16_nehalem/g16/l301.exe)
 Standard basis: 6-31G(d) (6D, 7F)
 Ernie: Thresh=  0.10000D-02 Tol=  0.10000D-05 Strict=F.
 There are   263 symmetry adapted cartesian basis functions of A   symmetry.
 There are   263 symmetry adapted basis functions of A   symmetry.
   263 basis functions,   496 primitive gaussians,   263 cartesian basis functions
    59 alpha electrons       59 beta electrons
       nuclear repulsion energy      1145.1316522741 Hartrees.
 IExCor=  402 DFT=T Ex+Corr=B3LYP ExCW=0 ScaHFX=  0.200000
 ScaDFX=  0.800000  0.720000  1.000000  0.810000 ScalE2=  1.000000  1.000000
 IRadAn=      5 IRanWt=     -1 IRanGd=            0 ICorTp=0 IEmpDi=  4
 NAtoms=   34 NActive=   34 NUniq=   34 SFac= 1.00D+00 NAtFMM=   60 NAOKFM=F Big=F
 Integral buffers will be    131072 words long.
 Raffenetti 2 integral format.
 Two-electron integral symmetry is turned on.
 ------------------------------------------------------------------------------
 Polarizable Continuum Model (PCM)
 =================================
 Model                : PCM.
 Atomic radii         : UFF (Universal Force Field).
 Polarization charges : Total charges.
 Charge compensation  : None.
 Solution method      : On-the-fly selection.
 Cavity type          : Scaled VdW (van der Waals Surface) (Alpha=1.100).
 Cavity algorithm     : GePol (No added spheres)
                        Default sphere list used, NSphG=   34.
                        Lebedev-Laikov grids with approx.  5.0 points / Ang**2.
                        Smoothing algorithm: York/Karplus (Gamma=1.0000).
                        Polarization charges: spherical gaussians, with
                                              point-specific exponents (IZeta= 3).
                        Self-potential: point-specific (ISelfS= 7).
                        Self-field    : sphere-specific E.n sum rule (ISelfD= 2).
 1st derivatives      : Analytical E(r).r(x)/FMM algorithm (CHGder, D1EAlg=3).
                        Cavity 1st derivative terms included.
 Solvent              : TetraHydroFuran, Eps=   7.425700 Eps(inf)=   1.974025
 ------------------------------------------------------------------------------
 GePol: Number of generator spheres                  =      34
 GePol: Total number of spheres                      =      34
 GePol: Number of exposed spheres                    =      34 (100.00%)
 GePol: Number of points                             =    2293
 GePol: Average weight of points                     =       0.13
 GePol: Minimum weight of points                     =   0.31D-09
 GePol: Maximum weight of points                     =    0.20577
 GePol: Number of points with low weight             =     146
 GePol: Fraction of low-weight points (<1% of avg)   =       6.37%
 GePol: Cavity surface area                          =    300.855 Ang**2
 GePol: Cavity volume                                =    321.822 Ang**3
 Leave Link  301 at Fri May 24 08:32:18 2019, MaxMem=   402653184 cpu:               0.7 elap:               0.3
 (Enter /n/sw/g16_nehalem/g16/l302.exe)
 NPDir=0 NMtPBC=     1 NCelOv=     1 NCel=       1 NClECP=     1 NCelD=      1
         NCelK=      1 NCelE2=     1 NClLst=     1 CellRange=     0.0.
 One-electron integrals computed using PRISM.
 One-electron integral symmetry used in STVInt
 NBasis=   263 RedAO= T EigKep=  1.59D-03  NBF=   263
 NBsUse=   263 1.00D-06 EigRej= -1.00D+00 NBFU=   263
 Precomputing XC quadrature grid using
 IXCGrd= 4 IRadAn=           5 IRanWt=          -1 IRanGd=           0 AccXCQ= 0.00D+00.
 Generated NRdTot=       0 NPtTot=           0 NUsed=           0 NTot=          32
 NSgBfM=   261   261   261   261   261 MxSgAt=    34 MxSgA2=    34.
 Leave Link  302 at Fri May 24 08:32:20 2019, MaxMem=   402653184 cpu:               8.3 elap:               2.4
 (Enter /n/sw/g16_nehalem/g16/l303.exe)
 DipDrv:  MaxL=1.
 Leave Link  303 at Fri May 24 08:32:21 2019, MaxMem=   402653184 cpu:               0.8 elap:               0.4
 (Enter /n/sw/g16_nehalem/g16/l401.exe)
 ExpMin= 1.61D-01 ExpMax= 5.48D+03 ExpMxC= 8.25D+02 IAcc=3 IRadAn=         5 AccDes= 0.00D+00
 Harris functional with IExCor=  402 and IRadAn=       5 diagonalized for initial guess.
 HarFok:  IExCor=  402 AccDes= 0.00D+00 IRadAn=         5 IDoV= 1 UseB2=F ITyADJ=14
 ICtDFT=  3500011 ScaDFX=  1.000000  1.000000  1.000000  1.000000
 FoFCou: FMM=F IPFlag=           0 FMFlag=      100000 FMFlg1=           0
         NFxFlg=           0 DoJE=T BraDBF=F KetDBF=T FulRan=T
         wScrn=  0.000000 ICntrl=       500 IOpCl=  0 I1Cent=   200000004 NGrid=           0
         NMat0=    1 NMatS0=      1 NMatT0=    0 NMatD0=    1 NMtDS0=    0 NMtDT0=    0
 Petite list used in FoFCou.
 Harris En= -768.259039524337    
 JPrj=0 DoOrth=F DoCkMO=F.
 Leave Link  401 at Fri May 24 08:32:32 2019, MaxMem=   402653184 cpu:              45.0 elap:              11.5
 (Enter /n/sw/g16_nehalem/g16/l502.exe)
 Integral symmetry usage will be decided dynamically.
 Closed shell SCF:
 Using DIIS extrapolation, IDIIS=  1040.
 NGot=   402653184 LenX=   402510103 LenY=   402440493
 Requested convergence on RMS density matrix=1.00D-08 within 128 cycles.
 Requested convergence on MAX density matrix=1.00D-06.
 Requested convergence on             energy=1.00D-06.
 No special actions if energy rises.
 Fock matrices will be formed incrementally for  20 cycles.

 Cycle   1  Pass 1  IDiag  1:
 FoFJK:  IHMeth= 1 ICntrl=       0 DoSepK=F KAlg= 0 I1Cent=           0 FoldK=F
 IRaf= 860000000 NMat=       1 IRICut=       1 DoRegI=T DoRafI=F ISym2E= 0 IDoP0=0 IntGTp=1.
 FoFCou: FMM=F IPFlag=           0 FMFlag=      100000 FMFlg1=           0
         NFxFlg=           0 DoJE=F BraDBF=F KetDBF=F FulRan=T
         wScrn=  0.000000 ICntrl=         0 IOpCl=  0 I1Cent=           0 NGrid=           0
         NMat0=    1 NMatS0=      1 NMatT0=    0 NMatD0=    1 NMtDS0=    0 NMtDT0=    0
 Symmetry not used in FoFCou.
 Inv3:  Mode=1 IEnd=    15773547.
 Iteration    1 A*A^-1 deviation from unit magnitude is 7.99D-15 for   2292.
 Iteration    1 A*A^-1 deviation from orthogonality  is 2.64D-15 for   2267    952.
 Iteration    1 A^-1*A deviation from unit magnitude is 7.99D-15 for   2292.
 Iteration    1 A^-1*A deviation from orthogonality  is 1.94D-15 for   1966    881.
 E= -768.081212485567    
 DIIS: error= 2.05D-02 at cycle   1 NSaved=   1.
 NSaved= 1 IEnMin= 1 EnMin= -768.081212485567     IErMin= 1 ErrMin= 2.05D-02
 ErrMax= 2.05D-02  0.00D+00 EMaxC= 1.00D-01 BMatC= 2.58D-01 BMatP= 2.58D-01
 IDIUse=3 WtCom= 7.95D-01 WtEn= 2.05D-01
 Coeff-Com:  0.100D+01
 Coeff-En:   0.100D+01
 Coeff:      0.100D+01
 Gap=     0.023 Goal=   None    Shift=    0.000
 GapD=    0.023 DampG=0.250 DampE=0.500 DampFc=0.2500 IDamp=-1.
 Damping current iteration by 2.50D-01
 RMSDP=4.63D-03 MaxDP=1.11D-01              OVMax= 3.34D-01

 Cycle   2  Pass 1  IDiag  1:
 RMSU=  1.15D-03    CP:  9.95D-01
 E= -768.161501648038     Delta-E=       -0.080289162471 Rises=F Damp=T
 DIIS: error= 1.01D-02 at cycle   2 NSaved=   2.
 NSaved= 2 IEnMin= 2 EnMin= -768.161501648038     IErMin= 2 ErrMin= 1.01D-02
 ErrMax= 1.01D-02  0.00D+00 EMaxC= 1.00D-01 BMatC= 7.10D-02 BMatP= 2.58D-01
 IDIUse=3 WtCom= 8.99D-01 WtEn= 1.01D-01
 Coeff-Com: -0.793D+00 0.179D+01
 Coeff-En:   0.000D+00 0.100D+01
 Coeff:     -0.714D+00 0.171D+01
 Gap=     0.140 Goal=   None    Shift=    0.000
 RMSDP=1.28D-03 MaxDP=3.06D-02 DE=-8.03D-02 OVMax= 3.23D-01

 Cycle   3  Pass 1  IDiag  1:
 RMSU=  1.16D-03    CP:  9.86D-01  1.44D+00
 E= -768.304521151074     Delta-E=       -0.143019503036 Rises=F Damp=F
 DIIS: error= 4.66D-03 at cycle   3 NSaved=   3.
 NSaved= 3 IEnMin= 3 EnMin= -768.304521151074     IErMin= 3 ErrMin= 4.66D-03
 ErrMax= 4.66D-03  0.00D+00 EMaxC= 1.00D-01 BMatC= 2.19D-02 BMatP= 7.10D-02
 IDIUse=3 WtCom= 9.53D-01 WtEn= 4.66D-02
 Coeff-Com: -0.479D+00 0.929D+00 0.550D+00
 Coeff-En:   0.000D+00 0.000D+00 0.100D+01
 Coeff:     -0.456D+00 0.885D+00 0.571D+00
 Gap=     0.132 Goal=   None    Shift=    0.000
 RMSDP=6.35D-04 MaxDP=2.18D-02 DE=-1.43D-01 OVMax= 2.70D-02

 Cycle   4  Pass 1  IDiag  1:
 RMSU=  4.70D-04    CP:  9.90D-01  1.63D+00  6.87D-01
 E= -768.321051199619     Delta-E=       -0.016530048545 Rises=F Damp=F
 DIIS: error= 1.86D-03 at cycle   4 NSaved=   4.
 NSaved= 4 IEnMin= 4 EnMin= -768.321051199619     IErMin= 4 ErrMin= 1.86D-03
 ErrMax= 1.86D-03  0.00D+00 EMaxC= 1.00D-01 BMatC= 2.33D-03 BMatP= 2.19D-02
 IDIUse=3 WtCom= 9.81D-01 WtEn= 1.86D-02
 Coeff-Com: -0.169D+00 0.285D+00 0.265D+00 0.619D+00
 Coeff-En:   0.000D+00 0.000D+00 0.000D+00 0.100D+01
 Coeff:     -0.166D+00 0.280D+00 0.260D+00 0.626D+00
 Gap=     0.131 Goal=   None    Shift=    0.000
 RMSDP=1.80D-04 MaxDP=7.19D-03 DE=-1.65D-02 OVMax= 1.03D-02

 Cycle   5  Pass 1  IDiag  1:
 RMSU=  1.40D-04    CP:  9.89D-01  1.63D+00  7.53D-01  8.28D-01
 E= -768.322833942249     Delta-E=       -0.001782742631 Rises=F Damp=F
 DIIS: error= 5.75D-04 at cycle   5 NSaved=   5.
 NSaved= 5 IEnMin= 5 EnMin= -768.322833942249     IErMin= 5 ErrMin= 5.75D-04
 ErrMax= 5.75D-04  0.00D+00 EMaxC= 1.00D-01 BMatC= 3.02D-04 BMatP= 2.33D-03
 IDIUse=3 WtCom= 9.94D-01 WtEn= 5.75D-03
 Coeff-Com: -0.546D-01 0.811D-01 0.704D-01 0.312D+00 0.591D+00
 Coeff-En:   0.000D+00 0.000D+00 0.000D+00 0.634D-02 0.994D+00
 Coeff:     -0.543D-01 0.807D-01 0.700D-01 0.310D+00 0.594D+00
 Gap=     0.131 Goal=   None    Shift=    0.000
 RMSDP=6.59D-05 MaxDP=3.46D-03 DE=-1.78D-03 OVMax= 4.75D-03

 Cycle   6  Pass 1  IDiag  1:
 RMSU=  5.06D-05    CP:  9.89D-01  1.64D+00  7.59D-01  8.89D-01  7.87D-01
 E= -768.323034765740     Delta-E=       -0.000200823491 Rises=F Damp=F
 DIIS: error= 3.63D-04 at cycle   6 NSaved=   6.
 NSaved= 6 IEnMin= 6 EnMin= -768.323034765740     IErMin= 6 ErrMin= 3.63D-04
 ErrMax= 3.63D-04  0.00D+00 EMaxC= 1.00D-01 BMatC= 5.10D-05 BMatP= 3.02D-04
 IDIUse=3 WtCom= 9.96D-01 WtEn= 3.63D-03
 Coeff-Com: -0.192D-01 0.245D-01 0.152D-01 0.135D+00 0.372D+00 0.472D+00
 Coeff-En:   0.000D+00 0.000D+00 0.000D+00 0.000D+00 0.545D-01 0.946D+00
 Coeff:     -0.191D-01 0.244D-01 0.151D-01 0.135D+00 0.371D+00 0.474D+00
 Gap=     0.130 Goal=   None    Shift=    0.000
 RMSDP=2.29D-05 MaxDP=1.86D-03 DE=-2.01D-04 OVMax= 1.84D-03

 Cycle   7  Pass 1  IDiag  1:
 RMSU=  1.83D-05    CP:  9.89D-01  1.64D+00  7.60D-01  9.05D-01  8.45D-01
                    CP:  8.37D-01
 E= -768.323074097159     Delta-E=       -0.000039331419 Rises=F Damp=F
 DIIS: error= 6.97D-05 at cycle   7 NSaved=   7.
 NSaved= 7 IEnMin= 7 EnMin= -768.323074097159     IErMin= 7 ErrMin= 6.97D-05
 ErrMax= 6.97D-05  0.00D+00 EMaxC= 1.00D-01 BMatC= 4.04D-06 BMatP= 5.10D-05
 IDIUse=1 WtCom= 1.00D+00 WtEn= 0.00D+00
 Coeff-Com: -0.341D-02 0.275D-02-0.361D-02 0.320D-01 0.135D+00 0.263D+00
 Coeff-Com:  0.574D+00
 Coeff:     -0.341D-02 0.275D-02-0.361D-02 0.320D-01 0.135D+00 0.263D+00
 Coeff:      0.574D+00
 Gap=     0.130 Goal=   None    Shift=    0.000
 RMSDP=9.59D-06 MaxDP=4.45D-04 DE=-3.93D-05 OVMax= 1.02D-03

 Cycle   8  Pass 1  IDiag  1:
 RMSU=  5.74D-06    CP:  9.89D-01  1.64D+00  7.61D-01  9.16D-01  8.73D-01
                    CP:  8.91D-01  8.41D-01
 E= -768.323077986095     Delta-E=       -0.000003888936 Rises=F Damp=F
 DIIS: error= 1.89D-05 at cycle   8 NSaved=   8.
 NSaved= 8 IEnMin= 8 EnMin= -768.323077986095     IErMin= 8 ErrMin= 1.89D-05
 ErrMax= 1.89D-05  0.00D+00 EMaxC= 1.00D-01 BMatC= 2.72D-07 BMatP= 4.04D-06
 IDIUse=1 WtCom= 1.00D+00 WtEn= 0.00D+00
 Coeff-Com:  0.814D-03-0.147D-02-0.365D-02-0.724D-02-0.145D-02 0.271D-01
 Coeff-Com:  0.222D+00 0.764D+00
 Coeff:      0.814D-03-0.147D-02-0.365D-02-0.724D-02-0.145D-02 0.271D-01
 Coeff:      0.222D+00 0.764D+00
 Gap=     0.130 Goal=   None    Shift=    0.000
 RMSDP=4.60D-06 MaxDP=1.38D-04 DE=-3.89D-06 OVMax= 7.64D-04

 Cycle   9  Pass 1  IDiag  1:
 RMSU=  2.15D-06    CP:  9.89D-01  1.64D+00  7.62D-01  9.20D-01  8.86D-01
                    CP:  9.29D-01  9.41D-01  1.01D+00
 E= -768.323078373427     Delta-E=       -0.000000387332 Rises=F Damp=F
 DIIS: error= 9.56D-06 at cycle   9 NSaved=   9.
 NSaved= 9 IEnMin= 9 EnMin= -768.323078373427     IErMin= 9 ErrMin= 9.56D-06
 ErrMax= 9.56D-06  0.00D+00 EMaxC= 1.00D-01 BMatC= 5.62D-08 BMatP= 2.72D-07
 IDIUse=1 WtCom= 1.00D+00 WtEn= 0.00D+00
 Coeff-Com:  0.588D-03-0.786D-03-0.144D-02-0.633D-02-0.128D-01-0.110D-01
 Coeff-Com:  0.562D-01 0.399D+00 0.577D+00
 Coeff:      0.588D-03-0.786D-03-0.144D-02-0.633D-02-0.128D-01-0.110D-01
 Coeff:      0.562D-01 0.399D+00 0.577D+00
 Gap=     0.130 Goal=   None    Shift=    0.000
 RMSDP=1.35D-06 MaxDP=3.90D-05 DE=-3.87D-07 OVMax= 1.86D-04

 Cycle  10  Pass 1  IDiag  1:
 RMSU=  7.65D-07    CP:  9.89D-01  1.64D+00  7.63D-01  9.20D-01  8.89D-01
                    CP:  9.40D-01  9.66D-01  1.09D+00  8.54D-01
 E= -768.323078430077     Delta-E=       -0.000000056650 Rises=F Damp=F
 DIIS: error= 2.61D-06 at cycle  10 NSaved=  10.
 NSaved=10 IEnMin=10 EnMin= -768.323078430077     IErMin=10 ErrMin= 2.61D-06
 ErrMax= 2.61D-06  0.00D+00 EMaxC= 1.00D-01 BMatC= 3.94D-09 BMatP= 5.62D-08
 IDIUse=1 WtCom= 1.00D+00 WtEn= 0.00D+00
 Coeff-Com:  0.205D-03-0.238D-03-0.242D-03-0.201D-02-0.573D-02-0.814D-02
 Coeff-Com: -0.554D-02 0.736D-01 0.240D+00 0.708D+00
 Coeff:      0.205D-03-0.238D-03-0.242D-03-0.201D-02-0.573D-02-0.814D-02
 Coeff:     -0.554D-02 0.736D-01 0.240D+00 0.708D+00
 Gap=     0.130 Goal=   None    Shift=    0.000
 RMSDP=5.26D-07 MaxDP=1.59D-05 DE=-5.66D-08 OVMax= 7.43D-05

 Cycle  11  Pass 1  IDiag  1:
 RMSU=  2.40D-07    CP:  9.89D-01  1.64D+00  7.63D-01  9.21D-01  8.90D-01
                    CP:  9.44D-01  9.75D-01  1.11D+00  9.10D-01  8.75D-01
 E= -768.323078435223     Delta-E=       -0.000000005147 Rises=F Damp=F
 DIIS: error= 7.62D-07 at cycle  11 NSaved=  11.
 NSaved=11 IEnMin=11 EnMin= -768.323078435223     IErMin=11 ErrMin= 7.62D-07
 ErrMax= 7.62D-07  0.00D+00 EMaxC= 1.00D-01 BMatC= 4.18D-10 BMatP= 3.94D-09
 IDIUse=1 WtCom= 1.00D+00 WtEn= 0.00D+00
 Coeff-Com:  0.296D-04-0.249D-04 0.207D-04-0.270D-03-0.119D-02-0.204D-02
 Coeff-Com: -0.724D-02-0.118D-02 0.489D-01 0.298D+00 0.665D+00
 Coeff:      0.296D-04-0.249D-04 0.207D-04-0.270D-03-0.119D-02-0.204D-02
 Coeff:     -0.724D-02-0.118D-02 0.489D-01 0.298D+00 0.665D+00
 Gap=     0.130 Goal=   None    Shift=    0.000
 RMSDP=1.41D-07 MaxDP=4.17D-06 DE=-5.15D-09 OVMax= 1.62D-05

 Cycle  12  Pass 1  IDiag  1:
 RMSU=  8.42D-08    CP:  9.89D-01  1.64D+00  7.63D-01  9.21D-01  8.90D-01
                    CP:  9.45D-01  9.76D-01  1.12D+00  9.35D-01  9.38D-01
                    CP:  8.91D-01
 E= -768.323078435711     Delta-E=       -0.000000000487 Rises=F Damp=F
 DIIS: error= 2.38D-07 at cycle  12 NSaved=  12.
 NSaved=12 IEnMin=12 EnMin= -768.323078435711     IErMin=12 ErrMin= 2.38D-07
 ErrMax= 2.38D-07  0.00D+00 EMaxC= 1.00D-01 BMatC= 6.49D-11 BMatP= 4.18D-10
 IDIUse=1 WtCom= 1.00D+00 WtEn= 0.00D+00
 Coeff-Com: -0.541D-05 0.949D-05 0.388D-04 0.115D-03 0.138D-03 0.999D-04
 Coeff-Com: -0.324D-02-0.110D-01-0.101D-01 0.451D-01 0.319D+00 0.660D+00
 Coeff:     -0.541D-05 0.949D-05 0.388D-04 0.115D-03 0.138D-03 0.999D-04
 Coeff:     -0.324D-02-0.110D-01-0.101D-01 0.451D-01 0.319D+00 0.660D+00
 Gap=     0.130 Goal=   None    Shift=    0.000
 RMSDP=5.04D-08 MaxDP=1.43D-06 DE=-4.87D-10 OVMax= 4.51D-06

 Cycle  13  Pass 1  IDiag  1:
 RMSU=  2.51D-08    CP:  9.89D-01  1.64D+00  7.63D-01  9.21D-01  8.90D-01
                    CP:  9.45D-01  9.77D-01  1.12D+00  9.40D-01  9.59D-01
                    CP:  9.82D-01  8.00D-01
 E= -768.323078435765     Delta-E=       -0.000000000054 Rises=F Damp=F
 DIIS: error= 5.18D-08 at cycle  13 NSaved=  13.
 NSaved=13 IEnMin=13 EnMin= -768.323078435765     IErMin=13 ErrMin= 5.18D-08
 ErrMax= 5.18D-08  0.00D+00 EMaxC= 1.00D-01 BMatC= 1.99D-12 BMatP= 6.49D-11
 IDIUse=1 WtCom= 1.00D+00 WtEn= 0.00D+00
 Coeff-Com: -0.483D-05 0.624D-05 0.991D-05 0.566D-04 0.135D-03 0.213D-03
 Coeff-Com: -0.374D-03-0.263D-02-0.569D-02-0.680D-02 0.472D-01 0.195D+00
 Coeff-Com:  0.772D+00
 Coeff:     -0.483D-05 0.624D-05 0.991D-05 0.566D-04 0.135D-03 0.213D-03
 Coeff:     -0.374D-03-0.263D-02-0.569D-02-0.680D-02 0.472D-01 0.195D+00
 Coeff:      0.772D+00
 Gap=     0.130 Goal=   None    Shift=    0.000
 RMSDP=1.02D-08 MaxDP=2.46D-07 DE=-5.37D-11 OVMax= 9.21D-07

 Cycle  14  Pass 1  IDiag  1:
 RMSU=  6.20D-09    CP:  9.89D-01  1.64D+00  7.63D-01  9.21D-01  8.90D-01
                    CP:  9.45D-01  9.77D-01  1.12D+00  9.42D-01  9.60D-01
                    CP:  1.00D+00  8.62D-01  9.79D-01
 E= -768.323078435752     Delta-E=        0.000000000013 Rises=F Damp=F
 DIIS: error= 1.82D-08 at cycle  14 NSaved=  14.
 NSaved=14 IEnMin=13 EnMin= -768.323078435765     IErMin=14 ErrMin= 1.82D-08
 ErrMax= 1.82D-08  0.00D+00 EMaxC= 1.00D-01 BMatC= 3.37D-13 BMatP= 1.99D-12
 IDIUse=1 WtCom= 1.00D+00 WtEn= 0.00D+00
 Coeff-Com: -0.111D-05 0.117D-05 0.534D-06 0.121D-04 0.384D-04 0.728D-04
 Coeff-Com:  0.904D-04-0.248D-03-0.158D-02-0.633D-02-0.622D-02 0.298D-01
 Coeff-Com:  0.333D+00 0.651D+00
 Coeff:     -0.111D-05 0.117D-05 0.534D-06 0.121D-04 0.384D-04 0.728D-04
 Coeff:      0.904D-04-0.248D-03-0.158D-02-0.633D-02-0.622D-02 0.298D-01
 Coeff:      0.333D+00 0.651D+00
 Gap=     0.130 Goal=   None    Shift=    0.000
 RMSDP=3.20D-09 MaxDP=9.33D-08 DE= 1.30D-11 OVMax= 2.26D-07

 Error on total polarization charges =  0.01291
 SCF Done:  E(RB3LYP) =  -768.323078436     A.U. after   14 cycles
            NFock= 14  Conv=0.32D-08     -V/T= 2.0091
 KE= 7.613911846903D+02 PE=-4.064866518551D+03 EE= 1.390020603151D+03
 Leave Link  502 at Fri May 24 08:37:41 2019, MaxMem=   402653184 cpu:            1233.2 elap:             308.6
 (Enter /n/sw/g16_nehalem/g16/l601.exe)
 Copying SCF densities to generalized density rwf, IOpCl= 0 IROHF=0.

 **********************************************************************

            Population analysis using the SCF density.

 **********************************************************************

 Orbital symmetries:
       Occupied  (A) (A) (A) (A) (A) (A) (A) (A) (A) (A) (A) (A)
                 (A) (A) (A) (A) (A) (A) (A) (A) (A) (A) (A) (A)
                 (A) (A) (A) (A) (A) (A) (A) (A) (A) (A) (A) (A)
                 (A) (A) (A) (A) (A) (A) (A) (A) (A) (A) (A) (A)
                 (A) (A) (A) (A) (A) (A) (A) (A) (A) (A) (A)
       Virtual   (A) (A) (A) (A) (A) (A) (A) (A) (A) (A) (A) (A)
                 (A) (A) (A) (A) (A) (A) (A) (A) (A) (A) (A) (A)
                 (A) (A) (A) (A) (A) (A) (A) (A) (A) (A) (A) (A)
                 (A) (A) (A) (A) (A) (A) (A) (A) (A) (A) (A) (A)
                 (A) (A) (A) (A) (A) (A) (A) (A) (A) (A) (A) (A)
                 (A) (A) (A) (A) (A) (A) (A) (A) (A) (A) (A) (A)
                 (A) (A) (A) (A) (A) (A) (A) (A) (A) (A) (A) (A)
                 (A) (A) (A) (A) (A) (A) (A) (A) (A) (A) (A) (A)
                 (A) (A) (A) (A) (A) (A) (A) (A) (A) (A) (A) (A)
                 (A) (A) (A) (A) (A) (A) (A) (A) (A) (A) (A) (A)
                 (A) (A) (A) (A) (A) (A) (A) (A) (A) (A) (A) (A)
                 (A) (A) (A) (A) (A) (A) (A) (A) (A) (A) (A) (A)
                 (A) (A) (A) (A) (A) (A) (A) (A) (A) (A) (A) (A)
                 (A) (A) (A) (A) (A) (A) (A) (A) (A) (A) (A) (A)
                 (A) (A) (A) (A) (A) (A) (A) (A) (A) (A) (A) (A)
                 (A) (A) (A) (A) (A) (A) (A) (A) (A) (A) (A) (A)
                 (A) (A) (A) (A) (A) (A) (A) (A) (A) (A) (A) (A)
 The electronic state is 1-A.
 Alpha  occ. eigenvalues --  -19.33476 -19.21437 -19.19670 -19.19300 -19.18215
 Alpha  occ. eigenvalues --  -10.40173 -10.32294 -10.32194 -10.30132 -10.30050
 Alpha  occ. eigenvalues --  -10.27727 -10.26686 -10.25467 -10.25108 -10.24571
 Alpha  occ. eigenvalues --   -1.22102  -1.10064  -1.08481  -1.06743  -1.06521
 Alpha  occ. eigenvalues --   -0.87512  -0.86075  -0.77906  -0.75458  -0.73934
 Alpha  occ. eigenvalues --   -0.72331  -0.68795  -0.67947  -0.65763  -0.63121
 Alpha  occ. eigenvalues --   -0.60758  -0.58809  -0.56030  -0.55266  -0.53969
 Alpha  occ. eigenvalues --   -0.52504  -0.52155  -0.51202  -0.50159  -0.49352
 Alpha  occ. eigenvalues --   -0.48883  -0.48171  -0.46506  -0.46071  -0.45313
 Alpha  occ. eigenvalues --   -0.44197  -0.43295  -0.42504  -0.42153  -0.41737
 Alpha  occ. eigenvalues --   -0.39737  -0.37463  -0.36239  -0.35404  -0.34498
 Alpha  occ. eigenvalues --   -0.33397  -0.30385  -0.29075  -0.28693
 Alpha virt. eigenvalues --   -0.15718  -0.00389   0.04326   0.04539   0.06533
 Alpha virt. eigenvalues --    0.07060   0.07396   0.08057   0.09295   0.10657
 Alpha virt. eigenvalues --    0.10869   0.11439   0.11764   0.12323   0.13248
 Alpha virt. eigenvalues --    0.13377   0.13998   0.14503   0.15066   0.15195
 Alpha virt. eigenvalues --    0.15610   0.15924   0.16717   0.17187   0.17828
 Alpha virt. eigenvalues --    0.18347   0.18914   0.19691   0.20696   0.21328
 Alpha virt. eigenvalues --    0.22327   0.25296   0.25968   0.28253   0.30157
 Alpha virt. eigenvalues --    0.43036   0.44954   0.45963   0.47453   0.48781
 Alpha virt. eigenvalues --    0.49595   0.49793   0.50273   0.50569   0.51933
 Alpha virt. eigenvalues --    0.52634   0.53023   0.55103   0.55297   0.56298
 Alpha virt. eigenvalues --    0.57962   0.58452   0.59409   0.60536   0.61803
 Alpha virt. eigenvalues --    0.63332   0.64245   0.65390   0.69192   0.72944
 Alpha virt. eigenvalues --    0.74770   0.75267   0.75814   0.76306   0.77403
 Alpha virt. eigenvalues --    0.77911   0.78616   0.79853   0.81333   0.82416
 Alpha virt. eigenvalues --    0.82780   0.83242   0.84102   0.84417   0.85865
 Alpha virt. eigenvalues --    0.86927   0.87386   0.88299   0.89211   0.90273
 Alpha virt. eigenvalues --    0.91694   0.92922   0.93228   0.93705   0.95628
 Alpha virt. eigenvalues --    0.96146   0.99175   0.99503   0.99890   1.02750
 Alpha virt. eigenvalues --    1.04128   1.06026   1.10058   1.10917   1.12826
 Alpha virt. eigenvalues --    1.14391   1.15521   1.19226   1.20544   1.22373
 Alpha virt. eigenvalues --    1.24140   1.26291   1.27565   1.30024   1.31243
 Alpha virt. eigenvalues --    1.33564   1.34486   1.37573   1.39152   1.41470
 Alpha virt. eigenvalues --    1.42921   1.44853   1.45867   1.46575   1.48244
 Alpha virt. eigenvalues --    1.49149   1.52690   1.54326   1.55903   1.61517
 Alpha virt. eigenvalues --    1.63125   1.65171   1.66261   1.67660   1.71938
 Alpha virt. eigenvalues --    1.75287   1.75905   1.76670   1.78413   1.79624
 Alpha virt. eigenvalues --    1.83770   1.84238   1.86500   1.89179   1.90177
 Alpha virt. eigenvalues --    1.91508   1.92354   1.95303   1.96167   1.99505
 Alpha virt. eigenvalues --    1.99703   2.00704   2.01586   2.02719   2.03506
 Alpha virt. eigenvalues --    2.05408   2.06507   2.06879   2.08355   2.10407
 Alpha virt. eigenvalues --    2.11349   2.13205   2.13682   2.16218   2.16946
 Alpha virt. eigenvalues --    2.18142   2.20226   2.21623   2.22168   2.25334
 Alpha virt. eigenvalues --    2.26537   2.28398   2.30748   2.31558   2.35127
 Alpha virt. eigenvalues --    2.37052   2.39639   2.40484   2.44094   2.45724
 Alpha virt. eigenvalues --    2.49823   2.51913   2.54534   2.55771   2.56725
 Alpha virt. eigenvalues --    2.61556   2.64695   2.66320   2.71839   2.76820
 Alpha virt. eigenvalues --    2.78769   2.81767   2.85133   2.88891   2.93499
 Alpha virt. eigenvalues --    2.97113   2.99196   3.02496   3.04819   3.83845
 Alpha virt. eigenvalues --    3.90805   3.94915   4.02831   4.09754   4.14132
 Alpha virt. eigenvalues --    4.22378   4.22931   4.23839   4.25319   4.28087
 Alpha virt. eigenvalues --    4.34747   4.41927   4.53809   4.63360
          Condensed to atoms (all electrons):
               1          2          3          4          5          6
     1  C    5.028932   0.271849  -0.038995  -0.042011   0.300261   0.003200
     2  C    0.271849   5.101848   0.231076  -0.003905  -0.034546  -0.040316
     3  C   -0.038995   0.231076   4.890555  -0.037870   0.000738   0.353626
     4  C   -0.042011  -0.003905  -0.037870   5.170890   0.247045   0.002971
     5  C    0.300261  -0.034546   0.000738   0.247045   4.961576  -0.000178
     6  H    0.003200  -0.040316   0.353626   0.002971  -0.000178   0.427763
     7  H   -0.032775   0.358634  -0.036906   0.001078  -0.005392  -0.000415
     8  H    0.358229  -0.057667   0.000793  -0.001633  -0.038294  -0.000191
     9  H   -0.006325   0.000879  -0.000609   0.357495  -0.026426  -0.000184
    10  H   -0.045070  -0.006605   0.001520  -0.051521   0.380088  -0.000068
    11  O   -0.000575  -0.023845   0.383200   0.101426  -0.013107  -0.034225
    12  O   -0.034866   0.254010  -0.034294  -0.000019   0.001974   0.004797
    13  O    0.213855  -0.039500   0.003586   0.003033  -0.040206  -0.000040
    14  O   -0.027421   0.001721  -0.000107  -0.039366   0.245225   0.000003
    15  C    0.003641  -0.000190   0.001868   0.358183  -0.031060  -0.000176
    16  H   -0.000164   0.000014   0.000635  -0.031406  -0.002116  -0.000034
    17  H    0.000472  -0.000033   0.000027  -0.042190   0.001816   0.000005
    18  O   -0.000033  -0.000011   0.000224  -0.040930   0.001835   0.000020
    19  C   -0.005000  -0.047626  -0.005964  -0.000001   0.000144  -0.000246
    20  H    0.004228  -0.003912  -0.000865   0.000020  -0.000185   0.000207
    21  H   -0.001149  -0.007172   0.009833  -0.000054   0.000015  -0.000329
    22  H   -0.000025   0.004807  -0.000032   0.000000  -0.000002  -0.000116
    23  C   -0.032192  -0.002479   0.000043  -0.000152   0.004720   0.000001
    24  H   -0.004096   0.002517  -0.000105   0.000011  -0.000240   0.000007
    25  H    0.004665  -0.000117   0.000006   0.000000  -0.000141   0.000000
    26  H   -0.011147  -0.000840   0.000057   0.000012   0.000185  -0.000001
    27  C   -0.005799   0.000257  -0.000014  -0.006358  -0.040768   0.000000
    28  H    0.006021   0.000177  -0.000015  -0.000249  -0.010798   0.000000
    29  H    0.000070  -0.000005   0.000000  -0.000029   0.005162   0.000000
    30  H   -0.002148   0.000016   0.000024   0.003336  -0.002799   0.000000
    31  C    0.000002   0.000000  -0.000002   0.005089  -0.000122  -0.000001
    32  H    0.000000   0.000000   0.000001  -0.000171   0.000024   0.000000
    33  H    0.000000   0.000000  -0.000002   0.000225   0.000010   0.000000
    34  H    0.000000   0.000000   0.000000  -0.000263   0.000000   0.000000
               7          8          9         10         11         12
     1  C   -0.032775   0.358229  -0.006325  -0.045070  -0.000575  -0.034866
     2  C    0.358634  -0.057667   0.000879  -0.006605  -0.023845   0.254010
     3  C   -0.036906   0.000793  -0.000609   0.001520   0.383200  -0.034294
     4  C    0.001078  -0.001633   0.357495  -0.051521   0.101426  -0.000019
     5  C   -0.005392  -0.038294  -0.026426   0.380088  -0.013107   0.001974
     6  H   -0.000415  -0.000191  -0.000184  -0.000068  -0.034225   0.004797
     7  H    0.471111   0.004780  -0.000014   0.004978   0.000068  -0.031794
     8  H    0.004780   0.581517   0.002362   0.005456   0.000376  -0.002559
     9  H   -0.000014   0.002362   0.484180   0.004436  -0.028473  -0.000001
    10  H    0.004978   0.005456   0.004436   0.545707   0.000378  -0.000017
    11  O    0.000068   0.000376  -0.028473   0.000378   7.941543   0.001511
    12  O   -0.031794  -0.002559  -0.000001  -0.000017   0.001511   8.174364
    13  O    0.001576  -0.037664  -0.000013   0.000902   0.000000   0.001450
    14  O   -0.000074  -0.003718  -0.001677  -0.038747   0.001184  -0.000006
    15  C    0.000038  -0.000010  -0.036749  -0.005327  -0.033837   0.000000
    16  H   -0.000009   0.000003   0.005617   0.004796  -0.003984   0.000000
    17  H   -0.000006  -0.000010  -0.003204  -0.000735   0.002903   0.000000
    18  O    0.000000   0.000001   0.005192   0.000016   0.002391   0.000000
    19  C    0.005178   0.003592   0.000008   0.000007  -0.000127   0.227818
    20  H   -0.000180   0.001287  -0.000003  -0.000003   0.000037  -0.036573
    21  H   -0.000083   0.000215   0.000022   0.000000  -0.000825  -0.034770
    22  H   -0.000117  -0.000010   0.000000   0.000000   0.000002  -0.029312
    23  C   -0.000113  -0.006702  -0.000005  -0.000194   0.000000  -0.002147
    24  H   -0.000127  -0.001550   0.000000  -0.000009  -0.000002   0.007394
    25  H   -0.000045  -0.000028   0.000000   0.000000   0.000000   0.000115
    26  H    0.000095   0.012535  -0.000001   0.000034   0.000000   0.000118
    27  C    0.000005   0.005304   0.003227   0.005421   0.000055   0.000000
    28  H   -0.000008  -0.001762  -0.000121  -0.000096   0.000009   0.000002
    29  H    0.000000  -0.000036  -0.000109  -0.000134   0.000000   0.000000
    30  H   -0.000003   0.000111   0.002788  -0.000323  -0.000186   0.000000
    31  C    0.000000   0.000000  -0.000030  -0.000004  -0.000019   0.000000
    32  H    0.000000   0.000000  -0.000053  -0.000001   0.000004   0.000000
    33  H    0.000000   0.000000   0.000060   0.000002  -0.000022   0.000000
    34  H    0.000000   0.000000  -0.000013   0.000000   0.000004   0.000000
              13         14         15         16         17         18
     1  C    0.213855  -0.027421   0.003641  -0.000164   0.000472  -0.000033
     2  C   -0.039500   0.001721  -0.000190   0.000014  -0.000033  -0.000011
     3  C    0.003586  -0.000107   0.001868   0.000635   0.000027   0.000224
     4  C    0.003033  -0.039366   0.358183  -0.031406  -0.042190  -0.040930
     5  C   -0.040206   0.245225  -0.031060  -0.002116   0.001816   0.001835
     6  H   -0.000040   0.000003  -0.000176  -0.000034   0.000005   0.000020
     7  H    0.001576  -0.000074   0.000038  -0.000009  -0.000006   0.000000
     8  H   -0.037664  -0.003718  -0.000010   0.000003  -0.000010   0.000001
     9  H   -0.000013  -0.001677  -0.036749   0.005617  -0.003204   0.005192
    10  H    0.000902  -0.038747  -0.005327   0.004796  -0.000735   0.000016
    11  O    0.000000   0.001184  -0.033837  -0.003984   0.002903   0.002391
    12  O    0.001450  -0.000006   0.000000   0.000000   0.000000   0.000000
    13  O    8.239214   0.002203  -0.000035   0.000001  -0.000001   0.000000
    14  O    0.002203   8.200041  -0.005308   0.000368   0.010249   0.000027
    15  C   -0.000035  -0.005308   4.876570   0.347239   0.358873   0.235754
    16  H    0.000001   0.000368   0.347239   0.590255  -0.044110  -0.039955
    17  H   -0.000001   0.010249   0.358873  -0.044110   0.558671  -0.035576
    18  O    0.000000   0.000027   0.235754  -0.039955  -0.035576   8.213861
    19  C   -0.000176   0.000000   0.000000   0.000000   0.000000   0.000000
    20  H   -0.000140   0.000004   0.000000   0.000000   0.000000   0.000000
    21  H    0.000011   0.000000   0.000000   0.000000   0.000000   0.000000
    22  H   -0.000005   0.000000   0.000000   0.000000   0.000000   0.000000
    23  C    0.231149  -0.000042   0.000002   0.000000   0.000000   0.000000
    24  H   -0.034210  -0.000003   0.000000   0.000000   0.000000   0.000000
    25  H   -0.031710   0.000006   0.000000   0.000000   0.000000   0.000000
    26  H   -0.034462  -0.000034   0.000000   0.000000   0.000000   0.000000
    27  C   -0.002519   0.232946   0.000050  -0.000011  -0.000047  -0.000005
    28  H    0.004508  -0.033913  -0.000015   0.000001   0.000055   0.000000
    29  H    0.000005  -0.031223   0.000006   0.000000  -0.000103   0.000000
    30  H    0.000279  -0.036150   0.000255  -0.000011  -0.000073  -0.000010
    31  C    0.000000   0.000008  -0.040934  -0.004028  -0.003539   0.244116
    32  H    0.000000  -0.000005  -0.006590  -0.002326   0.010361  -0.036286
    33  H    0.000000   0.000000  -0.008206   0.011546  -0.002050  -0.035751
    34  H    0.000000   0.000000   0.005527  -0.000142  -0.000102  -0.031576
              19         20         21         22         23         24
     1  C   -0.005000   0.004228  -0.001149  -0.000025  -0.032192  -0.004096
     2  C   -0.047626  -0.003912  -0.007172   0.004807  -0.002479   0.002517
     3  C   -0.005964  -0.000865   0.009833  -0.000032   0.000043  -0.000105
     4  C   -0.000001   0.000020  -0.000054   0.000000  -0.000152   0.000011
     5  C    0.000144  -0.000185   0.000015  -0.000002   0.004720  -0.000240
     6  H   -0.000246   0.000207  -0.000329  -0.000116   0.000001   0.000007
     7  H    0.005178  -0.000180  -0.000083  -0.000117  -0.000113  -0.000127
     8  H    0.003592   0.001287   0.000215  -0.000010  -0.006702  -0.001550
     9  H    0.000008  -0.000003   0.000022   0.000000  -0.000005   0.000000
    10  H    0.000007  -0.000003   0.000000   0.000000  -0.000194  -0.000009
    11  O   -0.000127   0.000037  -0.000825   0.000002   0.000000  -0.000002
    12  O    0.227818  -0.036573  -0.034770  -0.029312  -0.002147   0.007394
    13  O   -0.000176  -0.000140   0.000011  -0.000005   0.231149  -0.034210
    14  O    0.000000   0.000004   0.000000   0.000000  -0.000042  -0.000003
    15  C    0.000000   0.000000   0.000000   0.000000   0.000002   0.000000
    16  H    0.000000   0.000000   0.000000   0.000000   0.000000   0.000000
    17  H    0.000000   0.000000   0.000000   0.000000   0.000000   0.000000
    18  O    0.000000   0.000000   0.000000   0.000000   0.000000   0.000000
    19  C    4.950105   0.368421   0.364195   0.387725  -0.000517  -0.000894
    20  H    0.368421   0.559251  -0.042781  -0.028837   0.001457  -0.000487
    21  H    0.364195  -0.042781   0.572274  -0.025955   0.000013   0.000185
    22  H    0.387725  -0.028837  -0.025955   0.486344   0.000014  -0.000030
    23  C   -0.000517   0.001457   0.000013   0.000014   4.918869   0.368314
    24  H   -0.000894  -0.000487   0.000185  -0.000030   0.368314   0.561842
    25  H    0.000035  -0.000060   0.000000  -0.000001   0.384040  -0.029939
    26  H   -0.000410   0.000960   0.000006   0.000014   0.366024  -0.042616
    27  C   -0.000004  -0.000006   0.000000   0.000000  -0.000433   0.000005
    28  H   -0.000002  -0.000003   0.000000   0.000000   0.000702   0.000101
    29  H    0.000000   0.000000   0.000000   0.000000   0.000001   0.000000
    30  H   -0.000001  -0.000001   0.000000   0.000000   0.000000   0.000000
    31  C    0.000000   0.000000   0.000000   0.000000   0.000000   0.000000
    32  H    0.000000   0.000000   0.000000   0.000000   0.000000   0.000000
    33  H    0.000000   0.000000   0.000000   0.000000   0.000000   0.000000
    34  H    0.000000   0.000000   0.000000   0.000000   0.000000   0.000000
              25         26         27         28         29         30
     1  C    0.004665  -0.011147  -0.005799   0.006021   0.000070  -0.002148
     2  C   -0.000117  -0.000840   0.000257   0.000177  -0.000005   0.000016
     3  C    0.000006   0.000057  -0.000014  -0.000015   0.000000   0.000024
     4  C    0.000000   0.000012  -0.006358  -0.000249  -0.000029   0.003336
     5  C   -0.000141   0.000185  -0.040768  -0.010798   0.005162  -0.002799
     6  H    0.000000  -0.000001   0.000000   0.000000   0.000000   0.000000
     7  H   -0.000045   0.000095   0.000005  -0.000008   0.000000  -0.000003
     8  H   -0.000028   0.012535   0.005304  -0.001762  -0.000036   0.000111
     9  H    0.000000  -0.000001   0.003227  -0.000121  -0.000109   0.002788
    10  H    0.000000   0.000034   0.005421  -0.000096  -0.000134  -0.000323
    11  O    0.000000   0.000000   0.000055   0.000009   0.000000  -0.000186
    12  O    0.000115   0.000118   0.000000   0.000002   0.000000   0.000000
    13  O   -0.031710  -0.034462  -0.002519   0.004508   0.000005   0.000279
    14  O    0.000006  -0.000034   0.232946  -0.033913  -0.031223  -0.036150
    15  C    0.000000   0.000000   0.000050  -0.000015   0.000006   0.000255
    16  H    0.000000   0.000000  -0.000011   0.000001   0.000000  -0.000011
    17  H    0.000000   0.000000  -0.000047   0.000055  -0.000103  -0.000073
    18  O    0.000000   0.000000  -0.000005   0.000000   0.000000  -0.000010
    19  C    0.000035  -0.000410  -0.000004  -0.000002   0.000000  -0.000001
    20  H   -0.000060   0.000960  -0.000006  -0.000003   0.000000  -0.000001
    21  H    0.000000   0.000006   0.000000   0.000000   0.000000   0.000000
    22  H   -0.000001   0.000014   0.000000   0.000000   0.000000   0.000000
    23  C    0.384040   0.366024  -0.000433   0.000702   0.000001   0.000000
    24  H   -0.029939  -0.042616   0.000005   0.000101   0.000000   0.000000
    25  H    0.514459  -0.027466   0.000030  -0.000154   0.000000   0.000001
    26  H   -0.027466   0.576988   0.000160   0.000253  -0.000002  -0.000015
    27  C    0.000030   0.000160   4.931207   0.369319   0.387323   0.359859
    28  H   -0.000154   0.000253   0.369319   0.564745  -0.029471  -0.043564
    29  H    0.000000  -0.000002   0.387323  -0.029471   0.505225  -0.028472
    30  H    0.000001  -0.000015   0.359859  -0.043564  -0.028472   0.586339
    31  C    0.000000   0.000000   0.000000   0.000000   0.000000  -0.000001
    32  H    0.000000   0.000000   0.000000   0.000000   0.000000   0.000000
    33  H    0.000000   0.000000   0.000000   0.000000   0.000000   0.000000
    34  H    0.000000   0.000000   0.000000   0.000000   0.000000   0.000000
              31         32         33         34
     1  C    0.000002   0.000000   0.000000   0.000000
     2  C    0.000000   0.000000   0.000000   0.000000
     3  C   -0.000002   0.000001  -0.000002   0.000000
     4  C    0.005089  -0.000171   0.000225  -0.000263
     5  C   -0.000122   0.000024   0.000010   0.000000
     6  H   -0.000001   0.000000   0.000000   0.000000
     7  H    0.000000   0.000000   0.000000   0.000000
     8  H    0.000000   0.000000   0.000000   0.000000
     9  H   -0.000030  -0.000053   0.000060  -0.000013
    10  H   -0.000004  -0.000001   0.000002   0.000000
    11  O   -0.000019   0.000004  -0.000022   0.000004
    12  O    0.000000   0.000000   0.000000   0.000000
    13  O    0.000000   0.000000   0.000000   0.000000
    14  O    0.000008  -0.000005   0.000000   0.000000
    15  C   -0.040934  -0.006590  -0.008206   0.005527
    16  H   -0.004028  -0.002326   0.011546  -0.000142
    17  H   -0.003539   0.010361  -0.002050  -0.000102
    18  O    0.244116  -0.036286  -0.035751  -0.031576
    19  C    0.000000   0.000000   0.000000   0.000000
    20  H    0.000000   0.000000   0.000000   0.000000
    21  H    0.000000   0.000000   0.000000   0.000000
    22  H    0.000000   0.000000   0.000000   0.000000
    23  C    0.000000   0.000000   0.000000   0.000000
    24  H    0.000000   0.000000   0.000000   0.000000
    25  H    0.000000   0.000000   0.000000   0.000000
    26  H    0.000000   0.000000   0.000000   0.000000
    27  C    0.000000   0.000000   0.000000   0.000000
    28  H    0.000000   0.000000   0.000000   0.000000
    29  H    0.000000   0.000000   0.000000   0.000000
    30  H   -0.000001   0.000000   0.000000   0.000000
    31  C    4.890334   0.368053   0.367070   0.386088
    32  H    0.368053   0.586088  -0.045146  -0.030351
    33  H    0.367070  -0.045146   0.587949  -0.030667
    34  H    0.386088  -0.030351  -0.030667   0.523291
 Mulliken charges:
               1
     1  C    0.094366
     2  C    0.040961
     3  C    0.277968
     4  C    0.047313
     5  C    0.095561
     6  H    0.283922
     7  H    0.260519
     8  H    0.175275
     9  H    0.237743
    10  H    0.195111
    11  O   -0.295869
    12  O   -0.467197
    13  O   -0.481089
    14  O   -0.476190
    15  C   -0.019568
    16  H    0.167819
    17  H    0.188346
    18  O   -0.483303
    19  C   -0.246260
    20  H    0.178166
    21  H    0.166348
    22  H    0.205534
    23  C   -0.230374
    24  H    0.173932
    25  H    0.186304
    26  H    0.159555
    27  C   -0.239206
    28  H    0.174277
    29  H    0.191793
    30  H    0.160747
    31  C   -0.212081
    32  H    0.156396
    33  H    0.154981
    34  H    0.178202
 Sum of Mulliken charges =   1.00000
 Mulliken charges with hydrogens summed into heavy atoms:
               1
     1  C    0.269641
     2  C    0.301480
     3  C    0.561890
     4  C    0.285056
     5  C    0.290672
    11  O   -0.295869
[...]
 0000922,0.00000842,-0.00014069,-0.00000807,-0.00007955,0.00002788,-0.0
 0000822,0.00001894,0.00003270,0.00000981,-0.00000069,0.00003495,-0.000
 01975,0.00001853,0.10717906,-0.27471722,-0.01250801,-0.00126861,0.0053
 2767,0.00119913,-0.11543203,0.29628694,-0.00090167,0.00040464,-0.00080
 001,0.00017863,0.00006409,0.00020158,-0.00018121,0.00022467,0.00000546
 ,0.00057136,0.00039639,-0.00056293,-0.00103760,-0.00107899,-0.00496186
 ,0.00001724,-0.00000492,-0.00002142,0.00001340,0.00008305,0.00008358,0
 .00023853,0.00001725,0.00045809,-0.00026511,-0.00032288,0.00006968,0.0
 0009672,-0.00146033,-0.00041914,-0.00006150,-0.00050450,0.00018227,0.0
 0012148,-0.00018191,0.00007384,0.00016944,0.00002512,0.00014188,0.0097
 8441,-0.03790422,-0.01193313,0.00009870,0.00001558,0.00009251,0.000030
 62,-0.00001958,0.00002296,0.00003190,-0.00000290,0.00002804,-0.0001772
 6,-0.00002366,0.00000219,-0.00001746,-0.00001706,-0.00011624,0.0000057
 1,0.00001323,0.00000761,-0.00000582,-0.00000328,0.00001087,0.00000454,
 -0.00000215,0.00001903,-0.00006868,-0.00002805,-0.00009192,0.00002208,
 -0.00000525,0.00001255,0.00002722,0.00000640,0.00000260,0.00001505,0.0
 0000698,0.00001856,0.00454612,-0.00222295,-0.04753061,0.00171379,-0.00
 066243,0.00135969,-0.00376496,0.02137736,0.05981203,-0.00021991,-0.000
 88852,0.00062190,0.00000940,0.00016302,-0.00005458,0.00016471,0.000059
 42,-0.00005269,-0.00007733,-0.00052944,-0.00027018,0.00037140,0.000771
 36,0.00077329,-0.00002022,0.00000385,-0.00000199,-0.00001911,-0.000045
 46,-0.00001183,-0.00046228,0.00000704,0.00013932,-0.00049992,-0.000292
 95,-0.00089781,-0.00006559,-0.00009827,-0.00003460,-0.00013353,0.00043
 780,0.00020354,0.00003986,-0.00005996,-0.00000268,-0.00010994,0.000633
 69,0.00011962,0.00565900,0.00808495,-0.01308371,0.00014701,-0.00009774
 ,0.00007921,-0.00001379,0.00004480,-0.00000592,-0.00001580,0.00005077,
 -0.00006468,-0.00004616,0.00002129,0.00000098,0.00000314,0.00001957,0.
 00000419,-0.00001598,-0.00001237,0.00001207,0.00000904,0.00000968,0.00
 000336,0.00000274,-0.00000878,-0.00000068,0.00012573,-0.00002407,0.000
 00238,-0.00001144,0.00001987,0.00003091,0.00002247,-0.00000251,-0.0000
 2283,0.00008217,-0.00009174,0.00002282,-0.08193150,-0.05078856,0.06210
 527,-0.00793064,-0.02005854,0.02432239,0.00572229,0.00825853,-0.011237
 80,0.07922813,0.00050590,-0.00027195,0.00001365,0.00008251,-0.00018072
 ,0.00010007,0.00038703,-0.00013176,-0.00009344,-0.00090611,-0.00082655
 ,0.00032573,0.00152230,0.00257442,-0.00084618,-0.00005267,0.00001773,-
 0.00003955,-0.00000165,0.00003138,0.00002501,-0.00023924,0.00049273,-0
 .00065133,-0.00042553,-0.00108161,-0.00083175,-0.00002107,-0.00024034,
 0.00012884,-0.00015465,0.00128619,0.00026651,-0.00004615,0.00006109,-0
 .00003347,-0.00009625,0.00005089,-0.00010068,0.00408388,0.01156110,-0.
 01532099,0.00002850,0.00002719,0.00006091,0.00001125,0.00000036,-0.000
 02810,0.00000300,0.00001645,0.00000220,0.00010185,0.00001560,-0.000020
 93,0.00000938,-0.00001647,0.00004337,0.00000211,-0.00000243,-0.0000045
 0,0.00000230,-0.00000236,-0.00000597,-0.00000506,0.00000173,-0.0000006
 4,0.00007660,-0.00002404,0.00000576,-0.00001089,0.00001315,0.00000375,
 -0.00001068,-0.00000587,-0.00000513,0.00000983,-0.00000337,0.00001011,
 -0.04869032,-0.14443004,0.11262031,0.00056891,-0.00061821,0.00155596,-
 0.01113699,-0.01486783,0.02182130,0.05442139,0.14654508,-0.00015886,-0
 .00056906,-0.00051769,0.00023683,0.00019247,0.00027129,-0.00003742,0.0
 0025634,-0.00004521,0.00059529,0.00009852,-0.00054305,-0.00054351,0.00
 587825,0.00151340,-0.00000460,-0.00001772,-0.00003565,-0.00003281,0.00
 006700,0.00003540,0.00092635,-0.00009158,-0.00094114,-0.00150190,-0.00
 128035,-0.00016086,0.00005272,-0.00082421,-0.00011967,-0.00032011,-0.0
 0087166,0.00041071,0.00013756,-0.00025359,0.00005298,0.00008090,-0.000
 02993,0.00022898,0.00143872,0.00635755,-0.03717226,-0.00004552,0.00014
 877,0.00009399,0.00010501,-0.00002545,0.00003189,0.00014071,-0.0000395
 0,-0.00001444,-0.00012703,-0.00007240,0.00006089,-0.00001312,0.0000108
 4,-0.00012217,-0.00000214,0.00001197,0.00000519,-0.00000849,-0.0000051
 1,0.00001482,0.00000329,-0.00000649,0.00001651,-0.00014028,-0.00006553
 ,-0.00007400,0.00003760,-0.00001284,0.00001366,0.00001883,0.00001315,0
 .00000348,0.00002069,0.00000293,0.00001598,0.06125271,0.10893474,-0.18
 925322,0.00121060,0.00140474,0.00248599,-0.00062935,-0.00020899,0.0038
 1070,-0.06270058,-0.11899605,0.21992580,-0.00050300,-0.00009771,-0.000
 09615,-0.00032320,0.00047718,-0.00027676,-0.00188740,0.00040261,0.0005
 1024,-0.00247981,0.00018867,0.00023091,-0.00004318,-0.00110199,0.00013
 992,0.00015707,0.00000672,-0.00019996,0.00011770,0.00005533,0.00013553
 ,0.00002860,0.00004460,0.00000397,-0.00055142,-0.00009807,-0.00005726,
 -0.00015074,-0.00000831,0.00007529,0.00194396,-0.00107224,0.00016856,0
 .00055832,-0.00024594,0.00028983,0.00088507,0.00032330,-0.00006827,0.0
 0086755,0.00082048,0.00050976,-0.04825127,-0.00567595,-0.00066253,0.00
 543413,0.00235447,-0.00437903,0.00582827,0.00334378,-0.00307017,-0.201
 13902,-0.00099038,-0.03243144,-0.00011035,0.00003086,-0.00031773,-0.00
 001106,0.00001421,0.00004264,0.00000059,0.00002797,0.00002052,0.000036
 01,-0.00002159,0.00002620,-0.00036441,-0.00003999,-0.00021003,0.000056
 48,-0.00002772,0.00003936,0.00007992,0.00003331,0.00000420,0.00002115,
 -0.00000866,0.00004421,-0.00024748,-0.00040431,-0.00063159,0.00013260,
 0.00004114,0.00012080,0.00000876,0.00009112,0.00006152,-0.00000409,-0.
 00004035,0.00002003,0.48534411,0.00013371,-0.00030390,0.00017332,0.000
 11224,-0.00013457,0.00004717,0.00021148,0.00018889,0.00002628,-0.00287
 517,-0.00291903,0.00227808,-0.00085699,0.00094516,-0.00036889,-0.00002
 823,0.00000118,-0.00002242,-0.00000134,-0.00000638,-0.00000999,-0.0000
 1171,0.00000328,-0.00000953,0.00005934,-0.00000081,0.00008651,0.000039
 86,0.00001453,-0.00000020,-0.00005524,0.00019873,-0.00010482,-0.000029
 11,0.00005884,-0.00003929,-0.00033943,-0.00005846,-0.00002120,0.000039
 24,-0.00016430,-0.00010653,-0.02266440,-0.00395014,-0.00675379,0.00118
 007,0.00082759,0.00063551,-0.00392529,0.00154536,-0.00022043,0.0238709
 9,-0.07214703,0.02013126,0.00001173,-0.00000392,0.00003396,0.00000184,
 -0.00000389,-0.00000235,-0.00000330,-0.00000042,-0.00000389,-0.0000021
 2,0.00000478,-0.00000337,0.00007328,0.00000580,0.00007944,-0.00002000,
 0.00000394,-0.00000968,-0.00002841,-0.00000637,-0.00000287,-0.00000539
 ,0.00000272,-0.00001442,0.00005384,0.00007158,0.00012627,-0.00000436,-
 0.00000637,-0.00002320,-0.00001877,-0.00004066,-0.00001852,-0.00001867
 ,0.00001668,-0.00001699,0.02463439,0.58867305,-0.00021450,0.00034279,-
 0.00022506,-0.00017127,0.00027120,-0.00005397,-0.00071930,0.00012130,0
 .00022477,0.00241979,0.00306185,-0.00372139,0.00118292,-0.00103940,0.0
 0130810,0.00008009,-0.00000746,-0.00009874,0.00004758,0.00002741,0.000
 05706,0.00000931,0.00000957,0.00000737,-0.00013608,0.00003113,0.000396
 95,-0.00016178,-0.00011043,0.00005797,0.00071182,-0.00042117,0.0000163
 2,0.00024784,-0.00016167,0.00011093,0.00067442,0.00014621,-0.00001525,
 0.00030929,0.00044805,0.00020171,0.02323011,-0.00201934,0.00412155,0.0
 0455382,0.00163208,0.00066618,0.00109813,0.00080864,-0.00024551,-0.067
 36563,0.01365393,-0.09964149,-0.00004474,0.00002232,-0.00013654,-0.000
 00860,0.00000362,0.00001617,0.00000209,0.00001199,0.00000961,0.0000160
 8,-0.00001167,0.00001206,-0.00019995,-0.00001153,-0.00015786,0.0000425
 1,-0.00001563,0.00002379,0.00005795,0.00001939,0.00000687,0.00001011,-
 0.00000546,0.00002370,-0.00012706,-0.00018689,-0.00034668,0.00006599,0
 .00001234,0.00005848,-0.00000009,0.00004170,0.00003747,0.00000315,-0.0
 0001405,0.00001826,-0.05676400,-0.01913496,0.58648543,0.00006883,-0.00
 001710,0.00003777,0.00003793,-0.00004001,0.00004802,0.00023089,-0.0001
 8488,-0.00007666,0.00016696,-0.00017683,0.00003324,-0.00010379,0.00033
 167,-0.00011116,-0.00001109,-0.00000377,0.00000204,-0.00001933,-0.0000
 0848,-0.00001820,-0.00000333,-0.00000428,-0.00000320,0.00013378,0.0000
 1884,0.00005857,0.00000624,-0.00000242,-0.00000280,-0.00009163,-0.0000
 5959,0.00012439,-0.00008572,0.00002784,-0.00004056,-0.00012877,-0.0000
 4951,0.00000387,-0.00001072,-0.00011879,-0.00006399,0.00452313,0.00592
 884,-0.00336152,-0.00057731,-0.00039887,0.00053896,0.00025354,-0.00164
 939,0.00043633,-0.03037426,0.03242441,-0.00632305,0.00001575,-0.000003
 69,0.00004540,0.00000105,-0.00000222,-0.00000601,0.00000023,-0.0000036
 3,-0.00000299,-0.00000488,0.00000270,-0.00000369,0.00004684,0.00000587
 ,0.00003199,-0.00000738,0.00000314,-0.00000554,-0.00001146,-0.00000422
 ,-0.00000086,-0.00000302,0.00000126,-0.00000632,0.00003415,0.00003573,
 0.00005387,-0.00000989,-0.00000241,-0.00000734,-0.00000434,-0.00001323
 ,-0.00000753,-0.00000454,0.00000511,-0.00000028,-0.06761126,0.05803321
 ,0.00246663,0.08287952,-0.00005856,0.00000936,-0.00003249,-0.00004067,
 0.00005656,-0.00002043,-0.00022614,0.00005653,0.00006256,0.00013310,0.
 00045104,-0.00032787,0.00005040,-0.00024020,0.00009303,0.00000533,0.00
 000135,-0.00002645,0.00001056,0.00000287,0.00001414,0.00000322,0.00000
 453,0.00000254,-0.00007569,-0.00002773,-0.00002526,-0.00001543,-0.0000
 0074,0.00000488,0.00000686,-0.00002289,0.00001827,0.00006393,-0.000021
 83,0.00003335,0.00011603,0.00004685,-0.00000413,0.00007145,0.00013262,
 0.00007702,-0.00199664,0.00247057,0.00094384,0.00005258,-0.00035876,-0
 .00039217,0.00206331,0.00008366,-0.00077227,0.00809356,0.00445321,0.00
 383248,-0.00001512,0.00000062,-0.00003638,-0.00000034,0.00000316,0.000
 00485,0.00000074,0.00000217,0.00000201,0.00000347,-0.00000270,0.000002
 84,-0.00004198,-0.00000679,-0.00002961,0.00000644,-0.00000237,0.000005
 15,0.00001080,0.00000384,0.00000032,0.00000272,-0.00000137,0.00000627,
 -0.00002143,-0.00004747,-0.00008251,0.00001036,0.00000531,0.00001838,0
 .00000536,0.00001766,0.00000804,0.00000634,-0.00000757,0.00000815,0.06
 203605,-0.28814233,0.00071287,-0.07616237,0.30668591,0.00004331,-0.000
 00364,0.00002145,0.00002568,-0.00003898,0.00001656,0.00015157,-0.00005
 568,-0.00004892,0.00016294,-0.00012208,0.00005495,0.00001766,0.0001343
 9,-0.00005797,-0.00001469,0.00000117,0.00002002,-0.00001026,-0.0000057
 6,-0.00001138,-0.00000331,-0.00000265,-0.00000220,0.00001595,0.0000214
 4,0.00000550,0.00000961,-0.00000492,-0.00000164,-0.00015231,0.00009849
 ,-0.00001687,-0.00005131,0.00002471,-0.00002626,-0.00008264,-0.0000265
 1,0.00000010,-0.00009110,-0.00008787,-0.00006410,0.00182936,-0.0002177
 8,-0.00060868,-0.00030201,-0.00034120,0.00000230,-0.00032287,-0.000483
 36,0.00010498,-0.01070456,0.01388711,0.00097291,0.00000914,-0.00000332
 ,0.00003024,0.00000072,-0.00000147,-0.00000341,0.00000084,-0.00000199,
 -0.00000194,-0.00000310,0.00000179,-0.00000252,0.00003387,0.00000367,0
 .00002205,-0.00000556,0.00000248,-0.00000357,-0.00000707,-0.00000269,-
 0.00000060,-0.00000191,0.00000058,-0.00000478,0.00002244,0.00004189,0.
 00008253,-0.00001143,-0.00000435,-0.00001706,-0.00000256,-0.00001102,-
 0.00000364,-0.00000376,0.00000686,-0.00000999,0.00163316,-0.00101753,-
 0.05438353,0.00574278,-0.00306245,0.05095270,0.00007243,-0.00002620,0.
 00003822,0.00003097,-0.00004701,0.00002108,0.00016228,-0.00003217,-0.0
 0005245,-0.00011719,-0.00010035,0.00021735,-0.00006116,0.00031215,0.00
 003670,-0.00002008,0.00000092,0.00001193,-0.00001170,-0.00000551,-0.00
 001271,-0.00000183,-0.00000167,-0.00000259,0.00020383,-0.00002059,0.00
 026980,-0.00003916,-0.00003367,0.00001939,-0.00014791,0.00007491,0.000
 00091,-0.00005190,0.00002783,-0.00002491,-0.00010937,-0.00003295,0.000
 00016,-0.00004248,-0.00007429,-0.00005747,0.00500664,0.00157334,-0.006
 77010,0.00020315,0.00052569,0.00189903,-0.00059244,-0.00027069,0.00059
 018,-0.02118566,-0.01424635,-0.03695904,0.00000942,-0.00000379,0.00002
 933,0.00000132,-0.00000106,-0.00000361,0.00000006,-0.00000258,-0.00000
 204,-0.00000336,0.00000203,-0.00000242,0.00003740,0.00000359,0.0000245
 5,-0.00000725,0.00000281,-0.00000427,-0.00000938,-0.00000336,-0.000000
 86,-0.00000261,0.00000092,-0.00000476,0.00003202,0.00004579,0.00005555
 ,-0.00001239,-0.00000356,-0.00000915,-0.00000154,-0.00001060,-0.000005
 82,-0.00000099,0.00000423,-0.00000065,-0.05203062,-0.00437754,-0.00446
 539,0.00311565,0.00219870,0.00822030,0.06228640,-0.00000475,-0.0000012
 6,0.00000252,-0.00000867,0.00000469,-0.00000269,-0.00001262,-0.0000046
 7,-0.00000457,-0.00006189,0.00005333,0.00025556,-0.00004449,-0.0000288
 8,-0.00003911,0.00000351,0.00000097,-0.00000240,-0.00000138,0.00000109
 ,0.00000047,0.00000278,-0.00000063,0.00000096,0.00007646,-0.00003048,0
 .00003008,-0.00000742,0.00000400,0.00000472,-0.00000539,-0.00000375,-0
 .00000857,0.00000442,-0.00000429,0.00000833,0.00000677,0.00000299,0.00
 000325,-0.00000438,0.00002339,0.00002717,0.00014940,0.00022509,-0.0008
 5775,-0.00030825,-0.00018595,0.00001612,0.00025306,-0.00028846,-0.0001
 7787,-0.00190051,0.00587356,0.00521472,0.00000014,0.00000127,-0.000007
 68,0.00000010,0.00000048,0.00000047,-0.00000147,0.00000004,0.00000042,
 0.00000035,-0.00000017,0.00000058,-0.00000516,-0.00000101,-0.00000394,
 0.00000055,-0.00000009,0.00000019,0.00000032,-0.00000016,-0.00000014,0
 .00000042,0.00000014,0.00000197,-0.00000398,-0.00000551,-0.00001806,-0
 .00000122,0.00000144,0.00000432,0.00000436,0.00000612,-0.00000015,0.00
 000460,-0.00000428,0.00000529,-0.00490519,-0.09625500,-0.09312686,-0.0
 0093377,-0.01174105,-0.02949509,0.00593899,0.09380791,0.00008404,-0.00
 003500,0.00003173,0.00004325,-0.00007009,0.00002928,0.00024524,-0.0000
 6131,-0.00007326,0.00008304,-0.00031424,0.00070399,-0.00009106,0.00028
 145,-0.00011487,-0.00002970,0.00000123,0.00001932,-0.00001601,-0.00000
 924,-0.00001843,-0.00000408,-0.00000327,0.00000050,0.00035477,0.000013
 04,0.00001744,0.00000703,-0.00000148,-0.00001254,-0.00025016,0.0001634
 9,-0.00001288,-0.00007245,0.00004381,-0.00002970,-0.00015271,-0.000040
 37,0.00000886,-0.00010223,-0.00011135,-0.00005544,0.00255889,0.0025204
 7,0.00092204,-0.00171075,-0.00098238,0.00047277,-0.00013593,-0.0004330
 1,-0.00001963,-0.01486360,-0.00180425,-0.00930523,0.00001343,-0.000006
 10,0.00003549,0.00000308,0.00000014,-0.00000533,-0.00000187,-0.0000049
 8,-0.00000307,-0.00000543,0.00000310,-0.00000319,0.00005607,0.00000350
 ,0.00003317,-0.00001058,0.00000477,-0.00000611,-0.00001341,-0.00000535
 ,-0.00000123,-0.00000309,0.00000165,-0.00000493,0.00004088,0.00005416,
 0.00007496,-0.00002143,-0.00000486,-0.00001211,0.00000147,-0.00000911,
 -0.00001035,0.00000397,0.00000236,0.00000221,-0.00862815,-0.09224093,-
 0.26114466,0.00152565,0.00024834,0.00156716,0.02146769,0.10200835,0.28
 372316,0.00013000,-0.00017067,0.00012756,0.00008915,-0.00011934,0.0000
 3915,0.00030985,-0.00002824,-0.00006594,-0.00081296,-0.00155175,0.0015
 2936,-0.00049120,0.00064587,-0.00045047,-0.00004230,0.00000199,0.00002
 909,-0.00001900,-0.00001275,-0.00002339,-0.00000813,-0.00000425,-0.000
 00826,0.00009622,0.00003796,-0.00002377,0.00004096,0.00002016,-0.00001
 065,-0.00030359,0.00019356,-0.00001187,-0.00010858,0.00007700,-0.00006
 533,-0.00030364,-0.00006445,-0.00000861,-0.00008203,-0.00019873,-0.000
 11795,-0.00392312,0.00194371,-0.00402422,-0.00012626,0.00011603,0.0003
 3328,-0.00005999,-0.00030968,-0.00000627,-0.03216531,-0.01867178,0.020
 30784,0.00001560,-0.00001367,0.00007482,0.00000324,-0.00000269,-0.0000
 0747,0.00000353,-0.00000398,-0.00000505,-0.00000652,0.00000514,-0.0000
 0637,0.00009220,0.00000750,0.00007553,-0.00001986,0.00000647,-0.000010
 06,-0.00002551,-0.00000753,-0.00000334,-0.00000485,0.00000145,-0.00001
 334,0.00006416,0.00008170,0.00016108,-0.00002635,-0.00000444,-0.000024
 98,-0.00000279,-0.00002188,-0.00001602,-0.00000434,0.00001154,-0.00001
 119,-0.12579200,-0.07318976,0.09314876,0.00754825,0.00370306,-0.006148
 88,0.00328747,0.00176430,-0.00037587,0.15264770,0.00001972,0.00002320,
 0.00000350,0.00001315,-0.00001871,0.00001194,0.00007079,0.00001819,-0.
 00002084,0.00014698,0.00029922,0.00013955,0.00005645,0.00002052,0.0000
 0041,-0.00000748,0.00000074,0.00001400,-0.00000505,-0.00000200,-0.0000
 0532,-0.00000062,-0.00000243,-0.00000076,0.00001869,0.00001248,0.00000
 984,-0.00000052,-0.00000803,0.00000327,-0.00019956,0.00008138,-0.00004
 670,-0.00002229,0.00000803,-0.00001447,-0.00002315,-0.00001300,0.00000
 149,-0.00003056,-0.00004406,-0.00002432,0.00124824,0.00108235,-0.00071
 395,-0.00014231,-0.00006463,0.00021853,0.00030288,0.00033017,-0.000068
 07,0.00136088,0.00288103,-0.00353294,0.00000521,-0.00000042,0.00001488
 ,-0.00000024,-0.00000153,-0.00000154,0.00000050,-0.00000039,-0.0000008
 2,-0.00000117,0.00000084,-0.00000115,0.00001420,0.00000285,0.00000770,
 -0.00000156,0.00000099,-0.00000136,-0.00000170,-0.00000103,0.00000004,
 -0.00000062,-0.00000005,-0.00000238,0.00001099,0.00001278,0.00003312,-
 0.00000522,-0.00000016,-0.00000525,0.00000053,-0.00000217,-0.00000036,
 -0.00000039,0.00000363,-0.00000328,-0.08018779,-0.12841856,0.09488812,
 -0.01697916,-0.01386405,0.02076575,0.00858204,0.00854914,-0.00921254,0
 .08575816,0.12911367,-0.00000189,-0.00005169,0.00001851,0.00000176,-0.
 00000545,-0.00000853,-0.00002521,0.00001467,0.00000954,-0.00049778,-0.
 00017625,0.00064373,-0.00017686,0.00008675,-0.00010434,0.00000312,0.00
 000175,-0.00000077,0.00000140,0.00000078,0.00000095,-0.00000321,0.0000
 0248,-0.00000244,0.00008769,-0.00002410,-0.00000138,0.00000478,0.00001
 442,-0.00001119,0.00003418,-0.00002865,-0.00001816,0.00000443,0.000001
 45,0.00000333,-0.00003062,-0.00000219,-0.00000316,0.00001576,-0.000006
 35,-0.00000205,-0.00279077,-0.00049475,0.00043978,-0.00037536,0.000000
 25,0.00032564,-0.00000817,0.00004245,-0.00011022,-0.00993418,-0.008319
 92,0.01049938,-0.00000075,0.00000031,-0.00000227,-0.00000016,-0.000000
 29,0.00000084,-0.00000019,0.00000095,0.00000028,0.00000070,0.00000012,
 0.00000007,0.00000010,-0.00000041,0.00000645,-0.00000158,-0.00000014,-
 0.00000067,-0.00000282,-0.00000033,-0.00000066,-0.00000030,0.00000016,
 -0.00000041,0.00000028,0.00000158,0.00001016,0.00000097,0.00000051,-0.
 00000171,-0.00000075,-0.00000214,-0.00000192,-0.00000207,0.00000005,-0
 .00000277,0.10371643,0.09652800,-0.17369004,-0.00110783,-0.00128729,0.
 00141561,0.01547609,0.01615939,-0.01680911,-0.10438718,-0.10245611,0.1
 7739753\\-0.00001384,-0.00000478,-0.00000195,-0.00000592,0.00000265,-0
 .00000113,-0.00001277,-0.00000224,0.00000375,-0.00000870,0.00000067,0.
 00000178,0.00002235,-0.00001364,-0.00000334,0.00000624,0.00000215,0.00
 000701,-0.00000122,-0.00000530,0.00000344,-0.00000116,0.00000640,-0.00
 000386,0.00000509,0.00000371,0.00000329,-0.00000349,-0.00000601,0.0000
 0013,0.00000481,-0.00000811,0.00000691,0.00001056,0.00001340,0.0000091
 9,0.00000305,-0.00000309,-0.00001622,-0.00001521,0.00000790,-0.0000026
 4,0.00000892,0.00000110,0.00000731,-0.00000137,-0.00000866,0.00000260,
 -0.00000399,-0.00000775,-0.00000023,-0.00000234,-0.00000658,0.00000913
 ,0.00000075,0.00000038,-0.00000487,0.00000439,0.00001223,-0.00000221,0
 .00000694,0.00000665,0.00000446,0.00000281,0.00000377,0.00000325,-0.00
 000096,0.00000349,-0.00000378,-0.00000166,0.00000180,-0.00000619,-0.00
 000358,0.00000225,-0.00001085,-0.00000173,0.00000415,-0.00001148,0.000
 01088,0.00000813,-0.00000560,-0.00000386,0.00000357,-0.00000943,-0.000
 00410,0.00000069,-0.00000936,-0.00000314,0.00000441,-0.00000472,0.0000
 0275,-0.00000526,0.00001074,-0.00000127,-0.00000534,0.00000525,-0.0000
 0112,-0.00000856,0.00000911,0.00000189,-0.00000419,0.00001049\\\@


 WE HAVE LEARNED THAT NOTHING IS SIMPLE AND
 RATIONAL EXCEPT WHAT WE OURSELVES HAVE INVENTED;
 THAT GOD THINKS IN TERMS NEITHER OF EUCLID OR RIEMANN; THAT SCIENCE HAS "EXPLAINED" NOTHING;
 THAT THE MORE WE KNOW THE MORE FANTASTIC THE WORLD BECOMES
 AND THE PROFOUNDER THE SURROUNDING DARKNESS.
   --  ALDOUS HUXLEY
 Job cpu time:       0 days  3 hours  6 minutes 12.5 seconds.
 Elapsed time:       0 days  0 hours 46 minutes 54.1 seconds.
 File lengths (MBytes):  RWF=    377 Int=      0 D2E=      0 Chk=     17 Scr=      1
 Normal termination of Gaussian 16 at Fri May 24 09:25:37 2019.
