 Entering Gaussian System, Link 0=g16
 Input=clay-glucose_cation-103-b3lyp_d3bj-631gd-pcm_thf.gjf
 Output=clay-glucose_cation-103-b3lyp_d3bj-631gd-pcm_thf.out
 Initial command:
 /n/sw/g16_nehalem/g16/l1.exe "/scratch/Gau-44068.inp" -scrdir="/scratch/"
 Entering Link 1 = /n/sw/g16_nehalem/g16/l1.exe PID=     44090.
  
 Copyright (c) 1988,1990,1992,1993,1995,1998,2003,2009,2016,
            Gaussian, Inc.  All Rights Reserved.
  
 This is part of the Gaussian(R) 16 program.  It is based on
 the Gaussian(R) 09 system (copyright 2009, Gaussian, Inc.),
 the Gaussian(R) 03 system (copyright 2003, Gaussian, Inc.),
 the Gaussian(R) 98 system (copyright 1998, Gaussian, Inc.),
 the Gaussian(R) 94 system (copyright 1995, Gaussian, Inc.),
 the Gaussian 92(TM) system (copyright 1992, Gaussian, Inc.),
 the Gaussian 90(TM) system (copyright 1990, Gaussian, Inc.),
 the Gaussian 88(TM) system (copyright 1988, Gaussian, Inc.),
 the Gaussian 86(TM) system (copyright 1986, Carnegie Mellon
 University), and the Gaussian 82(TM) system (copyright 1983,
 Carnegie Mellon University). Gaussian is a federally registered
 trademark of Gaussian, Inc.
  
 This software contains proprietary and confidential information,
 including trade secrets, belonging to Gaussian, Inc.
  
 This software is provided under written license and may be
 used, copied, transmitted, or stored only in accord with that
 written license.
  
 The following legend is applicable only to US Government
 contracts under FAR:
  
                    RESTRICTED RIGHTS LEGEND
  
 Use, reproduction and disclosure by the US Government is
 subject to restrictions as set forth in subparagraphs (a)
 and (c) of the Commercial Computer Software - Restricted
 Rights clause in FAR 52.227-19.
  
 Gaussian, Inc.
 340 Quinnipiac St., Bldg. 40, Wallingford CT 06492
  
  
 ---------------------------------------------------------------
 Warning -- This program may not be used in any manner that
 competes with the business of Gaussian, Inc. or will provide
 assistance to any competitor of Gaussian, Inc.  The licensee
 of this program is prohibited from giving any competitor of
 Gaussian, Inc. access to this program.  By using this program,
 the user acknowledges that Gaussian, Inc. is engaged in the
 business of creating and licensing software in the field of
 computational chemistry and represents and warrants to the
 licensee that it is not a competitor of Gaussian, Inc. and that
 it will not use this program in any manner prohibited above.
 ---------------------------------------------------------------
  

 Cite this work as:
 Gaussian 16, Revision A.03,
 M. J. Frisch, G. W. Trucks, H. B. Schlegel, G. E. Scuseria, 
 M. A. Robb, J. R. Cheeseman, G. Scalmani, V. Barone, 
 G. A. Petersson, H. Nakatsuji, X. Li, M. Caricato, A. V. Marenich, 
 J. Bloino, B. G. Janesko, R. Gomperts, B. Mennucci, H. P. Hratchian, 
 J. V. Ortiz, A. F. Izmaylov, J. L. Sonnenberg, D. Williams-Young, 
 F. Ding, F. Lipparini, F. Egidi, J. Goings, B. Peng, A. Petrone, 
 T. Henderson, D. Ranasinghe, V. G. Zakrzewski, J. Gao, N. Rega, 
 G. Zheng, W. Liang, M. Hada, M. Ehara, K. Toyota, R. Fukuda, 
 J. Hasegawa, M. Ishida, T. Nakajima, Y. Honda, O. Kitao, H. Nakai, 
 T. Vreven, K. Throssell, J. A. Montgomery, Jr., J. E. Peralta, 
 F. Ogliaro, M. J. Bearpark, J. J. Heyd, E. N. Brothers, K. N. Kudin, 
 V. N. Staroverov, T. A. Keith, R. Kobayashi, J. Normand, 
 K. Raghavachari, A. P. Rendell, J. C. Burant, S. S. Iyengar, 
 J. Tomasi, M. Cossi, J. M. Millam, M. Klene, C. Adamo, R. Cammi, 
 J. W. Ochterski, R. L. Martin, K. Morokuma, O. Farkas, 
 J. B. Foresman, and D. J. Fox, Gaussian, Inc., Wallingford CT, 2016.
 
 ******************************************
 Gaussian 16:  ES64L-G16RevA.03 25-Dec-2016
                24-May-2019 
 ******************************************
 %nprocshared=4
 Will use up to    4 processors via shared memory.
 %mem=3GB
 -------------------------------------------------------------------
 #p b3lyp 6-31g* opt freq=noraman scrf=(pcm,solvent=tetrahydrofuran)
 -------------------------------------------------------------------
 1/18=20,19=15,26=3,38=1/1,3;
 2/9=110,12=2,17=6,18=5,40=1/2;
 3/5=1,6=6,7=1,11=2,25=1,30=1,70=2201,71=1,72=20,74=-5/1,2,3;
 4//1;
 5/5=2,38=5,53=20/2;
 6/7=2,8=2,9=2,10=2,28=1/1;
 7//1,2,3,16;
 1/18=20,19=15,26=3/3(2);
 2/9=110/2;
 99//99;
 2/9=110/2;
 3/5=1,6=6,7=1,11=2,25=1,30=1,70=2205,71=1,72=20,74=-5/1,2,3;
 4/5=5,16=3,69=1/1;
 5/5=2,38=5,53=20/2;
 7//1,2,3,16;
 1/18=20,19=15,26=3/3(-5);
 2/9=110/2;
 6/7=2,8=2,9=2,10=2,19=2,28=1/1;
 99/9=1/99;
 Leave Link    1 at Fri May 24 08:30:49 2019, MaxMem=   402653184 cpu:               0.2 elap:               0.1
 (Enter /n/sw/g16_nehalem/g16/l101.exe)
 -----
 title
 -----
 Symbolic Z-matrix:
 Charge =  1 Multiplicity = 1
 6                    -1.06109   0.67833  -0.18795 
 6                    -1.0611   -0.88756  -0.31367 
 6                    -0.14065  -1.22     -1.43679 
 6                     1.43832   0.50653  -0.81401 
 6                     0.38071   1.10182   0.15731 
 1                    -0.4008   -1.99541  -2.15937 
 1                    -0.65201  -1.32461   0.61293 
 1                    -1.36124   1.07639  -1.16252 
 1                     1.79084   1.25561  -1.52138 
 1                     0.6125    0.70735   1.14942 
 8                     0.88921  -0.56147  -1.73084 
 8                    -2.3407   -1.35136  -0.62204 
 8                    -2.02871   1.15461   0.69723 
 8                     0.57778   2.49219   0.27811 
 6                     2.60097  -0.16781  -0.10786 
 1                     3.10583   0.59872   0.50032 
 1                     3.32224  -0.55609  -0.84066 
 8                     2.05639  -1.20165   0.68164 
 6                    -2.66057  -2.64017  -0.08187 
 1                    -2.02206  -3.42557  -0.50577 
 1                    -2.55758  -2.63933   1.01027 
 1                    -3.6985   -2.83252  -0.3545 
 6                    -1.84482   0.91315   2.09434 
 1                    -1.01341   1.49935   2.50014 
 1                    -2.773     1.23311   2.56982 
 1                    -1.68657  -0.1505    2.31396 
 6                     0.05123   3.3268   -0.75772 
 1                     0.39504   3.02291  -1.75556 
 1                    -1.04355   3.34471  -0.737 
 1                     0.43042   4.32824  -0.5485 
 6                     3.04172  -1.94133   1.40149 
 1                     2.50771  -2.70612   1.96756 
 1                     3.75118  -2.42201   0.71515 
 1                     3.593    -1.29155   2.09337 
 
 ITRead=  0  0  0  0  0  0  0  0  0  0  0  0  0  0  0  0  0  0  0  0
 ITRead=  0  0  0  0  0  0  0  0  0  0  0  0  0  0
 MicOpt= -1 -1 -1 -1 -1 -1 -1 -1 -1 -1 -1 -1 -1 -1 -1 -1 -1 -1 -1 -1
 MicOpt= -1 -1 -1 -1 -1 -1 -1 -1 -1 -1 -1 -1 -1 -1
 NAtoms=     34 NQM=       34 NQMF=       0 NMMI=      0 NMMIF=      0
                NMic=       0 NMicF=      0.
                    Isotopes and Nuclear Properties:
 (Nuclear quadrupole moments (NQMom) in fm**2, nuclear magnetic moments (NMagM)
  in nuclear magnetons)

  Atom         1           2           3           4           5           6           7           8           9          10
 IAtWgt=          12          12          12          12          12           1           1           1           1           1
 AtmWgt=  12.0000000  12.0000000  12.0000000  12.0000000  12.0000000   1.0078250   1.0078250   1.0078250   1.0078250   1.0078250
 NucSpn=           0           0           0           0           0           1           1           1           1           1
 AtZEff=   0.0000000   0.0000000   0.0000000   0.0000000   0.0000000   0.0000000   0.0000000   0.0000000   0.0000000   0.0000000
 NQMom=    0.0000000   0.0000000   0.0000000   0.0000000   0.0000000   0.0000000   0.0000000   0.0000000   0.0000000   0.0000000
 NMagM=    0.0000000   0.0000000   0.0000000   0.0000000   0.0000000   2.7928460   2.7928460   2.7928460   2.7928460   2.7928460
 AtZNuc=   6.0000000   6.0000000   6.0000000   6.0000000   6.0000000   1.0000000   1.0000000   1.0000000   1.0000000   1.0000000

  Atom        11          12          13          14          15          16          17          18          19          20
 IAtWgt=          16          16          16          16          12           1           1          16          12           1
 AtmWgt=  15.9949146  15.9949146  15.9949146  15.9949146  12.0000000   1.0078250   1.0078250  15.9949146  12.0000000   1.0078250
 NucSpn=           0           0           0           0           0           1           1           0           0           1
 AtZEff=   0.0000000   0.0000000   0.0000000   0.0000000   0.0000000   0.0000000   0.0000000   0.0000000   0.0000000   0.0000000
 NQMom=    0.0000000   0.0000000   0.0000000   0.0000000   0.0000000   0.0000000   0.0000000   0.0000000   0.0000000   0.0000000
 NMagM=    0.0000000   0.0000000   0.0000000   0.0000000   0.0000000   2.7928460   2.7928460   0.0000000   0.0000000   2.7928460
 AtZNuc=   8.0000000   8.0000000   8.0000000   8.0000000   6.0000000   1.0000000   1.0000000   8.0000000   6.0000000   1.0000000

  Atom        21          22          23          24          25          26          27          28          29          30
 IAtWgt=           1           1          12           1           1           1          12           1           1           1
 AtmWgt=   1.0078250   1.0078250  12.0000000   1.0078250   1.0078250   1.0078250  12.0000000   1.0078250   1.0078250   1.0078250
 NucSpn=           1           1           0           1           1           1           0           1           1           1
 AtZEff=   0.0000000   0.0000000   0.0000000   0.0000000   0.0000000   0.0000000   0.0000000   0.0000000   0.0000000   0.0000000
 NQMom=    0.0000000   0.0000000   0.0000000   0.0000000   0.0000000   0.0000000   0.0000000   0.0000000   0.0000000   0.0000000
 NMagM=    2.7928460   2.7928460   0.0000000   2.7928460   2.7928460   2.7928460   0.0000000   2.7928460   2.7928460   2.7928460
 AtZNuc=   1.0000000   1.0000000   6.0000000   1.0000000   1.0000000   1.0000000   6.0000000   1.0000000   1.0000000   1.0000000

  Atom        31          32          33          34
 IAtWgt=          12           1           1           1
 AtmWgt=  12.0000000   1.0078250   1.0078250   1.0078250
 NucSpn=           0           1           1           1
 AtZEff=   0.0000000   0.0000000   0.0000000   0.0000000
 NQMom=    0.0000000   0.0000000   0.0000000   0.0000000
 NMagM=    0.0000000   2.7928460   2.7928460   2.7928460
 AtZNuc=   6.0000000   1.0000000   1.0000000   1.0000000
 Leave Link  101 at Fri May 24 08:30:49 2019, MaxMem=   402653184 cpu:               1.9 elap:               0.6
 (Enter /n/sw/g16_nehalem/g16/l103.exe)

 GradGradGradGradGradGradGradGradGradGradGradGradGradGradGradGradGradGrad
 Berny optimization.
 Initialization pass.
                           ----------------------------
                           !    Initial Parameters    !
                           ! (Angstroms and Degrees)  !
 --------------------------                            --------------------------
 ! Name  Definition              Value          Derivative Info.                !
 --------------------------------------------------------------------------------
 ! R1    R(1,2)                  1.5709         estimate D2E/DX2                !
 ! R2    R(1,5)                  1.5419         estimate D2E/DX2                !
 ! R3    R(1,8)                  1.0947         estimate D2E/DX2                !
 ! R4    R(1,13)                 1.3952         estimate D2E/DX2                !
 ! R5    R(2,3)                  1.4897         estimate D2E/DX2                !
 ! R6    R(2,7)                  1.1032         estimate D2E/DX2                !
 ! R7    R(2,12)                 1.3956         estimate D2E/DX2                !
 ! R8    R(3,6)                  1.0914         estimate D2E/DX2                !
 ! R9    R(3,11)                 1.2573         estimate D2E/DX2                !
 ! R10   R(4,5)                  1.5545         estimate D2E/DX2                !
 ! R11   R(4,9)                  1.0889         estimate D2E/DX2                !
 ! R12   R(4,11)                 1.5109         estimate D2E/DX2                !
 ! R13   R(4,15)                 1.5183         estimate D2E/DX2                !
 ! R14   R(5,10)                 1.0925         estimate D2E/DX2                !
 ! R15   R(5,14)                 1.4095         estimate D2E/DX2                !
 ! R16   R(12,19)                1.4336         estimate D2E/DX2                !
 ! R17   R(13,23)                1.4297         estimate D2E/DX2                !
 ! R18   R(14,27)                1.4307         estimate D2E/DX2                !
 ! R19   R(15,16)                1.1011         estimate D2E/DX2                !
 ! R20   R(15,17)                1.0991         estimate D2E/DX2                !
 ! R21   R(15,18)                1.4102         estimate D2E/DX2                !
 ! R22   R(18,31)                1.4269         estimate D2E/DX2                !
 ! R23   R(19,20)                1.0974         estimate D2E/DX2                !
 ! R24   R(19,21)                1.097          estimate D2E/DX2                !
 ! R25   R(19,22)                1.0902         estimate D2E/DX2                !
 ! R26   R(23,24)                1.0952         estimate D2E/DX2                !
 ! R27   R(23,25)                1.0909         estimate D2E/DX2                !
 ! R28   R(23,26)                1.0976         estimate D2E/DX2                !
 ! R29   R(27,28)                1.0983         estimate D2E/DX2                !
 ! R30   R(27,29)                1.0951         estimate D2E/DX2                !
 ! R31   R(27,30)                1.0911         estimate D2E/DX2                !
 ! R32   R(31,32)                1.0911         estimate D2E/DX2                !
 ! R33   R(31,33)                1.0979         estimate D2E/DX2                !
 ! R34   R(31,34)                1.0976         estimate D2E/DX2                !
 ! A1    A(2,1,5)              106.9601         estimate D2E/DX2                !
 ! A2    A(2,1,8)              106.9306         estimate D2E/DX2                !
 ! A3    A(2,1,13)             113.019          estimate D2E/DX2                !
 ! A4    A(5,1,8)              110.8473         estimate D2E/DX2                !
 ! A5    A(5,1,13)             114.3738         estimate D2E/DX2                !
 ! A6    A(8,1,13)             104.5091         estimate D2E/DX2                !
 ! A7    A(1,2,3)              106.4261         estimate D2E/DX2                !
 ! A8    A(1,2,7)              109.1285         estimate D2E/DX2                !
 ! A9    A(1,2,12)             110.4238         estimate D2E/DX2                !
 ! A10   A(3,2,7)              108.4047         estimate D2E/DX2                !
 ! A11   A(3,2,12)             109.0132         estimate D2E/DX2                !
 ! A12   A(7,2,12)             113.2008         estimate D2E/DX2                !
 ! A13   A(2,3,6)              120.6936         estimate D2E/DX2                !
 ! A14   A(2,3,11)             124.4415         estimate D2E/DX2                !
 ! A15   A(6,3,11)             114.365          estimate D2E/DX2                !
 ! A16   A(5,4,9)              111.2678         estimate D2E/DX2                !
 ! A17   A(5,4,11)             113.7413         estimate D2E/DX2                !
 ! A18   A(5,4,15)             113.6082         estimate D2E/DX2                !
 ! A19   A(9,4,11)             102.1063         estimate D2E/DX2                !
 ! A20   A(9,4,15)             111.0852         estimate D2E/DX2                !
 ! A21   A(11,4,15)            104.2757         estimate D2E/DX2                !
 ! A22   A(1,5,4)              113.0237         estimate D2E/DX2                !
 ! A23   A(1,5,10)             107.6118         estimate D2E/DX2                !
 ! A24   A(1,5,14)             114.8904         estimate D2E/DX2                !
 ! A25   A(4,5,10)             106.5473         estimate D2E/DX2                !
 ! A26   A(4,5,14)             109.6453         estimate D2E/DX2                !
 ! A27   A(10,5,14)            104.399          estimate D2E/DX2                !
 ! A28   A(3,11,4)             121.7372         estimate D2E/DX2                !
 ! A29   A(2,12,19)            114.8414         estimate D2E/DX2                !
 ! A30   A(1,13,23)            118.2368         estimate D2E/DX2                !
 ! A31   A(5,14,27)            117.5134         estimate D2E/DX2                !
 ! A32   A(4,15,16)            107.387          estimate D2E/DX2                !
 ! A33   A(4,15,17)            110.4473         estimate D2E/DX2                !
 ! A34   A(4,15,18)            106.8742         estimate D2E/DX2                !
 ! A35   A(16,15,17)           108.2597         estimate D2E/DX2                !
 ! A36   A(16,15,18)           112.2219         estimate D2E/DX2                !
 ! A37   A(17,15,18)           111.5739         estimate D2E/DX2                !
 ! A38   A(15,18,31)           113.3149         estimate D2E/DX2                !
 ! A39   A(12,19,20)           111.5955         estimate D2E/DX2                !
 ! A40   A(12,19,21)           110.7017         estimate D2E/DX2                !
 ! A41   A(12,19,22)           106.0704         estimate D2E/DX2                !
 ! A42   A(20,19,21)           109.2988         estimate D2E/DX2                !
 ! A43   A(20,19,22)           109.3331         estimate D2E/DX2                !
 ! A44   A(21,19,22)           109.7841         estimate D2E/DX2                !
 ! A45   A(13,23,24)           111.6734         estimate D2E/DX2                !
 ! A46   A(13,23,25)           105.484          estimate D2E/DX2                !
 ! A47   A(13,23,26)           112.1949         estimate D2E/DX2                !
 ! A48   A(24,23,25)           109.1123         estimate D2E/DX2                !
 ! A49   A(24,23,26)           109.5784         estimate D2E/DX2                !
 ! A50   A(25,23,26)           108.6453         estimate D2E/DX2                !
 ! A51   A(14,27,28)           112.4065         estimate D2E/DX2                !
 ! A52   A(14,27,29)           111.3329         estimate D2E/DX2                !
 ! A53   A(14,27,30)           105.5872         estimate D2E/DX2                !
 ! A54   A(28,27,29)           109.5516         estimate D2E/DX2                !
 ! A55   A(28,27,30)           108.6255         estimate D2E/DX2                !
 ! A56   A(29,27,30)           109.1952         estimate D2E/DX2                !
 ! A57   A(18,31,32)           106.6848         estimate D2E/DX2                !
 ! A58   A(18,31,33)           110.9648         estimate D2E/DX2                !
 ! A59   A(18,31,34)           110.9729         estimate D2E/DX2                !
 ! A60   A(32,31,33)           109.4931         estimate D2E/DX2                !
 ! A61   A(32,31,34)           109.4948         estimate D2E/DX2                !
 ! A62   A(33,31,34)           109.1878         estimate D2E/DX2                !
 ! D1    D(5,1,2,3)            -62.0402         estimate D2E/DX2                !
 ! D2    D(5,1,2,7)             54.7451         estimate D2E/DX2                !
 ! D3    D(5,1,2,12)           179.7818         estimate D2E/DX2                !
 ! D4    D(8,1,2,3)             56.7596         estimate D2E/DX2                !
 ! D5    D(8,1,2,7)            173.545          estimate D2E/DX2                !
 ! D6    D(8,1,2,12)           -61.4184         estimate D2E/DX2                !
 ! D7    D(13,1,2,3)           171.208          estimate D2E/DX2                !
 ! D8    D(13,1,2,7)           -72.0067         estimate D2E/DX2                !
 ! D9    D(13,1,2,12)           53.03           estimate D2E/DX2                !
 ! D10   D(2,1,5,4)             51.6819         estimate D2E/DX2                !
 ! D11   D(2,1,5,10)           -65.6779         estimate D2E/DX2                !
 ! D12   D(2,1,5,14)           178.5428         estimate D2E/DX2                !
 ! D13   D(8,1,5,4)            -64.5444         estimate D2E/DX2                !
 ! D14   D(8,1,5,10)           178.0958         estimate D2E/DX2                !
 ! D15   D(8,1,5,14)            62.3165         estimate D2E/DX2                !
 ! D16   D(13,1,5,4)           177.6257         estimate D2E/DX2                !
 ! D17   D(13,1,5,10)           60.2658         estimate D2E/DX2                !
 ! D18   D(13,1,5,14)          -55.5134         estimate D2E/DX2                !
 ! D19   D(2,1,13,23)           70.1636         estimate D2E/DX2                !
 ! D20   D(5,1,13,23)          -52.5505         estimate D2E/DX2                !
 ! D21   D(8,1,13,23)         -173.9377         estimate D2E/DX2                !
 ! D22   D(1,2,3,6)           -138.4078         estimate D2E/DX2                !
 ! D23   D(1,2,3,11)            33.0151         estimate D2E/DX2                !
 ! D24   D(7,2,3,6)            104.3246         estimate D2E/DX2                !
 ! D25   D(7,2,3,11)           -84.2524         estimate D2E/DX2                !
 ! D26   D(12,2,3,6)           -19.3041         estimate D2E/DX2                !
 ! D27   D(12,2,3,11)          152.1188         estimate D2E/DX2                !
 ! D28   D(1,2,12,19)         -147.769          estimate D2E/DX2                !
 ! D29   D(3,2,12,19)           95.6493         estimate D2E/DX2                !
 ! D30   D(7,2,12,19)          -25.0826         estimate D2E/DX2                !
 ! D31   D(2,3,11,4)            11.1312         estimate D2E/DX2                !
 ! D32   D(6,3,11,4)          -176.9621         estimate D2E/DX2                !
 ! D33   D(9,4,5,1)            103.783          estimate D2E/DX2                !
 ! D34   D(9,4,5,10)          -138.2335         estimate D2E/DX2                !
 ! D35   D(9,4,5,14)           -25.8061         estimate D2E/DX2                !
 ! D36   D(11,4,5,1)           -10.866          estimate D2E/DX2                !
 ! D37   D(11,4,5,10)          107.1176         estimate D2E/DX2                !
 ! D38   D(11,4,5,14)         -140.4551         estimate D2E/DX2                !
 ! D39   D(15,4,5,1)          -129.9586         estimate D2E/DX2                !
 ! D40   D(15,4,5,10)          -11.975          estimate D2E/DX2                !
 ! D41   D(15,4,5,14)          100.4523         estimate D2E/DX2                !
 ! D42   D(5,4,11,3)           -23.3677         estimate D2E/DX2                !
 ! D43   D(9,4,11,3)          -143.3424         estimate D2E/DX2                !
 ! D44   D(15,4,11,3)          100.9207         estimate D2E/DX2                !
 ! D45   D(5,4,15,16)          -61.3345         estimate D2E/DX2                !
 ! D46   D(5,4,15,17)         -179.184          estimate D2E/DX2                !
 ! D47   D(5,4,15,18)           59.2705         estimate D2E/DX2                !
 ! D48   D(9,4,15,16)           65.0203         estimate D2E/DX2                !
 ! D49   D(9,4,15,17)          -52.8293         estimate D2E/DX2                !
 ! D50   D(9,4,15,18)         -174.3748         estimate D2E/DX2                !
 ! D51   D(11,4,15,16)         174.2917         estimate D2E/DX2                !
 ! D52   D(11,4,15,17)          56.4422         estimate D2E/DX2                !
 ! D53   D(11,4,15,18)         -65.1034         estimate D2E/DX2                !
 ! D54   D(1,5,14,27)          -47.7923         estimate D2E/DX2                !
 ! D55   D(4,5,14,27)           80.7754         estimate D2E/DX2                !
 ! D56   D(10,5,14,27)        -165.4045         estimate D2E/DX2                !
 ! D57   D(2,12,19,20)         -64.3751         estimate D2E/DX2                !
 ! D58   D(2,12,19,21)          57.6011         estimate D2E/DX2                !
 ! D59   D(2,12,19,22)         176.641          estimate D2E/DX2                !
 ! D60   D(1,13,23,24)          69.7466         estimate D2E/DX2                !
 ! D61   D(1,13,23,25)        -171.8491         estimate D2E/DX2                !
 ! D62   D(1,13,23,26)         -53.729          estimate D2E/DX2                !
 ! D63   D(5,14,27,28)         -53.8978         estimate D2E/DX2                !
 ! D64   D(5,14,27,29)          69.4441         estimate D2E/DX2                !
 ! D65   D(5,14,27,30)        -172.1706         estimate D2E/DX2                !
 ! D66   D(4,15,18,31)         179.3903         estimate D2E/DX2                !
 ! D67   D(16,15,18,31)        -63.1421         estimate D2E/DX2                !
 ! D68   D(17,15,18,31)         58.5596         estimate D2E/DX2                !
 ! D69   D(15,18,31,32)       -179.8656         estimate D2E/DX2                !
 ! D70   D(15,18,31,33)        -60.6631         estimate D2E/DX2                !
 ! D71   D(15,18,31,34)         60.9253         estimate D2E/DX2                !
 --------------------------------------------------------------------------------
 Trust Radius=3.00D-01 FncErr=1.00D-07 GrdErr=1.00D-06 EigMax=2.50D+02 EigMin=1.00D-04
 Number of steps in this run=    177 maximum allowed number of steps=    204.
 GradGradGradGradGradGradGradGradGradGradGradGradGradGradGradGradGradGrad

 Leave Link  103 at Fri May 24 08:30:49 2019, MaxMem=   402653184 cpu:               0.2 elap:               0.1
 (Enter /n/sw/g16_nehalem/g16/l202.exe)
                          Input orientation:                          
 ---------------------------------------------------------------------
 Center     Atomic      Atomic             Coordinates (Angstroms)
 Number     Number       Type             X           Y           Z
 ---------------------------------------------------------------------
      1          6           0       -1.061092    0.678331   -0.187954
      2          6           0       -1.061101   -0.887557   -0.313672
      3          6           0       -0.140653   -1.219997   -1.436791
      4          6           0        1.438317    0.506530   -0.814008
      5          6           0        0.380710    1.101821    0.157306
      6          1           0       -0.400799   -1.995411   -2.159371
      7          1           0       -0.652014   -1.324607    0.612931
      8          1           0       -1.361244    1.076385   -1.162518
      9          1           0        1.790837    1.255608   -1.521380
     10          1           0        0.612501    0.707354    1.149418
     11          8           0        0.889210   -0.561469   -1.730838
     12          8           0       -2.340703   -1.351356   -0.622041
     13          8           0       -2.028711    1.154612    0.697227
     14          8           0        0.577783    2.492193    0.278111
     15          6           0        2.600973   -0.167806   -0.107862
     16          1           0        3.105826    0.598718    0.500324
     17          1           0        3.322236   -0.556085   -0.840656
     18          8           0        2.056390   -1.201647    0.681642
     19          6           0       -2.660573   -2.640165   -0.081869
     20          1           0       -2.022061   -3.425567   -0.505773
     21          1           0       -2.557577   -2.639330    1.010270
     22          1           0       -3.698502   -2.832523   -0.354497
     23          6           0       -1.844821    0.913151    2.094335
     24          1           0       -1.013410    1.499347    2.500137
     25          1           0       -2.772995    1.233109    2.569818
     26          1           0       -1.686571   -0.150503    2.313959
     27          6           0        0.051225    3.326798   -0.757717
     28          1           0        0.395036    3.022908   -1.755562
     29          1           0       -1.043548    3.344713   -0.737001
     30          1           0        0.430417    4.328243   -0.548504
     31          6           0        3.041719   -1.941329    1.401485
     32          1           0        2.507707   -2.706123    1.967559
     33          1           0        3.751177   -2.422013    0.715152
     34          1           0        3.593003   -1.291552    2.093367
 ---------------------------------------------------------------------
                    Distance matrix (angstroms):
                    1          2          3          4          5
     1  C    0.000000
     2  C    1.570927   0.000000
     3  C    2.451622   1.489677   0.000000
     4  C    2.582345   2.905324   2.421136   0.000000
     5  C    1.541863   2.501652   2.864228   1.554463   0.000000
     6  H    3.386941   2.251654   1.091359   3.384089   3.945959
     7  H    2.195569   1.103158   2.115134   3.123892   2.676129
     8  H    1.094675   2.160485   2.615041   2.878148   2.185632
     9  H    3.200746   3.766333   3.141087   1.088928   2.197748
    10  H    2.142503   2.735931   3.312159   2.139473   1.092528
    11  O    2.778718   2.432777   1.257275   1.510867   2.567137
    12  O    2.438332   1.395558   2.349743   4.215398   3.745871
    13  O    1.395233   2.475609   3.709119   3.837203   2.469739
    14  O    2.488619   3.802480   4.151794   2.424067   1.409456
    15  C    3.759399   3.737805   3.223301   1.518269   2.571349
    16  H    4.224130   4.498320   4.195207   2.125218   2.792316
    17  H    4.600366   4.427328   3.575997   2.163102   3.520959
    18  O    3.742888   3.287560   3.052064   2.353052   2.896342
    19  C    3.685378   2.384047   3.194165   5.219063   4.827946
    20  H    4.226872   2.720633   3.044837   5.246962   5.168194
    21  H    3.831721   2.657249   3.720771   5.402925   4.832938
    22  H    4.394288   3.277262   4.053380   6.143886   5.690428
    23  C    2.424503   3.107292   4.463559   4.404860   2.956462
    24  H    2.811081   3.690136   4.863737   4.240308   2.755078
    25  H    3.292977   3.967659   5.385153   5.450995   3.972821
    26  H    2.708830   2.799805   4.195451   4.469988   3.239308
    27  C    2.928525   4.381236   4.601228   3.143422   2.428240
    28  H    3.174074   4.414875   4.288452   2.882207   2.711060
    29  H    2.722380   4.253425   4.705476   3.771056   2.803366
    30  H    3.959350   5.429949   5.647844   3.961293   3.303095
    31  C    5.120741   4.570047   4.324768   3.670330   4.229623
    32  H    5.370018   4.609511   4.562015   4.381991   4.722454
    33  H    5.795314   5.154712   4.606739   4.032867   4.908019
    34  H    5.544859   5.255258   5.138806   4.040866   4.449201
                    6          7          8          9         10
     6  H    0.000000
     7  H    2.863345   0.000000
     8  H    3.369288   3.069200   0.000000
     9  H    3.972332   4.144914   3.177502   0.000000
    10  H    4.390877   2.452689   3.062173   2.970222   0.000000
    11  O    1.975842   2.907061   2.840792   2.039258   3.159486
    12  O    2.557620   2.092258   2.673085   4.967363   4.012202
    13  O    4.553339   2.837063   1.977444   4.418299   2.716711
    14  O    5.199763   4.023986   2.799955   2.497761   1.986462
    15  C    4.069332   3.526990   4.284796   2.163437   2.510115
    16  H    5.108806   4.222940   4.790399   2.499597   2.578720
    17  H    4.203767   4.300954   4.970265   2.467955   3.591565
    18  O    3.839166   2.712064   4.502286   3.310880   2.438835
    19  C    3.136607   2.499550   4.082744   6.088045   4.840967
    20  H    2.721805   2.746372   4.597343   6.122340   5.173162
    21  H    3.887537   2.348946   4.467523   6.363057   4.611838
    22  H    3.851386   3.534235   4.625498   6.943146   5.777304
    23  C    5.351537   2.936819   3.296602   5.138938   2.640767
    24  H    5.856589   3.415680   3.703367   4.908748   2.257273
    25  H    6.198055   3.856148   3.993487   6.129190   3.708846
    26  H    5.006753   2.311347   3.700944   5.364638   2.716212
    27  C    5.522216   4.899876   2.687618   2.810562   3.288416
    28  H    5.097052   5.060332   2.687968   2.264167   3.721289
    29  H    5.563559   4.876286   2.329658   3.607402   3.640980
    30  H    6.578329   5.871567   3.763196   3.498330   4.003365
    31  C    4.953135   3.826987   5.921722   4.508686   3.602799
    32  H    5.098634   3.705056   6.250882   5.327468   3.989108
    33  H    5.067916   4.539035   6.473120   4.729683   4.453405
    34  H    5.876364   4.495882   6.383767   4.775167   3.710803
                   11         12         13         14         15
    11  O    0.000000
    12  O    3.505095   0.000000
    13  O    4.165897   2.849155   0.000000
    14  O    3.668476   4.909247   2.959492   0.000000
    15  C    2.391475   5.107380   4.881694   3.364204   0.000000
    16  H    3.352239   5.892976   5.168294   3.166327   1.101057
    17  H    2.590766   5.722685   5.824449   4.251548   1.099076
    18  O    2.755394   4.588728   4.715957   3.999196   1.410218
    19  C    4.431821   1.433573   3.925121   6.079279   5.813527
    20  H    4.263724   2.101762   4.735535   6.511033   5.669549
    21  H    4.869448   2.090538   3.843396   6.057976   5.828318
    22  H    5.300859   2.027080   4.448772   6.858528   6.844336
    23  C    4.927614   3.571077   1.429696   3.414828   5.077718
    24  H    5.076226   4.431276   2.097657   2.907755   4.758658
    25  H    5.926879   4.129685   2.016610   4.250285   6.165393
    26  H    4.812891   3.238832   2.105756   4.031850   4.924282
    27  C    4.094851   5.255935   3.340866   1.430653   4.374447
    28  H    3.618367   5.282360   3.921894   2.109711   4.214467
    29  H    4.470070   4.873283   2.797159   2.094268   5.100602
    30  H    5.051504   6.319997   4.203700   2.018933   5.011979
    31  C    4.043359   5.780415   5.982482   5.195100   2.370183
    32  H    4.571347   5.661140   6.090821   5.796665   3.280110
    33  H    4.199446   6.328143   6.797034   5.866077   2.661160
    34  H    4.740049   6.525786   6.287813   5.167536   2.663144
                   16         17         18         19         20
    16  H    0.000000
    17  H    1.782871   0.000000
    18  O    2.091771   2.082428   0.000000
    19  C    6.639327   6.380686   4.990193   0.000000
    20  H    6.595629   6.075161   4.794741   1.097383   0.000000
    21  H    6.543633   6.506769   4.843926   1.096985   1.789786
    22  H    7.668312   7.396572   6.070595   1.090240   1.784668
    23  C    5.210436   6.121381   4.656986   4.245865   5.061270
    24  H    4.666743   5.846668   4.475038   5.149317   5.857273
    25  H    6.264646   7.210020   5.728543   4.695352   5.632621
    26  H    5.178578   5.933316   4.216529   3.589859   4.334684
    27  C    4.284352   5.077713   5.157447   6.589026   7.067986
    28  H    4.279498   4.713252   5.152371   6.648939   6.999083
    29  H    5.127257   5.855514   5.682566   6.233998   6.844534
    30  H    4.708207   5.683716   5.893787   7.637452   8.132530
    31  C    2.695930   2.650431   1.426947   5.933367   5.610924
    32  H    3.665037   3.629352   2.029955   5.560182   5.210928
    33  H    3.096360   2.467026   2.088712   6.464779   5.985654
    34  H    2.519573   3.036893   2.088595   6.757042   6.545112
                   21         22         23         24         25
    21  H    0.000000
    22  H    1.789308   0.000000
    23  C    3.781976   4.843861   0.000000
    24  H    4.661845   5.841554   1.095238   0.000000
    25  H    4.180237   5.092892   1.090855   1.780977   0.000000
    26  H    2.941516   4.285062   1.097560   1.791595   1.777685
    27  C    6.747319   7.222207   4.189855   3.884152   4.840686
    28  H    6.959072   7.280529   4.928462   4.734547   5.652319
    29  H    6.415139   6.734488   3.817197   3.726305   4.287763
    30  H    7.739829   8.268143   4.881000   4.402443   5.437429
    31  C    5.656180   7.021985   5.701436   5.430411   6.727032
    32  H    5.155382   6.627590   5.662130   5.510706   6.615594
    33  H    6.319391   7.537266   6.658878   6.423747   7.704838
    34  H    6.388994   7.844277   5.867763   5.401261   6.864900
                   26         27         28         29         30
    26  H    0.000000
    27  C    4.954468   0.000000
    28  H    5.564587   1.098294   0.000000
    29  H    4.683841   1.095116   1.791800   0.000000
    30  H    5.721407   1.091077   1.778241   1.781975   0.000000
    31  C    5.137742   6.431047   6.451010   7.014611   7.066038
    32  H    4.923734   7.060989   7.151699   7.519220   7.754225
    33  H    6.106148   6.993412   6.856769   7.638931   7.628252
    34  H    5.405974   6.480897   6.607255   7.141676   6.968754
                   31         32         33         34
    31  C    0.000000
    32  H    1.091109   0.000000
    33  H    1.097926   1.787585   0.000000
    34  H    1.097645   1.787374   1.789536   0.000000
 Stoichiometry    C10H19O5(1+)
 Framework group  C1[X(C10H19O5)]
 Deg. of freedom    96
 Full point group                 C1      NOp   1
 Largest Abelian subgroup         C1      NOp   1
 Largest concise Abelian subgroup C1      NOp   1
                         Standard orientation:                         
 ---------------------------------------------------------------------
 Center     Atomic      Atomic             Coordinates (Angstroms)
 Number     Number       Type             X           Y           Z
 ---------------------------------------------------------------------
      1          6           0       -1.061092    0.678331   -0.187954
      2          6           0       -1.061101   -0.887557   -0.313672
      3          6           0       -0.140653   -1.219997   -1.436791
      4          6           0        1.438317    0.506529   -0.814008
      5          6           0        0.380710    1.101821    0.157306
      6          1           0       -0.400800   -1.995411   -2.159371
      7          1           0       -0.652014   -1.324607    0.612931
      8          1           0       -1.361244    1.076386   -1.162518
      9          1           0        1.790838    1.255607   -1.521380
     10          1           0        0.612501    0.707354    1.149418
     11          8           0        0.889210   -0.561469   -1.730838
     12          8           0       -2.340703   -1.351355   -0.622041
     13          8           0       -2.028711    1.154613    0.697227
     14          8           0        0.577784    2.492193    0.278111
     15          6           0        2.600973   -0.167807   -0.107862
     16          1           0        3.105826    0.598717    0.500324
     17          1           0        3.322236   -0.556086   -0.840656
     18          8           0        2.056390   -1.201648    0.681642
     19          6           0       -2.660574   -2.640164   -0.081869
     20          1           0       -2.022062   -3.425566   -0.505773
     21          1           0       -2.557578   -2.639329    1.010270
     22          1           0       -3.698503   -2.832522   -0.354497
     23          6           0       -1.844821    0.913152    2.094335
     24          1           0       -1.013409    1.499347    2.500137
     25          1           0       -2.772994    1.233110    2.569818
     26          1           0       -1.686571   -0.150502    2.313959
     27          6           0        0.051226    3.326798   -0.757717
     28          1           0        0.395037    3.022908   -1.755562
     29          1           0       -1.043547    3.344713   -0.737001
     30          1           0        0.430419    4.328243   -0.548504
     31          6           0        3.041718   -1.941330    1.401485
     32          1           0        2.507706   -2.706124    1.967559
     33          1           0        3.751176   -2.422014    0.715152
     34          1           0        3.593003   -1.291553    2.093367
 ---------------------------------------------------------------------
 Rotational constants (GHZ):           0.6109133           0.5373104           0.3873809
 Leave Link  202 at Fri May 24 08:30:49 2019, MaxMem=   402653184 cpu:               0.2 elap:               0.1
 (Enter /n/sw/g16_nehalem/g16/l301.exe)
 Standard basis: 6-31G(d) (6D, 7F)
 Ernie: Thresh=  0.10000D-02 Tol=  0.10000D-05 Strict=F.
 There are   263 symmetry adapted cartesian basis functions of A   symmetry.
 There are   263 symmetry adapted basis functions of A   symmetry.
   263 basis functions,   496 primitive gaussians,   263 cartesian basis functions
    59 alpha electrons       59 beta electrons
       nuclear repulsion energy      1173.0032070788 Hartrees.
 IExCor=  402 DFT=T Ex+Corr=B3LYP ExCW=0 ScaHFX=  0.200000
 ScaDFX=  0.800000  0.720000  1.000000  0.810000 ScalE2=  1.000000  1.000000
 IRadAn=      5 IRanWt=     -1 IRanGd=            0 ICorTp=0 IEmpDi=  4
 NAtoms=   34 NActive=   34 NUniq=   34 SFac= 1.00D+00 NAtFMM=   60 NAOKFM=F Big=F
 Integral buffers will be    131072 words long.
 Raffenetti 2 integral format.
 Two-electron integral symmetry is turned on.
 ------------------------------------------------------------------------------
 Polarizable Continuum Model (PCM)
 =================================
 Model                : PCM.
 Atomic radii         : UFF (Universal Force Field).
 Polarization charges : Total charges.
 Charge compensation  : None.
 Solution method      : On-the-fly selection.
 Cavity type          : Scaled VdW (van der Waals Surface) (Alpha=1.100).
 Cavity algorithm     : GePol (No added spheres)
                        Default sphere list used, NSphG=   34.
                        Lebedev-Laikov grids with approx.  5.0 points / Ang**2.
                        Smoothing algorithm: York/Karplus (Gamma=1.0000).
                        Polarization charges: spherical gaussians, with
                                              point-specific exponents (IZeta= 3).
                        Self-potential: point-specific (ISelfS= 7).
                        Self-field    : sphere-specific E.n sum rule (ISelfD= 2).
 1st derivatives      : Analytical E(r).r(x)/FMM algorithm (CHGder, D1EAlg=3).
                        Cavity 1st derivative terms included.
 Solvent              : TetraHydroFuran, Eps=   7.425700 Eps(inf)=   1.974025
 ------------------------------------------------------------------------------
 GePol: Number of generator spheres                  =      34
 GePol: Total number of spheres                      =      34
 GePol: Number of exposed spheres                    =      34 (100.00%)
 GePol: Number of points                             =    2292
 GePol: Average weight of points                     =       0.13
 GePol: Minimum weight of points                     =   0.12D-10
 GePol: Maximum weight of points                     =    0.20577
 GePol: Number of points with low weight             =     137
 GePol: Fraction of low-weight points (<1% of avg)   =       5.98%
 GePol: Cavity surface area                          =    300.389 Ang**2
 GePol: Cavity volume                                =    320.942 Ang**3
 Leave Link  301 at Fri May 24 08:30:50 2019, MaxMem=   402653184 cpu:               0.6 elap:               0.2
 (Enter /n/sw/g16_nehalem/g16/l302.exe)
 NPDir=0 NMtPBC=     1 NCelOv=     1 NCel=       1 NClECP=     1 NCelD=      1
         NCelK=      1 NCelE2=     1 NClLst=     1 CellRange=     0.0.
 One-electron integrals computed using PRISM.
 One-electron integral symmetry used in STVInt
 NBasis=   263 RedAO= T EigKep=  1.64D-03  NBF=   263
 NBsUse=   263 1.00D-06 EigRej= -1.00D+00 NBFU=   263
 Precomputing XC quadrature grid using
 IXCGrd= 4 IRadAn=           5 IRanWt=          -1 IRanGd=           0 AccXCQ= 0.00D+00.
 Generated NRdTot=       0 NPtTot=           0 NUsed=           0 NTot=          32
 NSgBfM=   262   262   262   262   262 MxSgAt=    34 MxSgA2=    34.
 Leave Link  302 at Fri May 24 08:30:51 2019, MaxMem=   402653184 cpu:               4.3 elap:               1.3
 (Enter /n/sw/g16_nehalem/g16/l303.exe)
 DipDrv:  MaxL=1.
 Leave Link  303 at Fri May 24 08:30:52 2019, MaxMem=   402653184 cpu:               0.9 elap:               0.4
 (Enter /n/sw/g16_nehalem/g16/l401.exe)
 ExpMin= 1.61D-01 ExpMax= 5.48D+03 ExpMxC= 8.25D+02 IAcc=3 IRadAn=         5 AccDes= 0.00D+00
 Harris functional with IExCor=  402 and IRadAn=       5 diagonalized for initial guess.
 HarFok:  IExCor=  402 AccDes= 0.00D+00 IRadAn=         5 IDoV= 1 UseB2=F ITyADJ=14
 ICtDFT=  3500011 ScaDFX=  1.000000  1.000000  1.000000  1.000000
 FoFCou: FMM=F IPFlag=           0 FMFlag=      100000 FMFlg1=           0
         NFxFlg=           0 DoJE=T BraDBF=F KetDBF=T FulRan=T
         wScrn=  0.000000 ICntrl=       500 IOpCl=  0 I1Cent=   200000004 NGrid=           0
         NMat0=    1 NMatS0=      1 NMatT0=    0 NMatD0=    1 NMtDS0=    0 NMtDT0=    0
 Petite list used in FoFCou.
 Harris En= -768.256946452002    
 JPrj=0 DoOrth=F DoCkMO=F.
 Leave Link  401 at Fri May 24 08:30:59 2019, MaxMem=   402653184 cpu:              26.8 elap:               6.9
 (Enter /n/sw/g16_nehalem/g16/l502.exe)
 Integral symmetry usage will be decided dynamically.
 Closed shell SCF:
 Using DIIS extrapolation, IDIIS=  1040.
 NGot=   402653184 LenX=   402510103 LenY=   402440493
 Requested convergence on RMS density matrix=1.00D-08 within 128 cycles.
 Requested convergence on MAX density matrix=1.00D-06.
 Requested convergence on             energy=1.00D-06.
 No special actions if energy rises.
 Fock matrices will be formed incrementally for  20 cycles.

 Cycle   1  Pass 1  IDiag  1:
 FoFJK:  IHMeth= 1 ICntrl=       0 DoSepK=F KAlg= 0 I1Cent=           0 FoldK=F
 IRaf= 890000000 NMat=       1 IRICut=       1 DoRegI=T DoRafI=F ISym2E= 0 IDoP0=0 IntGTp=1.
 FoFCou: FMM=F IPFlag=           0 FMFlag=      100000 FMFlg1=           0
         NFxFlg=           0 DoJE=F BraDBF=F KetDBF=F FulRan=T
         wScrn=  0.000000 ICntrl=         0 IOpCl=  0 I1Cent=           0 NGrid=           0
         NMat0=    1 NMatS0=      1 NMatT0=    0 NMatD0=    1 NMtDS0=    0 NMtDT0=    0
 Symmetry not used in FoFCou.
 Inv3:  Mode=1 IEnd=    15759792.
 Iteration    1 A*A^-1 deviation from unit magnitude is 6.33D-15 for    559.
 Iteration    1 A*A^-1 deviation from orthogonality  is 1.91D-15 for   1943    829.
 Iteration    1 A^-1*A deviation from unit magnitude is 5.88D-15 for    562.
 Iteration    1 A^-1*A deviation from orthogonality  is 1.53D-15 for   2228    115.
 E= -768.089066048857    
 DIIS: error= 1.76D-02 at cycle   1 NSaved=   1.
 NSaved= 1 IEnMin= 1 EnMin= -768.089066048857     IErMin= 1 ErrMin= 1.76D-02
 ErrMax= 1.76D-02  0.00D+00 EMaxC= 1.00D-01 BMatC= 2.54D-01 BMatP= 2.54D-01
 IDIUse=3 WtCom= 8.24D-01 WtEn= 1.76D-01
 Coeff-Com:  0.100D+01
 Coeff-En:   0.100D+01
 Coeff:      0.100D+01
 Gap=     0.025 Goal=   None    Shift=    0.000
 GapD=    0.025 DampG=0.250 DampE=0.500 DampFc=0.2500 IDamp=-1.
 Damping current iteration by 2.50D-01
 RMSDP=4.54D-03 MaxDP=1.34D-01              OVMax= 3.03D-01

 Cycle   2  Pass 1  IDiag  1:
 RMSU=  1.13D-03    CP:  9.95D-01
 E= -768.166826938847     Delta-E=       -0.077760889990 Rises=F Damp=T
 DIIS: error= 8.86D-03 at cycle   2 NSaved=   2.
 NSaved= 2 IEnMin= 2 EnMin= -768.166826938847     IErMin= 2 ErrMin= 8.86D-03
 ErrMax= 8.86D-03  0.00D+00 EMaxC= 1.00D-01 BMatC= 6.96D-02 BMatP= 2.54D-01
 IDIUse=3 WtCom= 9.11D-01 WtEn= 8.86D-02
 Coeff-Com: -0.738D+00 0.174D+01
 Coeff-En:   0.000D+00 0.100D+01
 Coeff:     -0.673D+00 0.167D+01
 Gap=     0.151 Goal=   None    Shift=    0.000
 RMSDP=1.33D-03 MaxDP=2.99D-02 DE=-7.78D-02 OVMax= 2.66D-01

 Cycle   3  Pass 1  IDiag  1:
 RMSU=  1.26D-03    CP:  9.86D-01  1.35D+00
 E= -768.297532575067     Delta-E=       -0.130705636220 Rises=F Damp=F
 DIIS: error= 8.20D-03 at cycle   3 NSaved=   3.
 NSaved= 3 IEnMin= 3 EnMin= -768.297532575067     IErMin= 3 ErrMin= 8.20D-03
 ErrMax= 8.20D-03  0.00D+00 EMaxC= 1.00D-01 BMatC= 3.46D-02 BMatP= 6.96D-02
 IDIUse=3 WtCom= 9.18D-01 WtEn= 8.20D-02
 Coeff-Com: -0.510D+00 0.101D+01 0.502D+00
 Coeff-En:   0.000D+00 0.000D+00 0.100D+01
 Coeff:     -0.468D+00 0.925D+00 0.543D+00
 Gap=     0.154 Goal=   None    Shift=    0.000
 RMSDP=8.04D-04 MaxDP=3.07D-02 DE=-1.31D-01 OVMax= 4.74D-02

 Cycle   4  Pass 1  IDiag  1:
 RMSU=  5.30D-04    CP:  9.89D-01  1.60D+00  5.79D-01
 E= -768.324543819345     Delta-E=       -0.027011244278 Rises=F Damp=F
 DIIS: error= 2.37D-03 at cycle   4 NSaved=   4.
 NSaved= 4 IEnMin= 4 EnMin= -768.324543819345     IErMin= 4 ErrMin= 2.37D-03
 ErrMax= 2.37D-03  0.00D+00 EMaxC= 1.00D-01 BMatC= 3.20D-03 BMatP= 3.46D-02
 IDIUse=3 WtCom= 9.76D-01 WtEn= 2.37D-02
 Coeff-Com: -0.188D+00 0.320D+00 0.256D+00 0.612D+00
 Coeff-En:   0.000D+00 0.000D+00 0.000D+00 0.100D+01
 Coeff:     -0.184D+00 0.312D+00 0.250D+00 0.621D+00
 Gap=     0.141 Goal=   None    Shift=    0.000
 RMSDP=2.18D-04 MaxDP=9.61D-03 DE=-2.70D-02 OVMax= 1.21D-02

 Cycle   5  Pass 1  IDiag  1:
 RMSU=  1.60D-04    CP:  9.88D-01  1.61D+00  6.55D-01  7.90D-01
 E= -768.326782424251     Delta-E=       -0.002238604906 Rises=F Damp=F
 DIIS: error= 8.79D-04 at cycle   5 NSaved=   5.
 NSaved= 5 IEnMin= 5 EnMin= -768.326782424251     IErMin= 5 ErrMin= 8.79D-04
 ErrMax= 8.79D-04  0.00D+00 EMaxC= 1.00D-01 BMatC= 5.55D-04 BMatP= 3.20D-03
 IDIUse=3 WtCom= 9.91D-01 WtEn= 8.79D-03
 Coeff-Com: -0.698D-01 0.106D+00 0.757D-01 0.340D+00 0.547D+00
 Coeff-En:   0.000D+00 0.000D+00 0.000D+00 0.869D-01 0.913D+00
 Coeff:     -0.691D-01 0.105D+00 0.750D-01 0.338D+00 0.551D+00
 Gap=     0.142 Goal=   None    Shift=    0.000
 RMSDP=7.81D-05 MaxDP=3.90D-03 DE=-2.24D-03 OVMax= 4.37D-03

 Cycle   6  Pass 1  IDiag  1:
 RMSU=  5.51D-05    CP:  9.88D-01  1.62D+00  6.53D-01  8.53D-01  7.33D-01
 E= -768.327147154787     Delta-E=       -0.000364730536 Rises=F Damp=F
 DIIS: error= 3.63D-04 at cycle   6 NSaved=   6.
 NSaved= 6 IEnMin= 6 EnMin= -768.327147154787     IErMin= 6 ErrMin= 3.63D-04
 ErrMax= 3.63D-04  0.00D+00 EMaxC= 1.00D-01 BMatC= 7.55D-05 BMatP= 5.55D-04
 IDIUse=3 WtCom= 9.96D-01 WtEn= 3.63D-03
 Coeff-Com: -0.225D-01 0.290D-01 0.928D-02 0.136D+00 0.338D+00 0.510D+00
 Coeff-En:   0.000D+00 0.000D+00 0.000D+00 0.000D+00 0.227D-01 0.977D+00
 Coeff:     -0.224D-01 0.289D-01 0.924D-02 0.135D+00 0.337D+00 0.512D+00
 Gap=     0.141 Goal=   None    Shift=    0.000
 RMSDP=2.72D-05 MaxDP=1.52D-03 DE=-3.65D-04 OVMax= 1.56D-03

 Cycle   7  Pass 1  IDiag  1:
 RMSU=  2.02D-05    CP:  9.88D-01  1.62D+00  6.51D-01  8.71D-01  7.90D-01
                    CP:  7.77D-01
 E= -768.327202810885     Delta-E=       -0.000055656098 Rises=F Damp=F
 DIIS: error= 1.02D-04 at cycle   7 NSaved=   7.
 NSaved= 7 IEnMin= 7 EnMin= -768.327202810885     IErMin= 7 ErrMin= 1.02D-04
 ErrMax= 1.02D-04  0.00D+00 EMaxC= 1.00D-01 BMatC= 6.37D-06 BMatP= 7.55D-05
 IDIUse=3 WtCom= 9.99D-01 WtEn= 1.02D-03
 Coeff-Com: -0.571D-02 0.567D-02-0.587D-02 0.381D-01 0.133D+00 0.285D+00
 Coeff-Com:  0.550D+00
 Coeff-En:   0.000D+00 0.000D+00 0.000D+00 0.000D+00 0.000D+00 0.000D+00
 Coeff-En:   0.100D+01
 Coeff:     -0.570D-02 0.566D-02-0.587D-02 0.381D-01 0.132D+00 0.285D+00
 Coeff:      0.550D+00
 Gap=     0.141 Goal=   None    Shift=    0.000
 RMSDP=9.70D-06 MaxDP=4.78D-04 DE=-5.57D-05 OVMax= 4.06D-04

 Cycle   8  Pass 1  IDiag  1:
 RMSU=  6.01D-06    CP:  9.88D-01  1.62D+00  6.50D-01  8.78D-01  8.11D-01
                    CP:  8.21D-01  7.75D-01
 E= -768.327208129670     Delta-E=       -0.000005318785 Rises=F Damp=F
 DIIS: error= 2.82D-05 at cycle   8 NSaved=   8.
 NSaved= 8 IEnMin= 8 EnMin= -768.327208129670     IErMin= 8 ErrMin= 2.82D-05
 ErrMax= 2.82D-05  0.00D+00 EMaxC= 1.00D-01 BMatC= 4.00D-07 BMatP= 6.37D-06
 IDIUse=1 WtCom= 1.00D+00 WtEn= 0.00D+00
 Coeff-Com: -0.521D-04-0.394D-03-0.404D-02-0.342D-02 0.551D-02 0.371D-01
 Coeff-Com:  0.208D+00 0.758D+00
 Coeff:     -0.521D-04-0.394D-03-0.404D-02-0.342D-02 0.551D-02 0.371D-01
 Coeff:      0.208D+00 0.758D+00
 Gap=     0.141 Goal=   None    Shift=    0.000
 RMSDP=3.62D-06 MaxDP=1.14D-04 DE=-5.32D-06 OVMax= 4.06D-04

 Cycle   9  Pass 1  IDiag  1:
 RMSU=  2.17D-06    CP:  9.88D-01  1.62D+00  6.50D-01  8.82D-01  8.19D-01
                    CP:  8.41D-01  8.45D-01  9.74D-01
 E= -768.327208466970     Delta-E=       -0.000000337300 Rises=F Damp=F
 DIIS: error= 1.09D-05 at cycle   9 NSaved=   9.
 NSaved= 9 IEnMin= 9 EnMin= -768.327208466970     IErMin= 9 ErrMin= 1.09D-05
 ErrMax= 1.09D-05  0.00D+00 EMaxC= 1.00D-01 BMatC= 8.78D-08 BMatP= 4.00D-07
 IDIUse=1 WtCom= 1.00D+00 WtEn= 0.00D+00
 Coeff-Com:  0.196D-03-0.298D-03-0.162D-02-0.470D-02-0.846D-02-0.573D-02
 Coeff-Com:  0.603D-01 0.429D+00 0.532D+00
 Coeff:      0.196D-03-0.298D-03-0.162D-02-0.470D-02-0.846D-02-0.573D-02
 Coeff:      0.603D-01 0.429D+00 0.532D+00
 Gap=     0.141 Goal=   None    Shift=    0.000
 RMSDP=1.21D-06 MaxDP=4.29D-05 DE=-3.37D-07 OVMax= 1.07D-04

 Cycle  10  Pass 1  IDiag  1:
 RMSU=  7.38D-07    CP:  9.88D-01  1.62D+00  6.50D-01  8.82D-01  8.21D-01
                    CP:  8.49D-01  8.62D-01  1.03D+00  7.19D-01
 E= -768.327208539511     Delta-E=       -0.000000072541 Rises=F Damp=F
 DIIS: error= 2.02D-06 at cycle  10 NSaved=  10.
 NSaved=10 IEnMin=10 EnMin= -768.327208539511     IErMin=10 ErrMin= 2.02D-06
 ErrMax= 2.02D-06  0.00D+00 EMaxC= 1.00D-01 BMatC= 3.38D-09 BMatP= 8.78D-08
 IDIUse=1 WtCom= 1.00D+00 WtEn= 0.00D+00
 Coeff-Com:  0.119D-03-0.142D-03-0.328D-03-0.161D-02-0.426D-02-0.610D-02
 Coeff-Com: -0.104D-02 0.754D-01 0.168D+00 0.770D+00
 Coeff:      0.119D-03-0.142D-03-0.328D-03-0.161D-02-0.426D-02-0.610D-02
 Coeff:     -0.104D-02 0.754D-01 0.168D+00 0.770D+00
 Gap=     0.141 Goal=   None    Shift=    0.000
 RMSDP=4.06D-07 MaxDP=8.44D-06 DE=-7.25D-08 OVMax= 3.79D-05

 Cycle  11  Pass 1  IDiag  1:
 RMSU=  1.88D-07    CP:  9.88D-01  1.62D+00  6.50D-01  8.82D-01  8.21D-01
                    CP:  8.52D-01  8.68D-01  1.05D+00  7.57D-01  9.46D-01
 E= -768.327208543339     Delta-E=       -0.000000003828 Rises=F Damp=F
 DIIS: error= 6.73D-07 at cycle  11 NSaved=  11.
 NSaved=11 IEnMin=11 EnMin= -768.327208543339     IErMin=11 ErrMin= 6.73D-07
 ErrMax= 6.73D-07  0.00D+00 EMaxC= 1.00D-01 BMatC= 3.91D-10 BMatP= 3.38D-09
 IDIUse=1 WtCom= 1.00D+00 WtEn= 0.00D+00
 Coeff-Com:  0.208D-04-0.175D-04-0.425D-04-0.345D-03-0.127D-02-0.201D-02
 Coeff-Com: -0.459D-02 0.613D-02 0.375D-01 0.345D+00 0.620D+00
 Coeff:      0.208D-04-0.175D-04-0.425D-04-0.345D-03-0.127D-02-0.201D-02
 Coeff:     -0.459D-02 0.613D-02 0.375D-01 0.345D+00 0.620D+00
 Gap=     0.141 Goal=   None    Shift=    0.000
 RMSDP=1.11D-07 MaxDP=3.04D-06 DE=-3.83D-09 OVMax= 1.04D-05

 Cycle  12  Pass 1  IDiag  1:
 RMSU=  7.10D-08    CP:  9.88D-01  1.62D+00  6.50D-01  8.82D-01  8.21D-01
                    CP:  8.52D-01  8.69D-01  1.06D+00  7.75D-01  9.97D-01
                    CP:  7.88D-01
 E= -768.327208543718     Delta-E=       -0.000000000378 Rises=F Damp=F
 DIIS: error= 2.53D-07 at cycle  12 NSaved=  12.
 NSaved=12 IEnMin=12 EnMin= -768.327208543718     IErMin=12 ErrMin= 2.53D-07
 ErrMax= 2.53D-07  0.00D+00 EMaxC= 1.00D-01 BMatC= 5.13D-11 BMatP= 3.91D-10
 IDIUse=1 WtCom= 1.00D+00 WtEn= 0.00D+00
 Coeff-Com: -0.762D-06 0.349D-05 0.203D-04 0.386D-04-0.734D-04-0.105D-03
 Coeff-Com: -0.240D-02-0.784D-02-0.647D-02 0.534D-01 0.296D+00 0.667D+00
 Coeff:     -0.762D-06 0.349D-05 0.203D-04 0.386D-04-0.734D-04-0.105D-03
 Coeff:     -0.240D-02-0.784D-02-0.647D-02 0.534D-01 0.296D+00 0.667D+00
 Gap=     0.141 Goal=   None    Shift=    0.000
 RMSDP=3.68D-08 MaxDP=9.36D-07 DE=-3.78D-10 OVMax= 2.90D-06

 Cycle  13  Pass 1  IDiag  1:
 RMSU=  1.75D-08    CP:  9.88D-01  1.62D+00  6.50D-01  8.82D-01  8.22D-01
                    CP:  8.52D-01  8.69D-01  1.06D+00  7.76D-01  1.01D+00
                    CP:  8.78D-01  7.88D-01
 E= -768.327208543766     Delta-E=       -0.000000000048 Rises=F Damp=F
 DIIS: error= 4.71D-08 at cycle  13 NSaved=  13.
 NSaved=13 IEnMin=13 EnMin= -768.327208543766     IErMin=13 ErrMin= 4.71D-08
 ErrMax= 4.71D-08  0.00D+00 EMaxC= 1.00D-01 BMatC= 1.80D-12 BMatP= 5.13D-11
 IDIUse=1 WtCom= 1.00D+00 WtEn= 0.00D+00
 Coeff-Com: -0.198D-05 0.291D-05 0.995D-05 0.373D-04 0.541D-04 0.117D-03
 Coeff-Com: -0.568D-03-0.301D-02-0.486D-02-0.369D-02 0.676D-01 0.234D+00
 Coeff-Com:  0.710D+00
 Coeff:     -0.198D-05 0.291D-05 0.995D-05 0.373D-04 0.541D-04 0.117D-03
 Coeff:     -0.568D-03-0.301D-02-0.486D-02-0.369D-02 0.676D-01 0.234D+00
 Coeff:      0.710D+00
 Gap=     0.141 Goal=   None    Shift=    0.000
 RMSDP=7.82D-09 MaxDP=2.67D-07 DE=-4.82D-11 OVMax= 5.74D-07

 Error on total polarization charges =  0.01265
 SCF Done:  E(RB3LYP) =  -768.327208544     A.U. after   13 cycles
            NFock= 13  Conv=0.78D-08     -V/T= 2.0091
 KE= 7.613999210249D+02 PE=-4.120883808264D+03 EE= 1.418153471617D+03
 Leave Link  502 at Fri May 24 08:33:58 2019, MaxMem=   402653184 cpu:             715.0 elap:             179.0
 (Enter /n/sw/g16_nehalem/g16/l601.exe)
 Copying SCF densities to generalized density rwf, IOpCl= 0 IROHF=0.

 **********************************************************************

            Population analysis using the SCF density.

 **********************************************************************

 Orbital symmetries:
       Occupied  (A) (A) (A) (A) (A) (A) (A) (A) (A) (A) (A) (A)
                 (A) (A) (A) (A) (A) (A) (A) (A) (A) (A) (A) (A)
                 (A) (A) (A) (A) (A) (A) (A) (A) (A) (A) (A) (A)
                 (A) (A) (A) (A) (A) (A) (A) (A) (A) (A) (A) (A)
                 (A) (A) (A) (A) (A) (A) (A) (A) (A) (A) (A)
       Virtual   (A) (A) (A) (A) (A) (A) (A) (A) (A) (A) (A) (A)
                 (A) (A) (A) (A) (A) (A) (A) (A) (A) (A) (A) (A)
                 (A) (A) (A) (A) (A) (A) (A) (A) (A) (A) (A) (A)
                 (A) (A) (A) (A) (A) (A) (A) (A) (A) (A) (A) (A)
                 (A) (A) (A) (A) (A) (A) (A) (A) (A) (A) (A) (A)
                 (A) (A) (A) (A) (A) (A) (A) (A) (A) (A) (A) (A)
                 (A) (A) (A) (A) (A) (A) (A) (A) (A) (A) (A) (A)
                 (A) (A) (A) (A) (A) (A) (A) (A) (A) (A) (A) (A)
                 (A) (A) (A) (A) (A) (A) (A) (A) (A) (A) (A) (A)
                 (A) (A) (A) (A) (A) (A) (A) (A) (A) (A) (A) (A)
                 (A) (A) (A) (A) (A) (A) (A) (A) (A) (A) (A) (A)
                 (A) (A) (A) (A) (A) (A) (A) (A) (A) (A) (A) (A)
                 (A) (A) (A) (A) (A) (A) (A) (A) (A) (A) (A) (A)
                 (A) (A) (A) (A) (A) (A) (A) (A) (A) (A) (A) (A)
                 (A) (A) (A) (A) (A) (A) (A) (A) (A) (A) (A) (A)
                 (A) (A) (A) (A) (A) (A) (A) (A) (A) (A) (A) (A)
                 (A) (A) (A) (A) (A) (A) (A) (A) (A) (A) (A) (A)
 The electronic state is 1-A.
 Alpha  occ. eigenvalues --  -19.32642 -19.20851 -19.19592 -19.19592 -19.19386
 Alpha  occ. eigenvalues --  -10.39250 -10.32139 -10.31633 -10.30025 -10.29510
 Alpha  occ. eigenvalues --  -10.28308 -10.26090 -10.25345 -10.25309 -10.25224
 Alpha  occ. eigenvalues --   -1.21405  -1.09889  -1.08274  -1.07602  -1.06556
 Alpha  occ. eigenvalues --   -0.87080  -0.85811  -0.77306  -0.75728  -0.74190
 Alpha  occ. eigenvalues --   -0.71732  -0.69547  -0.67828  -0.65623  -0.62099
 Alpha  occ. eigenvalues --   -0.60090  -0.58695  -0.56357  -0.54686  -0.54030
 Alpha  occ. eigenvalues --   -0.52704  -0.52057  -0.51168  -0.50610  -0.48871
 Alpha  occ. eigenvalues --   -0.48467  -0.47831  -0.47008  -0.46118  -0.45297
 Alpha  occ. eigenvalues --   -0.43686  -0.43447  -0.42601  -0.42232  -0.40888
 Alpha  occ. eigenvalues --   -0.40438  -0.37681  -0.36404  -0.35884  -0.34430
 Alpha  occ. eigenvalues --   -0.31577  -0.31096  -0.29960  -0.28945
 Alpha virt. eigenvalues --   -0.14842  -0.00010   0.03871   0.05545   0.06253
 Alpha virt. eigenvalues --    0.06606   0.07622   0.08763   0.09200   0.10566
 Alpha virt. eigenvalues --    0.10689   0.11646   0.11944   0.12737   0.13178
 Alpha virt. eigenvalues --    0.13436   0.14054   0.14126   0.14708   0.15379
 Alpha virt. eigenvalues --    0.15925   0.16344   0.16629   0.17449   0.17714
 Alpha virt. eigenvalues --    0.18666   0.19228   0.20411   0.21007   0.22821
 Alpha virt. eigenvalues --    0.24804   0.25535   0.26125   0.26774   0.29135
 Alpha virt. eigenvalues --    0.44415   0.45796   0.47080   0.48054   0.48597
 Alpha virt. eigenvalues --    0.48899   0.49231   0.49771   0.50412   0.52072
 Alpha virt. eigenvalues --    0.52455   0.53390   0.54324   0.55187   0.55889
 Alpha virt. eigenvalues --    0.56620   0.57986   0.58328   0.59629   0.62006
 Alpha virt. eigenvalues --    0.63608   0.64776   0.65514   0.68498   0.70717
 Alpha virt. eigenvalues --    0.73818   0.74077   0.75848   0.77948   0.78433
 Alpha virt. eigenvalues --    0.79109   0.79321   0.81085   0.81503   0.82185
 Alpha virt. eigenvalues --    0.82867   0.83304   0.84318   0.85071   0.85451
 Alpha virt. eigenvalues --    0.86114   0.86567   0.87442   0.88269   0.89290
 Alpha virt. eigenvalues --    0.89630   0.91243   0.93218   0.93424   0.94272
 Alpha virt. eigenvalues --    0.95709   0.96567   0.98452   0.99538   1.02663
 Alpha virt. eigenvalues --    1.05250   1.05684   1.09186   1.10316   1.10890
 Alpha virt. eigenvalues --    1.13765   1.15026   1.16969   1.19395   1.20851
 Alpha virt. eigenvalues --    1.22542   1.25008   1.30017   1.30710   1.32376
 Alpha virt. eigenvalues --    1.33493   1.36007   1.38240   1.40055   1.42040
 Alpha virt. eigenvalues --    1.43479   1.44678   1.46613   1.48771   1.49666
 Alpha virt. eigenvalues --    1.52567   1.54920   1.56325   1.57895   1.58627
 Alpha virt. eigenvalues --    1.63034   1.65611   1.68119   1.68899   1.71103
 Alpha virt. eigenvalues --    1.72704   1.74610   1.76540   1.78049   1.80957
 Alpha virt. eigenvalues --    1.82960   1.83475   1.87123   1.89870   1.90196
 Alpha virt. eigenvalues --    1.92853   1.94485   1.95228   1.98267   1.99631
 Alpha virt. eigenvalues --    2.01035   2.01476   2.02422   2.03832   2.05025
 Alpha virt. eigenvalues --    2.05524   2.06409   2.07566   2.09622   2.11146
 Alpha virt. eigenvalues --    2.12778   2.13050   2.15333   2.16181   2.17687
 Alpha virt. eigenvalues --    2.18982   2.20411   2.22792   2.24910   2.25167
 Alpha virt. eigenvalues --    2.28996   2.29420   2.31003   2.34246   2.35384
 Alpha virt. eigenvalues --    2.36211   2.40572   2.40835   2.44456   2.46888
 Alpha virt. eigenvalues --    2.48475   2.50333   2.54478   2.58275   2.60719
 Alpha virt. eigenvalues --    2.64061   2.64237   2.66853   2.73170   2.74833
 Alpha virt. eigenvalues --    2.79013   2.80770   2.84795   2.91133   2.91560
 Alpha virt. eigenvalues --    2.96394   2.97536   3.02077   3.06412   3.85179
 Alpha virt. eigenvalues --    3.89663   3.96380   4.01084   4.08684   4.14908
 Alpha virt. eigenvalues --    4.21161   4.22406   4.24269   4.26437   4.32794
 Alpha virt. eigenvalues --    4.37780   4.46475   4.51536   4.70381
          Condensed to atoms (all electrons):
               1          2          3          4          5          6
     1  C    4.957707   0.258461  -0.030525  -0.037493   0.271485   0.001827
     2  C    0.258461   5.177644   0.276736  -0.002085  -0.045547  -0.040373
     3  C   -0.030525   0.276736   4.828374  -0.039936  -0.003526   0.363370
     4  C   -0.037493  -0.002085  -0.039936   5.158251   0.258663   0.003096
     5  C    0.271485  -0.045547  -0.003526   0.258663   5.026188  -0.000179
     6  H    0.001827  -0.040373   0.363370   0.003096  -0.000179   0.424694
     7  H   -0.029534   0.338055  -0.043814  -0.000013  -0.004283   0.002273
     8  H    0.387902  -0.052845  -0.004460  -0.002842  -0.043502   0.000075
     9  H   -0.000761   0.000169   0.002119   0.368696  -0.032061  -0.000127
    10  H   -0.039304  -0.006131   0.000128  -0.063124   0.384058   0.000003
    11  O   -0.000330  -0.030457   0.376056   0.121630  -0.024107  -0.033886
    12  O   -0.034589   0.186764  -0.029813   0.000066   0.002349   0.001759
    13  O    0.274103  -0.043042   0.002128   0.002805  -0.035333  -0.000043
    14  O   -0.030793   0.002563  -0.000011  -0.034364   0.237184   0.000003
    15  C    0.001923   0.000004  -0.002544   0.340229  -0.022087  -0.000248
    16  H    0.000353  -0.000064   0.000316  -0.036907  -0.005130   0.000007
    17  H   -0.000213   0.000094  -0.000171  -0.026463   0.004400  -0.000028
    18  O   -0.000948  -0.003968   0.012520  -0.052269  -0.008408   0.000108
    19  C    0.003237  -0.032554  -0.001857   0.000006  -0.000106   0.001653
    20  H   -0.000167  -0.003724   0.003471  -0.000003   0.000015   0.000193
    21  H    0.000166  -0.009714  -0.000543   0.000001   0.000016   0.000083
    22  H   -0.000141   0.004844  -0.000130   0.000000   0.000000  -0.000080
    23  C   -0.044123  -0.006091   0.000406   0.000125  -0.005567  -0.000002
    24  H   -0.006936  -0.000987   0.000032   0.000026   0.003810   0.000000
    25  H    0.005132  -0.000053  -0.000004  -0.000003   0.000121   0.000000
    26  H   -0.007786   0.007103  -0.000293   0.000070  -0.001728   0.000006
    27  C   -0.004605   0.000033  -0.000010  -0.005883  -0.042723  -0.000001
    28  H   -0.001788   0.000092  -0.000040   0.005619  -0.004726  -0.000001
    29  H    0.004725   0.000169  -0.000003  -0.000583  -0.008670   0.000001
    30  H    0.000098  -0.000006   0.000001  -0.000046   0.005066   0.000000
    31  C    0.000007   0.000082  -0.000306   0.005504   0.000226  -0.000001
    32  H    0.000003   0.000021  -0.000002  -0.000265   0.000001   0.000000
    33  H   -0.000002  -0.000001  -0.000032   0.000151   0.000009   0.000000
    34  H   -0.000001  -0.000008   0.000031  -0.000125  -0.000027   0.000000
               7          8          9         10         11         12
     1  C   -0.029534   0.387902  -0.000761  -0.039304  -0.000330  -0.034589
     2  C    0.338055  -0.052845   0.000169  -0.006131  -0.030457   0.186764
     3  C   -0.043814  -0.004460   0.002119   0.000128   0.376056  -0.029813
     4  C   -0.000013  -0.002842   0.368696  -0.063124   0.121630   0.000066
     5  C   -0.004283  -0.043502  -0.032061   0.384058  -0.024107   0.002349
     6  H    0.002273   0.000075  -0.000127   0.000003  -0.033886   0.001759
     7  H    0.510108   0.004790  -0.000001   0.005624   0.000848  -0.028368
     8  H    0.004790   0.546470   0.000423   0.004235   0.002186   0.000971
     9  H   -0.000001   0.000423   0.463504   0.003635  -0.024757   0.000003
    10  H    0.005624   0.004235   0.003635   0.530146   0.002317  -0.000018
    11  O    0.000848   0.002186  -0.024757   0.002317   7.952268   0.001586
    12  O   -0.028368   0.000971   0.000003  -0.000018   0.001586   8.235512
    13  O   -0.003612  -0.042806  -0.000036  -0.005426   0.000038   0.002283
    14  O    0.000058  -0.003957  -0.001615  -0.038299   0.001002  -0.000008
    15  C   -0.000447   0.000109  -0.028577  -0.005821  -0.039152  -0.000009
    16  H    0.000009  -0.000005   0.001431  -0.001688   0.002882   0.000000
    17  H    0.000063   0.000003  -0.001550   0.000841  -0.002103   0.000000
    18  O    0.009313  -0.000010   0.002349   0.016007  -0.002670   0.000021
    19  C   -0.004593  -0.000208   0.000000  -0.000004   0.000005   0.227854
    20  H   -0.001286  -0.000001   0.000000  -0.000001  -0.000092  -0.035227
    21  H    0.010569   0.000024   0.000000  -0.000004   0.000009  -0.033370
    22  H   -0.000045   0.000006   0.000000   0.000000   0.000001  -0.029501
    23  C    0.001803   0.005816  -0.000002   0.006841  -0.000002   0.000759
    24  H   -0.000436  -0.000188  -0.000002  -0.000469  -0.000004   0.000033
    25  H   -0.000051  -0.000124   0.000000  -0.000058   0.000000  -0.000040
    26  H    0.002941  -0.000329   0.000000  -0.000309  -0.000001   0.000027
    27  C    0.000007   0.006480   0.003256   0.005268   0.000088  -0.000001
    28  H   -0.000002   0.000040   0.003301  -0.000323  -0.000485   0.000000
    29  H   -0.000010  -0.001653   0.000056  -0.000034   0.000028   0.000004
    30  H    0.000000  -0.000037  -0.000245  -0.000143   0.000001   0.000000
    31  C   -0.000174   0.000000  -0.000141  -0.000406   0.000105   0.000000
    32  H   -0.000075   0.000000   0.000003  -0.000007   0.000003   0.000000
    33  H    0.000028   0.000000   0.000006   0.000074  -0.000004   0.000000
    34  H    0.000022   0.000000   0.000007  -0.000144  -0.000003   0.000000
              13         14         15         16         17         18
     1  C    0.274103  -0.030793   0.001923   0.000353  -0.000213  -0.000948
     2  C   -0.043042   0.002563   0.000004  -0.000064   0.000094  -0.003968
     3  C    0.002128  -0.000011  -0.002544   0.000316  -0.000171   0.012520
     4  C    0.002805  -0.034364   0.340229  -0.036907  -0.026463  -0.052269
     5  C   -0.035333   0.237184  -0.022087  -0.005130   0.004400  -0.008408
     6  H   -0.000043   0.000003  -0.000248   0.000007  -0.000028   0.000108
     7  H   -0.003612   0.000058  -0.000447   0.000009   0.000063   0.009313
     8  H   -0.042806  -0.003957   0.000109  -0.000005   0.000003  -0.000010
     9  H   -0.000036  -0.001615  -0.028577   0.001431  -0.001550   0.002349
    10  H   -0.005426  -0.038299  -0.005821  -0.001688   0.000841   0.016007
    11  O    0.000038   0.001002  -0.039152   0.002882  -0.002103  -0.002670
    12  O    0.002283  -0.000008  -0.000009   0.000000   0.000000   0.000021
    13  O    8.170946   0.002614  -0.000026  -0.000001   0.000000   0.000002
    14  O    0.002614   8.211904  -0.000175   0.002017  -0.000059   0.000131
    15  C   -0.000026  -0.000175   4.887527   0.360259   0.357254   0.234694
    16  H   -0.000001   0.002017   0.360259   0.557951  -0.042776  -0.035365
    17  H    0.000000  -0.000059   0.357254  -0.042776   0.560185  -0.038756
    18  O    0.000002   0.000131   0.234694  -0.035365  -0.038756   8.221069
    19  C   -0.000027   0.000000  -0.000001   0.000000   0.000000  -0.000005
    20  H    0.000002   0.000000   0.000001   0.000000   0.000000   0.000000
    21  H    0.000008   0.000000   0.000000   0.000000   0.000000  -0.000003
    22  H    0.000005   0.000000   0.000000   0.000000   0.000000   0.000000
    23  C    0.236680  -0.001956   0.000001   0.000000   0.000000  -0.000047
    24  H   -0.034322   0.003993   0.000006  -0.000003   0.000000  -0.000011
    25  H   -0.031361  -0.000015   0.000000   0.000000   0.000000   0.000000
    26  H   -0.035243   0.000175  -0.000011   0.000000   0.000000  -0.000011
    27  C   -0.003021   0.234254   0.000217  -0.000003  -0.000006  -0.000006
    28  H    0.000243  -0.036522   0.000014  -0.000036   0.000011   0.000000
    29  H    0.005392  -0.034340  -0.000013   0.000007   0.000000   0.000000
    30  H   -0.000008  -0.031238   0.000002  -0.000004   0.000000   0.000000
    31  C    0.000000  -0.000002  -0.040266  -0.003276  -0.003882   0.240598
    32  H    0.000000   0.000000   0.005360  -0.000107  -0.000113  -0.030996
    33  H    0.000000   0.000000  -0.006908  -0.001837   0.010168  -0.035307
    34  H    0.000000  -0.000001  -0.006520   0.009439  -0.001955  -0.035496
              19         20         21         22         23         24
     1  C    0.003237  -0.000167   0.000166  -0.000141  -0.044123  -0.006936
     2  C   -0.032554  -0.003724  -0.009714   0.004844  -0.006091  -0.000987
     3  C   -0.001857   0.003471  -0.000543  -0.000130   0.000406   0.000032
     4  C    0.000006  -0.000003   0.000001   0.000000   0.000125   0.000026
     5  C   -0.000106   0.000015   0.000016   0.000000  -0.005567   0.003810
     6  H    0.001653   0.000193   0.000083  -0.000080  -0.000002   0.000000
     7  H   -0.004593  -0.001286   0.010569  -0.000045   0.001803  -0.000436
     8  H   -0.000208  -0.000001   0.000024   0.000006   0.005816  -0.000188
     9  H    0.000000   0.000000   0.000000   0.000000  -0.000002  -0.000002
    10  H   -0.000004  -0.000001  -0.000004   0.000000   0.006841  -0.000469
    11  O    0.000005  -0.000092   0.000009   0.000001  -0.000002  -0.000004
    12  O    0.227854  -0.035227  -0.033370  -0.029501   0.000759   0.000033
    13  O   -0.000027   0.000002   0.000008   0.000005   0.236680  -0.034322
    14  O    0.000000   0.000000   0.000000   0.000000  -0.001956   0.003993
    15  C   -0.000001   0.000001   0.000000   0.000000   0.000001   0.000006
    16  H    0.000000   0.000000   0.000000   0.000000   0.000000  -0.000003
    17  H    0.000000   0.000000   0.000000   0.000000   0.000000   0.000000
    18  O   -0.000005   0.000000  -0.000003   0.000000  -0.000047  -0.000011
    19  C    4.915051   0.366614   0.371278   0.386786  -0.000208   0.000002
    20  H    0.366614   0.574045  -0.042296  -0.029840   0.000013   0.000000
    21  H    0.371278  -0.042296   0.553186  -0.026079  -0.000113  -0.000003
    22  H    0.386786  -0.029840  -0.026079   0.496820   0.000003   0.000000
    23  C   -0.000208   0.000013  -0.000113   0.000003   4.934029   0.367110
    24  H    0.000002   0.000000  -0.000003   0.000000   0.367110   0.566193
    25  H    0.000003   0.000000   0.000013   0.000000   0.387441  -0.030407
    26  H    0.000247  -0.000006   0.000675  -0.000012   0.359048  -0.043001
    27  C    0.000000   0.000000   0.000000   0.000000   0.000281  -0.000244
    28  H    0.000000   0.000000   0.000000   0.000000  -0.000010   0.000020
    29  H    0.000000   0.000000   0.000000   0.000000  -0.000299  -0.000147
    30  H    0.000000   0.000000   0.000000   0.000000   0.000007  -0.000009
    31  C    0.000000   0.000000   0.000000   0.000000   0.000001   0.000000
    32  H    0.000000   0.000000   0.000001   0.000000   0.000000   0.000000
    33  H    0.000000   0.000000   0.000000   0.000000   0.000000   0.000000
    34  H    0.000000   0.000000   0.000000   0.000000   0.000000   0.000000
              25         26         27         28         29         30
     1  C    0.005132  -0.007786  -0.004605  -0.001788   0.004725   0.000098
     2  C   -0.000053   0.007103   0.000033   0.000092   0.000169  -0.000006
     3  C   -0.000004  -0.000293  -0.000010  -0.000040  -0.000003   0.000001
     4  C   -0.000003   0.000070  -0.005883   0.005619  -0.000583  -0.000046
     5  C    0.000121  -0.001728  -0.042723  -0.004726  -0.008670   0.005066
     6  H    0.000000   0.000006  -0.000001  -0.000001   0.000001   0.000000
     7  H   -0.000051   0.002941   0.000007  -0.000002  -0.000010   0.000000
     8  H   -0.000124  -0.000329   0.006480   0.000040  -0.001653  -0.000037
     9  H    0.000000   0.000000   0.003256   0.003301   0.000056  -0.000245
    10  H   -0.000058  -0.000309   0.005268  -0.000323  -0.000034  -0.000143
    11  O    0.000000  -0.000001   0.000088  -0.000485   0.000028   0.000001
    12  O   -0.000040   0.000027  -0.000001   0.000000   0.000004   0.000000
    13  O   -0.031361  -0.035243  -0.003021   0.000243   0.005392  -0.000008
    14  O   -0.000015   0.000175   0.234254  -0.036522  -0.034340  -0.031238
    15  C    0.000000  -0.000011   0.000217   0.000014  -0.000013   0.000002
    16  H    0.000000   0.000000  -0.000003  -0.000036   0.000007  -0.000004
    17  H    0.000000   0.000000  -0.000006   0.000011   0.000000   0.000000
    18  O    0.000000  -0.000011  -0.000006   0.000000   0.000000   0.000000
    19  C    0.000003   0.000247   0.000000   0.000000   0.000000   0.000000
    20  H    0.000000  -0.000006   0.000000   0.000000   0.000000   0.000000
    21  H    0.000013   0.000675   0.000000   0.000000   0.000000   0.000000
    22  H    0.000000  -0.000012   0.000000   0.000000   0.000000   0.000000
    23  C    0.387441   0.359048   0.000281  -0.000010  -0.000299   0.000007
    24  H   -0.030407  -0.043001  -0.000244   0.000020  -0.000147  -0.000009
    25  H    0.505932  -0.028090   0.000010   0.000000  -0.000018   0.000000
    26  H   -0.028090   0.586800  -0.000015   0.000001   0.000027   0.000000
    27  C    0.000010  -0.000015   4.934024   0.357841   0.369044   0.387154
    28  H    0.000000   0.000001   0.357841   0.591889  -0.043625  -0.028627
    29  H   -0.000018   0.000027   0.369044  -0.043625   0.563092  -0.029802
    30  H    0.000000   0.000000   0.387154  -0.028627  -0.029802   0.508332
    31  C    0.000000   0.000001   0.000000   0.000000   0.000000   0.000000
    32  H    0.000000   0.000001   0.000000   0.000000   0.000000   0.000000
    33  H    0.000000   0.000000   0.000000   0.000000   0.000000   0.000000
    34  H    0.000000   0.000000   0.000000   0.000000   0.000000   0.000000
              31         32         33         34
     1  C    0.000007   0.000003  -0.000002  -0.000001
     2  C    0.000082   0.000021  -0.000001  -0.000008
     3  C   -0.000306  -0.000002  -0.000032   0.000031
     4  C    0.005504  -0.000265   0.000151  -0.000125
     5  C    0.000226   0.000001   0.000009  -0.000027
     6  H   -0.000001   0.000000   0.000000   0.000000
     7  H   -0.000174  -0.000075   0.000028   0.000022
     8  H    0.000000   0.000000   0.000000   0.000000
     9  H   -0.000141   0.000003   0.000006   0.000007
    10  H   -0.000406  -0.000007   0.000074  -0.000144
    11  O    0.000105   0.000003  -0.000004  -0.000003
    12  O    0.000000   0.000000   0.000000   0.000000
    13  O    0.000000   0.000000   0.000000   0.000000
    14  O   -0.000002   0.000000   0.000000  -0.000001
    15  C   -0.040266   0.005360  -0.006908  -0.006520
    16  H   -0.003276  -0.000107  -0.001837   0.009439
    17  H   -0.003882  -0.000113   0.010168  -0.001955
    18  O    0.240598  -0.030996  -0.035307  -0.035496
    19  C    0.000000   0.000000   0.000000   0.000000
    20  H    0.000000   0.000000   0.000000   0.000000
    21  H    0.000000   0.000001   0.000000   0.000000
    22  H    0.000000   0.000000   0.000000   0.000000
    23  C    0.000001   0.000000   0.000000   0.000000
    24  H    0.000000   0.000000   0.000000   0.000000
    25  H    0.000000   0.000000   0.000000   0.000000
    26  H    0.000001   0.000001   0.000000   0.000000
    27  C    0.000000   0.000000   0.000000   0.000000
    28  H    0.000000   0.000000   0.000000   0.000000
    29  H    0.000000   0.000000   0.000000   0.000000
    30  H    0.000000   0.000000   0.000000   0.000000
    31  C    4.888771   0.385120   0.369483   0.371597
    32  H    0.385120   0.519324  -0.029911  -0.029612
    33  H    0.369483  -0.029911   0.573559  -0.042885
    34  H    0.371597  -0.029612  -0.042885   0.570293
 Mulliken charges:
               1
     1  C    0.102912
     2  C    0.024816
     3  C    0.292334
     4  C    0.037466
     5  C    0.094120
     6  H    0.275814
     7  H    0.230231
     8  H    0.193439
     9  H    0.240916
    10  H    0.202534
    11  O   -0.303001
    12  O   -0.469048
    13  O   -0.462942
    14  O   -0.482543
    15  C   -0.034795
    16  H    0.192533
    17  H    0.185056
    18  O   -0.492534
    19  C   -0.233173
    20  H    0.168289
    21  H    0.176095
    22  H    0.197361
    23  C   -0.241945
    24  H    0.175943
    25  H    0.191571
    26  H    0.159711
    27  C   -0.241438
    28  H    0.157115
    29  H    0.176653
    30  H    0.189505
    31  C   -0.213042
    32  H    0.181252
    33  H    0.163410
    34  H    0.165386
 Sum of Mulliken charges =   1.00000
 Mulliken charges with hydrogens summed into heavy atoms:
               1
     1  C    0.296351
     2  C    0.255047
     3  C    0.568148
     4  C    0.278382
     5  C    0.296654
    11  O   -0.303001
    12  O   -0.469048
    13  O   -0.462942
    14  O   -0.482543
    15  C    0.342794
    18  O   -0.492534
    19  C    0.308573
    23  C    0.285280
    27  C    0.281835
    31  C    0.297006
 Electronic spatial extent (au):  <R**2>=           3317.8193
 Charge=              1.0000 electrons
 Dipole moment (field-independent basis, Debye):
    X=              2.9097    Y=             -4.0430    Z=             -2.1876  Tot=              5.4404
 Quadrupole moment (field-independent basis, Debye-Ang):
   XX=            -71.5066   YY=            -67.8213   ZZ=            -73.9457
   XY=              3.9150   XZ=             -2.3117   YZ=             -2.7627
 Traceless Quadrupole moment (field-independent basis, Debye-Ang):
   XX=             -0.4154   YY=              3.2699   ZZ=             -2.8545
   XY=              3.9150   XZ=             -2.3117   YZ=             -2.7627
[...]
 590298,0.00826696,-0.00010358,0.00005815,0.00003842,-0.00006887,0.0000
 1769,-0.00001826,0.00000051,-0.00001507,-0.00000870,0.00005964,-0.0001
 1327,0.00005807,-0.00001214,-0.00006406,0.00002979,-0.00000551,0.00000
 824,-0.00000086,-0.00000267,0.00000118,-0.00000415,0.00000638,0.000009
 30,-0.00000278,0.00011045,0.00025618,0.00058640,-0.00007312,-0.0000301
 6,-0.00006171,0.00000824,-0.00000446,-0.00005318,-0.00004261,0.0000566
 3,-0.00016927,-0.00766097,-0.05397399,-0.00260532,0.01106002,0.0012541
 8,-0.00214791,-0.00090507,0.05519177,-0.00030823,0.00102539,0.00174802
 ,0.00014955,-0.00024153,-0.00009871,-0.00004905,-0.00017051,-0.0000375
 3,0.00057406,0.00029313,-0.00046743,-0.00081195,-0.00440751,0.00008055
 ,0.00002248,0.00000232,-0.00000926,-0.00001121,0.00002171,-0.00001368,
 -0.00006498,-0.00010963,-0.00034957,-0.00015024,0.00015159,0.00003244,
 0.00005416,0.00007072,-0.00003515,-0.00003297,0.00043172,0.00034219,0.
 00014395,0.00023044,-0.00002253,0.00030349,-0.00053093,-0.00020975,-0.
 03279318,0.01065013,-0.00764243,-0.00018487,-0.00015610,0.00003988,0.0
 0008537,-0.00001254,0.00001367,-0.00002462,0.00004378,-0.00000954,-0.0
 0004081,0.00007159,0.00000094,0.00000724,-0.00007297,0.00005384,-0.000
 00650,0.00001408,-0.00000411,-0.00000427,0.00001143,-0.00001180,0.0000
 0995,0.00001913,-0.00000633,-0.00003259,-0.00018437,-0.00035976,0.0000
 1539,0.00004678,0.00002111,0.00001126,0.00001952,-0.00000830,0.0000178
 1,-0.00004494,0.00011369,0.02000297,-0.00191597,-0.05226283,0.02946103
 ,0.00032018,0.00089973,-0.00864156,-0.00484958,0.05656948,-0.00065062,
 0.00020128,-0.00056193,0.00021474,-0.00006065,0.00018655,-0.00023666,-
 0.00007434,0.00012462,0.00027209,-0.00021609,-0.00041435,-0.00060656,0
 .00261451,-0.00213112,0.00001205,0.00001522,-0.00002038,0.00000245,-0.
 00011109,0.00000098,0.00014487,0.00004275,0.00049792,0.00017036,-0.000
 14025,0.00011198,0.00015291,0.00067510,0.00001814,0.00009659,0.0001671
 1,0.00009964,-0.00000055,-0.00000095,0.00000914,0.00016919,-0.00038101
 ,0.00020226,0.00522082,0.01727851,0.00109248,0.00012683,0.00001896,-0.
 00000620,0.00000091,0.00000035,-0.00000782,-0.00001595,0.00001037,-0.0
 0000273,-0.00009449,0.00008764,-0.00004314,0.00000769,0.00002586,-0.00
 000451,0.00000370,-0.00000349,0.00000041,0.00000033,-0.00000306,0.0000
 0010,-0.00000291,-0.00000072,-0.00000141,-0.00002540,-0.00001142,-0.00
 025881,0.00003098,0.00001575,0.00004317,-0.00000224,-0.00000194,0.0000
 2801,0.00000947,-0.00003297,0.00006174,-0.08970407,-0.09722534,-0.0206
 7743,0.00487819,0.01147432,0.00288240,-0.00902421,-0.02969190,-0.00771
 839,0.08884633,0.00082170,0.00025915,0.00007609,-0.00001734,0.00004717
 ,-0.00005695,0.00006009,0.00015848,0.00006615,-0.00032981,0.00029505,0
 .00045267,0.00098993,0.00139466,0.00344382,-0.00003140,0.00001181,-0.0
 0001087,-0.00002492,0.00006434,-0.00001623,-0.00000389,0.00004867,-0.0
 0009429,-0.00010710,0.00009352,-0.00005711,-0.00011247,-0.00110154,-0.
 00006632,0.00001381,-0.00030266,-0.00021669,-0.00016452,-0.00024892,-0
 .00000883,-0.00022959,-0.00002441,0.00022328,-0.00213364,-0.02633276,0
 .00312091,-0.00012520,0.00001955,-0.00010519,-0.00002635,0.00000728,0.
 00001168,0.00005794,-0.00005950,0.00002171,0.00021351,-0.00020482,0.00
 010565,0.00001642,0.00011738,-0.00006998,0.00000722,-0.00001896,0.0000
 0511,0.00000475,-0.00000928,0.00001307,-0.00001397,-0.00002245,0.00000
 773,0.00000930,0.00007340,-0.00014155,0.00001717,-0.00002909,-0.000028
 69,-0.00003370,-0.00000564,0.00001724,0.00001544,-0.00000657,0.0000116
 9,-0.09016452,-0.27485447,-0.05433080,-0.00347614,-0.00640137,-0.00291
 755,-0.00051202,0.00265171,-0.00068538,0.09532579,0.30433754,-0.000847
 93,-0.00011739,-0.00064510,0.00012662,-0.00000054,0.00013351,0.0000260
 9,-0.00001985,-0.00010472,0.00029738,-0.00001901,-0.00021143,-0.000897
 11,0.00253877,-0.00379947,0.00001624,-0.00000803,0.00001000,0.00004245
 ,-0.00009664,0.00000583,0.00029428,-0.00014488,0.00034675,-0.00035129,
 0.00020023,0.00011794,0.00011474,0.00119143,0.00008417,-0.00010017,0.0
 0014454,0.00015204,0.00006872,0.00014425,0.00004257,0.00009800,-0.0000
 0336,0.00004208,0.00614605,0.03361168,0.00118416,-0.00009246,-0.000023
 49,0.00003256,0.00001788,-0.00000566,0.00000498,-0.00002763,0.00002596
 ,-0.00001011,-0.00007234,0.00005708,0.00002340,0.00000560,-0.00004129,
 0.00002731,-0.00000231,0.00000712,-0.00000189,-0.00000361,0.00000255,-
 0.00000505,0.00000473,0.00001151,-0.00000550,-0.00005385,-0.00001771,0
 .00004944,-0.00000604,0.00003168,0.00002184,0.00002336,0.00000063,0.00
 001211,-0.00000526,-0.00000352,-0.00000138,-0.02205454,-0.06473412,-0.
 06324755,-0.01117078,-0.02630872,-0.00397873,0.00193920,0.00229920,0.0
 0157882,0.02646443,0.05130863,0.06808710,-0.00080419,0.00031038,-0.000
 05616,-0.00049504,-0.00071379,-0.00024343,-0.00210929,-0.00019320,0.00
 010832,-0.00271063,-0.00459393,0.00237076,-0.00032005,0.00154324,0.000
 46854,0.00006274,0.00012858,-0.00017791,-0.00026602,0.00003480,0.00009
 291,0.00005475,0.00000213,0.00002712,0.00149383,-0.00050931,0.00107271
 ,-0.00042665,0.00044227,0.00006051,0.00154711,0.00020094,-0.00004656,0
 .00071863,0.00042157,-0.00006539,0.00075072,-0.00021709,-0.00059232,0.
 00028436,-0.00107121,0.00018625,0.00995306,-0.00208959,0.00324266,0.00
 042774,-0.00385476,0.00315647,0.00047359,-0.00448049,0.00338758,-0.160
 00704,0.06166413,-0.06189595,-0.00013656,-0.00037413,0.00016726,-0.000
 02679,0.00005173,-0.00002882,-0.00000492,0.00004509,-0.00002811,0.0000
 5057,0.00004784,-0.00001118,-0.00000999,-0.00003211,0.00037342,-0.0000
 3015,0.00003594,-0.00002575,0.00004974,-0.00002109,-0.00004487,-0.0000
 5183,-0.00001023,-0.00003527,-0.00029883,0.00036063,-0.00031870,0.0000
 5298,0.00002115,-0.00000445,0.00009375,-0.00003253,0.00004172,0.000023
 65,-0.00011033,0.00002520,0.53568507,0.00069817,-0.00058987,-0.0001542
 1,0.00023542,0.00047092,0.00044823,0.00281915,-0.00007181,0.00168636,-
 0.00153977,-0.00387557,0.00216135,-0.00005529,-0.00090350,0.00030376,0
 .00004252,-0.00012354,0.00012835,0.00046384,0.00012116,-0.00055796,-0.
 00007591,0.00004020,-0.00002948,0.00058527,0.00000399,0.00011828,0.000
 35412,-0.00043259,-0.00033462,-0.00130458,0.00166341,-0.00127530,-0.00
 095846,-0.00035879,-0.00005182,-0.00053823,0.00023872,0.00051182,-0.00
 020804,0.00085935,-0.00025871,0.01958240,-0.03086356,0.02369246,0.0021
 9274,0.00272101,-0.00007109,0.00049867,0.00392605,-0.00292727,0.028417
 53,-0.10599530,0.03969568,0.00019946,0.00054294,-0.00022968,0.00002063
 ,-0.00007941,0.00000963,-0.00000077,-0.00003798,0.00005641,-0.00004362
 ,-0.00006798,0.00002446,0.00002322,0.00003989,-0.00031420,0.00002657,-
 0.00003391,0.00002480,-0.00004227,0.00001960,0.00003745,0.00004666,0.0
 0000079,0.00001425,0.00023031,-0.00027556,0.00035725,-0.00003229,-0.00
 000502,-0.00007082,-0.00006150,0.00000886,-0.00005697,-0.00001046,0.00
 007673,-0.00004484,0.06644890,0.56918957,-0.00084123,0.00031454,0.0000
 3337,-0.00029630,-0.00024885,-0.00047020,-0.00131052,-0.00037356,-0.00
 040845,0.00066402,0.00116181,-0.00307699,-0.00022377,0.00043870,0.0000
 8926,-0.00002362,0.00007774,-0.00007721,-0.00048627,-0.00016582,0.0004
 0185,0.00013875,-0.00002558,0.00003323,-0.00036012,0.00023807,0.000301
 98,-0.00059139,0.00090072,0.00081943,0.00110866,0.00074387,0.00004929,
 0.00074617,0.00034445,0.00009529,0.00057867,-0.00015344,-0.00053465,0.
 00041391,-0.00116912,0.00062068,-0.01409600,0.02109896,-0.02358148,0.0
 0026881,-0.00376706,0.00387114,-0.00255025,-0.00043350,0.00204479,-0.0
 3559158,0.04363186,-0.10126350,-0.00015131,-0.00042494,0.00020817,-0.0
 0002009,0.00005401,-0.00001461,-0.00000781,0.00002792,-0.00005409,0.00
 003889,0.00005444,-0.00001888,0.00000231,-0.00005399,0.00037773,-0.000
 03334,0.00002752,-0.00001370,0.00004014,-0.00001548,-0.00003761,-0.000
 04815,0.00001759,-0.00000789,-0.00025457,0.00016533,-0.00043689,0.0000
 3226,0.00001941,0.00005284,0.00007442,-0.00002783,0.00006795,0.0000389
 0,-0.00011982,0.00007261,-0.05873896,0.01521559,0.55953023,0.00004184,
 0.00001021,0.00001979,0.00000180,0.00007148,-0.00001087,0.00014384,0.0
 0001205,-0.00015502,0.00074984,0.00124851,-0.00090320,0.00013470,-0.00
 016631,-0.00009311,-0.00002023,-0.00000061,0.00000367,-0.00007257,0.00
 001463,0.00002690,0.00000266,-0.00001026,0.00000134,-0.00039789,0.0001
 0464,-0.00021461,0.00001155,-0.00001126,0.00004883,-0.00005585,-0.0000
 8498,0.00016934,0.00001033,-0.00002594,0.00004447,-0.00004549,-0.00000
 526,0.00003088,-0.00001303,0.00003140,0.00000883,-0.00274237,0.0024545
 9,-0.00224783,-0.00004292,0.00028497,0.00000749,0.00011679,0.00009120,
 -0.00042081,0.01194591,0.02456719,-0.01875606,0.00000637,0.00001291,-0
 .00002322,-0.00000670,-0.00000464,-0.00000784,-0.00000799,0.00000575,0
 .00000792,0.00000332,-0.00000524,0.00000518,-0.00000105,0.00002195,-0.
 00002485,-0.00000047,-0.00000315,0.00000083,-0.00000088,-0.00000334,0.
 00000255,-0.00000221,-0.00000445,0.00000511,0.00001568,-0.00001891,-0.
 00000629,-0.00000431,-0.00000220,0.00001308,-0.00000679,0.00000551,0.0
 0000271,-0.00000332,0.00000602,0.00000364,-0.12810056,-0.10667395,0.07
 910967,0.13263137,-0.00014015,0.00005709,-0.00000144,-0.00002276,-0.00
 012119,-0.00004380,-0.00036957,-0.00008340,0.00009968,-0.00081160,-0.0
 0077717,0.00064215,-0.00009309,0.00024089,0.00013489,0.00001309,0.0000
 2489,-0.00003122,-0.00004253,0.00000360,0.00004950,0.00000658,0.000002
 83,0.00000177,0.00033815,-0.00010322,0.00018641,-0.00005359,0.00004453
 ,0.00002194,0.00034557,0.00010940,-0.00003113,0.00010330,0.00006175,-0
 .00003338,0.00012982,-0.00002325,-0.00013191,0.00005574,-0.00015265,0.
 00001760,0.00376203,0.00061974,0.00015311,0.00000630,0.00011583,-0.000
 14141,-0.00020219,-0.00007158,0.00032191,-0.00394505,-0.01721461,0.013
 97838,-0.00002657,-0.00006046,0.00005112,-0.00000115,0.00000874,-0.000
 00374,0.00000256,0.00000344,-0.00001302,0.00000548,0.00000909,-0.00000
 584,0.00000234,-0.00003547,0.00009330,-0.00000333,-0.00000185,-0.00000
 463,0.00000403,0.00000291,-0.00000991,0.00000040,0.00001881,-0.0000023
 2,-0.00004844,0.00005232,-0.00004314,0.00000883,0.00000347,-0.00000665
 ,0.00001634,-0.00000688,0.00000549,0.00000437,-0.00001603,0.00000266,-
 0.09663309,-0.18114285,0.09394955,0.10143203,0.19756295,0.00011392,-0.
 00000021,0.00003778,0.00002429,0.00008517,0.00002854,0.00030282,0.0000
 7970,-0.00006809,0.00070419,0.00110462,-0.00024432,0.00002330,-0.00021
 363,-0.00012708,-0.00002129,-0.00001040,0.00000748,0.00001501,0.000018
 50,-0.00000484,-0.00000606,-0.00000722,-0.00000449,-0.00031643,0.00007
 232,-0.00018682,0.00003126,-0.00003118,-0.00001543,-0.00018867,-0.0000
 9107,0.00009691,-0.00008450,-0.00008001,0.00002369,-0.00010966,0.00000
 883,0.00006931,-0.00004660,0.00013420,-0.00001999,-0.00340854,0.000192
 05,-0.00015519,0.00009861,0.00043414,-0.00002636,-0.00002419,-0.000198
 31,0.00013658,0.00468406,0.01713651,-0.01319545,0.00002326,0.00008229,
 -0.00002780,-0.00000459,-0.00001623,-0.00001182,-0.00000561,-0.0000002
 5,0.00000945,0.00000006,-0.00001389,0.00000446,0.00000558,0.00001864,-
 0.00004679,0.00000184,-0.00000834,0.00000269,-0.00000601,0.00000024,0.
 00000600,0.00000550,-0.00000089,0.00000611,0.00004418,-0.00004628,0.00
 003715,-0.00000723,-0.00000377,0.00000489,-0.00001387,0.00000609,-0.00
 000344,-0.00000453,0.00001438,-0.00000221,0.07080762,0.09277754,-0.121
 18427,-0.07370625,-0.11133247,0.13066903,0.00025271,-0.00008940,-0.000
 02075,0.00011630,0.00005492,0.00012568,0.00036775,0.00012219,0.0002301
 9,0.00035323,0.00013044,0.00009066,0.00021246,-0.00028131,0.00012210,-
 0.00000925,-0.00002387,0.00001448,0.00014744,0.00007181,-0.00010674,-0
 .00004343,0.00000749,-0.00000954,-0.00013119,0.00001240,-0.00013631,0.
 00017409,-0.00027244,-0.00023415,-0.00024200,-0.00008960,-0.00003745,-
 0.00023714,-0.00011914,-0.00005228,-0.00015350,0.00004416,0.00012400,-
 0.00011485,0.00033716,-0.00019436,-0.00048589,-0.00423079,0.00244968,0
 .00013037,0.00053369,-0.00030471,0.00055805,0.00115437,-0.00117465,-0.
 02554843,0.02103342,0.00417924,0.00003840,0.00014551,-0.00004051,0.000
 00703,-0.00002216,0.00000281,0.00000503,-0.00001381,0.00000848,-0.0000
 1182,-0.00001834,0.00000334,0.00000762,0.00000497,-0.00008115,0.000008
 98,-0.00001476,0.00000101,-0.00001475,0.00000718,0.00000870,0.00001917
 ,0.00000468,0.00000259,0.00008472,-0.00006106,0.00012646,-0.00001150,-
 0.00000383,-0.00001433,-0.00002399,0.00001007,-0.00001760,-0.00001217,
 0.00003529,-0.00001972,-0.14798837,0.06367910,0.10360575,-0.00818885,0
 .00663262,0.01100811,0.16837745,-0.00012269,0.00006573,0.00006658,-0.0
 0005120,-0.00000926,-0.00008163,-0.00019127,-0.00003064,-0.00017281,-0
 .00024033,0.00001957,0.00015861,-0.00018992,0.00004308,-0.00017344,-0.
 00000205,0.00000827,-0.00000728,-0.00009423,-0.00004180,0.00007472,0.0
 0003050,-0.00000358,0.00000598,0.00009104,-0.00000673,0.00010772,-0.00
 011225,0.00015568,0.00017615,0.00008436,-0.00001831,0.00000343,0.00012
 060,0.00005011,0.00002766,0.00004768,-0.00002352,-0.00005715,0.0000786
 7,-0.00017711,0.00013407,0.00270661,0.00226882,-0.00400326,-0.00020615
 ,-0.00040446,0.00005827,-0.00061411,-0.00013623,0.00065931,0.01986800,
 -0.01294911,-0.00133344,-0.00002324,-0.00006808,0.00002979,-0.00000345
 ,0.00000895,-0.00000298,-0.00000158,0.00000481,-0.00000758,0.00000632,
 0.00000846,-0.00000340,-0.00000678,-0.00000873,0.00003378,-0.00000370,
 0.00000898,0.00000050,0.00000780,-0.00000231,-0.00000305,-0.00000851,-
 0.00000001,0.00000102,-0.00003625,0.00002020,-0.00007128,0.00000543,0.
 00000165,0.00000992,0.00001153,-0.00000684,0.00001107,0.00000797,-0.00
 001956,0.00001133,0.06258691,-0.09841069,-0.07038629,-0.01443852,0.012
 63195,0.01447277,-0.08145946,0.10408557,0.00005223,-0.00001968,-0.0000
 5566,-0.00000838,-0.00001930,0.00003564,-0.00002810,0.00002667,0.00003
 521,-0.00018275,-0.00009147,0.00023494,0.00001506,0.00015468,0.0000444
 9,0.00000390,-0.00000007,-0.00000383,0.00004359,0.00002664,-0.00003961
 ,-0.00001717,-0.00000061,-0.00000145,0.00002856,-0.00004033,-0.0000446
 0,0.00003886,-0.00004592,-0.00014985,0.00003080,-0.00006598,0.00006750
 ,-0.00003366,-0.00001074,-0.00001187,-0.00000694,0.00000201,0.00005225
 ,-0.00006210,0.00009839,-0.00006599,-0.00288080,-0.00050081,0.00406341
 ,0.00016906,0.00006495,-0.00062298,0.00084997,-0.00153070,-0.00018075,
 -0.01754409,0.01454766,0.01347463,0.00000861,0.00002108,-0.00002274,-0
 .00000145,-0.00000241,0.00000011,-0.00000065,0.00000094,0.00000803,0.0
 0000023,-0.00000348,0.00000300,-0.00000655,0.00001312,-0.00003841,0.00
 000061,0.00000535,0.00000035,0.00000115,-0.00000184,0.00000262,-0.0000
 0191,-0.00001161,-0.00000340,0.00000709,0.00001915,0.00002741,-0.00000
 091,-0.00000114,-0.00000088,-0.00000330,0.00000349,-0.00000484,-0.0000
 0506,0.00000937,-0.00000913,0.10805359,-0.07245633,-0.16731488,0.00845
 894,-0.00775624,-0.00907089,-0.11023479,0.07510372,0.17128870,0.000192
 00,-0.00019924,-0.00003321,0.00009198,0.00012771,0.00012371,0.00079495
 ,0.00000374,0.00040900,0.00015240,0.00003323,0.00009138,0.00009764,-0.
 00025108,-0.00011202,0.00000186,-0.00002383,0.00003145,0.00012077,0.00
 002260,-0.00015788,-0.00000847,0.00001769,-0.00000151,-0.00012184,0.00
 002781,-0.00008919,0.00005243,-0.00011686,-0.00007536,-0.00025810,0.00
 030735,-0.00009132,-0.00025500,-0.00007448,-0.00001447,-0.00015889,0.0
 0007804,0.00018204,-0.00005528,0.00024055,-0.00002734,-0.00068734,-0.0
 0319866,0.00323722,0.00039879,0.00129261,-0.00050040,0.00017428,0.0004
 8974,-0.00033749,-0.02168770,-0.00432684,-0.02524368,0.00004982,0.0001
 2145,-0.00005975,0.00000761,-0.00001603,0.00001093,0.00000303,-0.00001
 441,0.00001191,-0.00001416,-0.00001439,0.00000460,-0.00001034,0.000000
 77,-0.00012106,0.00000751,0.00000568,0.00000968,-0.00000615,0.00000476
 ,0.00001401,0.00000790,-0.00000750,0.00000318,0.00005508,-0.00006012,0
 .00007288,-0.00001021,-0.00000411,-0.00000141,-0.00001574,0.00000468,-
 0.00001013,-0.00000500,0.00002253,-0.00000955,-0.10793538,-0.07501952,
 -0.07123605,-0.00610254,-0.01047644,-0.00993955,0.01235631,0.01215227,
 0.01325634,0.12276775,-0.00000790,0.00003176,0.00000442,0.00000069,0.0
 0002733,-0.00001764,-0.00020450,-0.00009797,-0.00016460,0.00027097,0.0
 0040005,-0.00002520,-0.00002981,0.00002837,-0.00001780,0.00000838,-0.0
 0001482,0.00001418,-0.00003506,-0.00001111,0.00004946,-0.00000175,-0.0
 0000385,0.00000085,0.00000161,-0.00002704,-0.00001314,0.00001836,0.000
 00220,-0.00000178,0.00003504,-0.00023467,0.00021313,0.00005630,0.00002
 216,0.00000602,-0.00000111,-0.00000086,0.00000684,-0.00001281,0.000011
 92,-0.00000669,0.00233519,0.00486017,0.00064781,-0.00075882,-0.0002266
 8,-0.00159768,-0.00007160,-0.00059387,0.00000370,0.01521112,0.01166768
 ,0.01920316,-0.00001150,-0.00005220,0.00000997,0.00000141,0.00001031,0
 .00000856,0.00000286,-0.00000052,-0.00000508,-0.00000192,0.00000740,-0
 .00000284,-0.00000359,-0.00000374,-0.00000499,0.00000107,0.00000402,-0
 .00000008,0.00000050,-0.00000025,0.00000003,-0.00000230,-0.00000167,0.
 00000001,-0.00000407,0.00000079,0.00000075,0.00000047,-0.00000110,0.00
 000239,-0.00000051,0.00000121,-0.00000130,-0.00000018,0.00000159,-0.00
 000023,-0.07940932,-0.15665528,-0.10111680,-0.00891600,-0.01176361,-0.
 01458381,-0.00732151,-0.00706485,-0.00753857,0.07885030,0.15967716,0.0
 0012562,-0.00011755,-0.00003432,0.00006209,0.00006332,0.00008295,0.000
 51181,0.00001484,0.00031992,0.00007849,0.00012979,-0.00001827,0.000041
 75,-0.00019396,-0.00000882,0.00000375,0.00000202,0.00000695,0.00009919
 ,0.00001557,-0.00011415,-0.00001090,0.00000928,-0.00000306,-0.00011460
 ,0.00003511,-0.00007815,0.00006085,-0.00011153,-0.00006625,-0.00000547
 ,0.00027099,0.00000821,-0.00016605,-0.00004873,-0.00001069,-0.00009195
 ,0.00005022,0.00009891,-0.00001825,0.00016416,-0.00003647,-0.00167240,
 -0.00387163,0.00184491,0.00038460,0.00109253,-0.00058032,0.00025021,0.
 00002805,-0.00044859,-0.01804204,0.00089191,-0.01489742,0.00003595,0.0
 0008329,-0.00003939,0.00000417,-0.00001089,0.00000404,0.00000089,-0.00
 000700,0.00000922,-0.00000866,-0.00001032,0.00000350,-0.00000207,-0.00
 000244,-0.00006272,0.00000541,-0.00000310,0.00000612,-0.00000604,0.000
 00392,0.00000754,0.00000870,0.00000143,0.00000230,0.00003679,-0.000032
 57,0.00004363,-0.00000759,-0.00000237,-0.00000300,-0.00000793,0.000002
 00,-0.00000529,-0.00000508,0.00001706,-0.00000694,-0.07132883,-0.09843
 035,-0.15017455,0.00859881,0.00988278,0.01325524,-0.00942427,-0.014842
 79,-0.01169656,0.09060305,0.10492695,0.16259152\\0.00000686,-0.0000042
 4,-0.00000250,-0.00000015,-0.00000670,0.00000487,-0.00000885,0.0000069
 7,-0.00000411,-0.00000396,0.00000464,-0.00000447,-0.00001009,-0.000002
 77,0.00000591,-0.00000137,0.00000118,-0.00000177,0.00000330,-0.0000012
 6,0.00000045,-0.00000790,0.00000065,0.00000649,-0.00001024,0.00001072,
 -0.00000243,0.00000229,-0.00000012,-0.00000090,-0.00000157,0.00000703,
 -0.00000771,0.00000157,-0.00000213,0.00000797,-0.00000620,-0.00000748,
 0.00001679,-0.00000872,0.00000659,0.00000402,-0.00000324,0.00001050,-0
 .00000472,0.00000069,0.00000845,-0.00000924,-0.00000273,0.00001209,-0.
 00001358,0.00000860,0.00000085,-0.00001555,0.00000692,-0.00001016,0.00
 000136,0.00000582,-0.00000341,0.00000101,0.00001273,-0.00000960,0.0000
 0165,0.00000733,-0.00000992,0.00000480,0.00000288,-0.00001234,0.000004
 88,0.00000447,-0.00001081,0.00000909,0.00000535,-0.00001264,0.00001355
 ,0.00000747,-0.00001049,0.00000981,-0.00001182,0.00000109,0.00000712,-
 0.00001387,0.00000695,0.00000678,-0.00001388,-0.00000113,0.00001323,-0
 .00001565,0.00000345,0.00001046,0.00000989,0.00000758,-0.00001343,0.00
 001466,0.00000225,-0.00001420,0.00000870,0.00000841,-0.00001911,0.0000
 1071,0.00000579,-0.00001655\\\@


 SCIENCE IS LONG AND LIFE IS SHORT.

                     DON MOSER IN THE FEBRUARY 1979 SMITHSONIAN
 Job cpu time:       0 days  1 hours 54 minutes 30.2 seconds.
 Elapsed time:       0 days  0 hours 28 minutes 52.2 seconds.
 File lengths (MBytes):  RWF=    377 Int=      0 D2E=      0 Chk=     16 Scr=      1
 Normal termination of Gaussian 16 at Fri May 24 09:03:28 2019.
