 Entering Gaussian System, Link 0=g16
 Input=clay-glucose_cation-135-b3lyp_d3bj-631gd-pcm_thf.gjf
 Output=clay-glucose_cation-135-b3lyp_d3bj-631gd-pcm_thf.out
 Initial command:
 /n/sw/g16_nehalem/g16/l1.exe "/scratch/Gau-167774.inp" -scrdir="/scratch/"
 Entering Link 1 = /n/sw/g16_nehalem/g16/l1.exe PID=    167781.
  
 Copyright (c) 1988,1990,1992,1993,1995,1998,2003,2009,2016,
            Gaussian, Inc.  All Rights Reserved.
  
 This is part of the Gaussian(R) 16 program.  It is based on
 the Gaussian(R) 09 system (copyright 2009, Gaussian, Inc.),
 the Gaussian(R) 03 system (copyright 2003, Gaussian, Inc.),
 the Gaussian(R) 98 system (copyright 1998, Gaussian, Inc.),
 the Gaussian(R) 94 system (copyright 1995, Gaussian, Inc.),
 the Gaussian 92(TM) system (copyright 1992, Gaussian, Inc.),
 the Gaussian 90(TM) system (copyright 1990, Gaussian, Inc.),
 the Gaussian 88(TM) system (copyright 1988, Gaussian, Inc.),
 the Gaussian 86(TM) system (copyright 1986, Carnegie Mellon
 University), and the Gaussian 82(TM) system (copyright 1983,
 Carnegie Mellon University). Gaussian is a federally registered
 trademark of Gaussian, Inc.
  
 This software contains proprietary and confidential information,
 including trade secrets, belonging to Gaussian, Inc.
  
 This software is provided under written license and may be
 used, copied, transmitted, or stored only in accord with that
 written license.
  
 The following legend is applicable only to US Government
 contracts under FAR:
  
                    RESTRICTED RIGHTS LEGEND
  
 Use, reproduction and disclosure by the US Government is
 subject to restrictions as set forth in subparagraphs (a)
 and (c) of the Commercial Computer Software - Restricted
 Rights clause in FAR 52.227-19.
  
 Gaussian, Inc.
 340 Quinnipiac St., Bldg. 40, Wallingford CT 06492
  
  
 ---------------------------------------------------------------
 Warning -- This program may not be used in any manner that
 competes with the business of Gaussian, Inc. or will provide
 assistance to any competitor of Gaussian, Inc.  The licensee
 of this program is prohibited from giving any competitor of
 Gaussian, Inc. access to this program.  By using this program,
 the user acknowledges that Gaussian, Inc. is engaged in the
 business of creating and licensing software in the field of
 computational chemistry and represents and warrants to the
 licensee that it is not a competitor of Gaussian, Inc. and that
 it will not use this program in any manner prohibited above.
 ---------------------------------------------------------------
  

 Cite this work as:
 Gaussian 16, Revision A.03,
 M. J. Frisch, G. W. Trucks, H. B. Schlegel, G. E. Scuseria, 
 M. A. Robb, J. R. Cheeseman, G. Scalmani, V. Barone, 
 G. A. Petersson, H. Nakatsuji, X. Li, M. Caricato, A. V. Marenich, 
 J. Bloino, B. G. Janesko, R. Gomperts, B. Mennucci, H. P. Hratchian, 
 J. V. Ortiz, A. F. Izmaylov, J. L. Sonnenberg, D. Williams-Young, 
 F. Ding, F. Lipparini, F. Egidi, J. Goings, B. Peng, A. Petrone, 
 T. Henderson, D. Ranasinghe, V. G. Zakrzewski, J. Gao, N. Rega, 
 G. Zheng, W. Liang, M. Hada, M. Ehara, K. Toyota, R. Fukuda, 
 J. Hasegawa, M. Ishida, T. Nakajima, Y. Honda, O. Kitao, H. Nakai, 
 T. Vreven, K. Throssell, J. A. Montgomery, Jr., J. E. Peralta, 
 F. Ogliaro, M. J. Bearpark, J. J. Heyd, E. N. Brothers, K. N. Kudin, 
 V. N. Staroverov, T. A. Keith, R. Kobayashi, J. Normand, 
 K. Raghavachari, A. P. Rendell, J. C. Burant, S. S. Iyengar, 
 J. Tomasi, M. Cossi, J. M. Millam, M. Klene, C. Adamo, R. Cammi, 
 J. W. Ochterski, R. L. Martin, K. Morokuma, O. Farkas, 
 J. B. Foresman, and D. J. Fox, Gaussian, Inc., Wallingford CT, 2016.
 
 ******************************************
 Gaussian 16:  ES64L-G16RevA.03 25-Dec-2016
                24-May-2019 
 ******************************************
 %nprocshared=4
 Will use up to    4 processors via shared memory.
 %mem=3GB
 -------------------------------------------------------------------
 #p b3lyp 6-31g* opt freq=noraman scrf=(pcm,solvent=tetrahydrofuran)
 -------------------------------------------------------------------
 1/18=20,19=15,26=3,38=1/1,3;
 2/9=110,12=2,17=6,18=5,40=1/2;
 3/5=1,6=6,7=1,11=2,25=1,30=1,70=2201,71=1,72=20,74=-5/1,2,3;
 4//1;
 5/5=2,38=5,53=20/2;
 6/7=2,8=2,9=2,10=2,28=1/1;
 7//1,2,3,16;
 1/18=20,19=15,26=3/3(2);
 2/9=110/2;
 99//99;
 2/9=110/2;
 3/5=1,6=6,7=1,11=2,25=1,30=1,70=2205,71=1,72=20,74=-5/1,2,3;
 4/5=5,16=3,69=1/1;
 5/5=2,38=5,53=20/2;
 7//1,2,3,16;
 1/18=20,19=15,26=3/3(-5);
 2/9=110/2;
 6/7=2,8=2,9=2,10=2,19=2,28=1/1;
 99/9=1/99;
 Leave Link    1 at Fri May 24 08:31:43 2019, MaxMem=   402653184 cpu:               0.2 elap:               0.1
 (Enter /n/sw/g16_nehalem/g16/l101.exe)
 -----
 title
 -----
 Symbolic Z-matrix:
 Charge =  1 Multiplicity = 1
 6                    -1.08624   0.55756   0.67007 
 6                    -1.7742   -0.82878   0.6523 
 6                    -0.66036  -1.76261   1.05511 
 6                     0.65032  -0.77867  -0.70671 
 6                     0.05918   0.61082  -0.37124 
 1                    -0.71808  -2.47934   1.87414 
 1                    -2.58091  -0.86414   1.39248 
 1                    -1.81057   1.35178   0.44986 
 1                     0.09194  -1.21361  -1.53399 
 1                     0.86403   1.23576   0.03239 
 8                     0.42764  -1.754     0.43579 
 8                    -2.17872  -1.29133  -0.61444 
 8                    -0.60661   0.62768   2.00259 
 8                    -0.38582   1.10007  -1.62287 
 6                     2.13803  -0.80483  -0.96533 
 1                     2.31299  -0.21639  -1.88082 
 1                     2.4625   -1.83753  -1.16349 
 8                     2.79923  -0.25748   0.15002 
 6                    -3.36453  -0.6606   -1.12245 
 1                    -3.64236  -1.22853  -2.01099 
 1                    -4.17509  -0.70812  -0.38588 
 1                    -3.16596   0.37929  -1.39968 
 6                    -0.31224   1.93928   2.48809 
 1                    -1.20366   2.57697   2.43515 
 1                    -0.00988   1.8192    3.52938 
 1                     0.50518   2.40904   1.9281 
 6                    -0.26457   2.51548  -1.77369 
 1                     0.78115   2.83304  -1.67295 
 1                    -0.62081   2.74726  -2.77875 
 1                    -0.87675   3.05825  -1.04202 
 6                     4.21338  -0.22574  -0.00647 
 1                     4.62209  -1.23743  -0.13657 
 1                     4.62082   0.21376   0.90589 
 1                     4.50506   0.38964  -0.86911 
 
 ITRead=  0  0  0  0  0  0  0  0  0  0  0  0  0  0  0  0  0  0  0  0
 ITRead=  0  0  0  0  0  0  0  0  0  0  0  0  0  0
 MicOpt= -1 -1 -1 -1 -1 -1 -1 -1 -1 -1 -1 -1 -1 -1 -1 -1 -1 -1 -1 -1
 MicOpt= -1 -1 -1 -1 -1 -1 -1 -1 -1 -1 -1 -1 -1 -1
 NAtoms=     34 NQM=       34 NQMF=       0 NMMI=      0 NMMIF=      0
                NMic=       0 NMicF=      0.
                    Isotopes and Nuclear Properties:
 (Nuclear quadrupole moments (NQMom) in fm**2, nuclear magnetic moments (NMagM)
  in nuclear magnetons)

  Atom         1           2           3           4           5           6           7           8           9          10
 IAtWgt=          12          12          12          12          12           1           1           1           1           1
 AtmWgt=  12.0000000  12.0000000  12.0000000  12.0000000  12.0000000   1.0078250   1.0078250   1.0078250   1.0078250   1.0078250
 NucSpn=           0           0           0           0           0           1           1           1           1           1
 AtZEff=   0.0000000   0.0000000   0.0000000   0.0000000   0.0000000   0.0000000   0.0000000   0.0000000   0.0000000   0.0000000
 NQMom=    0.0000000   0.0000000   0.0000000   0.0000000   0.0000000   0.0000000   0.0000000   0.0000000   0.0000000   0.0000000
 NMagM=    0.0000000   0.0000000   0.0000000   0.0000000   0.0000000   2.7928460   2.7928460   2.7928460   2.7928460   2.7928460
 AtZNuc=   6.0000000   6.0000000   6.0000000   6.0000000   6.0000000   1.0000000   1.0000000   1.0000000   1.0000000   1.0000000

  Atom        11          12          13          14          15          16          17          18          19          20
 IAtWgt=          16          16          16          16          12           1           1          16          12           1
 AtmWgt=  15.9949146  15.9949146  15.9949146  15.9949146  12.0000000   1.0078250   1.0078250  15.9949146  12.0000000   1.0078250
 NucSpn=           0           0           0           0           0           1           1           0           0           1
 AtZEff=   0.0000000   0.0000000   0.0000000   0.0000000   0.0000000   0.0000000   0.0000000   0.0000000   0.0000000   0.0000000
 NQMom=    0.0000000   0.0000000   0.0000000   0.0000000   0.0000000   0.0000000   0.0000000   0.0000000   0.0000000   0.0000000
 NMagM=    0.0000000   0.0000000   0.0000000   0.0000000   0.0000000   2.7928460   2.7928460   0.0000000   0.0000000   2.7928460
 AtZNuc=   8.0000000   8.0000000   8.0000000   8.0000000   6.0000000   1.0000000   1.0000000   8.0000000   6.0000000   1.0000000

  Atom        21          22          23          24          25          26          27          28          29          30
 IAtWgt=           1           1          12           1           1           1          12           1           1           1
 AtmWgt=   1.0078250   1.0078250  12.0000000   1.0078250   1.0078250   1.0078250  12.0000000   1.0078250   1.0078250   1.0078250
 NucSpn=           1           1           0           1           1           1           0           1           1           1
 AtZEff=   0.0000000   0.0000000   0.0000000   0.0000000   0.0000000   0.0000000   0.0000000   0.0000000   0.0000000   0.0000000
 NQMom=    0.0000000   0.0000000   0.0000000   0.0000000   0.0000000   0.0000000   0.0000000   0.0000000   0.0000000   0.0000000
 NMagM=    2.7928460   2.7928460   0.0000000   2.7928460   2.7928460   2.7928460   0.0000000   2.7928460   2.7928460   2.7928460
 AtZNuc=   1.0000000   1.0000000   6.0000000   1.0000000   1.0000000   1.0000000   6.0000000   1.0000000   1.0000000   1.0000000

  Atom        31          32          33          34
 IAtWgt=          12           1           1           1
 AtmWgt=  12.0000000   1.0078250   1.0078250   1.0078250
 NucSpn=           0           1           1           1
 AtZEff=   0.0000000   0.0000000   0.0000000   0.0000000
 NQMom=    0.0000000   0.0000000   0.0000000   0.0000000
 NMagM=    0.0000000   2.7928460   2.7928460   2.7928460
 AtZNuc=   6.0000000   1.0000000   1.0000000   1.0000000
 Leave Link  101 at Fri May 24 08:31:43 2019, MaxMem=   402653184 cpu:               0.6 elap:               0.2
 (Enter /n/sw/g16_nehalem/g16/l103.exe)

 GradGradGradGradGradGradGradGradGradGradGradGradGradGradGradGradGradGrad
 Berny optimization.
 Initialization pass.
                           ----------------------------
                           !    Initial Parameters    !
                           ! (Angstroms and Degrees)  !
 --------------------------                            --------------------------
 ! Name  Definition              Value          Derivative Info.                !
 --------------------------------------------------------------------------------
 ! R1    R(1,2)                  1.5478         estimate D2E/DX2                !
 ! R2    R(1,5)                  1.5489         estimate D2E/DX2                !
 ! R3    R(1,8)                  1.0972         estimate D2E/DX2                !
 ! R4    R(1,13)                 1.4179         estimate D2E/DX2                !
 ! R5    R(2,3)                  1.5083         estimate D2E/DX2                !
 ! R6    R(2,7)                  1.0954         estimate D2E/DX2                !
 ! R7    R(2,12)                 1.4079         estimate D2E/DX2                !
 ! R8    R(3,6)                  1.0899         estimate D2E/DX2                !
 ! R9    R(3,11)                 1.2519         estimate D2E/DX2                !
 ! R10   R(4,5)                  1.5468         estimate D2E/DX2                !
 ! R11   R(4,9)                  1.0887         estimate D2E/DX2                !
 ! R12   R(4,11)                 1.5186         estimate D2E/DX2                !
 ! R13   R(4,15)                 1.5102         estimate D2E/DX2                !
 ! R14   R(5,10)                 1.096          estimate D2E/DX2                !
 ! R15   R(5,14)                 1.4156         estimate D2E/DX2                !
 ! R16   R(12,19)                1.436          estimate D2E/DX2                !
 ! R17   R(13,23)                1.4292         estimate D2E/DX2                !
 ! R18   R(14,27)                1.4286         estimate D2E/DX2                !
 ! R19   R(15,16)                1.1023         estimate D2E/DX2                !
 ! R20   R(15,17)                1.1005         estimate D2E/DX2                !
 ! R21   R(15,18)                1.4074         estimate D2E/DX2                !
 ! R22   R(18,31)                1.4231         estimate D2E/DX2                !
 ! R23   R(19,20)                1.0905         estimate D2E/DX2                !
 ! R24   R(19,21)                1.0963         estimate D2E/DX2                !
 ! R25   R(19,22)                1.0944         estimate D2E/DX2                !
 ! R26   R(23,24)                1.0973         estimate D2E/DX2                !
 ! R27   R(23,25)                1.0909         estimate D2E/DX2                !
 ! R28   R(23,26)                1.0966         estimate D2E/DX2                !
 ! R29   R(27,28)                1.0975         estimate D2E/DX2                !
 ! R30   R(27,29)                1.0912         estimate D2E/DX2                !
 ! R31   R(27,30)                1.0976         estimate D2E/DX2                !
 ! R32   R(31,32)                1.0989         estimate D2E/DX2                !
 ! R33   R(31,33)                1.0916         estimate D2E/DX2                !
 ! R34   R(31,34)                1.0991         estimate D2E/DX2                !
 ! A1    A(2,1,5)              110.5957         estimate D2E/DX2                !
 ! A2    A(2,1,8)              110.6479         estimate D2E/DX2                !
 ! A3    A(2,1,13)             101.8551         estimate D2E/DX2                !
 ! A4    A(5,1,8)              109.1694         estimate D2E/DX2                !
 ! A5    A(5,1,13)             112.3296         estimate D2E/DX2                !
 ! A6    A(8,1,13)             112.0926         estimate D2E/DX2                !
 ! A7    A(1,2,3)              102.9005         estimate D2E/DX2                !
 ! A8    A(1,2,7)              110.3956         estimate D2E/DX2                !
 ! A9    A(1,2,12)             115.6148         estimate D2E/DX2                !
 ! A10   A(3,2,7)              110.0846         estimate D2E/DX2                !
 ! A11   A(3,2,12)             104.422          estimate D2E/DX2                !
 ! A12   A(7,2,12)             112.6903         estimate D2E/DX2                !
 ! A13   A(2,3,6)              124.663          estimate D2E/DX2                !
 ! A14   A(2,3,11)             120.3578         estimate D2E/DX2                !
 ! A15   A(6,3,11)             114.9792         estimate D2E/DX2                !
 ! A16   A(5,4,9)              109.1258         estimate D2E/DX2                !
 ! A17   A(5,4,11)             110.9604         estimate D2E/DX2                !
 ! A18   A(5,4,15)             115.4142         estimate D2E/DX2                !
 ! A19   A(9,4,11)             103.8797         estimate D2E/DX2                !
 ! A20   A(9,4,15)             111.6031         estimate D2E/DX2                !
 ! A21   A(11,4,15)            105.1984         estimate D2E/DX2                !
 ! A22   A(1,5,4)              113.4237         estimate D2E/DX2                !
 ! A23   A(1,5,10)             108.3649         estimate D2E/DX2                !
 ! A24   A(1,5,14)             111.9515         estimate D2E/DX2                !
 ! A25   A(4,5,10)             108.1451         estimate D2E/DX2                !
 ! A26   A(4,5,14)             103.8179         estimate D2E/DX2                !
 ! A27   A(10,5,14)            111.0626         estimate D2E/DX2                !
 ! A28   A(3,11,4)             120.2664         estimate D2E/DX2                !
 ! A29   A(2,12,19)            114.2842         estimate D2E/DX2                !
 ! A30   A(1,13,23)            115.7394         estimate D2E/DX2                !
 ! A31   A(5,14,27)            114.1473         estimate D2E/DX2                !
 ! A32   A(4,15,16)            106.8183         estimate D2E/DX2                !
 ! A33   A(4,15,17)            109.7269         estimate D2E/DX2                !
 ! A34   A(4,15,18)            108.6834         estimate D2E/DX2                !
 ! A35   A(16,15,17)           107.7351         estimate D2E/DX2                !
 ! A36   A(16,15,18)           112.0873         estimate D2E/DX2                !
 ! A37   A(17,15,18)           111.6629         estimate D2E/DX2                !
 ! A38   A(15,18,31)           112.8528         estimate D2E/DX2                !
 ! A39   A(12,19,20)           105.6576         estimate D2E/DX2                !
 ! A40   A(12,19,21)           110.722          estimate D2E/DX2                !
 ! A41   A(12,19,22)           110.9256         estimate D2E/DX2                !
 ! A42   A(20,19,21)           109.6632         estimate D2E/DX2                !
 ! A43   A(20,19,22)           109.5533         estimate D2E/DX2                !
 ! A44   A(21,19,22)           110.2154         estimate D2E/DX2                !
 ! A45   A(13,23,24)           110.4635         estimate D2E/DX2                !
 ! A46   A(13,23,25)           106.2783         estimate D2E/DX2                !
 ! A47   A(13,23,26)           111.9129         estimate D2E/DX2                !
 ! A48   A(24,23,25)           109.5833         estimate D2E/DX2                !
 ! A49   A(24,23,26)           109.3896         estimate D2E/DX2                !
 ! A50   A(25,23,26)           109.1466         estimate D2E/DX2                !
 ! A51   A(14,27,28)           110.969          estimate D2E/DX2                !
 ! A52   A(14,27,29)           106.2587         estimate D2E/DX2                !
 ! A53   A(14,27,30)           111.8539         estimate D2E/DX2                !
 ! A54   A(28,27,29)           109.5197         estimate D2E/DX2                !
 ! A55   A(28,27,30)           109.0962         estimate D2E/DX2                !
 ! A56   A(29,27,30)           109.0783         estimate D2E/DX2                !
 ! A57   A(18,31,32)           111.228          estimate D2E/DX2                !
 ! A58   A(18,31,33)           106.7369         estimate D2E/DX2                !
 ! A59   A(18,31,34)           111.2546         estimate D2E/DX2                !
 ! A60   A(32,31,33)           109.318          estimate D2E/DX2                !
 ! A61   A(32,31,34)           108.8961         estimate D2E/DX2                !
 ! A62   A(33,31,34)           109.3617         estimate D2E/DX2                !
 ! D1    D(5,1,2,3)             62.3242         estimate D2E/DX2                !
 ! D2    D(5,1,2,7)            179.7773         estimate D2E/DX2                !
 ! D3    D(5,1,2,12)           -50.8276         estimate D2E/DX2                !
 ! D4    D(8,1,2,3)           -176.58           estimate D2E/DX2                !
 ! D5    D(8,1,2,7)            -59.1269         estimate D2E/DX2                !
 ! D6    D(8,1,2,12)            70.2682         estimate D2E/DX2                !
 ! D7    D(13,1,2,3)           -57.2536         estimate D2E/DX2                !
 ! D8    D(13,1,2,7)            60.1995         estimate D2E/DX2                !
 ! D9    D(13,1,2,12)         -170.4054         estimate D2E/DX2                !
 ! D10   D(2,1,5,4)            -25.22           estimate D2E/DX2                !
 ! D11   D(2,1,5,10)          -145.3146         estimate D2E/DX2                !
 ! D12   D(2,1,5,14)            91.8605         estimate D2E/DX2                !
 ! D13   D(8,1,5,4)           -147.1885         estimate D2E/DX2                !
 ! D14   D(8,1,5,10)            92.7169         estimate D2E/DX2                !
 ! D15   D(8,1,5,14)           -30.108          estimate D2E/DX2                !
 ! D16   D(13,1,5,4)            87.8343         estimate D2E/DX2                !
 ! D17   D(13,1,5,10)          -32.2603         estimate D2E/DX2                !
 ! D18   D(13,1,5,14)         -155.0852         estimate D2E/DX2                !
 ! D19   D(2,1,13,23)         -159.9685         estimate D2E/DX2                !
 ! D20   D(5,1,13,23)           81.6855         estimate D2E/DX2                !
 ! D21   D(8,1,13,23)          -41.6699         estimate D2E/DX2                !
 ! D22   D(1,2,3,6)            126.5059         estimate D2E/DX2                !
 ! D23   D(1,2,3,11)           -53.5608         estimate D2E/DX2                !
 ! D24   D(7,2,3,6)              8.8332         estimate D2E/DX2                !
 ! D25   D(7,2,3,11)          -171.2335         estimate D2E/DX2                !
 ! D26   D(12,2,3,6)          -112.3732         estimate D2E/DX2                !
 ! D27   D(12,2,3,11)           67.5601         estimate D2E/DX2                !
 ! D28   D(1,2,12,19)          -75.9086         estimate D2E/DX2                !
 ! D29   D(3,2,12,19)          171.8232         estimate D2E/DX2                !
 ! D30   D(7,2,12,19)           52.361          estimate D2E/DX2                !
 ! D31   D(2,3,11,4)             1.5154         estimate D2E/DX2                !
 ! D32   D(6,3,11,4)          -178.5451         estimate D2E/DX2                !
 ! D33   D(9,4,5,1)             89.1794         estimate D2E/DX2                !
 ! D34   D(9,4,5,10)          -150.6013         estimate D2E/DX2                !
 ! D35   D(9,4,5,14)           -32.5624         estimate D2E/DX2                !
 ! D36   D(11,4,5,1)           -24.6951         estimate D2E/DX2                !
 ! D37   D(11,4,5,10)           95.5243         estimate D2E/DX2                !
 ! D38   D(11,4,5,14)         -146.4368         estimate D2E/DX2                !
 ! D39   D(15,4,5,1)          -144.2219         estimate D2E/DX2                !
 ! D40   D(15,4,5,10)          -24.0025         estimate D2E/DX2                !
 ! D41   D(15,4,5,14)           94.0363         estimate D2E/DX2                !
 ! D42   D(5,4,11,3)            40.475          estimate D2E/DX2                !
 ! D43   D(9,4,11,3)           -76.6588         estimate D2E/DX2                !
 ! D44   D(15,4,11,3)          165.9463         estimate D2E/DX2                !
 ! D45   D(5,4,15,16)          -65.1799         estimate D2E/DX2                !
 ! D46   D(5,4,15,17)          178.3036         estimate D2E/DX2                !
 ! D47   D(5,4,15,18)           55.9438         estimate D2E/DX2                !
 ! D48   D(9,4,15,16)           60.1514         estimate D2E/DX2                !
 ! D49   D(9,4,15,17)          -56.3651         estimate D2E/DX2                !
 ! D50   D(9,4,15,18)         -178.7248         estimate D2E/DX2                !
 ! D51   D(11,4,15,16)         172.1717         estimate D2E/DX2                !
 ! D52   D(11,4,15,17)          55.6552         estimate D2E/DX2                !
 ! D53   D(11,4,15,18)         -66.7046         estimate D2E/DX2                !
 ! D54   D(1,5,14,27)           91.0073         estimate D2E/DX2                !
 ! D55   D(4,5,14,27)         -146.2748         estimate D2E/DX2                !
 ! D56   D(10,5,14,27)         -30.2737         estimate D2E/DX2                !
 ! D57   D(2,12,19,20)        -170.7941         estimate D2E/DX2                !
 ! D58   D(2,12,19,21)         -52.1307         estimate D2E/DX2                !
 ! D59   D(2,12,19,22)          70.5661         estimate D2E/DX2                !
 ! D60   D(1,13,23,24)          58.3197         estimate D2E/DX2                !
 ! D61   D(1,13,23,25)         177.1136         estimate D2E/DX2                !
 ! D62   D(1,13,23,26)         -63.8244         estimate D2E/DX2                !
 ! D63   D(5,14,27,28)          59.9197         estimate D2E/DX2                !
 ! D64   D(5,14,27,29)         178.8997         estimate D2E/DX2                !
 ! D65   D(5,14,27,30)         -62.1662         estimate D2E/DX2                !
 ! D66   D(4,15,18,31)        -179.3641         estimate D2E/DX2                !
 ! D67   D(16,15,18,31)        -61.5342         estimate D2E/DX2                !
 ! D68   D(17,15,18,31)         59.4572         estimate D2E/DX2                !
 ! D69   D(15,18,31,32)        -60.8987         estimate D2E/DX2                !
 ! D70   D(15,18,31,33)        179.9315         estimate D2E/DX2                !
 ! D71   D(15,18,31,34)         60.6938         estimate D2E/DX2                !
 --------------------------------------------------------------------------------
 Trust Radius=3.00D-01 FncErr=1.00D-07 GrdErr=1.00D-06 EigMax=2.50D+02 EigMin=1.00D-04
 Number of steps in this run=    177 maximum allowed number of steps=    204.
 GradGradGradGradGradGradGradGradGradGradGradGradGradGradGradGradGradGrad

 Leave Link  103 at Fri May 24 08:31:44 2019, MaxMem=   402653184 cpu:               0.1 elap:               0.1
 (Enter /n/sw/g16_nehalem/g16/l202.exe)
                          Input orientation:                          
 ---------------------------------------------------------------------
 Center     Atomic      Atomic             Coordinates (Angstroms)
 Number     Number       Type             X           Y           Z
 ---------------------------------------------------------------------
      1          6           0       -1.086243    0.557563    0.670071
      2          6           0       -1.774196   -0.828780    0.652296
      3          6           0       -0.660364   -1.762610    1.055109
      4          6           0        0.650324   -0.778669   -0.706705
      5          6           0        0.059182    0.610818   -0.371237
      6          1           0       -0.718076   -2.479335    1.874139
      7          1           0       -2.580914   -0.864143    1.392476
      8          1           0       -1.810569    1.351781    0.449864
      9          1           0        0.091941   -1.213605   -1.533986
     10          1           0        0.864034    1.235761    0.032394
     11          8           0        0.427636   -1.753999    0.435793
     12          8           0       -2.178723   -1.291330   -0.614438
     13          8           0       -0.606610    0.627681    2.002592
     14          8           0       -0.385821    1.100068   -1.622871
     15          6           0        2.138033   -0.804827   -0.965331
     16          1           0        2.312988   -0.216387   -1.880821
     17          1           0        2.462502   -1.837528   -1.163491
     18          8           0        2.799228   -0.257477    0.150020
     19          6           0       -3.364526   -0.660598   -1.122450
     20          1           0       -3.642363   -1.228529   -2.010989
     21          1           0       -4.175093   -0.708119   -0.385880
     22          1           0       -3.165959    0.379293   -1.399681
     23          6           0       -0.312244    1.939282    2.488088
     24          1           0       -1.203659    2.576965    2.435154
     25          1           0       -0.009876    1.819195    3.529378
     26          1           0        0.505183    2.409038    1.928096
     27          6           0       -0.264572    2.515480   -1.773688
     28          1           0        0.781146    2.833044   -1.672952
     29          1           0       -0.620812    2.747264   -2.778754
     30          1           0       -0.876752    3.058253   -1.042016
     31          6           0        4.213378   -0.225735   -0.006468
     32          1           0        4.622095   -1.237429   -0.136574
     33          1           0        4.620823    0.213761    0.905889
     34          1           0        4.505059    0.389641   -0.869114
 ---------------------------------------------------------------------
                    Distance matrix (angstroms):
                    1          2          3          4          5
     1  C    0.000000
     2  C    1.547754   0.000000
     3  C    2.390153   1.508283   0.000000
     4  C    2.587797   2.779873   2.406248   0.000000
     5  C    1.548921   2.545847   2.861009   1.546823   0.000000
     6  H    3.287564   2.309247   1.089879   3.380169   3.898062
     7  H    2.185671   1.095404   2.146991   3.854188   3.500900
     8  H    1.097234   2.190239   3.374718   3.454340   2.172372
     9  H    3.063172   2.900067   2.751505   1.088740   2.163695
    10  H    2.161056   3.406885   3.515674   2.156355   1.096019
    11  O    2.773091   2.398118   1.251947   1.518605   2.525750
    12  O    2.502375   1.407910   2.305408   2.876602   2.947123
    13  O    1.417948   2.303874   2.571790   3.301211   2.465487
    14  O    2.458147   3.290049   3.929615   2.332940   1.415620
    15  C    3.863496   4.233536   3.581976   1.510248   2.584303
    16  H    4.319817   4.847348   4.455481   2.111673   2.835975
    17  H    4.657467   4.718502   3.831461   2.147982   3.521081
    18  O    4.003952   4.636257   3.879870   2.371372   2.921215
    19  C    3.144459   2.388966   3.642621   4.038045   3.728619
    20  H    4.112415   3.277642   4.310280   4.508957   4.446731
    21  H    3.501139   2.618525   3.942299   4.836585   4.434963
    22  H    2.939536   2.758089   4.109957   4.047852   3.393057
    23  C    2.411101   3.628995   3.984799   4.303545   3.174667
    24  H    2.684639   3.886283   4.586023   4.956694   3.651894
    25  H    3.305438   4.289778   4.401644   5.012899   4.084084
    26  H    2.746493   4.160132   4.418513   4.138202   2.952871
    27  C    3.237366   4.398686   5.144006   3.581467   2.387346
    28  H    3.762275   5.034432   5.535368   3.741018   2.674693
    29  H    4.111668   5.088270   5.919378   4.282683   3.289822
    30  H    3.037858   4.334181   5.261699   4.143231   2.704784
    31  C    5.399745   6.053815   5.219415   3.673067   4.253260
    32  H    6.038029   6.457697   5.440615   4.038623   4.928616
    33  H    5.722273   6.484402   5.640855   4.398891   4.753659
    34  H    5.801719   6.574822   5.917467   4.031167   4.479132
                    6          7          8          9         10
     6  H    0.000000
     7  H    2.512172   0.000000
     8  H    4.230786   2.528293   0.000000
     9  H    3.724717   3.978751   3.759842   0.000000
    10  H    4.438134   4.257592   2.709473   3.008167   0.000000
    11  O    1.976767   3.280009   3.828267   2.069963   3.048252
    12  O    3.120555   2.090921   2.873032   2.451025   4.007861
    13  O    3.111667   2.548658   2.093992   4.047924   2.532634
    14  O    5.015137   4.215314   2.527745   2.364157   2.078570
    15  C    4.361643   5.275532   4.716481   2.162628   2.604329
    16  H    5.329916   5.923203   4.989486   2.459225   2.805101
    17  H    4.444681   5.737289   5.570794   2.479134   3.664744
    18  O    4.503406   5.554968   4.891814   3.328582   2.447156
    19  C    4.392158   2.642032   2.989418   3.524534   4.776040
    20  H    5.020975   3.583717   4.008649   3.764675   5.527726
    21  H    4.493980   2.393387   3.245401   4.447611   5.417234
    22  H    4.988164   3.112001   2.490709   3.628949   4.361791
    23  C    4.479488   3.769141   2.597016   5.126514   2.812295
    24  H    5.110450   3.850355   2.410558   5.639244   3.442011
    25  H    4.660335   4.286827   3.597830   5.903041   3.651440
    26  H    5.039391   4.530408   2.943751   5.027954   2.258105
    27  C    6.201652   5.178020   2.947624   3.753749   2.484626
    28  H    6.561318   5.862550   3.662987   4.107272   2.338031
    29  H    6.998301   5.855205   3.713067   4.212594   3.520222
    30  H    6.260513   4.920987   2.451483   4.407853   2.739739
    31  C    5.738870   6.966133   6.243776   4.505046   3.654530
    32  H    5.839754   7.372969   6.958957   4.740846   4.502026
    33  H    6.057567   7.298196   6.547202   5.338646   3.990105
    34  H    6.560305   7.543062   6.523233   4.742158   3.845218
                   11         12         13         14         15
    11  O    0.000000
    12  O    2.847833   0.000000
    13  O    3.032643   3.605966   0.000000
    14  O    3.611857   3.154397   3.662769   0.000000
    15  C    2.406145   4.358233   4.288789   3.229678   0.000000
    16  H    3.359390   4.789018   4.931268   3.013828   1.102267
    17  H    2.589472   4.705397   5.051810   4.117456   1.100463
    18  O    2.818811   5.141327   3.976840   3.889808   1.407401
    19  C    4.243129   1.435976   4.362528   3.496148   5.506691
    20  H    4.777840   2.023991   5.363781   4.022197   5.889474
    21  H    4.791046   2.092335   4.497025   4.377016   6.340400
    22  H    4.564408   2.093376   4.264672   2.880711   5.451892
    23  C    4.289483   4.852449   1.429215   4.196389   5.045800
    24  H    5.041410   5.021401   2.084055   4.395185   5.845231
    25  H    4.746515   5.616981   2.026542   5.215760   5.630401
    26  H    4.423105   5.230732   2.101158   3.888015   4.622450
    27  C    4.856893   4.415839   4.235690   1.428579   4.177366
    28  H    5.060903   5.185724   4.505454   2.089863   3.946641
    29  H    5.629736   4.839586   5.230115   2.025967   4.849441
    30  H    5.200300   4.560353   3.905163   2.100689   4.900836
    31  C    4.106462   6.508769   5.291212   5.052044   2.358352
    32  H    4.264732   6.817799   5.949288   5.722953   2.654156
    33  H    4.655737   7.128150   5.357251   5.678614   3.271579
    34  H    4.787834   6.896627   5.867923   4.999356   2.653078
                   16         17         18         19         20
    16  H    0.000000
    17  H    1.779049   0.000000
    18  O    2.088644   2.082128   0.000000
    19  C    5.745138   5.944838   6.306627   0.000000
    20  H    6.042150   6.193425   6.863454   1.090523   0.000000
    21  H    6.676215   6.777751   7.009381   1.096272   1.787626
    22  H    5.532196   6.053896   6.196007   1.094376   1.784867
    23  C    5.534087   5.941173   4.469180   5.395534   6.431673
    24  H    6.228745   6.773384   5.411008   5.273301   6.340130
    25  H    6.229731   6.442616   4.860421   6.248404   7.292410
    26  H    4.966776   5.605562   3.941383   5.805441   6.778674
    27  C    3.757445   5.172809   4.558159   4.485677   5.048107
    28  H    3.418886   4.990065   4.116698   5.449329   6.014821
    29  H    4.265758   5.756407   5.413212   4.678123   5.052342
    30  H    4.647720   5.927398   5.091939   4.474968   5.192688
    31  C    2.669226   2.646157   1.423136   7.671972   8.169233
    32  H    3.068697   2.465465   2.089327   8.067887   8.474360
    33  H    3.643746   3.626082   2.027711   8.285195   8.880801
    34  H    2.489176   3.036277   2.089798   7.943397   8.384679
                   21         22         23         24         25
    21  H    0.000000
    22  H    1.796833   0.000000
    23  C    5.494545   5.068728   0.000000
    24  H    5.251612   4.835943   1.097298   0.000000
    25  H    6.250248   6.027421   1.090932   1.787920   0.000000
    26  H    6.080801   5.354554   1.096562   1.790377   1.782500
    27  C    5.254501   3.622323   4.300815   4.312774   5.354642
    28  H    6.225809   4.655664   4.394151   4.569635   5.358903
    29  H    5.504401   3.739907   5.337385   5.249147   6.405239
    30  H    5.049270   3.541923   3.745984   3.525510   4.815016
    31  C    8.410891   7.534037   5.602800   6.569698   5.875357
    32  H    8.816623   8.053758   6.428689   7.423126   6.651113
    33  H    8.937934   8.122624   5.460396   6.469001   5.559090
    34  H    8.762627   7.689351   6.072775   6.949247   6.463358
                   26         27         28         29         30
    26  H    0.000000
    27  C    3.782467   0.000000
    28  H    3.636411   1.097507   0.000000
    29  H    4.851464   1.091233   1.787636   0.000000
    30  H    3.339579   1.097593   1.788135   1.782829   0.000000
    31  C    4.943205   5.539798   4.890145   6.316145   6.145434
    32  H    5.874398   6.375263   5.803628   7.095560   7.036336
    33  H    4.775211   6.028692   5.315466   6.889845   6.489129
    34  H    5.282173   5.299701   4.525914   5.956481   6.009599
                   31         32         33         34
    31  C    0.000000
    32  H    1.098864   0.000000
    33  H    1.091588   1.786808   0.000000
    34  H    1.099056   1.788203   1.787448   0.000000
 Stoichiometry    C10H19O5(1+)
 Framework group  C1[X(C10H19O5)]
 Deg. of freedom    96
 Full point group                 C1      NOp   1
 Largest Abelian subgroup         C1      NOp   1
 Largest concise Abelian subgroup C1      NOp   1
                         Standard orientation:                         
 ---------------------------------------------------------------------
 Center     Atomic      Atomic             Coordinates (Angstroms)
 Number     Number       Type             X           Y           Z
 ---------------------------------------------------------------------
      1          6           0       -1.086243    0.557563    0.670071
      2          6           0       -1.774196   -0.828780    0.652296
      3          6           0       -0.660364   -1.762610    1.055109
      4          6           0        0.650324   -0.778669   -0.706705
      5          6           0        0.059182    0.610818   -0.371237
      6          1           0       -0.718076   -2.479335    1.874139
      7          1           0       -2.580914   -0.864143    1.392476
      8          1           0       -1.810569    1.351781    0.449864
      9          1           0        0.091941   -1.213605   -1.533986
     10          1           0        0.864034    1.235761    0.032394
     11          8           0        0.427636   -1.753999    0.435793
     12          8           0       -2.178723   -1.291330   -0.614438
     13          8           0       -0.606610    0.627681    2.002592
     14          8           0       -0.385821    1.100068   -1.622871
     15          6           0        2.138033   -0.804827   -0.965331
     16          1           0        2.312988   -0.216387   -1.880821
     17          1           0        2.462502   -1.837528   -1.163491
     18          8           0        2.799228   -0.257477    0.150020
     19          6           0       -3.364526   -0.660598   -1.122450
     20          1           0       -3.642363   -1.228529   -2.010989
     21          1           0       -4.175093   -0.708119   -0.385880
     22          1           0       -3.165959    0.379293   -1.399681
     23          6           0       -0.312244    1.939282    2.488088
     24          1           0       -1.203659    2.576965    2.435154
     25          1           0       -0.009876    1.819195    3.529378
     26          1           0        0.505183    2.409038    1.928096
     27          6           0       -0.264572    2.515480   -1.773688
     28          1           0        0.781146    2.833044   -1.672952
     29          1           0       -0.620812    2.747264   -2.778754
     30          1           0       -0.876752    3.058253   -1.042016
     31          6           0        4.213378   -0.225735   -0.006468
     32          1           0        4.622095   -1.237429   -0.136574
     33          1           0        4.620823    0.213761    0.905889
     34          1           0        4.505059    0.389641   -0.869114
 ---------------------------------------------------------------------
 Rotational constants (GHZ):           0.7236620           0.4390438           0.4319850
 Leave Link  202 at Fri May 24 08:31:44 2019, MaxMem=   402653184 cpu:               0.1 elap:               0.0
 (Enter /n/sw/g16_nehalem/g16/l301.exe)
 Standard basis: 6-31G(d) (6D, 7F)
 Ernie: Thresh=  0.10000D-02 Tol=  0.10000D-05 Strict=F.
 There are   263 symmetry adapted cartesian basis functions of A   symmetry.
 There are   263 symmetry adapted basis functions of A   symmetry.
   263 basis functions,   496 primitive gaussians,   263 cartesian basis functions
    59 alpha electrons       59 beta electrons
       nuclear repulsion energy      1179.2168908938 Hartrees.
 IExCor=  402 DFT=T Ex+Corr=B3LYP ExCW=0 ScaHFX=  0.200000
 ScaDFX=  0.800000  0.720000  1.000000  0.810000 ScalE2=  1.000000  1.000000
 IRadAn=      5 IRanWt=     -1 IRanGd=            0 ICorTp=0 IEmpDi=  4
 NAtoms=   34 NActive=   34 NUniq=   34 SFac= 1.00D+00 NAtFMM=   60 NAOKFM=F Big=F
 Integral buffers will be    131072 words long.
 Raffenetti 2 integral format.
 Two-electron integral symmetry is turned on.
 ------------------------------------------------------------------------------
 Polarizable Continuum Model (PCM)
 =================================
 Model                : PCM.
 Atomic radii         : UFF (Universal Force Field).
 Polarization charges : Total charges.
 Charge compensation  : None.
 Solution method      : On-the-fly selection.
 Cavity type          : Scaled VdW (van der Waals Surface) (Alpha=1.100).
 Cavity algorithm     : GePol (No added spheres)
                        Default sphere list used, NSphG=   34.
                        Lebedev-Laikov grids with approx.  5.0 points / Ang**2.
                        Smoothing algorithm: York/Karplus (Gamma=1.0000).
                        Polarization charges: spherical gaussians, with
                                              point-specific exponents (IZeta= 3).
                        Self-potential: point-specific (ISelfS= 7).
                        Self-field    : sphere-specific E.n sum rule (ISelfD= 2).
 1st derivatives      : Analytical E(r).r(x)/FMM algorithm (CHGder, D1EAlg=3).
                        Cavity 1st derivative terms included.
 Solvent              : TetraHydroFuran, Eps=   7.425700 Eps(inf)=   1.974025
 ------------------------------------------------------------------------------
 GePol: Number of generator spheres                  =      34
 GePol: Total number of spheres                      =      34
 GePol: Number of exposed spheres                    =      34 (100.00%)
 GePol: Number of points                             =    2362
 GePol: Average weight of points                     =       0.13
 GePol: Minimum weight of points                     =   0.61D-11
 GePol: Maximum weight of points                     =    0.20577
 GePol: Number of points with low weight             =     164
 GePol: Fraction of low-weight points (<1% of avg)   =       6.94%
 GePol: Cavity surface area                          =    307.108 Ang**2
 GePol: Cavity volume                                =    322.624 Ang**3
 Leave Link  301 at Fri May 24 08:31:44 2019, MaxMem=   402653184 cpu:               0.4 elap:               0.2
 (Enter /n/sw/g16_nehalem/g16/l302.exe)
 NPDir=0 NMtPBC=     1 NCelOv=     1 NCel=       1 NClECP=     1 NCelD=      1
         NCelK=      1 NCelE2=     1 NClLst=     1 CellRange=     0.0.
 One-electron integrals computed using PRISM.
 One-electron integral symmetry used in STVInt
 NBasis=   263 RedAO= T EigKep=  1.50D-03  NBF=   263
 NBsUse=   263 1.00D-06 EigRej= -1.00D+00 NBFU=   263
 Precomputing XC quadrature grid using
 IXCGrd= 4 IRadAn=           5 IRanWt=          -1 IRanGd=           0 AccXCQ= 0.00D+00.
 Generated NRdTot=       0 NPtTot=           0 NUsed=           0 NTot=          32
 NSgBfM=   262   262   262   262   262 MxSgAt=    34 MxSgA2=    34.
 Leave Link  302 at Fri May 24 08:31:44 2019, MaxMem=   402653184 cpu:               2.2 elap:               0.6
 (Enter /n/sw/g16_nehalem/g16/l303.exe)
 DipDrv:  MaxL=1.
 Leave Link  303 at Fri May 24 08:31:44 2019, MaxMem=   402653184 cpu:               0.1 elap:               0.1
 (Enter /n/sw/g16_nehalem/g16/l401.exe)
 ExpMin= 1.61D-01 ExpMax= 5.48D+03 ExpMxC= 8.25D+02 IAcc=3 IRadAn=         5 AccDes= 0.00D+00
 Harris functional with IExCor=  402 and IRadAn=       5 diagonalized for initial guess.
 HarFok:  IExCor=  402 AccDes= 0.00D+00 IRadAn=         5 IDoV= 1 UseB2=F ITyADJ=14
 ICtDFT=  3500011 ScaDFX=  1.000000  1.000000  1.000000  1.000000
 FoFCou: FMM=F IPFlag=           0 FMFlag=      100000 FMFlg1=           0
         NFxFlg=           0 DoJE=T BraDBF=F KetDBF=T FulRan=T
         wScrn=  0.000000 ICntrl=       500 IOpCl=  0 I1Cent=   200000004 NGrid=           0
         NMat0=    1 NMatS0=      1 NMatT0=    0 NMatD0=    1 NMtDS0=    0 NMtDT0=    0
 Petite list used in FoFCou.
 Harris En= -768.255262967032    
 JPrj=0 DoOrth=F DoCkMO=F.
 Leave Link  401 at Fri May 24 08:31:49 2019, MaxMem=   402653184 cpu:              19.7 elap:               4.9
 (Enter /n/sw/g16_nehalem/g16/l502.exe)
 Integral symmetry usage will be decided dynamically.
 Closed shell SCF:
 Using DIIS extrapolation, IDIIS=  1040.
 NGot=   402653184 LenX=   402510103 LenY=   402440493
 Requested convergence on RMS density matrix=1.00D-08 within 128 cycles.
 Requested convergence on MAX density matrix=1.00D-06.
 Requested convergence on             energy=1.00D-06.
 No special actions if energy rises.
 Fock matrices will be formed incrementally for  20 cycles.

 Cycle   1  Pass 1  IDiag  1:
 FoFJK:  IHMeth= 1 ICntrl=       0 DoSepK=F KAlg= 0 I1Cent=           0 FoldK=F
 IRaf= 890000000 NMat=       1 IRICut=       1 DoRegI=T DoRafI=F ISym2E= 0 IDoP0=0 IntGTp=1.
 FoFCou: FMM=F IPFlag=           0 FMFlag=      100000 FMFlg1=           0
         NFxFlg=           0 DoJE=F BraDBF=F KetDBF=F FulRan=T
         wScrn=  0.000000 ICntrl=         0 IOpCl=  0 I1Cent=           0 NGrid=           0
         NMat0=    1 NMatS0=      1 NMatT0=    0 NMatD0=    1 NMtDS0=    0 NMtDT0=    0
 Symmetry not used in FoFCou.
 Inv3:  Mode=1 IEnd=    16737132.
 Iteration    1 A*A^-1 deviation from unit magnitude is 7.99D-15 for    574.
 Iteration    1 A*A^-1 deviation from orthogonality  is 2.81D-15 for   2333   2039.
 Iteration    1 A^-1*A deviation from unit magnitude is 7.55D-15 for    574.
 Iteration    1 A^-1*A deviation from orthogonality  is 2.17D-15 for   2184    570.
 E= -768.094369885392    
 DIIS: error= 2.59D-02 at cycle   1 NSaved=   1.
 NSaved= 1 IEnMin= 1 EnMin= -768.094369885392     IErMin= 1 ErrMin= 2.59D-02
 ErrMax= 2.59D-02  0.00D+00 EMaxC= 1.00D-01 BMatC= 2.50D-01 BMatP= 2.50D-01
 IDIUse=3 WtCom= 7.41D-01 WtEn= 2.59D-01
 Coeff-Com:  0.100D+01
 Coeff-En:   0.100D+01
 Coeff:      0.100D+01
 Gap=     0.024 Goal=   None    Shift=    0.000
 GapD=    0.024 DampG=0.250 DampE=0.500 DampFc=0.2500 IDamp=-1.
 Damping current iteration by 2.50D-01
 RMSDP=4.05D-03 MaxDP=1.00D-01              OVMax= 1.85D-01

 Cycle   2  Pass 1  IDiag  1:
 RMSU=  1.01D-03    CP:  9.95D-01
 E= -768.175621985351     Delta-E=       -0.081252099959 Rises=F Damp=T
 DIIS: error= 1.29D-02 at cycle   2 NSaved=   2.
 NSaved= 2 IEnMin= 2 EnMin= -768.175621985351     IErMin= 2 ErrMin= 1.29D-02
 ErrMax= 1.29D-02  0.00D+00 EMaxC= 1.00D-01 BMatC= 7.20D-02 BMatP= 2.50D-01
 IDIUse=3 WtCom= 8.71D-01 WtEn= 1.29D-01
 Coeff-Com: -0.898D+00 0.190D+01
 Coeff-En:   0.000D+00 0.100D+01
 Coeff:     -0.783D+00 0.178D+01
 Gap=     0.146 Goal=   None    Shift=    0.000
 RMSDP=1.22D-03 MaxDP=2.83D-02 DE=-8.13D-02 OVMax= 1.79D-01

 Cycle   3  Pass 1  IDiag  1:
 RMSU=  9.15D-04    CP:  9.86D-01  1.78D+00
 E= -768.321194517359     Delta-E=       -0.145572532008 Rises=F Damp=F
 DIIS: error= 3.27D-03 at cycle   3 NSaved=   3.
 NSaved= 3 IEnMin= 3 EnMin= -768.321194517359     IErMin= 3 ErrMin= 3.27D-03
 ErrMax= 3.27D-03  0.00D+00 EMaxC= 1.00D-01 BMatC= 9.18D-03 BMatP= 7.20D-02
 IDIUse=3 WtCom= 9.67D-01 WtEn= 3.27D-02
 Coeff-Com: -0.394D+00 0.754D+00 0.640D+00
 Coeff-En:   0.000D+00 0.000D+00 0.100D+01
 Coeff:     -0.381D+00 0.729D+00 0.652D+00
 Gap=     0.130 Goal=   None    Shift=    0.000
 RMSDP=4.38D-04 MaxDP=1.47D-02 DE=-1.46D-01 OVMax= 1.60D-02

 Cycle   4  Pass 1  IDiag  1:
 RMSU=  3.25D-04    CP:  9.89D-01  1.86D+00  6.99D-01
 E= -768.326933338044     Delta-E=       -0.005738820685 Rises=F Damp=F
 DIIS: error= 1.77D-03 at cycle   4 NSaved=   4.
 NSaved= 4 IEnMin= 4 EnMin= -768.326933338044     IErMin= 4 ErrMin= 1.77D-03
 ErrMax= 1.77D-03  0.00D+00 EMaxC= 1.00D-01 BMatC= 2.20D-03 BMatP= 9.18D-03
 IDIUse=3 WtCom= 9.82D-01 WtEn= 1.77D-02
 Coeff-Com: -0.116D+00 0.203D+00 0.341D+00 0.572D+00
 Coeff-En:   0.000D+00 0.000D+00 0.164D+00 0.836D+00
 Coeff:     -0.114D+00 0.199D+00 0.337D+00 0.577D+00
 Gap=     0.130 Goal=   None    Shift=    0.000
 RMSDP=1.57D-04 MaxDP=6.28D-03 DE=-5.74D-03 OVMax= 6.29D-03

 Cycle   5  Pass 1  IDiag  1:
 RMSU=  9.02D-05    CP:  9.88D-01  1.87D+00  7.79D-01  6.79D-01
 E= -768.328662419492     Delta-E=       -0.001729081448 Rises=F Damp=F
 DIIS: error= 3.79D-04 at cycle   5 NSaved=   5.
 NSaved= 5 IEnMin= 5 EnMin= -768.328662419492     IErMin= 5 ErrMin= 3.79D-04
 ErrMax= 3.79D-04  0.00D+00 EMaxC= 1.00D-01 BMatC= 9.30D-05 BMatP= 2.20D-03
 IDIUse=3 WtCom= 9.96D-01 WtEn= 3.79D-03
 Coeff-Com: -0.220D-01 0.331D-01 0.883D-01 0.240D+00 0.660D+00
 Coeff-En:   0.000D+00 0.000D+00 0.000D+00 0.000D+00 0.100D+01
 Coeff:     -0.219D-01 0.330D-01 0.879D-01 0.239D+00 0.662D+00
 Gap=     0.131 Goal=   None    Shift=    0.000
 RMSDP=3.75D-05 MaxDP=1.38D-03 DE=-1.73D-03 OVMax= 2.08D-03

 Cycle   6  Pass 1  IDiag  1:
 RMSU=  2.94D-05    CP:  9.88D-01  1.86D+00  7.81D-01  7.04D-01  7.62D-01
 E= -768.328733192386     Delta-E=       -0.000070772894 Rises=F Damp=F
 DIIS: error= 9.12D-05 at cycle   6 NSaved=   6.
 NSaved= 6 IEnMin= 6 EnMin= -768.328733192386     IErMin= 6 ErrMin= 9.12D-05
 ErrMax= 9.12D-05  0.00D+00 EMaxC= 1.00D-01 BMatC= 6.07D-06 BMatP= 9.30D-05
 IDIUse=1 WtCom= 1.00D+00 WtEn= 0.00D+00
 Coeff-Com: -0.405D-02 0.451D-02 0.223D-01 0.829D-01 0.314D+00 0.581D+00
 Coeff:     -0.405D-02 0.451D-02 0.223D-01 0.829D-01 0.314D+00 0.581D+00
 Gap=     0.131 Goal=   None    Shift=    0.000
 RMSDP=1.19D-05 MaxDP=4.21D-04 DE=-7.08D-05 OVMax= 5.41D-04

 Cycle   7  Pass 1  IDiag  1:
 RMSU=  6.81D-06    CP:  9.88D-01  1.86D+00  7.83D-01  7.20D-01  8.11D-01
                    CP:  7.63D-01
 E= -768.328739273865     Delta-E=       -0.000006081479 Rises=F Damp=F
 DIIS: error= 1.65D-05 at cycle   7 NSaved=   7.
 NSaved= 7 IEnMin= 7 EnMin= -768.328739273865     IErMin= 7 ErrMin= 1.65D-05
 ErrMax= 1.65D-05  0.00D+00 EMaxC= 1.00D-01 BMatC= 2.01D-07 BMatP= 6.07D-06
 IDIUse=1 WtCom= 1.00D+00 WtEn= 0.00D+00
 Coeff-Com: -0.556D-03 0.254D-03 0.307D-02 0.175D-01 0.788D-01 0.204D+00
 Coeff-Com:  0.697D+00
 Coeff:     -0.556D-03 0.254D-03 0.307D-02 0.175D-01 0.788D-01 0.204D+00
 Coeff:      0.697D+00
 Gap=     0.131 Goal=   None    Shift=    0.000
 RMSDP=2.96D-06 MaxDP=1.05D-04 DE=-6.08D-06 OVMax= 2.85D-04

 Cycle   8  Pass 1  IDiag  1:
 RMSU=  2.22D-06    CP:  9.88D-01  1.86D+00  7.84D-01  7.21D-01  8.23D-01
                    CP:  8.04D-01  9.35D-01
 E= -768.328739426906     Delta-E=       -0.000000153041 Rises=F Damp=F
 DIIS: error= 1.71D-05 at cycle   8 NSaved=   8.
 NSaved= 8 IEnMin= 8 EnMin= -768.328739426906     IErMin= 7 ErrMin= 1.65D-05
 ErrMax= 1.71D-05  0.00D+00 EMaxC= 1.00D-01 BMatC= 1.15D-07 BMatP= 2.01D-07
 IDIUse=1 WtCom= 1.00D+00 WtEn= 0.00D+00
 Coeff-Com:  0.113D-03-0.324D-03-0.133D-02-0.101D-02 0.261D-02 0.430D-01
 Coeff-Com:  0.453D+00 0.504D+00
 Coeff:      0.113D-03-0.324D-03-0.133D-02-0.101D-02 0.261D-02 0.430D-01
 Coeff:      0.453D+00 0.504D+00
 Gap=     0.131 Goal=   None    Shift=    0.000
 RMSDP=1.25D-06 MaxDP=7.42D-05 DE=-1.53D-07 OVMax= 1.22D-04

 Cycle   9  Pass 1  IDiag  1:
 RMSU=  7.47D-07    CP:  9.88D-01  1.86D+00  7.84D-01  7.22D-01  8.27D-01
                    CP:  8.18D-01  1.01D+00  7.17D-01
 E= -768.328739521294     Delta-E=       -0.000000094388 Rises=F Damp=F
 DIIS: error= 4.67D-06 at cycle   9 NSaved=   9.
 NSaved= 9 IEnMin= 9 EnMin= -768.328739521294     IErMin= 9 ErrMin= 4.67D-06
 ErrMax= 4.67D-06  0.00D+00 EMaxC= 1.00D-01 BMatC= 8.82D-09 BMatP= 1.15D-07
 IDIUse=1 WtCom= 1.00D+00 WtEn= 0.00D+00
 Coeff-Com:  0.796D-04-0.127D-03-0.112D-02-0.260D-02-0.838D-02-0.145D-02
 Coeff-Com:  0.159D+00 0.269D+00 0.585D+00
 Coeff:      0.796D-04-0.127D-03-0.112D-02-0.260D-02-0.838D-02-0.145D-02
 Coeff:      0.159D+00 0.269D+00 0.585D+00
 Gap=     0.131 Goal=   None    Shift=    0.000
 RMSDP=4.32D-07 MaxDP=2.04D-05 DE=-9.44D-08 OVMax= 4.81D-05

 Cycle  10  Pass 1  IDiag  1:
 RMSU=  2.57D-07    CP:  9.88D-01  1.86D+00  7.84D-01  7.22D-01  8.27D-01
                    CP:  8.24D-01  1.04D+00  7.42D-01  8.16D-01
 E= -768.328739528863     Delta-E=       -0.000000007569 Rises=F Damp=F
 DIIS: error= 1.33D-06 at cycle  10 NSaved=  10.
 NSaved=10 IEnMin=10 EnMin= -768.328739528863     IErMin=10 ErrMin= 1.33D-06
 ErrMax= 1.33D-06  0.00D+00 EMaxC= 1.00D-01 BMatC= 1.16D-09 BMatP= 8.82D-09
 IDIUse=1 WtCom= 1.00D+00 WtEn= 0.00D+00
 Coeff-Com:  0.324D-04-0.370D-04-0.489D-03-0.138D-02-0.536D-02-0.661D-02
 Coeff-Com:  0.268D-01 0.785D-01 0.317D+00 0.591D+00
 Coeff:      0.324D-04-0.370D-04-0.489D-03-0.138D-02-0.536D-02-0.661D-02
 Coeff:      0.268D-01 0.785D-01 0.317D+00 0.591D+00
 Gap=     0.131 Goal=   None    Shift=    0.000
 RMSDP=1.54D-07 MaxDP=4.55D-06 DE=-7.57D-09 OVMax= 1.63D-05

 Cycle  11  Pass 1  IDiag  1:
 RMSU=  7.36D-08    CP:  9.88D-01  1.86D+00  7.84D-01  7.22D-01  8.28D-01
                    CP:  8.26D-01  1.04D+00  7.64D-01  8.69D-01  7.49D-01
 E= -768.328739529949     Delta-E=       -0.000000001086 Rises=F Damp=F
 DIIS: error= 3.09D-07 at cycle  11 NSaved=  11.
 NSaved=11 IEnMin=11 EnMin= -768.328739529949     IErMin=11 ErrMin= 3.09D-07
 ErrMax= 3.09D-07  0.00D+00 EMaxC= 1.00D-01 BMatC= 5.22D-11 BMatP= 1.16D-09
 IDIUse=1 WtCom= 1.00D+00 WtEn= 0.00D+00
 Coeff-Com:  0.401D-05-0.527D-06-0.123D-03-0.374D-03-0.163D-02-0.258D-02
 Coeff-Com: -0.576D-03 0.131D-01 0.895D-01 0.245D+00 0.657D+00
 Coeff:      0.401D-05-0.527D-06-0.123D-03-0.374D-03-0.163D-02-0.258D-02
 Coeff:     -0.576D-03 0.131D-01 0.895D-01 0.245D+00 0.657D+00
 Gap=     0.131 Goal=   None    Shift=    0.000
 RMSDP=4.36D-08 MaxDP=1.40D-06 DE=-1.09D-09 OVMax= 4.37D-06

 Cycle  12  Pass 1  IDiag  1:
 RMSU=  2.97D-08    CP:  9.88D-01  1.86D+00  7.84D-01  7.22D-01  8.28D-01
                    CP:  8.26D-01  1.04D+00  7.68D-01  8.81D-01  7.93D-01
                    CP:  8.93D-01
 E= -768.328739530005     Delta-E=       -0.000000000056 Rises=F Damp=F
 DIIS: error= 1.80D-07 at cycle  12 NSaved=  12.
 NSaved=12 IEnMin=12 EnMin= -768.328739530005     IErMin=12 ErrMin= 1.80D-07
 ErrMax= 1.80D-07  0.00D+00 EMaxC= 1.00D-01 BMatC= 1.28D-11 BMatP= 5.22D-11
 IDIUse=1 WtCom= 1.00D+00 WtEn= 0.00D+00
 Coeff-Com: -0.243D-05 0.502D-05 0.429D-05 0.429D-06-0.891D-04-0.383D-03
 Coeff-Com: -0.412D-02-0.453D-02-0.984D-03 0.429D-01 0.370D+00 0.597D+00
 Coeff:     -0.243D-05 0.502D-05 0.429D-05 0.429D-06-0.891D-04-0.383D-03
 Coeff:     -0.412D-02-0.453D-02-0.984D-03 0.429D-01 0.370D+00 0.597D+00
 Gap=     0.131 Goal=   None    Shift=    0.000
 RMSDP=1.72D-08 MaxDP=4.68D-07 DE=-5.57D-11 OVMax= 1.62D-06

 Cycle  13  Pass 1  IDiag  1:
 RMSU=  8.88D-09    CP:  9.88D-01  1.86D+00  7.84D-01  7.22D-01  8.28D-01
                    CP:  8.26D-01  1.04D+00  7.69D-01  8.88D-01  8.07D-01
                    CP:  9.93D-01  7.47D-01
 E= -768.328739529972     Delta-E=        0.000000000033 Rises=F Damp=F
 DIIS: error= 1.95D-08 at cycle  13 NSaved=  13.
 NSaved=13 IEnMin=12 EnMin= -768.328739530005     IErMin=13 ErrMin= 1.95D-08
 ErrMax= 1.95D-08  0.00D+00 EMaxC= 1.00D-01 BMatC= 2.84D-13 BMatP= 1.28D-11
 IDIUse=1 WtCom= 1.00D+00 WtEn= 0.00D+00
 Coeff-Com: -0.842D-06 0.136D-05 0.833D-05 0.217D-04 0.669D-04 0.433D-04
 Coeff-Com: -0.108D-02-0.192D-02-0.610D-02-0.929D-03 0.666D-01 0.176D+00
 Coeff-Com:  0.767D+00
 Coeff:     -0.842D-06 0.136D-05 0.833D-05 0.217D-04 0.669D-04 0.433D-04
 Coeff:     -0.108D-02-0.192D-02-0.610D-02-0.929D-03 0.666D-01 0.176D+00
 Coeff:      0.767D+00
 Gap=     0.131 Goal=   None    Shift=    0.000
 RMSDP=4.03D-09 MaxDP=9.18D-08 DE= 3.32D-11 OVMax= 5.55D-07

 Error on total polarization charges =  0.01219
 SCF Done:  E(RB3LYP) =  -768.328739530     A.U. after   13 cycles
            NFock= 13  Conv=0.40D-08     -V/T= 2.0091
 KE= 7.614099630457D+02 PE=-4.133928152976D+03 EE= 1.424972559507D+03
 Leave Link  502 at Fri May 24 08:34:05 2019, MaxMem=   402653184 cpu:             540.4 elap:             135.3
 (Enter /n/sw/g16_nehalem/g16/l601.exe)
 Copying SCF densities to generalized density rwf, IOpCl= 0 IROHF=0.

 **********************************************************************

            Population analysis using the SCF density.

 **********************************************************************

 Orbital symmetries:
       Occupied  (A) (A) (A) (A) (A) (A) (A) (A) (A) (A) (A) (A)
                 (A) (A) (A) (A) (A) (A) (A) (A) (A) (A) (A) (A)
                 (A) (A) (A) (A) (A) (A) (A) (A) (A) (A) (A) (A)
                 (A) (A) (A) (A) (A) (A) (A) (A) (A) (A) (A) (A)
                 (A) (A) (A) (A) (A) (A) (A) (A) (A) (A) (A)
       Virtual   (A) (A) (A) (A) (A) (A) (A) (A) (A) (A) (A) (A)
                 (A) (A) (A) (A) (A) (A) (A) (A) (A) (A) (A) (A)
                 (A) (A) (A) (A) (A) (A) (A) (A) (A) (A) (A) (A)
                 (A) (A) (A) (A) (A) (A) (A) (A) (A) (A) (A) (A)
                 (A) (A) (A) (A) (A) (A) (A) (A) (A) (A) (A) (A)
                 (A) (A) (A) (A) (A) (A) (A) (A) (A) (A) (A) (A)
                 (A) (A) (A) (A) (A) (A) (A) (A) (A) (A) (A) (A)
                 (A) (A) (A) (A) (A) (A) (A) (A) (A) (A) (A) (A)
                 (A) (A) (A) (A) (A) (A) (A) (A) (A) (A) (A) (A)
                 (A) (A) (A) (A) (A) (A) (A) (A) (A) (A) (A) (A)
                 (A) (A) (A) (A) (A) (A) (A) (A) (A) (A) (A) (A)
                 (A) (A) (A) (A) (A) (A) (A) (A) (A) (A) (A) (A)
                 (A) (A) (A) (A) (A) (A) (A) (A) (A) (A) (A) (A)
                 (A) (A) (A) (A) (A) (A) (A) (A) (A) (A) (A) (A)
                 (A) (A) (A) (A) (A) (A) (A) (A) (A) (A) (A) (A)
                 (A) (A) (A) (A) (A) (A) (A) (A) (A) (A) (A) (A)
                 (A) (A) (A) (A) (A) (A) (A) (A) (A) (A) (A) (A)
 The electronic state is 1-A.
 Alpha  occ. eigenvalues --  -19.32791 -19.20982 -19.19937 -19.19280 -19.18336
 Alpha  occ. eigenvalues --  -10.39683 -10.31478 -10.31189 -10.29207 -10.29060
 Alpha  occ. eigenvalues --  -10.27466 -10.25883 -10.25557 -10.25223 -10.24623
 Alpha  occ. eigenvalues --   -1.21665  -1.09455  -1.07970  -1.07182  -1.06586
 Alpha  occ. eigenvalues --   -0.86787  -0.85232  -0.77014  -0.74552  -0.73928
 Alpha  occ. eigenvalues --   -0.69959  -0.69339  -0.67940  -0.66249  -0.61428
 Alpha  occ. eigenvalues --   -0.59882  -0.58170  -0.57088  -0.54303  -0.53343
 Alpha  occ. eigenvalues --   -0.51809  -0.50902  -0.50363  -0.50057  -0.49569
 Alpha  occ. eigenvalues --   -0.48331  -0.47631  -0.46673  -0.46134  -0.45634
 Alpha  occ. eigenvalues --   -0.43561  -0.43008  -0.42210  -0.41979  -0.40384
 Alpha  occ. eigenvalues --   -0.39527  -0.37379  -0.36319  -0.36033  -0.35047
 Alpha  occ. eigenvalues --   -0.32039  -0.31070  -0.28992  -0.28261
 Alpha virt. eigenvalues --   -0.15185   0.00731   0.04234   0.05700   0.06405
 Alpha virt. eigenvalues --    0.07282   0.07899   0.09871   0.10488   0.11079
 Alpha virt. eigenvalues --    0.11365   0.11928   0.12592   0.13002   0.13335
 Alpha virt. eigenvalues --    0.13771   0.14417   0.14607   0.15072   0.15381
 Alpha virt. eigenvalues --    0.15901   0.16219   0.16592   0.16642   0.17162
 Alpha virt. eigenvalues --    0.18452   0.19221   0.21174   0.21994   0.22482
 Alpha virt. eigenvalues --    0.22728   0.23655   0.27217   0.28240   0.30071
 Alpha virt. eigenvalues --    0.45033   0.46496   0.47188   0.47656   0.48200
 Alpha virt. eigenvalues --    0.48527   0.50044   0.50330   0.50970   0.51671
 Alpha virt. eigenvalues --    0.52440   0.53296   0.54021   0.55225   0.55890
 Alpha virt. eigenvalues --    0.56380   0.56725   0.57862   0.59153   0.60418
 Alpha virt. eigenvalues --    0.62161   0.62558   0.65255   0.69610   0.71635
 Alpha virt. eigenvalues --    0.72441   0.73969   0.74617   0.77039   0.78903
 Alpha virt. eigenvalues --    0.79230   0.80407   0.80551   0.81579   0.82469
 Alpha virt. eigenvalues --    0.83374   0.83834   0.84583   0.85413   0.86215
 Alpha virt. eigenvalues --    0.86468   0.87727   0.88075   0.89241   0.89924
 Alpha virt. eigenvalues --    0.90838   0.91574   0.93063   0.93487   0.94476
 Alpha virt. eigenvalues --    0.94838   0.96050   0.97683   0.99410   1.01068
 Alpha virt. eigenvalues --    1.03513   1.05819   1.06873   1.07690   1.09894
 Alpha virt. eigenvalues --    1.12874   1.15563   1.17261   1.19949   1.21202
 Alpha virt. eigenvalues --    1.23843   1.27177   1.27443   1.30321   1.31312
 Alpha virt. eigenvalues --    1.34664   1.36741   1.38091   1.40267   1.42872
 Alpha virt. eigenvalues --    1.43675   1.45311   1.47463   1.48868   1.49459
 Alpha virt. eigenvalues --    1.49767   1.54038   1.56668   1.57775   1.60497
 Alpha virt. eigenvalues --    1.62622   1.64624   1.65843   1.67282   1.71568
 Alpha virt. eigenvalues --    1.75857   1.76038   1.77854   1.80828   1.82572
 Alpha virt. eigenvalues --    1.85847   1.87700   1.90486   1.91194   1.92416
 Alpha virt. eigenvalues --    1.93923   1.96943   1.97762   1.98847   1.99940
 Alpha virt. eigenvalues --    2.01162   2.02753   2.03566   2.03657   2.04400
 Alpha virt. eigenvalues --    2.06707   2.07640   2.08227   2.10371   2.11114
 Alpha virt. eigenvalues --    2.12159   2.12626   2.15140   2.16215   2.18305
 Alpha virt. eigenvalues --    2.18726   2.19671   2.22514   2.24788   2.28425
 Alpha virt. eigenvalues --    2.28752   2.29550   2.32995   2.35478   2.37363
 Alpha virt. eigenvalues --    2.37563   2.37906   2.42681   2.44902   2.48048
 Alpha virt. eigenvalues --    2.51164   2.53092   2.56635   2.56691   2.61858
 Alpha virt. eigenvalues --    2.64139   2.64942   2.68338   2.74858   2.76961
 Alpha virt. eigenvalues --    2.80792   2.81777   2.83805   2.86736   2.93229
 Alpha virt. eigenvalues --    2.96099   2.96540   3.03729   3.08177   3.79910
 Alpha virt. eigenvalues --    3.88308   3.97384   3.99462   4.12041   4.17205
 Alpha virt. eigenvalues --    4.21024   4.22462   4.24663   4.25676   4.32563
 Alpha virt. eigenvalues --    4.36196   4.54106   4.57646   4.71850
          Condensed to atoms (all electrons):
               1          2          3          4          5          6
     1  C    5.147483   0.296544  -0.038597  -0.044025   0.269181   0.004061
     2  C    0.296544   5.005558   0.293866  -0.012585  -0.022899  -0.037945
     3  C   -0.038597   0.293866   4.754291  -0.030559  -0.029809   0.364754
     4  C   -0.044025  -0.012585  -0.030559   5.077938   0.320421   0.003051
     5  C    0.269181  -0.022899  -0.029809   0.320421   5.020975  -0.000179
     6  H    0.004061  -0.037945   0.364754   0.003051  -0.000179   0.425119
     7  H   -0.049057   0.362884  -0.033845   0.000642   0.005188  -0.001866
     8  H    0.376129  -0.035374   0.006652   0.003649  -0.052580  -0.000099
     9  H   -0.003613  -0.000449  -0.003604   0.355443  -0.034442  -0.000121
    10  H   -0.052829   0.003144   0.001451  -0.046693   0.362523   0.000023
    11  O   -0.004750  -0.026768   0.398574   0.111939  -0.022373  -0.037953
    12  O   -0.047000   0.203896  -0.029301  -0.001337   0.003217   0.001971
    13  O    0.150288  -0.052292   0.028052   0.003295  -0.035714  -0.000589
    14  O   -0.027643  -0.000747   0.000363  -0.036353   0.177289   0.000001
    15  C    0.001932   0.000279   0.001780   0.349796  -0.026626  -0.000149
    16  H    0.000164  -0.000002  -0.000086  -0.034185  -0.007086   0.000003
    17  H   -0.000136   0.000008   0.000081  -0.027085   0.004990  -0.000015
    18  O   -0.000077  -0.000031   0.000449  -0.052168  -0.006168   0.000015
    19  C   -0.002885  -0.039250   0.005105   0.000077  -0.000412  -0.000127
    20  H   -0.000105   0.004959  -0.000244   0.000020  -0.000006   0.000004
    21  H   -0.001864  -0.007736   0.000058   0.000017   0.000120  -0.000003
    22  H    0.005761  -0.005092   0.000021  -0.000065  -0.001687   0.000004
    23  C   -0.031652   0.004521  -0.000492   0.000078  -0.004089   0.000029
    24  H   -0.008351  -0.000204   0.000182   0.000004  -0.001102   0.000001
    25  H    0.004552  -0.000172  -0.000059  -0.000001  -0.000026  -0.000002
    26  H   -0.004227   0.000077  -0.000092  -0.000003   0.004110  -0.000003
    27  C   -0.002733   0.000094  -0.000004   0.004433  -0.034032   0.000000
    28  H   -0.000913  -0.000016   0.000002   0.000169  -0.008583   0.000000
    29  H   -0.000068   0.000005   0.000000  -0.000218   0.005075   0.000000
    30  H    0.003398  -0.000013  -0.000003  -0.000045  -0.004428   0.000000
    31  C    0.000001   0.000000  -0.000003   0.005696   0.000214   0.000000
    32  H    0.000000   0.000000   0.000000   0.000086   0.000016   0.000000
    33  H    0.000000   0.000000   0.000000  -0.000268   0.000006   0.000000
    34  H   -0.000002   0.000000   0.000001  -0.000031  -0.000066   0.000000
               7          8          9         10         11         12
     1  C   -0.049057   0.376129  -0.003613  -0.052829  -0.004750  -0.047000
     2  C    0.362884  -0.035374  -0.000449   0.003144  -0.026768   0.203896
     3  C   -0.033845   0.006652  -0.003604   0.001451   0.398574  -0.029301
     4  C    0.000642   0.003649   0.355443  -0.046693   0.111939  -0.001337
     5  C    0.005188  -0.052580  -0.034442   0.362523  -0.022373   0.003217
     6  H   -0.001866  -0.000099  -0.000121   0.000023  -0.037953   0.001971
     7  H    0.529947  -0.005278   0.000110  -0.000157   0.002527  -0.031000
     8  H   -0.005278   0.527907  -0.000057   0.000305  -0.000057  -0.000479
     9  H    0.000110  -0.000057   0.461320   0.004441  -0.021597   0.011334
    10  H   -0.000157   0.000305   0.004441   0.545105   0.000453   0.000072
    11  O    0.002527  -0.000057  -0.021597   0.000453   7.930391  -0.002576
    12  O   -0.031000  -0.000479   0.011334   0.000072  -0.002576   8.244306
    13  O    0.005724  -0.026510   0.000010   0.000383  -0.004755   0.001550
    14  O   -0.000147   0.000572   0.004609  -0.028788   0.001035   0.000634
    15  C    0.000024  -0.000105  -0.028217  -0.009787  -0.035251   0.000535
    16  H    0.000000  -0.000002   0.001418  -0.000949   0.003170  -0.000002
    17  H    0.000000   0.000002  -0.000903   0.000771  -0.003033  -0.000004
    18  O    0.000000  -0.000004   0.002103   0.017719   0.003161  -0.000001
    19  C   -0.004445   0.001677  -0.000337  -0.000030   0.000036   0.230447
    20  H    0.000001  -0.000034  -0.000063   0.000000   0.000002  -0.030509
    21  H    0.010015   0.000024   0.000053   0.000001  -0.000002  -0.032451
    22  H   -0.001743   0.001284   0.000115   0.000060  -0.000012  -0.035747
    23  C   -0.000172  -0.003940   0.000001   0.002744   0.000046  -0.000058
    24  H   -0.000100   0.009817   0.000000   0.000102  -0.000006   0.000001
    25  H   -0.000010  -0.000015   0.000000  -0.000126   0.000007   0.000000
    26  H    0.000036  -0.001591   0.000000   0.003201   0.000008   0.000003
    27  C   -0.000003   0.002368  -0.000041  -0.005527  -0.000047   0.000013
    28  H   -0.000001   0.000094   0.000080   0.010379  -0.000002  -0.000002
    29  H    0.000000  -0.000147  -0.000028   0.000000   0.000000   0.000000
    30  H    0.000009   0.002129   0.000018  -0.001344   0.000004   0.000002
    31  C    0.000000   0.000000  -0.000132  -0.000439  -0.000030   0.000000
    32  H    0.000000   0.000000   0.000005   0.000072  -0.000026   0.000000
    33  H    0.000000   0.000000   0.000002  -0.000028   0.000001   0.000000
    34  H    0.000000   0.000000   0.000009  -0.000058   0.000007   0.000000
              13         14         15         16         17         18
     1  C    0.150288  -0.027643   0.001932   0.000164  -0.000136  -0.000077
     2  C   -0.052292  -0.000747   0.000279  -0.000002   0.000008  -0.000031
     3  C    0.028052   0.000363   0.001780  -0.000086   0.000081   0.000449
     4  C    0.003295  -0.036353   0.349796  -0.034185  -0.027085  -0.052168
     5  C   -0.035714   0.177289  -0.026626  -0.007086   0.004990  -0.006168
     6  H   -0.000589   0.000001  -0.000149   0.000003  -0.000015   0.000015
     7  H    0.005724  -0.000147   0.000024   0.000000   0.000000   0.000000
     8  H   -0.026510   0.000572  -0.000105  -0.000002   0.000002  -0.000004
     9  H    0.000010   0.004609  -0.028217   0.001418  -0.000903   0.002103
    10  H    0.000383  -0.028788  -0.009787  -0.000949   0.000771   0.017719
    11  O   -0.004755   0.001035  -0.035251   0.003170  -0.003033   0.003161
    12  O    0.001550   0.000634   0.000535  -0.000002  -0.000004  -0.000001
    13  O    8.291029   0.001496  -0.000140  -0.000003   0.000003   0.000031
    14  O    0.001496   8.254949   0.000239   0.003432  -0.000026   0.000125
    15  C   -0.000140   0.000239   4.885511   0.355239   0.354066   0.238930
    16  H   -0.000003   0.003432   0.355239   0.576834  -0.044966  -0.036825
    17  H    0.000003  -0.000026   0.354066  -0.044966   0.574748  -0.039110
    18  O    0.000031   0.000125   0.238930  -0.036825  -0.039110   8.208923
    19  C    0.000023  -0.001186  -0.000006   0.000000   0.000000   0.000000
    20  H    0.000000  -0.000004   0.000000   0.000000   0.000000   0.000000
    21  H    0.000008   0.000054   0.000001   0.000000   0.000000   0.000000
    22  H   -0.000038   0.006535  -0.000007   0.000000   0.000000   0.000000
    23  C    0.233296   0.000005  -0.000006   0.000000   0.000000   0.000009
    24  H   -0.034537   0.000029  -0.000001   0.000000   0.000000   0.000000
    25  H   -0.030163   0.000001   0.000000   0.000000   0.000000  -0.000002
    26  H   -0.036273  -0.000317   0.000019   0.000002  -0.000001  -0.000029
    27  C   -0.000023   0.233955  -0.000086   0.000030   0.000005  -0.000007
    28  H    0.000029  -0.034834   0.000091   0.000013  -0.000003  -0.000057
    29  H    0.000001  -0.030736   0.000009  -0.000011   0.000000   0.000000
    30  H   -0.000325  -0.036218  -0.000010   0.000027   0.000000   0.000001
    31  C    0.000001  -0.000006  -0.040790  -0.004049  -0.004371   0.245402
    32  H    0.000000   0.000000  -0.007718  -0.002104   0.011045  -0.035647
    33  H    0.000000   0.000000   0.005591  -0.000113  -0.000126  -0.031610
    34  H    0.000000  -0.000001  -0.007275   0.010791  -0.002163  -0.036314
              19         20         21         22         23         24
     1  C   -0.002885  -0.000105  -0.001864   0.005761  -0.031652  -0.008351
     2  C   -0.039250   0.004959  -0.007736  -0.005092   0.004521  -0.000204
     3  C    0.005105  -0.000244   0.000058   0.000021  -0.000492   0.000182
     4  C    0.000077   0.000020   0.000017  -0.000065   0.000078   0.000004
     5  C   -0.000412  -0.000006   0.000120  -0.001687  -0.004089  -0.001102
     6  H   -0.000127   0.000004  -0.000003   0.000004   0.000029   0.000001
     7  H   -0.004445   0.000001   0.010015  -0.001743  -0.000172  -0.000100
     8  H    0.001677  -0.000034   0.000024   0.001284  -0.003940   0.009817
     9  H   -0.000337  -0.000063   0.000053   0.000115   0.000001   0.000000
    10  H   -0.000030   0.000000   0.000001   0.000060   0.002744   0.000102
    11  O    0.000036   0.000002  -0.000002  -0.000012   0.000046  -0.000006
    12  O    0.230447  -0.030509  -0.032451  -0.035747  -0.000058   0.000001
    13  O    0.000023   0.000000   0.000008  -0.000038   0.233296  -0.034537
    14  O   -0.001186  -0.000004   0.000054   0.006535   0.000005   0.000029
    15  C   -0.000006   0.000000   0.000001  -0.000007  -0.000006  -0.000001
    16  H    0.000000   0.000000   0.000000   0.000000   0.000000   0.000000
    17  H    0.000000   0.000000   0.000000   0.000000   0.000000   0.000000
    18  O    0.000000   0.000000   0.000000   0.000000   0.000009   0.000000
    19  C    4.913969   0.385955   0.367994   0.366825   0.000001  -0.000003
    20  H    0.385955   0.502326  -0.026745  -0.029510   0.000000   0.000000
    21  H    0.367994  -0.026745   0.558789  -0.039674  -0.000001   0.000001
    22  H    0.366825  -0.029510  -0.039674   0.557044   0.000012   0.000002
    23  C    0.000001   0.000000  -0.000001   0.000012   4.898933   0.371819
    24  H   -0.000003   0.000000   0.000001   0.000002   0.371819   0.564892
    25  H    0.000000   0.000000   0.000000   0.000000   0.385887  -0.027805
    26  H    0.000000   0.000000   0.000000  -0.000001   0.365525  -0.043132
    27  C    0.000052   0.000000  -0.000004   0.000061  -0.000053  -0.000036
    28  H   -0.000001   0.000000   0.000000   0.000037  -0.000028   0.000004
    29  H   -0.000003   0.000001   0.000000  -0.000016   0.000002   0.000000
    30  H    0.000035   0.000000   0.000000  -0.000199   0.000174   0.000118
    31  C    0.000000   0.000000   0.000000   0.000000   0.000000   0.000000
    32  H    0.000000   0.000000   0.000000   0.000000   0.000000   0.000000
    33  H    0.000000   0.000000   0.000000   0.000000   0.000000   0.000000
    34  H    0.000000   0.000000   0.000000   0.000000   0.000000   0.000000
              25         26         27         28         29         30
     1  C    0.004552  -0.004227  -0.002733  -0.000913  -0.000068   0.003398
     2  C   -0.000172   0.000077   0.000094  -0.000016   0.000005  -0.000013
     3  C   -0.000059  -0.000092  -0.000004   0.000002   0.000000  -0.000003
     4  C   -0.000001  -0.000003   0.004433   0.000169  -0.000218  -0.000045
     5  C   -0.000026   0.004110  -0.034032  -0.008583   0.005075  -0.004428
     6  H   -0.000002  -0.000003   0.000000   0.000000   0.000000   0.000000
     7  H   -0.000010   0.000036  -0.000003  -0.000001   0.000000   0.000009
     8  H   -0.000015  -0.001591   0.002368   0.000094  -0.000147   0.002129
     9  H    0.000000   0.000000  -0.000041   0.000080  -0.000028   0.000018
    10  H   -0.000126   0.003201  -0.005527   0.010379   0.000000  -0.001344
    11  O    0.000007   0.000008  -0.000047  -0.000002   0.000000   0.000004
    12  O    0.000000   0.000003   0.000013  -0.000002   0.000000   0.000002
    13  O   -0.030163  -0.036273  -0.000023   0.000029   0.000001  -0.000325
    14  O    0.000001  -0.000317   0.233955  -0.034834  -0.030736  -0.036218
    15  C    0.000000   0.000019  -0.000086   0.000091   0.000009  -0.000010
    16  H    0.000000   0.000002   0.000030   0.000013  -0.000011   0.000027
    17  H    0.000000  -0.000001   0.000005  -0.000003   0.000000   0.000000
    18  O   -0.000002  -0.000029  -0.000007  -0.000057   0.000000   0.000001
    19  C    0.000000   0.000000   0.000052  -0.000001  -0.000003   0.000035
    20  H    0.000000   0.000000   0.000000   0.000000   0.000001   0.000000
    21  H    0.000000   0.000000  -0.000004   0.000000   0.000000   0.000000
    22  H    0.000000  -0.000001   0.000061   0.000037  -0.000016  -0.000199
    23  C    0.385887   0.365525  -0.000053  -0.000028   0.000002   0.000174
    24  H   -0.027805  -0.043132  -0.000036   0.000004   0.000000   0.000118
    25  H    0.508586  -0.029873   0.000002   0.000000   0.000000  -0.000002
    26  H   -0.029873   0.574854   0.000070   0.000024  -0.000003   0.000389
    27  C    0.000002   0.000070   4.905158   0.369704   0.386265   0.365355
    28  H    0.000000   0.000024   0.369704   0.570717  -0.028275  -0.044258
    29  H    0.000000  -0.000003   0.386265  -0.028275   0.513066  -0.030762
    30  H   -0.000002   0.000389   0.365355  -0.044258  -0.030762   0.586145
    31  C    0.000000   0.000001  -0.000001   0.000006   0.000000   0.000000
    32  H    0.000000   0.000000   0.000000   0.000000   0.000000   0.000000
    33  H    0.000000   0.000001   0.000000   0.000000   0.000000   0.000000
    34  H    0.000000   0.000000   0.000000   0.000010   0.000000   0.000000
              31         32         33         34
     1  C    0.000001   0.000000   0.000000  -0.000002
     2  C    0.000000   0.000000   0.000000   0.000000
     3  C   -0.000003   0.000000   0.000000   0.000001
     4  C    0.005696   0.000086  -0.000268  -0.000031
     5  C    0.000214   0.000016   0.000006  -0.000066
     6  H    0.000000   0.000000   0.000000   0.000000
     7  H    0.000000   0.000000   0.000000   0.000000
     8  H    0.000000   0.000000   0.000000   0.000000
     9  H   -0.000132   0.000005   0.000002   0.000009
    10  H   -0.000439   0.000072  -0.000028  -0.000058
    11  O   -0.000030  -0.000026   0.000001   0.000007
    12  O    0.000000   0.000000   0.000000   0.000000
    13  O    0.000001   0.000000   0.000000   0.000000
    14  O   -0.000006   0.000000   0.000000  -0.000001
    15  C   -0.040790  -0.007718   0.005591  -0.007275
    16  H   -0.004049  -0.002104  -0.000113   0.010791
    17  H   -0.004371   0.011045  -0.000126  -0.002163
    18  O    0.245402  -0.035647  -0.031610  -0.036314
    19  C    0.000000   0.000000   0.000000   0.000000
    20  H    0.000000   0.000000   0.000000   0.000000
    21  H    0.000000   0.000000   0.000000   0.000000
    22  H    0.000000   0.000000   0.000000   0.000000
    23  C    0.000000   0.000000   0.000000   0.000000
    24  H    0.000000   0.000000   0.000000   0.000000
    25  H    0.000000   0.000000   0.000000   0.000000
    26  H    0.000001   0.000000   0.000001   0.000000
    27  C   -0.000001   0.000000   0.000000   0.000000
    28  H    0.000006   0.000000   0.000000   0.000010
    29  H    0.000000   0.000000   0.000000   0.000000
    30  H    0.000000   0.000000   0.000000   0.000000
    31  C    4.887095   0.367589   0.385739   0.368623
    32  H    0.367589   0.585334  -0.030576  -0.044898
    33  H    0.385739  -0.030576   0.524028  -0.030523
    34  H    0.368623  -0.044898  -0.030523   0.585666
 Mulliken charges:
               1
     1  C    0.061033
     2  C    0.065741
     3  C    0.311018
     4  C    0.048864
     5  C    0.118981
     6  H    0.280014
     7  H    0.210716
     8  H    0.193662
     9  H    0.252535
    10  H    0.193806
    11  O   -0.292123
    12  O   -0.487514
    13  O   -0.493856
    14  O   -0.488317
    15  C   -0.037867
    16  H    0.179261
    17  H    0.176224
    18  O   -0.478818
    19  C   -0.223512
    20  H    0.193955
    21  H    0.171347
    22  H    0.176029
    23  C   -0.222591
    24  H    0.168306
    25  H    0.189222
    26  H    0.167223
    27  C   -0.224969
    28  H    0.165615
    29  H    0.185843
    30  H    0.159804
    31  C   -0.210547
    32  H    0.156819
    33  H    0.177876
    34  H    0.156222
 Sum of Mulliken charges =   1.00000
 Mulliken charges with hydrogens summed into heavy atoms:
               1
     1  C    0.254695
     2  C    0.276456
     3  C    0.591032
     4  C    0.301399
     5  C    0.312786
    11  O   -0.292123
    12  O   -0.487514
    13  O   -0.493856
    14  O   -0.488317
    15  C    0.317617
    18  O   -0.478818
    19  C    0.317819
    23  C    0.302159
    27  C    0.286293
    31  C    0.280371
 Electronic spatial extent (au):  <R**2>=           3281.0790
 Charge=              1.0000 electrons
 Dipole moment (field-independent basis, Debye):
    X=             -1.7955    Y=             -0.8280    Z=              1.0659  Tot=              2.2462
 Quadrupole moment (field-independent basis, Debye-Ang):
   XX=            -60.1810   YY=            -67.8948   ZZ=            -76.9587
   XY=              0.5801   XZ=             -5.1827   YZ=             -2.6997
 Traceless Quadrupole moment (field-independent basis, Debye-Ang):
   XX=              8.1638   YY=              0.4501   ZZ=             -8.6139
   XY=              0.5801   XZ=             -5.1827   YZ=             -2.6997
 Octapole moment (field-independent basis, Debye-Ang**2):
  XXX=             11.8467  YYY=              1.0664  ZZZ=             12.4279  XYY=             -6.8302
[...]
 633,-0.00006473,0.00005781,-0.00002589,-0.00000949,-0.00001198,-0.0000
 2374,0.00001433,-0.00000298,0.00002082,0.00002355,0.00001132,-0.000120
 70,-0.00032859,-0.00010566,-0.00002422,0.00004370,0.00002291,0.0000186
 5,0.00005126,0.00001423,0.00007141,0.00003221,-0.00002078,0.01333718,-
 0.05543637,0.03659327,-0.00119542,0.00336045,-0.00781778,-0.01838914,0
 .07305600,-0.00009517,-0.00005037,0.00036379,-0.00010683,-0.00006721,-
 0.00008803,-0.00006708,-0.00004645,0.00006553,0.00016991,-0.00008509,-
 0.00012361,0.00075048,-0.00043926,0.00247901,-0.00000727,-0.00000663,-
 0.00001019,0.00002605,0.00004419,-0.00000395,-0.00017410,-0.00008149,0
 .00009531,-0.00002876,0.00000246,-0.00000925,0.00023496,0.00003173,0.0
 0013030,0.00001756,0.00018104,-0.00009644,0.00018296,0.00002007,0.0000
 9444,-0.00003463,-0.00002661,-0.00027225,-0.00046697,0.00492546,-0.001
 25039,0.00007959,0.00005408,0.00000417,0.00001684,-0.00001199,-0.00001
 322,-0.00005339,0.00000995,-0.00000675,-0.00012904,0.00001306,-0.00001
 437,-0.00012991,0.00005629,-0.00004845,0.00001250,0.00000679,0.0000085
 1,0.00001457,-0.00001228,-0.00000118,-0.00003631,-0.00000971,-0.000004
 96,0.00000248,0.00009967,0.00007044,-0.00001373,-0.00001741,0.00000989
 ,0.00000621,0.00001004,-0.00002867,0.00005359,-0.00000461,0.00001247,-
 0.08485802,0.04847946,-0.29014914,-0.00000649,-0.00082785,0.00001588,0
 .09225896,-0.05555544,0.30688038,-0.00018956,-0.00009580,-0.00050723,0
 .00010267,0.00003252,0.00009133,-0.00010225,0.00000726,0.00001723,-0.0
 0006339,-0.00024547,-0.00001028,0.00053211,-0.00000818,0.00100526,0.00
 001790,-0.00000481,0.00000837,-0.00000712,-0.00001243,-0.00000137,-0.0
 0005628,-0.00037682,0.00018894,0.00004576,-0.00004929,0.00001225,-0.00
 046334,-0.00010117,0.00002875,0.00007776,0.00012489,-0.00008733,-0.000
 00822,0.00001837,-0.00007051,0.00003070,0.00009841,-0.00016423,0.00773
 073,-0.00009526,-0.00614082,0.00001442,-0.00005809,0.00005823,-0.00000
 126,0.00001110,-0.00002518,0.00000380,0.00001786,-0.00001733,-0.000030
 57,0.00002911,-0.00004429,0.00003576,-0.00005449,0.00003115,0.00000002
 ,0.00001561,-0.00000535,0.00000345,0.00001637,-0.00000584,-0.00006203,
 0.00000715,-0.00001870,0.00010228,0.00034779,0.00005796,0.00005453,-0.
 00000172,-0.00001640,-0.00004314,-0.00005864,0.00001801,-0.00025807,0.
 00004201,-0.00024318,-0.13917136,0.06543874,0.10041129,-0.01682516,0.0
 1384945,0.02249973,0.00759239,-0.00603386,-0.00767206,0.14091907,0.000
 71434,-0.00077838,0.00061150,-0.00018024,0.00009596,-0.00024433,0.0004
 0368,0.00003945,-0.00022411,-0.00003684,0.00044749,-0.00022161,-0.0011
 0661,0.00245431,-0.00567530,-0.00007576,0.00003217,0.00003331,-0.00004
 006,-0.00003972,0.00002239,-0.00079831,-0.00016734,0.00032310,-0.00008
 231,0.00026857,0.00029341,0.00024863,-0.00015531,0.00069801,-0.0000621
 5,-0.00067384,0.00069738,-0.00025684,-0.00001645,0.00007962,-0.0003630
 6,0.00022164,0.00040473,0.01773601,-0.03762060,-0.01856785,-0.00018468
 ,0.00000785,-0.00013079,-0.00008781,0.00001495,0.00006631,0.00005993,-
 0.00002000,0.00003053,0.00029591,0.00001772,0.00008215,0.00013813,-0.0
 0004515,0.00008022,-0.00000486,0.00001044,-0.00001067,-0.00003122,-0.0
 0000429,0.00000793,0.00008327,-0.00001772,-0.00004861,0.00028117,-0.00
 057946,0.00045149,-0.00007180,0.00005522,0.00002285,-0.00000874,0.0000
 5885,0.00000766,-0.00002158,0.00009211,-0.00007410,0.06423404,-0.10011
 742,-0.07457925,-0.00364475,0.00684735,0.00520643,-0.00419689,0.005202
 91,0.00330235,-0.07285032,0.12439091,0.00113630,-0.00001918,0.00040384
 ,-0.00009422,0.00007864,0.00017803,0.00013519,0.00010055,-0.00002489,-
 0.00001896,0.00011447,0.00008442,-0.00213414,0.00057636,0.00100721,-0.
 00000802,0.00000353,-0.00002067,-0.00004058,-0.00007383,0.00000511,0.0
 0024388,0.00029157,-0.00041477,-0.00001781,0.00007977,-0.00012996,-0.0
 0013808,0.00023942,0.00011225,-0.00010625,-0.00017096,0.00003125,-0.00
 019188,-0.00002396,-0.00010851,-0.00026741,-0.00014388,0.00041869,-0.0
 0428997,0.00129493,0.00871448,-0.00008689,-0.00006384,-0.00002950,-0.0
 0002708,0.00000869,0.00001769,0.00004666,-0.00000817,0.00000668,0.0001
 0590,0.00000115,0.00003982,0.00012286,-0.00010045,0.00006248,-0.000004
 38,0.00001537,-0.00000905,-0.00001518,0.00000615,0.00000716,0.00003575
 ,-0.00000398,-0.00002604,-0.00017054,-0.00001241,-0.00134034,-0.000041
 84,0.00003445,-0.00004910,0.00000259,0.00001414,0.00002642,-0.00021866
 ,-0.00006158,0.00030076,0.09979181,-0.07831716,-0.17438028,-0.00281466
 ,0.00203127,0.00322432,0.01851268,-0.01323191,-0.01810628,-0.10940733,
 0.08734339,0.17999908,-0.00007267,-0.00009669,0.00106496,-0.00041930,-
 0.00018984,-0.00029937,-0.00162310,0.00026828,0.00088463,-0.00216833,-
 0.00141740,0.00125010,-0.00070001,0.00063468,-0.00124774,0.00024277,0.
 00002965,0.00003250,0.00016462,0.00006911,0.00000736,0.00020234,-0.000
 08092,-0.00021499,0.00071434,0.00032559,-0.00017554,-0.00071771,0.0010
 7216,0.00019759,0.00164024,0.00015127,-0.00186900,0.00090187,-0.000071
 55,0.00017361,0.00006981,-0.00057567,-0.00070136,0.00084911,-0.0010885
 5,0.00073395,-0.03771224,-0.00752380,-0.01017053,0.00476938,0.00207449
 ,0.00558645,0.00506116,0.00317856,0.00496283,-0.21909136,-0.00896320,0
 .00422078,-0.00053169,0.00020040,-0.00020138,0.00005961,-0.00000982,0.
 00005070,0.00010018,-0.00003702,-0.00002321,0.00001286,-0.00004137,0.0
 0000830,0.00003387,0.00055563,0.00035457,0.00005243,-0.00010278,-0.000
 01499,-0.00000668,-0.00002921,-0.00006859,0.00000767,0.00000862,0.0000
 2976,0.00004642,0.00109288,-0.00013202,-0.00008530,-0.00007963,-0.0000
 5056,0.00003814,-0.00013345,0.00008762,0.00001969,-0.00016791,-0.00006
 875,0.46355970,-0.00004895,0.00004603,0.00018357,0.00008949,-0.0000022
 3,-0.00007160,0.00001864,-0.00010549,-0.00008470,-0.00100155,-0.001923
 98,-0.00252361,0.00045055,-0.00016669,-0.00006160,-0.00004174,-0.00001
 476,-0.00001456,0.00000540,0.00003519,0.00000602,0.00003385,0.00000988
 ,-0.00001258,-0.00072995,0.00033413,0.00019287,-0.00029804,0.00080146,
 0.00007188,0.00015233,0.00019772,0.00009854,-0.00008789,0.00000480,0.0
 0002476,0.00002812,-0.00006402,-0.00008967,0.00035756,-0.00015344,0.00
 038449,-0.01925538,-0.00633214,-0.00018799,0.00245579,0.00146483,0.000
 03373,-0.00336724,0.00143876,-0.00036189,0.00777220,-0.06668102,-0.010
 23020,0.00000213,-0.00001426,0.00002349,-0.00000097,0.00000314,-0.0000
 0243,-0.00000954,0.00000571,-0.00000335,-0.00000451,0.00000048,-0.0000
 0285,0.00000453,0.00009176,0.00003762,0.00000158,-0.00000826,0.0000007
 3,0.00000721,-0.00000108,-0.00000828,-0.00000340,0.00000526,0.00002384
 ,0.00005664,0.00021813,-0.00001542,-0.00001486,-0.00003783,-0.00002735
 ,0.00000017,-0.00002548,0.00000444,-0.00001470,-0.00001948,0.00000098,
 0.00455943,0.58241931,-0.00002112,0.00014841,-0.00010366,0.00005438,-0
 .00002810,-0.00013410,0.00020990,-0.00004115,0.00007906,-0.00287769,-0
 .00217352,-0.00596754,0.00000750,-0.00068940,0.00004879,-0.00003590,0.
 00002832,0.00004713,-0.00001971,-0.00000065,0.00000822,-0.00004989,0.0
 0001092,0.00005187,-0.00141909,-0.00008764,0.00070838,0.00005345,0.000
 28427,-0.00007453,-0.00034618,-0.00025629,0.00029171,-0.00027953,0.000
 00140,0.00004193,0.00003236,0.00003162,0.00006087,0.00001089,0.0002865
 8,-0.00007607,-0.03746990,-0.00165472,-0.00269295,-0.00306088,-0.00116
 266,0.00101748,-0.00070340,0.00005459,0.00017000,0.04421808,-0.0076790
 9,-0.08689167,0.00010917,-0.00004822,0.00007543,-0.00000803,-0.0000013
 4,-0.00000904,-0.00002931,0.00001311,0.00000023,-0.00000843,0.00001245
 ,-0.00000447,0.00000659,-0.00001642,0.00000142,-0.00001679,0.00000242,
 -0.00000486,0.00001347,0.00000435,-0.00000656,-0.00000589,-0.00000345,
 0.00001704,-0.00008970,-0.00018689,0.00002751,0.00001308,0.00004976,0.
 00001363,-0.00000281,0.00002659,-0.00001353,0.00002138,0.00003709,0.00
 000483,0.02873750,0.02098993,0.61473422,0.00003042,-0.00008116,-0.0002
 2638,0.00003593,0.00002672,0.00006885,0.00016495,0.00000140,-0.0000783
 8,0.00029051,-0.00009689,-0.00020509,0.00020949,0.00008285,0.00015057,
 -0.00002634,0.00000538,0.00000031,-0.00002615,-0.00002441,-0.00000054,
 -0.00002926,0.00000873,0.00002523,-0.00013701,-0.00009753,0.00009774,0
 .00017598,-0.00047679,-0.00007054,-0.00013015,0.00001378,0.00012689,-0
 .00012762,0.00000308,-0.00002669,-0.00002562,0.00009501,0.00012900,-0.
 00026867,0.00020014,-0.00023951,0.00350103,0.00521562,0.00559123,-0.00
 041791,-0.00039377,-0.00069851,0.00045502,-0.00158499,-0.00088456,-0.0
 3525964,0.03138428,0.00428091,0.00007795,-0.00002322,0.00002723,-0.000
 00905,0.00000075,-0.00000757,-0.00001413,0.00000451,0.00000384,0.00000
 050,0.00000436,-0.00000046,0.00000350,-0.00009985,-0.00006725,-0.00000
 970,0.00001653,0.00000287,-0.00000153,0.00000537,0.00001342,-0.0000020
 0,-0.00000673,-0.00001046,0.00000024,-0.00021512,0.00002318,0.00001524
 ,0.00001905,0.00001471,-0.00000716,0.00002626,-0.00001463,-0.00000315,
 0.00002993,0.00001092,-0.07590447,0.07224087,0.00679319,0.09579414,-0.
 00003907,0.00001168,0.00005625,-0.00003749,-0.00001784,-0.00002641,-0.
 00010224,0.00000380,0.00005484,-0.00013441,0.00025964,0.00042003,-0.00
 025337,0.00002774,-0.00006612,0.00001971,-0.00000105,0.00000078,0.0000
 1349,0.00000656,-0.00000005,0.00000624,-0.00000859,-0.00001016,0.00010
 693,-0.00001811,-0.00004629,-0.00007456,0.00008577,-0.00000526,0.00009
 675,0.00002269,-0.00011988,0.00007915,0.00000281,0.00001564,0.00003069
 ,-0.00001674,-0.00003784,0.00007526,-0.00003553,0.00003747,-0.00143060
 ,0.00236883,-0.00044235,-0.00006512,-0.00048328,0.00022942,0.00163595,
 -0.00039614,0.00089401,0.00519830,0.00877663,-0.00108899,-0.00004400,0
 .00001307,-0.00001740,0.00000533,-0.00000072,0.00000492,0.00000883,-0.
 00000329,-0.00000202,-0.00000002,-0.00000203,0.00000026,-0.00002203,0.
 00001151,0.00003122,0.00001043,-0.00000411,-0.00000173,-0.00000219,-0.
 00000148,-0.00000396,0.00000540,0.00000769,-0.00000708,-0.00004004,0.0
 0004992,-0.00001133,-0.00000510,0.00000156,-0.00000360,0.00000814,-0.0
 0000568,0.00000944,0.00000729,-0.00000948,-0.00000656,0.07640627,-0.27
 643861,-0.02660535,-0.08970862,0.29250448,-0.00002382,-0.00002860,0.00
 006192,-0.00002000,-0.00000077,-0.00000698,-0.00009106,0.00000400,0.00
 004842,-0.00011723,-0.00016778,0.00015217,-0.00004227,0.00007393,-0.00
 010601,0.00001700,-0.00000330,-0.00000521,0.00001077,0.00000611,-0.000
 00023,0.00001604,-0.00000400,-0.00001665,0.00002103,0.00000330,-0.0000
 2140,-0.00006196,0.00006862,0.00000804,0.00010784,0.00003326,-0.000115
 38,0.00005337,-0.00000261,0.00000663,0.00001167,-0.00002265,-0.0000461
 4,0.00005288,-0.00006748,0.00005947,-0.00124110,0.00202897,0.00017372,
 0.00017332,0.00014087,0.00003324,0.00056225,-0.00018867,0.00027737,0.0
 0457361,-0.00496186,0.00167029,-0.00003051,0.00001048,-0.00001145,0.00
 000266,-0.00000051,0.00000275,0.00000626,-0.00000219,-0.00000178,0.000
 00011,-0.00000193,0.00000051,-0.00000624,0.00002247,0.00002242,0.00000
 609,-0.00000373,-0.00000125,-0.00000199,-0.00000296,-0.00000328,0.0000
 0232,0.00000476,-0.00000213,0.00001267,0.00007829,-0.00000927,-0.00000
 270,-0.00001269,-0.00000463,0.00000075,-0.00000931,0.00000557,-0.00000
 253,-0.00001182,-0.00000411,0.00830621,-0.02576188,-0.05781330,-0.0131
 0565,0.02963766,0.05250246,-0.00001820,0.00004859,-0.00018628,0.000075
 95,-0.00000410,-0.00002187,0.00022908,-0.00007255,-0.00011342,-0.00044
 228,-0.00081612,-0.00229027,0.00015663,-0.00032934,0.00010919,-0.00004
 632,0.00000485,0.00000860,-0.00002561,-0.00000178,0.00000299,-0.000032
 36,0.00000949,0.00004306,-0.00061920,-0.00000618,0.00030399,0.00005495
 ,0.00000327,-0.00002067,-0.00021689,-0.00001119,0.00025863,-0.00019669
 ,0.00001944,0.00000797,0.00005810,0.00009558,0.00013920,-0.00005874,0.
 00019478,-0.00004962,-0.00531683,0.00104621,0.00292831,-0.00007811,0.0
 0017762,-0.00026506,-0.00008147,-0.00042464,-0.00013823,-0.02632236,-0
 .01663428,-0.03282135,0.00008907,-0.00003869,0.00004815,-0.00000825,0.
 00000189,-0.00000798,-0.00002232,0.00000840,0.00000219,-0.00000432,0.0
 0000798,-0.00000398,-0.00003695,-0.00009362,-0.00003772,0.00000933,0.0
 0001889,0.00000324,-0.00000585,0.00000879,0.00001901,-0.00000305,0.000
 01912,-0.00001787,-0.00002516,-0.00015676,0.00001844,0.00001432,0.0000
 1469,0.00000273,-0.00000145,0.00002130,-0.00001073,-0.00000336,0.00002
 777,0.00001102,-0.07794127,-0.03402193,-0.07165660,0.00620241,0.003151
 57,0.00958002,0.09988830,-0.00000108,0.00002527,-0.00005405,0.00000979
 ,0.00000235,0.00000155,0.00006149,0.00000872,-0.00006493,0.00009426,0.
 00038468,-0.00031582,-0.00005138,-0.00002936,0.00006650,-0.00001062,-0
 .00000284,-0.00000025,-0.00000677,-0.00000335,0.00000100,-0.00001169,0
 .00000156,0.00001386,-0.00004050,-0.00001798,0.00003359,0.00001029,-0.
 00003774,-0.00000469,0.00000067,-0.00001344,0.00007618,-0.00003312,0.0
 0000097,-0.00000190,0.00000213,0.00000286,0.00003844,-0.00002485,0.000
 02636,-0.00002103,0.00019273,0.00082902,0.00090764,-0.00014141,0.00000
 390,-0.00033358,0.00023881,0.00029923,0.00023708,-0.00159370,0.0005148
 3,0.00068871,0.00001639,-0.00000538,0.00000767,-0.00000125,0.00000011,
 -0.00000148,-0.00000421,0.00000143,0.00000087,0.00000021,0.00000081,-0
 .00000010,0.00000768,-0.00000327,-0.00001787,-0.00000218,0.00000124,0.
 00000249,-0.00000132,0.00000306,0.00000563,-0.00000125,-0.00000116,0.0
 0000338,0.00000578,-0.00002493,0.00000211,0.00000112,0.00000492,0.0000
 0396,-0.00000272,0.00000362,-0.00000374,0.00000006,0.00000511,0.000002
 50,-0.03926090,-0.09835144,-0.09454500,-0.01062145,-0.01017971,-0.0259
 0372,0.04359759,0.09720007,-0.00000411,0.00001072,-0.00006543,0.000022
 75,0.00000109,0.00001335,0.00008486,-0.00003668,-0.00002842,0.00036717
 ,0.00002085,0.00018116,-0.00001311,-0.00003185,0.00005896,-0.00001432,
 0.00000606,0.00000509,-0.00000991,-0.00000228,-0.00000061,-0.00001195,
 0.00000442,0.00001415,0.00003055,0.00000202,-0.00002024,0.00001881,-0.
 00006242,-0.00001606,-0.00020081,-0.00004651,0.00010811,-0.00004341,0.
 00000799,-0.00000723,0.00000808,0.00004836,0.00005051,-0.00004050,0.00
 007015,-0.00003116,0.00147948,0.00087717,0.00210870,0.00026294,-0.0000
 3726,0.00020992,0.00007094,-0.00000197,-0.00005371,0.00057434,0.003006
 18,0.00692334,0.00002766,-0.00001069,0.00000796,-0.00000244,0.00000112
 ,-0.00000237,-0.00000477,0.00000140,0.00000193,-0.00000055,0.00000216,
 -0.00000116,-0.00001683,-0.00004970,-0.00001622,0.00000150,0.00000808,
 -0.00000028,0.00000032,0.00000207,0.00000428,0.00000399,0.00000397,-0.
 00000827,-0.00000959,-0.00006357,0.00000549,0.00000668,-0.00000163,-0.
 00000199,0.00000209,0.00000746,-0.00000304,-0.00000492,0.00000888,0.00
 000512,-0.08329253,-0.09540181,-0.25197060,0.00003816,-0.00017927,-0.0
 0094240,0.08866369,0.10284736,0.26246128,0.00001096,-0.00000433,-0.000
 10492,0.00007690,0.00003382,0.00005475,0.00024449,-0.00000587,-0.00022
 874,0.00020381,0.00016400,-0.00016711,0.00020440,-0.00015028,0.0001523
 0,-0.00002172,-0.00000825,-0.00002456,-0.00002242,-0.00000135,-0.00000
 233,-0.00002005,0.00001424,0.00002272,-0.00016587,0.00000564,0.0000740
 7,0.00009837,-0.00015527,0.00001012,0.00005192,0.00014064,-0.00000133,
 -0.00013114,0.00001821,-0.00002657,-0.00001896,0.00009904,0.00008341,-
 0.00006686,0.00015051,-0.00010993,0.00381058,0.00104647,0.00709453,0.0
 0024705,0.00052271,-0.00192779,-0.00047419,-0.00028257,-0.00073254,-0.
 03107134,-0.02232770,0.02883292,0.00007171,-0.00003421,0.00003114,-0.0
 0000968,0.00000216,-0.00000714,-0.00001469,0.00000610,0.00000134,-0.00
 000411,0.00000718,-0.00000119,-0.00001750,-0.00008941,-0.00005078,-0.0
 0000457,0.00001702,0.00000317,0.00000147,0.00000460,0.00000876,0.00000
 057,0.00000078,-0.00000558,-0.00003835,-0.00014723,0.00001082,0.000007
 17,0.00001878,0.00000888,-0.00000078,0.00002053,-0.00000915,0.00000522
 ,0.00001993,0.00000707,-0.06157209,-0.02933587,0.03781993,0.00544224,0
 .00509310,-0.00876985,0.00472888,0.00757142,-0.00799427,0.07844857,-0.
 00000081,-0.00002216,-0.00003762,0.00000265,0.00002079,0.00001563,0.00
 006705,0.00001848,-0.00005445,-0.00007275,0.00001099,-0.00028378,0.000
 05535,0.00001093,0.00010555,0.00000434,-0.00000599,-0.00000691,-0.0000
 0381,-0.00000587,0.00000046,-0.00000645,0.00000204,0.00000320,-0.00007
 048,-0.00000774,0.00003500,0.00003394,-0.00006010,-0.00002461,0.000087
 32,0.00005056,-0.00002921,-0.00003072,-0.00000003,-0.00001083,-0.00000
 961,0.00001459,0.00001075,-0.00001899,0.00000708,-0.00004936,0.0004975
 1,0.00067253,0.00088747,-0.00073539,-0.00066862,-0.00033617,0.00015958
 ,-0.00045314,0.00017126,-0.00499338,0.00511385,-0.00227440,0.00001852,
 -0.00000757,0.00000972,-0.00000289,-0.00000069,-0.00000171,-0.00000325
 ,0.00000149,-0.00000032,-0.00000072,0.00000203,0.00000069,0.00000691,-
 0.00001371,-0.00001256,-0.00000447,0.00000284,0.00000038,0.00000028,-0
 .00000025,0.00000127,-0.00000099,-0.00000263,0.00000065,0.00002127,-0.
 00001236,0.00000517,0.00000197,0.00000335,0.00000338,-0.00000640,0.000
 00394,-0.00000436,-0.00000292,0.00000164,0.00000054,-0.03075732,-0.136
 73638,0.11319806,-0.00595410,-0.01653197,0.02504574,0.00413334,0.00935
 049,-0.01101189,0.03758543,0.13924158,-0.00000982,-0.00002274,0.000083
 62,-0.00004859,-0.00002581,-0.00002577,-0.00022241,0.00003393,0.000097
 40,-0.00018265,-0.00008520,0.00055409,-0.00005912,0.00013881,-0.000127
 10,0.00002977,0.00001819,0.00001479,0.00001542,0.00000468,0.00000113,0
 .00002376,-0.00000971,-0.00002102,0.00009480,0.00003170,-0.00007110,-0
 .00006998,0.00009604,0.00001727,0.00008892,-0.00007829,-0.00025608,0.0
 0010138,-0.00001016,0.00001786,0.00001742,-0.00007767,-0.00005718,0.00
 008454,-0.00016767,0.00009287,-0.00164316,-0.00266013,0.00195664,0.001
 46146,0.00104882,0.00039478,0.00004472,0.00032693,-0.00001800,0.008754
 55,0.00021940,0.00075302,-0.00005957,0.00002660,-0.00002568,0.00000659
 ,-0.00000073,0.00000532,0.00001108,-0.00000444,-0.00000173,0.00000264,
 -0.00000604,0.00000099,0.00001291,0.00007395,0.00002943,0.00000842,-0.
 00001210,0.00000107,-0.00000590,-0.00000194,-0.00000039,-0.00000238,0.
 00000317,0.00000263,0.00004572,0.00015369,-0.00001723,-0.00001259,-0.0
 0001829,-0.00000680,-0.00000102,-0.00001822,0.00000797,-0.00000504,-0.
 00002228,-0.00000617,0.04184114,0.11278488,-0.21163687,-0.00176205,-0.
 00271029,0.00408663,0.00549121,0.01632766,-0.01899016,-0.05405215,-0.1
 2535673,0.22314379\\-0.00000553,0.00000088,-0.00001855,0.00000381,0.00
 001950,0.00001313,-0.00000249,-0.00000931,-0.00001033,0.00000540,0.000
 00802,-0.00000465,0.00000051,-0.00000770,0.00001377,-0.00000206,0.0000
 0405,-0.00000026,-0.00000242,-0.00000853,-0.00001181,0.00000330,-0.000
 00146,-0.00000131,0.00000554,0.00000106,-0.00000008,-0.00000119,0.0000
 0058,0.00000715,-0.00000481,-0.00000532,-0.00000114,-0.00001067,-0.000
 01139,-0.00001692,-0.00000141,0.00000206,0.00000835,0.00000362,0.00000
 564,-0.00001200,-0.00000391,-0.00000196,0.00000423,0.00000160,0.000003
 63,0.00000309,0.00000399,0.00000305,0.00000048,0.00000247,0.00000417,0
 .00001067,0.00001398,0.00000175,-0.00000260,0.00000402,0.00000514,-0.0
 0001170,-0.00000084,-0.00000037,-0.00000980,-0.00000088,0.00000328,-0.
 00000825,-0.00000918,-0.00000784,0.00000173,-0.00000533,-0.00000324,-0
 .00000020,-0.00000451,-0.00000525,0.00000130,-0.00000248,-0.00000168,0
 .,0.00000774,-0.00000214,0.00000637,0.00000246,0.00000076,0.00000206,0
 .00000240,0.00000439,0.00000233,0.00000204,0.00000095,0.00000100,-0.00
 000564,-0.00000306,0.00000861,0.,-0.00000057,0.00000774,-0.00000222,0.
 00000012,0.00000853,0.00000268,0.00000079,0.00000904\\\@


 ALL MY ATTEMPTS TO ADAPT THE THEORETICAL FOUNDATIONS OF PHYSICS
 TO THESE NEW NOTIONS FAILED COMPLETELY. IT WAS AS IF THE GROUND HAD
 BEEN PULLED OUT FROM UNDER ONE WITH NO FIRM FOUNDATION TO BE SEEN ANYWHERE,
 UPON WHICH ONE COULD HAVE BUILT.  -- A.EINSTEIN
 Job cpu time:       0 days  1 hours 20 minutes 56.0 seconds.
 Elapsed time:       0 days  0 hours 20 minutes 19.5 seconds.
 File lengths (MBytes):  RWF=    383 Int=      0 D2E=      0 Chk=     17 Scr=      1
 Normal termination of Gaussian 16 at Fri May 24 08:54:53 2019.
