 Entering Gaussian System, Link 0=g16
 Input=clay-glucose_cation-187-b3lyp_d3bj-631gd-pcm_thf.gjf
 Output=clay-glucose_cation-187-b3lyp_d3bj-631gd-pcm_thf.out
 Initial command:
 /n/sw/g16_nehalem/g16/l1.exe "/scratch/Gau-59235.inp" -scrdir="/scratch/"
 Entering Link 1 = /n/sw/g16_nehalem/g16/l1.exe PID=     59237.
  
 Copyright (c) 1988,1990,1992,1993,1995,1998,2003,2009,2016,
            Gaussian, Inc.  All Rights Reserved.
  
 This is part of the Gaussian(R) 16 program.  It is based on
 the Gaussian(R) 09 system (copyright 2009, Gaussian, Inc.),
 the Gaussian(R) 03 system (copyright 2003, Gaussian, Inc.),
 the Gaussian(R) 98 system (copyright 1998, Gaussian, Inc.),
 the Gaussian(R) 94 system (copyright 1995, Gaussian, Inc.),
 the Gaussian 92(TM) system (copyright 1992, Gaussian, Inc.),
 the Gaussian 90(TM) system (copyright 1990, Gaussian, Inc.),
 the Gaussian 88(TM) system (copyright 1988, Gaussian, Inc.),
 the Gaussian 86(TM) system (copyright 1986, Carnegie Mellon
 University), and the Gaussian 82(TM) system (copyright 1983,
 Carnegie Mellon University). Gaussian is a federally registered
 trademark of Gaussian, Inc.
  
 This software contains proprietary and confidential information,
 including trade secrets, belonging to Gaussian, Inc.
  
 This software is provided under written license and may be
 used, copied, transmitted, or stored only in accord with that
 written license.
  
 The following legend is applicable only to US Government
 contracts under FAR:
  
                    RESTRICTED RIGHTS LEGEND
  
 Use, reproduction and disclosure by the US Government is
 subject to restrictions as set forth in subparagraphs (a)
 and (c) of the Commercial Computer Software - Restricted
 Rights clause in FAR 52.227-19.
  
 Gaussian, Inc.
 340 Quinnipiac St., Bldg. 40, Wallingford CT 06492
  
  
 ---------------------------------------------------------------
 Warning -- This program may not be used in any manner that
 competes with the business of Gaussian, Inc. or will provide
 assistance to any competitor of Gaussian, Inc.  The licensee
 of this program is prohibited from giving any competitor of
 Gaussian, Inc. access to this program.  By using this program,
 the user acknowledges that Gaussian, Inc. is engaged in the
 business of creating and licensing software in the field of
 computational chemistry and represents and warrants to the
 licensee that it is not a competitor of Gaussian, Inc. and that
 it will not use this program in any manner prohibited above.
 ---------------------------------------------------------------
  

 Cite this work as:
 Gaussian 16, Revision A.03,
 M. J. Frisch, G. W. Trucks, H. B. Schlegel, G. E. Scuseria, 
 M. A. Robb, J. R. Cheeseman, G. Scalmani, V. Barone, 
 G. A. Petersson, H. Nakatsuji, X. Li, M. Caricato, A. V. Marenich, 
 J. Bloino, B. G. Janesko, R. Gomperts, B. Mennucci, H. P. Hratchian, 
 J. V. Ortiz, A. F. Izmaylov, J. L. Sonnenberg, D. Williams-Young, 
 F. Ding, F. Lipparini, F. Egidi, J. Goings, B. Peng, A. Petrone, 
 T. Henderson, D. Ranasinghe, V. G. Zakrzewski, J. Gao, N. Rega, 
 G. Zheng, W. Liang, M. Hada, M. Ehara, K. Toyota, R. Fukuda, 
 J. Hasegawa, M. Ishida, T. Nakajima, Y. Honda, O. Kitao, H. Nakai, 
 T. Vreven, K. Throssell, J. A. Montgomery, Jr., J. E. Peralta, 
 F. Ogliaro, M. J. Bearpark, J. J. Heyd, E. N. Brothers, K. N. Kudin, 
 V. N. Staroverov, T. A. Keith, R. Kobayashi, J. Normand, 
 K. Raghavachari, A. P. Rendell, J. C. Burant, S. S. Iyengar, 
 J. Tomasi, M. Cossi, J. M. Millam, M. Klene, C. Adamo, R. Cammi, 
 J. W. Ochterski, R. L. Martin, K. Morokuma, O. Farkas, 
 J. B. Foresman, and D. J. Fox, Gaussian, Inc., Wallingford CT, 2016.
 
 ******************************************
 Gaussian 16:  ES64L-G16RevA.03 25-Dec-2016
                24-May-2019 
 ******************************************
 %nprocshared=4
 Will use up to    4 processors via shared memory.
 %mem=3GB
 -------------------------------------------------------------------
 #p b3lyp 6-31g* opt freq=noraman scrf=(pcm,solvent=tetrahydrofuran)
 -------------------------------------------------------------------
 1/18=20,19=15,26=3,38=1/1,3;
 2/9=110,12=2,17=6,18=5,40=1/2;
 3/5=1,6=6,7=1,11=2,25=1,30=1,70=2201,71=1,72=20,74=-5/1,2,3;
 4//1;
 5/5=2,38=5,53=20/2;
 6/7=2,8=2,9=2,10=2,28=1/1;
 7//1,2,3,16;
 1/18=20,19=15,26=3/3(2);
 2/9=110/2;
 99//99;
 2/9=110/2;
 3/5=1,6=6,7=1,11=2,25=1,30=1,70=2205,71=1,72=20,74=-5/1,2,3;
 4/5=5,16=3,69=1/1;
 5/5=2,38=5,53=20/2;
 7//1,2,3,16;
 1/18=20,19=15,26=3/3(-5);
 2/9=110/2;
 6/7=2,8=2,9=2,10=2,19=2,28=1/1;
 99/9=1/99;
 Leave Link    1 at Fri May 24 08:39:17 2019, MaxMem=   402653184 cpu:               0.7 elap:               0.3
 (Enter /n/sw/g16_nehalem/g16/l101.exe)
 -----
 title
 -----
 Symbolic Z-matrix:
 Charge =  1 Multiplicity = 1
 6                    -0.61221   0.67457  -0.63616 
 6                    -1.42325   0.76451   0.7053 
 6                    -1.08881  -0.30227   1.69596 
 6                     0.93519  -0.96827   0.56806 
 6                     0.1494   -0.65824  -0.70806 
 1                    -1.76474  -0.48888   2.53306 
 1                    -1.02585   1.65756   1.226 
 1                    -1.33262   0.69449  -1.4624 
 1                     1.27212  -2.00489   0.57097 
 1                     0.8629   -0.61769  -1.53892 
 8                    -0.02645  -0.97367   1.7248 
 8                    -2.80406   0.97049   0.62665 
 8                     0.31527   1.72557  -0.74869 
 8                    -0.85118  -1.64196  -0.89261 
 6                     2.11087  -0.06012   0.93288 
 1                     2.49541  -0.34656   1.92352 
 1                     1.80044   0.9915    0.96237 
 8                     3.05911  -0.29175  -0.08323 
 6                    -3.5721   -0.09925   0.04939 
 1                    -3.4594   -1.02845   0.62205 
 1                    -4.61003   0.23036   0.09842 
 1                    -3.29196  -0.28579  -0.99141 
 6                    -0.26186   2.97761  -1.1261 
 1                    -0.96218   3.34968  -0.36603 
 1                    -0.78769   2.88862  -2.0851 
 1                     0.56631   3.68072  -1.22346 
 6                    -0.42632  -2.83037  -1.56666 
 1                    -1.31071  -3.46295  -1.65434 
 1                    -0.04311  -2.59126  -2.56606 
 1                     0.34489  -3.37012  -1.00344 
 6                     4.21371   0.5318    0.04359 
 1                     3.95109   1.59646  -0.02362 
 1                     4.8767    0.269    -0.78279 
 1                     4.72915   0.34882   0.99657 
 
 ITRead=  0  0  0  0  0  0  0  0  0  0  0  0  0  0  0  0  0  0  0  0
 ITRead=  0  0  0  0  0  0  0  0  0  0  0  0  0  0
 MicOpt= -1 -1 -1 -1 -1 -1 -1 -1 -1 -1 -1 -1 -1 -1 -1 -1 -1 -1 -1 -1
 MicOpt= -1 -1 -1 -1 -1 -1 -1 -1 -1 -1 -1 -1 -1 -1
 NAtoms=     34 NQM=       34 NQMF=       0 NMMI=      0 NMMIF=      0
                NMic=       0 NMicF=      0.
                    Isotopes and Nuclear Properties:
 (Nuclear quadrupole moments (NQMom) in fm**2, nuclear magnetic moments (NMagM)
  in nuclear magnetons)

  Atom         1           2           3           4           5           6           7           8           9          10
 IAtWgt=          12          12          12          12          12           1           1           1           1           1
 AtmWgt=  12.0000000  12.0000000  12.0000000  12.0000000  12.0000000   1.0078250   1.0078250   1.0078250   1.0078250   1.0078250
 NucSpn=           0           0           0           0           0           1           1           1           1           1
 AtZEff=   0.0000000   0.0000000   0.0000000   0.0000000   0.0000000   0.0000000   0.0000000   0.0000000   0.0000000   0.0000000
 NQMom=    0.0000000   0.0000000   0.0000000   0.0000000   0.0000000   0.0000000   0.0000000   0.0000000   0.0000000   0.0000000
 NMagM=    0.0000000   0.0000000   0.0000000   0.0000000   0.0000000   2.7928460   2.7928460   2.7928460   2.7928460   2.7928460
 AtZNuc=   6.0000000   6.0000000   6.0000000   6.0000000   6.0000000   1.0000000   1.0000000   1.0000000   1.0000000   1.0000000

  Atom        11          12          13          14          15          16          17          18          19          20
 IAtWgt=          16          16          16          16          12           1           1          16          12           1
 AtmWgt=  15.9949146  15.9949146  15.9949146  15.9949146  12.0000000   1.0078250   1.0078250  15.9949146  12.0000000   1.0078250
 NucSpn=           0           0           0           0           0           1           1           0           0           1
 AtZEff=   0.0000000   0.0000000   0.0000000   0.0000000   0.0000000   0.0000000   0.0000000   0.0000000   0.0000000   0.0000000
 NQMom=    0.0000000   0.0000000   0.0000000   0.0000000   0.0000000   0.0000000   0.0000000   0.0000000   0.0000000   0.0000000
 NMagM=    0.0000000   0.0000000   0.0000000   0.0000000   0.0000000   2.7928460   2.7928460   0.0000000   0.0000000   2.7928460
 AtZNuc=   8.0000000   8.0000000   8.0000000   8.0000000   6.0000000   1.0000000   1.0000000   8.0000000   6.0000000   1.0000000

  Atom        21          22          23          24          25          26          27          28          29          30
 IAtWgt=           1           1          12           1           1           1          12           1           1           1
 AtmWgt=   1.0078250   1.0078250  12.0000000   1.0078250   1.0078250   1.0078250  12.0000000   1.0078250   1.0078250   1.0078250
 NucSpn=           1           1           0           1           1           1           0           1           1           1
 AtZEff=   0.0000000   0.0000000   0.0000000   0.0000000   0.0000000   0.0000000   0.0000000   0.0000000   0.0000000   0.0000000
 NQMom=    0.0000000   0.0000000   0.0000000   0.0000000   0.0000000   0.0000000   0.0000000   0.0000000   0.0000000   0.0000000
 NMagM=    2.7928460   2.7928460   0.0000000   2.7928460   2.7928460   2.7928460   0.0000000   2.7928460   2.7928460   2.7928460
 AtZNuc=   1.0000000   1.0000000   6.0000000   1.0000000   1.0000000   1.0000000   6.0000000   1.0000000   1.0000000   1.0000000

  Atom        31          32          33          34
 IAtWgt=          12           1           1           1
 AtmWgt=  12.0000000   1.0078250   1.0078250   1.0078250
 NucSpn=           0           1           1           1
 AtZEff=   0.0000000   0.0000000   0.0000000   0.0000000
 NQMom=    0.0000000   0.0000000   0.0000000   0.0000000
 NMagM=    0.0000000   2.7928460   2.7928460   2.7928460
 AtZNuc=   6.0000000   1.0000000   1.0000000   1.0000000
 Leave Link  101 at Fri May 24 08:39:18 2019, MaxMem=   402653184 cpu:               4.2 elap:               1.3
 (Enter /n/sw/g16_nehalem/g16/l103.exe)

 GradGradGradGradGradGradGradGradGradGradGradGradGradGradGradGradGradGrad
 Berny optimization.
 Initialization pass.
                           ----------------------------
                           !    Initial Parameters    !
                           ! (Angstroms and Degrees)  !
 --------------------------                            --------------------------
 ! Name  Definition              Value          Derivative Info.                !
 --------------------------------------------------------------------------------
 ! R1    R(1,2)                  1.5702         estimate D2E/DX2                !
 ! R2    R(1,5)                  1.5367         estimate D2E/DX2                !
 ! R3    R(1,8)                  1.0964         estimate D2E/DX2                !
 ! R4    R(1,13)                 1.4062         estimate D2E/DX2                !
 ! R5    R(2,3)                  1.4937         estimate D2E/DX2                !
 ! R6    R(2,7)                  1.1075         estimate D2E/DX2                !
 ! R7    R(2,12)                 1.3983         estimate D2E/DX2                !
 ! R8    R(3,6)                  1.092          estimate D2E/DX2                !
 ! R9    R(3,11)                 1.2571         estimate D2E/DX2                !
 ! R10   R(4,5)                  1.5304         estimate D2E/DX2                !
 ! R11   R(4,9)                  1.09           estimate D2E/DX2                !
 ! R12   R(4,11)                 1.5043         estimate D2E/DX2                !
 ! R13   R(4,15)                 1.5297         estimate D2E/DX2                !
 ! R14   R(5,10)                 1.0959         estimate D2E/DX2                !
 ! R15   R(5,14)                 1.4152         estimate D2E/DX2                !
 ! R16   R(12,19)                1.4379         estimate D2E/DX2                !
 ! R17   R(13,23)                1.4294         estimate D2E/DX2                !
 ! R18   R(14,27)                1.4308         estimate D2E/DX2                !
 ! R19   R(15,16)                1.1006         estimate D2E/DX2                !
 ! R20   R(15,17)                1.0969         estimate D2E/DX2                !
 ! R21   R(15,18)                1.409          estimate D2E/DX2                !
 ! R22   R(18,31)                1.4239         estimate D2E/DX2                !
 ! R23   R(19,20)                1.0973         estimate D2E/DX2                !
 ! R24   R(19,21)                1.0901         estimate D2E/DX2                !
 ! R25   R(19,22)                1.0939         estimate D2E/DX2                !
 ! R26   R(23,24)                1.0984         estimate D2E/DX2                !
 ! R27   R(23,25)                1.0973         estimate D2E/DX2                !
 ! R28   R(23,26)                1.0907         estimate D2E/DX2                !
 ! R29   R(27,28)                1.0909         estimate D2E/DX2                !
 ! R30   R(27,29)                1.0967         estimate D2E/DX2                !
 ! R31   R(27,30)                1.097          estimate D2E/DX2                !
 ! R32   R(31,32)                1.0986         estimate D2E/DX2                !
 ! R33   R(31,33)                1.0916         estimate D2E/DX2                !
 ! R34   R(31,34)                1.0988         estimate D2E/DX2                !
 ! A1    A(2,1,5)              110.2212         estimate D2E/DX2                !
 ! A2    A(2,1,8)              107.6621         estimate D2E/DX2                !
 ! A3    A(2,1,13)             111.4835         estimate D2E/DX2                !
 ! A4    A(5,1,8)              107.827          estimate D2E/DX2                !
 ! A5    A(5,1,13)             108.5171         estimate D2E/DX2                !
 ! A6    A(8,1,13)             111.0689         estimate D2E/DX2                !
 ! A7    A(1,2,3)              114.2079         estimate D2E/DX2                !
 ! A8    A(1,2,7)              105.2198         estimate D2E/DX2                !
 ! A9    A(1,2,12)             118.0637         estimate D2E/DX2                !
 ! A10   A(3,2,7)              100.5869         estimate D2E/DX2                !
 ! A11   A(3,2,12)             111.3213         estimate D2E/DX2                !
 ! A12   A(7,2,12)             105.1887         estimate D2E/DX2                !
 ! A13   A(2,3,6)              119.4625         estimate D2E/DX2                !
 ! A14   A(2,3,11)             125.8644         estimate D2E/DX2                !
 ! A15   A(6,3,11)             114.4723         estimate D2E/DX2                !
 ! A16   A(5,4,9)              110.7078         estimate D2E/DX2                !
 ! A17   A(5,4,11)             108.2821         estimate D2E/DX2                !
 ! A18   A(5,4,15)             118.2434         estimate D2E/DX2                !
 ! A19   A(9,4,11)             101.0779         estimate D2E/DX2                !
 ! A20   A(9,4,15)             109.0495         estimate D2E/DX2                !
 ! A21   A(11,4,15)            108.0631         estimate D2E/DX2                !
 ! A22   A(1,5,4)              113.0264         estimate D2E/DX2                !
 ! A23   A(1,5,10)             109.0286         estimate D2E/DX2                !
 ! A24   A(1,5,14)             104.9845         estimate D2E/DX2                !
 ! A25   A(4,5,10)             107.7814         estimate D2E/DX2                !
 ! A26   A(4,5,14)             109.3261         estimate D2E/DX2                !
 ! A27   A(10,5,14)            112.7766         estimate D2E/DX2                !
 ! A28   A(3,11,4)             121.379          estimate D2E/DX2                !
 ! A29   A(2,12,19)            116.1333         estimate D2E/DX2                !
 ! A30   A(1,13,23)            114.1729         estimate D2E/DX2                !
 ! A31   A(5,14,27)            115.3935         estimate D2E/DX2                !
 ! A32   A(4,15,16)            109.1885         estimate D2E/DX2                !
 ! A33   A(4,15,17)            110.9817         estimate D2E/DX2                !
 ! A34   A(4,15,18)            104.3384         estimate D2E/DX2                !
 ! A35   A(16,15,17)           108.9173         estimate D2E/DX2                !
 ! A36   A(16,15,18)           111.7895         estimate D2E/DX2                !
 ! A37   A(17,15,18)           111.5596         estimate D2E/DX2                !
 ! A38   A(15,18,31)           112.7306         estimate D2E/DX2                !
 ! A39   A(12,19,20)           111.4458         estimate D2E/DX2                !
 ! A40   A(12,19,21)           105.401          estimate D2E/DX2                !
 ! A41   A(12,19,22)           111.844          estimate D2E/DX2                !
 ! A42   A(20,19,21)           109.2907         estimate D2E/DX2                !
 ! A43   A(20,19,22)           109.0172         estimate D2E/DX2                !
 ! A44   A(21,19,22)           109.7672         estimate D2E/DX2                !
 ! A45   A(13,23,24)           111.8033         estimate D2E/DX2                !
 ! A46   A(13,23,25)           110.6827         estimate D2E/DX2                !
 ! A47   A(13,23,26)           106.3584         estimate D2E/DX2                !
 ! A48   A(24,23,25)           109.0678         estimate D2E/DX2                !
 ! A49   A(24,23,26)           109.1175         estimate D2E/DX2                !
 ! A50   A(25,23,26)           109.7614         estimate D2E/DX2                !
 ! A51   A(14,27,28)           106.1871         estimate D2E/DX2                !
 ! A52   A(14,27,29)           110.6076         estimate D2E/DX2                !
 ! A53   A(14,27,30)           112.0595         estimate D2E/DX2                !
 ! A54   A(28,27,29)           109.6614         estimate D2E/DX2                !
 ! A55   A(28,27,30)           109.0203         estimate D2E/DX2                !
 ! A56   A(29,27,30)           109.2388         estimate D2E/DX2                !
 ! A57   A(18,31,32)           111.175          estimate D2E/DX2                !
 ! A58   A(18,31,33)           106.6088         estimate D2E/DX2                !
 ! A59   A(18,31,34)           111.1811         estimate D2E/DX2                !
 ! A60   A(32,31,33)           109.401          estimate D2E/DX2                !
 ! A61   A(32,31,34)           109.0612         estimate D2E/DX2                !
 ! A62   A(33,31,34)           109.365          estimate D2E/DX2                !
 ! D1    D(5,1,2,3)             10.6689         estimate D2E/DX2                !
 ! D2    D(5,1,2,7)            120.0031         estimate D2E/DX2                !
 ! D3    D(5,1,2,12)          -123.0769         estimate D2E/DX2                !
 ! D4    D(8,1,2,3)            128.0352         estimate D2E/DX2                !
 ! D5    D(8,1,2,7)           -122.6306         estimate D2E/DX2                !
 ! D6    D(8,1,2,12)            -5.7106         estimate D2E/DX2                !
 ! D7    D(13,1,2,3)          -109.9078         estimate D2E/DX2                !
 ! D8    D(13,1,2,7)            -0.5736         estimate D2E/DX2                !
 ! D9    D(13,1,2,12)          116.3465         estimate D2E/DX2                !
 ! D10   D(2,1,5,4)            -48.6288         estimate D2E/DX2                !
 ! D11   D(2,1,5,10)          -168.4694         estimate D2E/DX2                !
 ! D12   D(2,1,5,14)            70.4501         estimate D2E/DX2                !
 ! D13   D(8,1,5,4)           -165.893          estimate D2E/DX2                !
 ! D14   D(8,1,5,10)            74.2664         estimate D2E/DX2                !
 ! D15   D(8,1,5,14)           -46.8141         estimate D2E/DX2                !
 ! D16   D(13,1,5,4)            73.7128         estimate D2E/DX2                !
 ! D17   D(13,1,5,10)          -46.1277         estimate D2E/DX2                !
 ! D18   D(13,1,5,14)         -167.2082         estimate D2E/DX2                !
 ! D19   D(2,1,13,23)          -77.5428         estimate D2E/DX2                !
 ! D20   D(5,1,13,23)          160.8864         estimate D2E/DX2                !
 ! D21   D(8,1,13,23)           42.526          estimate D2E/DX2                !
 ! D22   D(1,2,3,6)           -163.9562         estimate D2E/DX2                !
 ! D23   D(1,2,3,11)            21.491          estimate D2E/DX2                !
 ! D24   D(7,2,3,6)             83.9052         estimate D2E/DX2                !
 ! D25   D(7,2,3,11)           -90.6476         estimate D2E/DX2                !
 ! D26   D(12,2,3,6)           -27.1379         estimate D2E/DX2                !
 ! D27   D(12,2,3,11)          158.3092         estimate D2E/DX2                !
 ! D28   D(1,2,12,19)           66.4186         estimate D2E/DX2                !
 ! D29   D(3,2,12,19)          -68.5658         estimate D2E/DX2                !
 ! D30   D(7,2,12,19)         -176.6447         estimate D2E/DX2                !
 ! D31   D(2,3,11,4)           -12.8774         estimate D2E/DX2                !
 ! D32   D(6,3,11,4)           172.3327         estimate D2E/DX2                !
 ! D33   D(9,4,5,1)            167.2286         estimate D2E/DX2                !
 ! D34   D(9,4,5,10)           -72.2177         estimate D2E/DX2                !
 ! D35   D(9,4,5,14)            50.6917         estimate D2E/DX2                !
 ! D36   D(11,4,5,1)            57.2773         estimate D2E/DX2                !
 ! D37   D(11,4,5,10)          177.8309         estimate D2E/DX2                !
 ! D38   D(11,4,5,14)          -59.2597         estimate D2E/DX2                !
 ! D39   D(15,4,5,1)           -65.9625         estimate D2E/DX2                !
 ! D40   D(15,4,5,10)           54.5911         estimate D2E/DX2                !
 ! D41   D(15,4,5,14)          177.5005         estimate D2E/DX2                !
 ! D42   D(5,4,11,3)           -26.6381         estimate D2E/DX2                !
 ! D43   D(9,4,11,3)          -143.0073         estimate D2E/DX2                !
 ! D44   D(15,4,11,3)          102.5565         estimate D2E/DX2                !
 ! D45   D(5,4,15,16)          173.8068         estimate D2E/DX2                !
 ! D46   D(5,4,15,17)           53.7332         estimate D2E/DX2                !
 ! D47   D(5,4,15,18)          -66.548          estimate D2E/DX2                !
 ! D48   D(9,4,15,16)          -58.5945         estimate D2E/DX2                !
 ! D49   D(9,4,15,17)         -178.6682         estimate D2E/DX2                !
 ! D50   D(9,4,15,18)           61.0507         estimate D2E/DX2                !
 ! D51   D(11,4,15,16)          50.4576         estimate D2E/DX2                !
 ! D52   D(11,4,15,17)         -69.6161         estimate D2E/DX2                !
 ! D53   D(11,4,15,18)         170.1027         estimate D2E/DX2                !
 ! D54   D(1,5,14,27)          153.166          estimate D2E/DX2                !
 ! D55   D(4,5,14,27)          -85.3021         estimate D2E/DX2                !
 ! D56   D(10,5,14,27)          34.582          estimate D2E/DX2                !
 ! D57   D(2,12,19,20)          60.0989         estimate D2E/DX2                !
 ! D58   D(2,12,19,21)         178.547          estimate D2E/DX2                !
 ! D59   D(2,12,19,22)         -62.2205         estimate D2E/DX2                !
 ! D60   D(1,13,23,24)          63.7372         estimate D2E/DX2                !
 ! D61   D(1,13,23,25)         -58.0739         estimate D2E/DX2                !
 ! D62   D(1,13,23,26)        -177.2474         estimate D2E/DX2                !
 ! D63   D(5,14,27,28)        -178.2926         estimate D2E/DX2                !
 ! D64   D(5,14,27,29)         -59.3813         estimate D2E/DX2                !
 ! D65   D(5,14,27,30)          62.774          estimate D2E/DX2                !
 ! D66   D(4,15,18,31)         176.7161         estimate D2E/DX2                !
 ! D67   D(16,15,18,31)        -65.4098         estimate D2E/DX2                !
 ! D68   D(17,15,18,31)         56.8232         estimate D2E/DX2                !
 ! D69   D(15,18,31,32)        -61.1009         estimate D2E/DX2                !
 ! D70   D(15,18,31,33)        179.7368         estimate D2E/DX2                !
 ! D71   D(15,18,31,34)         60.6147         estimate D2E/DX2                !
 --------------------------------------------------------------------------------
 Trust Radius=3.00D-01 FncErr=1.00D-07 GrdErr=1.00D-06 EigMax=2.50D+02 EigMin=1.00D-04
 Number of steps in this run=    177 maximum allowed number of steps=    204.
 GradGradGradGradGradGradGradGradGradGradGradGradGradGradGradGradGradGrad

 Leave Link  103 at Fri May 24 08:39:18 2019, MaxMem=   402653184 cpu:               0.3 elap:               0.1
 (Enter /n/sw/g16_nehalem/g16/l202.exe)
                          Input orientation:                          
 ---------------------------------------------------------------------
 Center     Atomic      Atomic             Coordinates (Angstroms)
 Number     Number       Type             X           Y           Z
 ---------------------------------------------------------------------
      1          6           0       -0.612213    0.674569   -0.636157
      2          6           0       -1.423247    0.764513    0.705304
      3          6           0       -1.088806   -0.302268    1.695957
      4          6           0        0.935187   -0.968269    0.568064
      5          6           0        0.149396   -0.658240   -0.708055
      6          1           0       -1.764744   -0.488881    2.533061
      7          1           0       -1.025848    1.657558    1.226002
      8          1           0       -1.332617    0.694488   -1.462397
      9          1           0        1.272122   -2.004891    0.570972
     10          1           0        0.862897   -0.617694   -1.538921
     11          8           0       -0.026451   -0.973667    1.724799
     12          8           0       -2.804055    0.970489    0.626653
     13          8           0        0.315267    1.725567   -0.748688
     14          8           0       -0.851179   -1.641956   -0.892612
     15          6           0        2.110873   -0.060116    0.932877
     16          1           0        2.495406   -0.346555    1.923523
     17          1           0        1.800439    0.991498    0.962369
     18          8           0        3.059108   -0.291749   -0.083231
     19          6           0       -3.572095   -0.099248    0.049387
     20          1           0       -3.459396   -1.028447    0.622049
     21          1           0       -4.610026    0.230364    0.098420
     22          1           0       -3.291962   -0.285793   -0.991409
     23          6           0       -0.261860    2.977612   -1.126095
     24          1           0       -0.962181    3.349680   -0.366032
     25          1           0       -0.787689    2.888615   -2.085105
     26          1           0        0.566314    3.680719   -1.223464
     27          6           0       -0.426315   -2.830367   -1.566663
     28          1           0       -1.310711   -3.462949   -1.654336
     29          1           0       -0.043108   -2.591263   -2.566060
     30          1           0        0.344887   -3.370122   -1.003435
     31          6           0        4.213706    0.531799    0.043589
     32          1           0        3.951086    1.596461   -0.023624
     33          1           0        4.876695    0.269004   -0.782791
     34          1           0        4.729151    0.348816    0.996572
 ---------------------------------------------------------------------
                    Distance matrix (angstroms):
                    1          2          3          4          5
     1  C    0.000000
     2  C    1.570154   0.000000
     3  C    2.572957   1.493742   0.000000
     4  C    2.558029   2.929775   2.410860   0.000000
     5  C    1.536749   2.548532   2.727478   1.530381   0.000000
     6  H    3.567336   2.242390   1.091998   3.373522   3.767950
     7  H    2.145926   1.107512   2.016368   3.342680   3.238008
     8  H    1.096381   2.170725   3.320868   3.468496   2.143657
     9  H    3.491043   3.866867   3.120657   1.090009   2.170229
    10  H    2.158906   3.489054   3.791184   2.137174   1.095932
    11  O    2.938352   2.451873   1.257063   1.504265   2.459511
    12  O    2.546847   1.398300   2.388598   4.212380   3.627268
    13  O    1.406229   2.461737   3.472726   3.061844   2.389916
    14  O    2.342896   2.944773   2.924367   2.403858   1.415242
    15  C    3.227511   3.636180   3.298314   1.529728   2.626367
    16  H    4.153547   4.251396   3.591702   2.158259   3.539225
    17  H    2.911463   3.241875   3.249572   2.178262   2.870173
    18  O    3.836417   4.672150   4.513403   2.322263   2.998524
    19  C    3.135230   2.407043   2.986492   4.619504   3.838709
    20  H    3.548210   2.714321   2.701909   4.395327   3.863885
    21  H    4.088940   3.287732   3.903180   5.692686   4.908372
    22  H    2.868720   2.733875   3.475069   4.557030   3.473032
    23  C    2.380503   3.098491   4.405159   4.457923   3.682840
    24  H    2.711395   2.836094   4.195778   4.808037   4.173249
    25  H    2.651837   3.564004   4.956696   4.988302   3.918491
    26  H    3.281889   4.022780   5.208323   4.995871   4.389309
    27  C    3.631112   4.367937   4.180295   3.142953   2.405574
    28  H    4.317829   4.842727   4.611248   4.025736   3.300569
    29  H    3.835892   4.885472   4.949522   3.662500   2.688088
    30  H    4.172584   4.810540   4.330580   2.930352   2.734917
    31  C    4.875647   5.680428   5.616282   3.643345   4.301137
    32  H    4.695613   5.486978   5.653551   4.002947   4.472691
    33  H    5.505824   6.492243   6.485194   4.346394   4.817958
    34  H    5.594827   6.173301   5.895903   4.038873   4.989396
                    6          7          8          9         10
     6  H    0.000000
     7  H    2.619460   0.000000
     8  H    4.189365   2.872125   0.000000
     9  H    3.920540   4.373015   4.266837   0.000000
    10  H    4.847899   4.048324   2.558898   2.558013   0.000000
    11  O    1.977364   2.858485   3.827144   2.020156   3.401400
    12  O    2.616165   1.998325   2.570104   5.046901   4.545170
    13  O    4.472147   2.388015   2.070755   4.071043   2.532832
    14  O    3.728192   3.925026   2.452633   2.604267   2.098782
    15  C    4.214835   3.588223   4.261970   2.148634   2.824557
    16  H    4.305888   4.111233   5.215552   2.464933   3.837593
    17  H    4.167628   2.915654   3.972876   3.067679   3.118483
    18  O    5.491211   4.711768   4.707654   2.560499   2.654923
    19  C    3.096283   3.309708   2.816162   5.231631   4.739268
    20  H    2.610545   3.674444   3.440437   4.831492   4.849817
    21  H    3.813190   4.019285   3.659641   6.310256   5.775203
    22  H    3.846496   3.718709   2.240940   5.121249   4.203901
    23  C    5.259720   2.803316   2.544067   5.482561   3.789687
    24  H    4.876823   2.324199   2.896426   5.877203   4.521796
    25  H    5.804272   3.540572   2.344974   5.936663   3.913688
    26  H    6.077078   3.553596   3.546915   6.003693   4.320165
    27  C    4.907309   5.319764   3.640997   2.852294   2.561007
    28  H    5.156115   5.881929   4.161923   3.707958   3.582369
    29  H    5.777982   5.779100   3.698252   3.451758   2.402256
    30  H    5.025823   5.668057   4.421054   2.280872   2.851480
    31  C    6.555999   5.488020   5.749449   3.919929   3.879896
    32  H    6.599697   5.131780   5.549878   4.527707   4.090907
    33  H    7.461768   6.387750   6.260867   4.471713   4.179538
    34  H    6.725564   5.906391   6.550653   4.203822   4.723430
                   11         12         13         14         15
    11  O    0.000000
    12  O    3.563811   0.000000
    13  O    3.677060   3.491687   0.000000
    14  O    2.824469   3.598161   3.566724   0.000000
    15  C    2.455579   5.031147   3.039823   3.822091   0.000000
    16  H    2.606247   5.612554   4.023358   4.561613   1.100587
    17  H    2.789391   4.616764   2.381661   4.172183   1.096873
    18  O    3.640695   6.039359   3.470023   4.215270   1.408999
    19  C    4.017861   1.437866   4.367889   3.266603   5.751366
    20  H    3.606129   2.103625   4.869455   3.077887   5.662347
    21  H    5.010385   2.021966   5.216487   4.314702   6.778730
    22  H    4.302850   2.105807   4.137219   2.793987   5.739724
    23  C    4.878075   3.682855   1.429380   4.662855   4.370014
    24  H    4.892698   3.168355   2.101438   5.020562   4.770486
    25  H    5.478328   3.885688   2.086912   4.685312   5.119071
    26  H    5.541384   4.704005   2.027574   5.518117   4.585773
    27  C    3.800125   4.991071   4.687810   1.430795   4.512130
    28  H    4.389123   5.204648   5.512232   2.026674   5.475416
    29  H    4.585670   5.522891   4.697478   2.086766   4.825857
    30  H    3.650226   5.604813   5.102139   2.104617   4.221866
    31  C    4.803314   7.055592   4.153386   5.590594   2.358623
    32  H    5.048103   6.815177   3.709658   5.856982   2.654341
    33  H    5.645625   7.840442   4.788462   6.039236   3.271331
    34  H    4.989492   7.567860   4.942039   6.218703   2.650785
                   16         17         18         19         20
    16  H    0.000000
    17  H    1.788067   0.000000
    18  O    2.085144   2.079483   0.000000
    19  C    6.355164   5.557642   6.635322   0.000000
    20  H    6.133390   5.644631   6.597806   1.097294   0.000000
    21  H    7.358736   6.513048   7.689032   1.090114   1.784024
    22  H    6.480289   5.601899   6.415677   1.093860   1.784045
    23  C    5.287038   3.543925   4.775470   4.669741   5.415603
    24  H    5.555099   3.867524   5.432379   4.345035   5.136184
    25  H    6.108530   4.425444   5.377738   4.608286   5.459860
    26  H    5.462953   3.678701   4.826454   5.747585   6.464403
    27  C    5.185284   5.095202   4.559970   4.468396   4.151741
    28  H    6.082723   6.030630   5.623184   4.396705   3.965549
    29  H    5.624866   5.355806   4.590855   5.050193   4.927216
    30  H    4.725862   5.000675   4.205966   5.210547   4.753757
    31  C    2.694107   2.622849   1.423872   7.811335   7.851463
    32  H    3.112185   2.442017   2.089142   7.712264   7.888110
    33  H    3.656991   3.609838   2.026685   8.497657   8.552623
    34  H    2.516425   2.998594   2.089340   8.367115   8.312005
                   21         22         23         24         25
    21  H    0.000000
    22  H    1.786460   0.000000
    23  C    5.287093   4.455274   0.000000
    24  H    4.822097   4.362985   1.098444   0.000000
    25  H    5.142406   4.188606   1.097323   1.788362   0.000000
    26  H    6.359782   5.538354   1.090739   1.783556   1.789742
    27  C    5.444632   3.875269   5.826986   6.318358   5.753793
    28  H    5.253398   3.802519   6.546751   6.942126   6.387604
    29  H    5.993144   4.283663   5.756190   6.401533   5.551106
    30  H    6.223242   4.768637   6.377846   6.875351   6.451707
    31  C    8.829050   7.620678   5.232672   5.907457   5.924514
    32  H    8.670280   7.545941   4.568581   5.227926   5.326852
    33  H    9.527639   8.190133   5.818863   6.614887   6.375236
    34  H    9.383013   8.288127   6.027145   6.576712   6.810495
                   26         27         28         29         30
    26  H    0.000000
    27  C    6.595251   0.000000
    28  H    7.398707   1.090873   0.000000
    29  H    6.442959   1.096728   1.788266   0.000000
    30  H    7.057748   1.096957   1.781374   1.788563   0.000000
    31  C    4.982428   5.952047   7.025677   5.889334   5.593658
    32  H    4.152160   6.414001   7.479529   6.320965   6.215436
    33  H    5.514832   6.192130   7.278122   5.963693   5.816288
    34  H    5.775755   6.576945   7.618189   6.641601   6.087060
                   31         32         33         34
    31  C    0.000000
    32  H    1.098632   0.000000
    33  H    1.091567   1.787520   0.000000
    34  H    1.098792   1.789638   1.787253   0.000000
 Stoichiometry    C10H19O5(1+)
 Framework group  C1[X(C10H19O5)]
 Deg. of freedom    96
 Full point group                 C1      NOp   1
 Largest Abelian subgroup         C1      NOp   1
 Largest concise Abelian subgroup C1      NOp   1
                         Standard orientation:                         
 ---------------------------------------------------------------------
 Center     Atomic      Atomic             Coordinates (Angstroms)
 Number     Number       Type             X           Y           Z
 ---------------------------------------------------------------------
      1          6           0       -0.612213    0.674569   -0.636157
      2          6           0       -1.423247    0.764513    0.705304
      3          6           0       -1.088806   -0.302268    1.695957
      4          6           0        0.935187   -0.968269    0.568064
      5          6           0        0.149396   -0.658240   -0.708055
      6          1           0       -1.764744   -0.488881    2.533061
      7          1           0       -1.025848    1.657558    1.226002
      8          1           0       -1.332617    0.694488   -1.462397
      9          1           0        1.272122   -2.004891    0.570972
     10          1           0        0.862897   -0.617694   -1.538921
     11          8           0       -0.026451   -0.973667    1.724799
     12          8           0       -2.804055    0.970489    0.626653
     13          8           0        0.315267    1.725567   -0.748688
     14          8           0       -0.851179   -1.641956   -0.892612
     15          6           0        2.110873   -0.060116    0.932877
     16          1           0        2.495406   -0.346555    1.923523
     17          1           0        1.800439    0.991498    0.962369
     18          8           0        3.059108   -0.291749   -0.083231
     19          6           0       -3.572095   -0.099248    0.049387
     20          1           0       -3.459396   -1.028447    0.622049
     21          1           0       -4.610026    0.230364    0.098420
     22          1           0       -3.291962   -0.285793   -0.991409
     23          6           0       -0.261860    2.977612   -1.126095
     24          1           0       -0.962181    3.349680   -0.366032
     25          1           0       -0.787689    2.888615   -2.085105
     26          1           0        0.566314    3.680719   -1.223464
     27          6           0       -0.426315   -2.830367   -1.566663
     28          1           0       -1.310711   -3.462949   -1.654336
     29          1           0       -0.043108   -2.591263   -2.566060
     30          1           0        0.344887   -3.370122   -1.003435
     31          6           0        4.213706    0.531799    0.043589
     32          1           0        3.951086    1.596461   -0.023624
     33          1           0        4.876695    0.269004   -0.782791
     34          1           0        4.729151    0.348816    0.996572
 ---------------------------------------------------------------------
 Rotational constants (GHZ):           0.7682725           0.4526894           0.3803866
 Leave Link  202 at Fri May 24 08:39:18 2019, MaxMem=   402653184 cpu:               0.6 elap:               0.2
 (Enter /n/sw/g16_nehalem/g16/l301.exe)
 Standard basis: 6-31G(d) (6D, 7F)
 Ernie: Thresh=  0.10000D-02 Tol=  0.10000D-05 Strict=F.
 There are   263 symmetry adapted cartesian basis functions of A   symmetry.
 There are   263 symmetry adapted basis functions of A   symmetry.
   263 basis functions,   496 primitive gaussians,   263 cartesian basis functions
    59 alpha electrons       59 beta electrons
       nuclear repulsion energy      1174.1360800216 Hartrees.
 IExCor=  402 DFT=T Ex+Corr=B3LYP ExCW=0 ScaHFX=  0.200000
 ScaDFX=  0.800000  0.720000  1.000000  0.810000 ScalE2=  1.000000  1.000000
 IRadAn=      5 IRanWt=     -1 IRanGd=            0 ICorTp=0 IEmpDi=  4
 NAtoms=   34 NActive=   34 NUniq=   34 SFac= 1.00D+00 NAtFMM=   60 NAOKFM=F Big=F
 Integral buffers will be    131072 words long.
 Raffenetti 2 integral format.
 Two-electron integral symmetry is turned on.
 ------------------------------------------------------------------------------
 Polarizable Continuum Model (PCM)
 =================================
 Model                : PCM.
 Atomic radii         : UFF (Universal Force Field).
 Polarization charges : Total charges.
 Charge compensation  : None.
 Solution method      : On-the-fly selection.
 Cavity type          : Scaled VdW (van der Waals Surface) (Alpha=1.100).
 Cavity algorithm     : GePol (No added spheres)
                        Default sphere list used, NSphG=   34.
                        Lebedev-Laikov grids with approx.  5.0 points / Ang**2.
                        Smoothing algorithm: York/Karplus (Gamma=1.0000).
                        Polarization charges: spherical gaussians, with
                                              point-specific exponents (IZeta= 3).
                        Self-potential: point-specific (ISelfS= 7).
                        Self-field    : sphere-specific E.n sum rule (ISelfD= 2).
 1st derivatives      : Analytical E(r).r(x)/FMM algorithm (CHGder, D1EAlg=3).
                        Cavity 1st derivative terms included.
 Solvent              : TetraHydroFuran, Eps=   7.425700 Eps(inf)=   1.974025
 ------------------------------------------------------------------------------
 GePol: Number of generator spheres                  =      34
 GePol: Total number of spheres                      =      34
 GePol: Number of exposed spheres                    =      34 (100.00%)
 GePol: Number of points                             =    2291
 GePol: Average weight of points                     =       0.13
 GePol: Minimum weight of points                     =   0.23D-10
 GePol: Maximum weight of points                     =    0.20577
 GePol: Number of points with low weight             =     139
 GePol: Fraction of low-weight points (<1% of avg)   =       6.07%
 GePol: Cavity surface area                          =    302.104 Ang**2
 GePol: Cavity volume                                =    321.189 Ang**3
 Leave Link  301 at Fri May 24 08:39:19 2019, MaxMem=   402653184 cpu:               0.8 elap:               0.3
 (Enter /n/sw/g16_nehalem/g16/l302.exe)
 NPDir=0 NMtPBC=     1 NCelOv=     1 NCel=       1 NClECP=     1 NCelD=      1
         NCelK=      1 NCelE2=     1 NClLst=     1 CellRange=     0.0.
 One-electron integrals computed using PRISM.
 One-electron integral symmetry used in STVInt
 NBasis=   263 RedAO= T EigKep=  1.68D-03  NBF=   263
 NBsUse=   263 1.00D-06 EigRej= -1.00D+00 NBFU=   263
 Precomputing XC quadrature grid using
 IXCGrd= 4 IRadAn=           5 IRanWt=          -1 IRanGd=           0 AccXCQ= 0.00D+00.
 Generated NRdTot=       0 NPtTot=           0 NUsed=           0 NTot=          32
 NSgBfM=   262   262   262   262   262 MxSgAt=    34 MxSgA2=    34.
 Leave Link  302 at Fri May 24 08:39:21 2019, MaxMem=   402653184 cpu:               7.1 elap:               1.8
 (Enter /n/sw/g16_nehalem/g16/l303.exe)
 DipDrv:  MaxL=1.
 Leave Link  303 at Fri May 24 08:39:21 2019, MaxMem=   402653184 cpu:               0.7 elap:               0.2
 (Enter /n/sw/g16_nehalem/g16/l401.exe)
 ExpMin= 1.61D-01 ExpMax= 5.48D+03 ExpMxC= 8.25D+02 IAcc=3 IRadAn=         5 AccDes= 0.00D+00
 Harris functional with IExCor=  402 and IRadAn=       5 diagonalized for initial guess.
 HarFok:  IExCor=  402 AccDes= 0.00D+00 IRadAn=         5 IDoV= 1 UseB2=F ITyADJ=14
 ICtDFT=  3500011 ScaDFX=  1.000000  1.000000  1.000000  1.000000
 FoFCou: FMM=F IPFlag=           0 FMFlag=      100000 FMFlg1=           0
         NFxFlg=           0 DoJE=T BraDBF=F KetDBF=T FulRan=T
         wScrn=  0.000000 ICntrl=       500 IOpCl=  0 I1Cent=   200000004 NGrid=           0
         NMat0=    1 NMatS0=      1 NMatT0=    0 NMatD0=    1 NMtDS0=    0 NMtDT0=    0
 Petite list used in FoFCou.
 Harris En= -768.257683863686    
 JPrj=0 DoOrth=F DoCkMO=F.
 Leave Link  401 at Fri May 24 08:39:34 2019, MaxMem=   402653184 cpu:              51.6 elap:              13.1
 (Enter /n/sw/g16_nehalem/g16/l502.exe)
 Integral symmetry usage will be decided dynamically.
 Closed shell SCF:
 Using DIIS extrapolation, IDIIS=  1040.
 NGot=   402653184 LenX=   402510103 LenY=   402440493
 Requested convergence on RMS density matrix=1.00D-08 within 128 cycles.
 Requested convergence on MAX density matrix=1.00D-06.
 Requested convergence on             energy=1.00D-06.
 No special actions if energy rises.
 Fock matrices will be formed incrementally for  20 cycles.

 Cycle   1  Pass 1  IDiag  1:
 FoFJK:  IHMeth= 1 ICntrl=       0 DoSepK=F KAlg= 0 I1Cent=           0 FoldK=F
 IRaf= 890000000 NMat=       1 IRICut=       1 DoRegI=T DoRafI=F ISym2E= 0 IDoP0=0 IntGTp=1.
 FoFCou: FMM=F IPFlag=           0 FMFlag=      100000 FMFlg1=           0
         NFxFlg=           0 DoJE=F BraDBF=F KetDBF=F FulRan=T
         wScrn=  0.000000 ICntrl=         0 IOpCl=  0 I1Cent=           0 NGrid=           0
         NMat0=    1 NMatS0=      1 NMatT0=    0 NMatD0=    1 NMtDS0=    0 NMtDT0=    0
 Symmetry not used in FoFCou.
 Inv3:  Mode=1 IEnd=    15746043.
 Iteration    1 A*A^-1 deviation from unit magnitude is 6.00D-15 for   1145.
 Iteration    1 A*A^-1 deviation from orthogonality  is 2.43D-15 for   2275    460.
 Iteration    1 A^-1*A deviation from unit magnitude is 5.77D-15 for   1145.
 Iteration    1 A^-1*A deviation from orthogonality  is 5.80D-14 for   1968   1946.
 E= -768.090906115127    
 DIIS: error= 2.24D-02 at cycle   1 NSaved=   1.
 NSaved= 1 IEnMin= 1 EnMin= -768.090906115127     IErMin= 1 ErrMin= 2.24D-02
 ErrMax= 2.24D-02  0.00D+00 EMaxC= 1.00D-01 BMatC= 2.53D-01 BMatP= 2.53D-01
 IDIUse=3 WtCom= 7.76D-01 WtEn= 2.24D-01
 Coeff-Com:  0.100D+01
 Coeff-En:   0.100D+01
 Coeff:      0.100D+01
 Gap=     0.036 Goal=   None    Shift=    0.000
 GapD=    0.036 DampG=0.250 DampE=0.500 DampFc=0.2500 IDamp=-1.
 Damping current iteration by 2.50D-01
 RMSDP=4.26D-03 MaxDP=1.04D-01              OVMax= 1.85D-01

 Cycle   2  Pass 1  IDiag  1:
 RMSU=  1.06D-03    CP:  9.96D-01
 E= -768.172726416283     Delta-E=       -0.081820301156 Rises=F Damp=T
 DIIS: error= 1.09D-02 at cycle   2 NSaved=   2.
 NSaved= 2 IEnMin= 2 EnMin= -768.172726416283     IErMin= 2 ErrMin= 1.09D-02
 ErrMax= 1.09D-02  0.00D+00 EMaxC= 1.00D-01 BMatC= 7.22D-02 BMatP= 2.53D-01
 IDIUse=3 WtCom= 8.91D-01 WtEn= 1.09D-01
 Coeff-Com: -0.879D+00 0.188D+01
 Coeff-En:   0.000D+00 0.100D+01
 Coeff:     -0.784D+00 0.178D+01
 Gap=     0.153 Goal=   None    Shift=    0.000
 RMSDP=1.22D-03 MaxDP=2.74D-02 DE=-8.18D-02 OVMax= 2.01D-01

 Cycle   3  Pass 1  IDiag  1:
 RMSU=  9.56D-04    CP:  9.87D-01  1.69D+00
 E= -768.318806136671     Delta-E=       -0.146079720388 Rises=F Damp=F
 DIIS: error= 3.76D-03 at cycle   3 NSaved=   3.
 NSaved= 3 IEnMin= 3 EnMin= -768.318806136671     IErMin= 3 ErrMin= 3.76D-03
 ErrMax= 3.76D-03  0.00D+00 EMaxC= 1.00D-01 BMatC= 1.11D-02 BMatP= 7.22D-02
 IDIUse=3 WtCom= 9.62D-01 WtEn= 3.76D-02
 Coeff-Com: -0.422D+00 0.801D+00 0.621D+00
 Coeff-En:   0.000D+00 0.000D+00 0.100D+01
 Coeff:     -0.407D+00 0.771D+00 0.636D+00
 Gap=     0.131 Goal=   None    Shift=    0.000
 RMSDP=4.62D-04 MaxDP=1.32D-02 DE=-1.46D-01 OVMax= 1.49D-02

 Cycle   4  Pass 1  IDiag  1:
 RMSU=  3.32D-04    CP:  9.90D-01  1.82D+00  7.01D-01
 E= -768.326149210780     Delta-E=       -0.007343074109 Rises=F Damp=F
 DIIS: error= 1.84D-03 at cycle   4 NSaved=   4.
 NSaved= 4 IEnMin= 4 EnMin= -768.326149210780     IErMin= 4 ErrMin= 1.84D-03
 ErrMax= 1.84D-03  0.00D+00 EMaxC= 1.00D-01 BMatC= 2.24D-03 BMatP= 1.11D-02
 IDIUse=3 WtCom= 9.82D-01 WtEn= 1.84D-02
 Coeff-Com: -0.131D+00 0.225D+00 0.328D+00 0.578D+00
 Coeff-En:   0.000D+00 0.000D+00 0.123D+00 0.877D+00
 Coeff:     -0.129D+00 0.220D+00 0.324D+00 0.584D+00
 Gap=     0.134 Goal=   None    Shift=    0.000
 RMSDP=1.57D-04 MaxDP=5.72D-03 DE=-7.34D-03 OVMax= 5.64D-03

 Cycle   5  Pass 1  IDiag  1:
 RMSU=  9.78D-05    CP:  9.89D-01  1.81D+00  7.71D-01  6.97D-01
 E= -768.327892935582     Delta-E=       -0.001743724802 Rises=F Damp=F
 DIIS: error= 3.86D-04 at cycle   5 NSaved=   5.
 NSaved= 5 IEnMin= 5 EnMin= -768.327892935582     IErMin= 5 ErrMin= 3.86D-04
 ErrMax= 3.86D-04  0.00D+00 EMaxC= 1.00D-01 BMatC= 1.25D-04 BMatP= 2.24D-03
 IDIUse=3 WtCom= 9.96D-01 WtEn= 3.86D-03
 Coeff-Com: -0.317D-01 0.485D-01 0.930D-01 0.261D+00 0.629D+00
 Coeff-En:   0.000D+00 0.000D+00 0.000D+00 0.000D+00 0.100D+01
 Coeff:     -0.316D-01 0.484D-01 0.927D-01 0.260D+00 0.631D+00
 Gap=     0.136 Goal=   None    Shift=    0.000
 RMSDP=4.45D-05 MaxDP=2.27D-03 DE=-1.74D-03 OVMax= 2.65D-03

 Cycle   6  Pass 1  IDiag  1:
 RMSU=  3.62D-05    CP:  9.89D-01  1.81D+00  7.78D-01  7.37D-01  7.81D-01
 E= -768.327975847808     Delta-E=       -0.000082912226 Rises=F Damp=F
 DIIS: error= 2.27D-04 at cycle   6 NSaved=   6.
 NSaved= 6 IEnMin= 6 EnMin= -768.327975847808     IErMin= 6 ErrMin= 2.27D-04
 ErrMax= 2.27D-04  0.00D+00 EMaxC= 1.00D-01 BMatC= 2.54D-05 BMatP= 1.25D-04
 IDIUse=3 WtCom= 9.98D-01 WtEn= 2.27D-03
 Coeff-Com: -0.940D-02 0.120D-01 0.308D-01 0.117D+00 0.393D+00 0.457D+00
 Coeff-En:   0.000D+00 0.000D+00 0.000D+00 0.000D+00 0.100D+00 0.900D+00
 Coeff:     -0.937D-02 0.120D-01 0.307D-01 0.117D+00 0.392D+00 0.458D+00
 Gap=     0.135 Goal=   None    Shift=    0.000
 RMSDP=1.57D-05 MaxDP=1.09D-03 DE=-8.29D-05 OVMax= 9.79D-04

 Cycle   7  Pass 1  IDiag  1:
 RMSU=  1.14D-05    CP:  9.89D-01  1.81D+00  7.78D-01  7.49D-01  8.33D-01
                    CP:  7.62D-01
 E= -768.327995682665     Delta-E=       -0.000019834857 Rises=F Damp=F
 DIIS: error= 5.13D-05 at cycle   7 NSaved=   7.
 NSaved= 7 IEnMin= 7 EnMin= -768.327995682665     IErMin= 7 ErrMin= 5.13D-05
 ErrMax= 5.13D-05  0.00D+00 EMaxC= 1.00D-01 BMatC= 1.66D-06 BMatP= 2.54D-05
 IDIUse=1 WtCom= 1.00D+00 WtEn= 0.00D+00
 Coeff-Com: -0.234D-02 0.218D-02 0.757D-02 0.421D-01 0.173D+00 0.261D+00
 Coeff-Com:  0.517D+00
 Coeff:     -0.234D-02 0.218D-02 0.757D-02 0.421D-01 0.173D+00 0.261D+00
 Coeff:      0.517D+00
 Gap=     0.135 Goal=   None    Shift=    0.000
 RMSDP=5.23D-06 MaxDP=3.03D-04 DE=-1.98D-05 OVMax= 3.75D-04

 Cycle   8  Pass 1  IDiag  1:
 RMSU=  3.83D-06    CP:  9.89D-01  1.81D+00  7.79D-01  7.55D-01  8.52D-01
                    CP:  7.83D-01  8.49D-01
 E= -768.327997125560     Delta-E=       -0.000001442895 Rises=F Damp=F
 DIIS: error= 9.51D-06 at cycle   8 NSaved=   8.
 NSaved= 8 IEnMin= 8 EnMin= -768.327997125560     IErMin= 8 ErrMin= 9.51D-06
 ErrMax= 9.51D-06  0.00D+00 EMaxC= 1.00D-01 BMatC= 9.02D-08 BMatP= 1.66D-06
 IDIUse=1 WtCom= 1.00D+00 WtEn= 0.00D+00
 Coeff-Com:  0.276D-03-0.598D-03-0.235D-02-0.330D-02 0.123D-02 0.167D-01
 Coeff-Com:  0.181D+00 0.807D+00
 Coeff:      0.276D-03-0.598D-03-0.235D-02-0.330D-02 0.123D-02 0.167D-01
 Coeff:      0.181D+00 0.807D+00
 Gap=     0.135 Goal=   None    Shift=    0.000
 RMSDP=2.73D-06 MaxDP=7.22D-05 DE=-1.44D-06 OVMax= 3.78D-04

 Cycle   9  Pass 1  IDiag  1:
 RMSU=  1.23D-06    CP:  9.89D-01  1.81D+00  7.80D-01  7.58D-01  8.64D-01
                    CP:  8.19D-01  9.57D-01  1.02D+00
 E= -768.327997269717     Delta-E=       -0.000000144157 Rises=F Damp=F
 DIIS: error= 5.45D-06 at cycle   9 NSaved=   9.
 NSaved= 9 IEnMin= 9 EnMin= -768.327997269717     IErMin= 9 ErrMin= 5.45D-06
 ErrMax= 5.45D-06  0.00D+00 EMaxC= 1.00D-01 BMatC= 1.67D-08 BMatP= 9.02D-08
 IDIUse=1 WtCom= 1.00D+00 WtEn= 0.00D+00
 Coeff-Com:  0.247D-03-0.353D-03-0.173D-02-0.483D-02-0.133D-01-0.143D-01
 Coeff-Com:  0.360D-01 0.379D+00 0.619D+00
 Coeff:      0.247D-03-0.353D-03-0.173D-02-0.483D-02-0.133D-01-0.143D-01
 Coeff:      0.360D-01 0.379D+00 0.619D+00
 Gap=     0.135 Goal=   None    Shift=    0.000
 RMSDP=8.17D-07 MaxDP=2.59D-05 DE=-1.44D-07 OVMax= 8.74D-05

 Cycle  10  Pass 1  IDiag  1:
 RMSU=  4.63D-07    CP:  9.89D-01  1.81D+00  7.80D-01  7.58D-01  8.67D-01
                    CP:  8.29D-01  9.84D-01  1.07D+00  8.46D-01
 E= -768.327997286805     Delta-E=       -0.000000017088 Rises=F Damp=F
 DIIS: error= 1.80D-06 at cycle  10 NSaved=  10.
 NSaved=10 IEnMin=10 EnMin= -768.327997286805     IErMin=10 ErrMin= 1.80D-06
 ErrMax= 1.80D-06  0.00D+00 EMaxC= 1.00D-01 BMatC= 2.67D-09 BMatP= 1.67D-08
 IDIUse=1 WtCom= 1.00D+00 WtEn= 0.00D+00
 Coeff-Com:  0.821D-04-0.901D-04-0.599D-03-0.206D-02-0.712D-02-0.978D-02
 Coeff-Com: -0.922D-02 0.777D-01 0.324D+00 0.628D+00
 Coeff:      0.821D-04-0.901D-04-0.599D-03-0.206D-02-0.712D-02-0.978D-02
 Coeff:     -0.922D-02 0.777D-01 0.324D+00 0.628D+00
 Gap=     0.135 Goal=   None    Shift=    0.000
 RMSDP=3.28D-07 MaxDP=8.84D-06 DE=-1.71D-08 OVMax= 3.07D-05

 Cycle  11  Pass 1  IDiag  1:
 RMSU=  1.57D-07    CP:  9.89D-01  1.81D+00  7.80D-01  7.59D-01  8.67D-01
                    CP:  8.31D-01  9.94D-01  1.10D+00  9.26D-01  7.72D-01
 E= -768.327997289614     Delta-E=       -0.000000002809 Rises=F Damp=F
 DIIS: error= 3.81D-07 at cycle  11 NSaved=  11.
 NSaved=11 IEnMin=11 EnMin= -768.327997289614     IErMin=11 ErrMin= 3.81D-07
 ErrMax= 3.81D-07  0.00D+00 EMaxC= 1.00D-01 BMatC= 1.46D-10 BMatP= 2.67D-09
 IDIUse=1 WtCom= 1.00D+00 WtEn= 0.00D+00
 Coeff-Com:  0.835D-05-0.190D-05-0.891D-04-0.381D-03-0.157D-02-0.240D-02
 Coeff-Com: -0.715D-02-0.191D-03 0.721D-01 0.248D+00 0.692D+00
 Coeff:      0.835D-05-0.190D-05-0.891D-04-0.381D-03-0.157D-02-0.240D-02
 Coeff:     -0.715D-02-0.191D-03 0.721D-01 0.248D+00 0.692D+00
 Gap=     0.135 Goal=   None    Shift=    0.000
 RMSDP=8.96D-08 MaxDP=2.34D-06 DE=-2.81D-09 OVMax= 7.97D-06

 Cycle  12  Pass 1  IDiag  1:
 RMSU=  5.30D-08    CP:  9.89D-01  1.81D+00  7.80D-01  7.59D-01  8.68D-01
                    CP:  8.32D-01  9.95D-01  1.11D+00  9.52D-01  8.46D-01
                    CP:  8.64D-01
 E= -768.327997289770     Delta-E=       -0.000000000156 Rises=F Damp=F
 DIIS: error= 1.80D-07 at cycle  12 NSaved=  12.
 NSaved=12 IEnMin=12 EnMin= -768.327997289770     IErMin=12 ErrMin= 1.80D-07
 ErrMax= 1.80D-07  0.00D+00 EMaxC= 1.00D-01 BMatC= 3.16D-11 BMatP= 1.46D-10
 IDIUse=1 WtCom= 1.00D+00 WtEn= 0.00D+00
 Coeff-Com: -0.528D-05 0.955D-05 0.363D-04 0.818D-04 0.147D-03 0.111D-03
 Coeff-Com: -0.303D-02-0.118D-01-0.811D-02 0.419D-01 0.363D+00 0.617D+00
 Coeff:     -0.528D-05 0.955D-05 0.363D-04 0.818D-04 0.147D-03 0.111D-03
 Coeff:     -0.303D-02-0.118D-01-0.811D-02 0.419D-01 0.363D+00 0.617D+00
 Gap=     0.135 Goal=   None    Shift=    0.000
 RMSDP=3.09D-08 MaxDP=8.26D-07 DE=-1.56D-10 OVMax= 2.34D-06

 Cycle  13  Pass 1  IDiag  1:
 RMSU=  1.46D-08    CP:  9.89D-01  1.81D+00  7.80D-01  7.59D-01  8.68D-01
                    CP:  8.32D-01  9.96D-01  1.11D+00  9.57D-01  8.66D-01
                    CP:  9.64D-01  7.80D-01
 E= -768.327997289808     Delta-E=       -0.000000000038 Rises=F Damp=F
 DIIS: error= 4.28D-08 at cycle  13 NSaved=  13.
 NSaved=13 IEnMin=13 EnMin= -768.327997289808     IErMin=13 ErrMin= 4.28D-08
 ErrMax= 4.28D-08  0.00D+00 EMaxC= 1.00D-01 BMatC= 1.23D-12 BMatP= 3.16D-11
 IDIUse=1 WtCom= 1.00D+00 WtEn= 0.00D+00
 Coeff-Com: -0.241D-05 0.329D-05 0.194D-04 0.595D-04 0.185D-03 0.274D-03
 Coeff-Com: -0.438D-03-0.336D-02-0.767D-02-0.638D-02 0.675D-01 0.208D+00
 Coeff-Com:  0.742D+00
 Coeff:     -0.241D-05 0.329D-05 0.194D-04 0.595D-04 0.185D-03 0.274D-03
 Coeff:     -0.438D-03-0.336D-02-0.767D-02-0.638D-02 0.675D-01 0.208D+00
 Coeff:      0.742D+00
 Gap=     0.135 Goal=   None    Shift=    0.000
 RMSDP=6.96D-09 MaxDP=2.51D-07 DE=-3.84D-11 OVMax= 5.71D-07

 Error on total polarization charges =  0.01171
 SCF Done:  E(RB3LYP) =  -768.327997290     A.U. after   13 cycles
            NFock= 13  Conv=0.70D-08     -V/T= 2.0091
 KE= 7.614059716041D+02 PE=-4.123236694673D+03 EE= 1.419366645758D+03
 Leave Link  502 at Fri May 24 08:45:19 2019, MaxMem=   402653184 cpu:            1380.9 elap:             345.5
 (Enter /n/sw/g16_nehalem/g16/l601.exe)
 Copying SCF densities to generalized density rwf, IOpCl= 0 IROHF=0.

 **********************************************************************

            Population analysis using the SCF density.

 **********************************************************************

 Orbital symmetries:
       Occupied  (A) (A) (A) (A) (A) (A) (A) (A) (A) (A) (A) (A)
                 (A) (A) (A) (A) (A) (A) (A) (A) (A) (A) (A) (A)
                 (A) (A) (A) (A) (A) (A) (A) (A) (A) (A) (A) (A)
                 (A) (A) (A) (A) (A) (A) (A) (A) (A) (A) (A) (A)
                 (A) (A) (A) (A) (A) (A) (A) (A) (A) (A) (A)
       Virtual   (A) (A) (A) (A) (A) (A) (A) (A) (A) (A) (A) (A)
                 (A) (A) (A) (A) (A) (A) (A) (A) (A) (A) (A) (A)
                 (A) (A) (A) (A) (A) (A) (A) (A) (A) (A) (A) (A)
                 (A) (A) (A) (A) (A) (A) (A) (A) (A) (A) (A) (A)
                 (A) (A) (A) (A) (A) (A) (A) (A) (A) (A) (A) (A)
                 (A) (A) (A) (A) (A) (A) (A) (A) (A) (A) (A) (A)
                 (A) (A) (A) (A) (A) (A) (A) (A) (A) (A) (A) (A)
                 (A) (A) (A) (A) (A) (A) (A) (A) (A) (A) (A) (A)
                 (A) (A) (A) (A) (A) (A) (A) (A) (A) (A) (A) (A)
                 (A) (A) (A) (A) (A) (A) (A) (A) (A) (A) (A) (A)
                 (A) (A) (A) (A) (A) (A) (A) (A) (A) (A) (A) (A)
                 (A) (A) (A) (A) (A) (A) (A) (A) (A) (A) (A) (A)
                 (A) (A) (A) (A) (A) (A) (A) (A) (A) (A) (A) (A)
                 (A) (A) (A) (A) (A) (A) (A) (A) (A) (A) (A) (A)
                 (A) (A) (A) (A) (A) (A) (A) (A) (A) (A) (A) (A)
                 (A) (A) (A) (A) (A) (A) (A) (A) (A) (A) (A) (A)
                 (A) (A) (A) (A) (A) (A) (A) (A) (A) (A) (A) (A)
 The electronic state is 1-A.
 Alpha  occ. eigenvalues --  -19.32945 -19.20829 -19.19906 -19.19674 -19.18493
 Alpha  occ. eigenvalues --  -10.39775 -10.31930 -10.31784 -10.29708 -10.29538
 Alpha  occ. eigenvalues --  -10.27687 -10.25941 -10.25643 -10.25478 -10.24660
 Alpha  occ. eigenvalues --   -1.21750  -1.09594  -1.08370  -1.07434  -1.06747
 Alpha  occ. eigenvalues --   -0.87096  -0.85384  -0.78139  -0.74964  -0.73727
 Alpha  occ. eigenvalues --   -0.71170  -0.69360  -0.68190  -0.66533  -0.62079
 Alpha  occ. eigenvalues --   -0.59086  -0.58811  -0.56623  -0.54303  -0.54028
 Alpha  occ. eigenvalues --   -0.52795  -0.51468  -0.50503  -0.50337  -0.49318
 Alpha  occ. eigenvalues --   -0.48454  -0.47816  -0.47169  -0.46157  -0.45625
 Alpha  occ. eigenvalues --   -0.45207  -0.43054  -0.42464  -0.41116  -0.40714
 Alpha  occ. eigenvalues --   -0.39399  -0.36912  -0.36329  -0.36057  -0.35209
 Alpha  occ. eigenvalues --   -0.33060  -0.30511  -0.29340  -0.28647
 Alpha virt. eigenvalues --   -0.15143   0.00633   0.03425   0.04880   0.06536
 Alpha virt. eigenvalues --    0.06886   0.08371   0.08719   0.09676   0.10692
 Alpha virt. eigenvalues --    0.11657   0.11859   0.12327   0.12971   0.13277
 Alpha virt. eigenvalues --    0.14004   0.14222   0.14447   0.14772   0.14913
 Alpha virt. eigenvalues --    0.15309   0.15567   0.16403   0.16723   0.18052
 Alpha virt. eigenvalues --    0.18158   0.18901   0.20090   0.21962   0.22283
 Alpha virt. eigenvalues --    0.22931   0.24688   0.27372   0.29266   0.31012
 Alpha virt. eigenvalues --    0.44178   0.45653   0.46496   0.47440   0.47980
 Alpha virt. eigenvalues --    0.48659   0.49162   0.50287   0.51324   0.52191
 Alpha virt. eigenvalues --    0.52585   0.53384   0.53973   0.54812   0.55269
 Alpha virt. eigenvalues --    0.56127   0.57329   0.58401   0.59120   0.60613
 Alpha virt. eigenvalues --    0.62957   0.64631   0.66910   0.68492   0.71036
 Alpha virt. eigenvalues --    0.73975   0.75029   0.75561   0.77927   0.78772
 Alpha virt. eigenvalues --    0.79506   0.80306   0.80858   0.81515   0.82502
 Alpha virt. eigenvalues --    0.83186   0.84208   0.84641   0.85106   0.85277
 Alpha virt. eigenvalues --    0.85603   0.86612   0.87897   0.88152   0.89323
 Alpha virt. eigenvalues --    0.90733   0.91956   0.92517   0.93732   0.94077
 Alpha virt. eigenvalues --    0.94865   0.96429   0.96707   0.98758   1.00912
 Alpha virt. eigenvalues --    1.02302   1.04868   1.08410   1.10080   1.10773
 Alpha virt. eigenvalues --    1.13837   1.16050   1.16401   1.17573   1.19312
 Alpha virt. eigenvalues --    1.22625   1.27155   1.30296   1.31320   1.33243
 Alpha virt. eigenvalues --    1.34659   1.36914   1.37393   1.40466   1.41186
 Alpha virt. eigenvalues --    1.43413   1.46323   1.47430   1.47989   1.48745
 Alpha virt. eigenvalues --    1.50838   1.53674   1.54590   1.56892   1.57361
 Alpha virt. eigenvalues --    1.61002   1.63923   1.67158   1.68658   1.70837
 Alpha virt. eigenvalues --    1.73285   1.74409   1.76169   1.80696   1.82029
 Alpha virt. eigenvalues --    1.84257   1.84656   1.86184   1.88583   1.89960
 Alpha virt. eigenvalues --    1.91691   1.94508   1.97516   1.98556   1.99851
 Alpha virt. eigenvalues --    2.00556   2.01849   2.03187   2.04137   2.05243
 Alpha virt. eigenvalues --    2.06534   2.07553   2.08343   2.09033   2.09850
 Alpha virt. eigenvalues --    2.11310   2.12045   2.12738   2.17243   2.18694
 Alpha virt. eigenvalues --    2.19938   2.21995   2.23482   2.23894   2.25389
 Alpha virt. eigenvalues --    2.26290   2.28850   2.30115   2.30527   2.34795
 Alpha virt. eigenvalues --    2.36990   2.40211   2.41549   2.44436   2.44939
 Alpha virt. eigenvalues --    2.49832   2.51538   2.54424   2.56098   2.58931
 Alpha virt. eigenvalues --    2.64868   2.67456   2.71223   2.72575   2.76080
 Alpha virt. eigenvalues --    2.77969   2.81727   2.84525   2.88535   2.92432
 Alpha virt. eigenvalues --    2.94931   2.97225   3.00416   3.07506   3.83651
 Alpha virt. eigenvalues --    3.89978   3.94868   3.99394   4.10857   4.11629
 Alpha virt. eigenvalues --    4.20743   4.23408   4.24413   4.25458   4.25926
 Alpha virt. eigenvalues --    4.35366   4.51661   4.64916   4.67623
          Condensed to atoms (all electrons):
               1          2          3          4          5          6
     1  C    4.988893   0.241656  -0.039924  -0.027681   0.326752   0.003065
     2  C    0.241656   5.122967   0.268345  -0.024458  -0.022744  -0.042981
     3  C   -0.039924   0.268345   4.859787  -0.045223  -0.001425   0.357666
     4  C   -0.027681  -0.024458  -0.045223   5.126979   0.288838   0.002815
     5  C    0.326752  -0.022744  -0.001425   0.288838   5.023344  -0.000103
     6  H    0.003065  -0.042981   0.357666   0.002815  -0.000103   0.433125
     7  H   -0.038197   0.357698  -0.036231   0.001514   0.001214  -0.000749
     8  H    0.372491  -0.060079   0.002913   0.005475  -0.037657  -0.000150
     9  H    0.004257  -0.000051   0.002030   0.372581  -0.041287  -0.000072
    10  H   -0.027686   0.004459   0.000702  -0.052367   0.358002   0.000020
    11  O   -0.006117  -0.019292   0.367370   0.128425  -0.025636  -0.034889
    12  O   -0.027764   0.237778  -0.031294   0.000192   0.002070   0.003881
    13  O    0.197225  -0.040710   0.003103   0.000273  -0.040025  -0.000077
    14  O   -0.049574   0.001151   0.011636  -0.044279   0.187919  -0.000034
    15  C   -0.004116   0.001335  -0.000023   0.317140  -0.029095  -0.000155
    16  H   -0.000505   0.000105  -0.000066  -0.035545   0.005698  -0.000022
    17  H    0.004089  -0.002351   0.002504  -0.028297  -0.014688  -0.000004
    18  O   -0.000898   0.000021  -0.000037  -0.044337   0.001670   0.000001
    19  C   -0.005833  -0.049031  -0.004927   0.000101  -0.000847  -0.000325
    20  H   -0.000851  -0.007234   0.008636  -0.000041   0.000063  -0.000292
    21  H   -0.000029   0.005085  -0.000086   0.000000  -0.000003  -0.000094
    22  H    0.005591  -0.003718  -0.000711   0.000035  -0.001567   0.000237
    23  C   -0.036992  -0.002811   0.000278  -0.000145   0.004868  -0.000001
    24  H   -0.007027   0.008312  -0.000050  -0.000044  -0.000104   0.000012
    25  H   -0.007142  -0.001793   0.000004   0.000006  -0.000006   0.000000
    26  H    0.004812  -0.000143   0.000006   0.000022  -0.000166   0.000000
    27  C    0.004567  -0.000231  -0.000224  -0.003730  -0.034848  -0.000001
    28  H   -0.000212   0.000024  -0.000007  -0.000155   0.005027   0.000000
    29  H    0.000051  -0.000014   0.000048  -0.000650  -0.007228   0.000000
    30  H   -0.000063  -0.000001  -0.000097   0.002917  -0.005230   0.000000
    31  C   -0.000027   0.000001  -0.000001   0.004302   0.000254   0.000000
    32  H    0.000048  -0.000001   0.000001   0.000298  -0.000172   0.000000
    33  H    0.000000   0.000000   0.000000  -0.000254   0.000009   0.000000
    34  H   -0.000005   0.000000   0.000000  -0.000177   0.000035   0.000000
               7          8          9         10         11         12
     1  C   -0.038197   0.372491   0.004257  -0.027686  -0.006117  -0.027764
     2  C    0.357698  -0.060079  -0.000051   0.004459  -0.019292   0.237778
     3  C   -0.036231   0.002913   0.002030   0.000702   0.367370  -0.031294
     4  C    0.001514   0.005475   0.372581  -0.052367   0.128425   0.000192
     5  C    0.001214  -0.037657  -0.041287   0.358002  -0.025636   0.002070
     6  H   -0.000749  -0.000150  -0.000072   0.000020  -0.034889   0.003881
     7  H    0.466924   0.002269  -0.000009  -0.000105  -0.000604  -0.030388
     8  H    0.002269   0.538327  -0.000121  -0.005250   0.000006   0.001473
     9  H   -0.000009  -0.000121   0.485691  -0.001064  -0.028314   0.000003
    10  H   -0.000105  -0.005250  -0.001064   0.520442   0.002430  -0.000068
    11  O   -0.000604   0.000006  -0.028314   0.002430   7.949347   0.001567
    12  O   -0.030388   0.001473   0.000003  -0.000068   0.001567   8.177216
    13  O    0.001660  -0.028720  -0.000086   0.003774  -0.000069   0.001365
    14  O    0.000215   0.003498  -0.003600  -0.025129  -0.005149  -0.000346
    15  C    0.000198  -0.000021  -0.034478  -0.000336  -0.024979  -0.000003
    16  H   -0.000038   0.000006  -0.008181   0.000208   0.002114   0.000000
    17  H    0.001149   0.000222   0.005316  -0.000143   0.000475   0.000014
    18  O   -0.000009  -0.000013   0.005658   0.009907   0.000971   0.000000
    19  C    0.005092   0.000758   0.000000   0.000009  -0.000050   0.234701
    20  H   -0.000115   0.000309   0.000000  -0.000001  -0.000651  -0.036475
    21  H   -0.000138  -0.000076   0.000000   0.000000   0.000001  -0.029942
    22  H   -0.000192   0.003087  -0.000001   0.000072   0.000044  -0.035155
    23  C    0.002126  -0.005880   0.000004   0.000113  -0.000008  -0.000018
    24  H    0.000874  -0.001562   0.000000   0.000036  -0.000001  -0.000079
    25  H    0.000340   0.011463   0.000000  -0.000079   0.000000   0.000119
    26  H   -0.000286   0.000017   0.000000  -0.000027   0.000000   0.000015
    27  C    0.000001   0.000264   0.002918  -0.004860   0.000289   0.000008
    28  H    0.000000  -0.000045  -0.000166   0.000012  -0.000006   0.000000
    29  H    0.000001  -0.000063  -0.000036   0.008764  -0.000010   0.000000
    30  H    0.000000   0.000030   0.003775  -0.000908   0.000188   0.000000
    31  C    0.000001   0.000000  -0.000134  -0.000172  -0.000047   0.000000
    32  H    0.000001   0.000000   0.000046   0.000026   0.000002   0.000000
    33  H    0.000000   0.000000  -0.000001  -0.000024   0.000000   0.000000
    34  H    0.000000   0.000000  -0.000058   0.000027   0.000002   0.000000
              13         14         15         16         17         18
     1  C    0.197225  -0.049574  -0.004116  -0.000505   0.004089  -0.000898
     2  C   -0.040710   0.001151   0.001335   0.000105  -0.002351   0.000021
     3  C    0.003103   0.011636  -0.000023  -0.000066   0.002504  -0.000037
     4  C    0.000273  -0.044279   0.317140  -0.035545  -0.028297  -0.044337
     5  C   -0.040025   0.187919  -0.029095   0.005698  -0.014688   0.001670
     6  H   -0.000077  -0.000034  -0.000155  -0.000022  -0.000004   0.000001
     7  H    0.001660   0.000215   0.000198  -0.000038   0.001149  -0.000009
     8  H   -0.028720   0.003498  -0.000021   0.000006   0.000222  -0.000013
     9  H   -0.000086  -0.003600  -0.034478  -0.008181   0.005316   0.005658
    10  H    0.003774  -0.025129  -0.000336   0.000208  -0.000143   0.009907
    11  O   -0.000069  -0.005149  -0.024979   0.002114   0.000475   0.000971
    12  O    0.001365  -0.000346  -0.000003   0.000000   0.000014   0.000000
    13  O    8.245379   0.001336  -0.005265   0.000337   0.014413   0.000139
    14  O    0.001336   8.272916   0.003179  -0.000052   0.000011   0.000025
    15  C   -0.005265   0.003179   4.908624   0.352875   0.346235   0.234024
    16  H    0.000337  -0.000052   0.352875   0.594998  -0.049894  -0.036864
    17  H    0.014413   0.000011   0.346235  -0.049894   0.579955  -0.036276
    18  O    0.000139   0.000025   0.234024  -0.036864  -0.036276   8.208676
    19  C    0.000053   0.001014   0.000002   0.000000   0.000000   0.000000
    20  H   -0.000002   0.000757   0.000001   0.000000   0.000000   0.000000
    21  H    0.000001   0.000138   0.000000   0.000000   0.000000   0.000000
    22  H   -0.000014   0.003674  -0.000002   0.000000   0.000000   0.000000
    23  C    0.234416  -0.000064   0.000149  -0.000008  -0.000088   0.000003
    24  H   -0.036290   0.000003   0.000043   0.000000  -0.000143   0.000000
    25  H   -0.034527  -0.000006  -0.000015   0.000000   0.000078   0.000000
    26  H   -0.030393   0.000001   0.000003  -0.000001  -0.000073  -0.000001
    27  C   -0.000053   0.234880   0.000071  -0.000002  -0.000003  -0.000010
    28  H    0.000001  -0.030729   0.000002   0.000000   0.000000   0.000000
    29  H   -0.000012  -0.034988   0.000054  -0.000001   0.000001  -0.000009
    30  H    0.000004  -0.035535  -0.000354   0.000020  -0.000004  -0.000003
    31  C    0.000028   0.000000  -0.038603  -0.003771  -0.004245   0.241466
    32  H    0.000125   0.000000  -0.008334  -0.002018   0.011403  -0.035339
    33  H    0.000000   0.000000   0.005580  -0.000122  -0.000099  -0.031497
    34  H    0.000004   0.000000  -0.007614   0.010364  -0.002295  -0.035800
              19         20         21         22         23         24
     1  C   -0.005833  -0.000851  -0.000029   0.005591  -0.036992  -0.007027
     2  C   -0.049031  -0.007234   0.005085  -0.003718  -0.002811   0.008312
     3  C   -0.004927   0.008636  -0.000086  -0.000711   0.000278  -0.000050
     4  C    0.000101  -0.000041   0.000000   0.000035  -0.000145  -0.000044
     5  C   -0.000847   0.000063  -0.000003  -0.001567   0.004868  -0.000104
     6  H   -0.000325  -0.000292  -0.000094   0.000237  -0.000001   0.000012
     7  H    0.005092  -0.000115  -0.000138  -0.000192   0.002126   0.000874
     8  H    0.000758   0.000309  -0.000076   0.003087  -0.005880  -0.001562
     9  H    0.000000   0.000000   0.000000  -0.000001   0.000004   0.000000
    10  H    0.000009  -0.000001   0.000000   0.000072   0.000113   0.000036
    11  O   -0.000050  -0.000651   0.000001   0.000044  -0.000008  -0.000001
    12  O    0.234701  -0.036475  -0.029942  -0.035155  -0.000018  -0.000079
    13  O    0.000053  -0.000002   0.000001  -0.000014   0.234416  -0.036290
    14  O    0.001014   0.000757   0.000138   0.003674  -0.000064   0.000003
    15  C    0.000002   0.000001   0.000000  -0.000002   0.000149   0.000043
    16  H    0.000000   0.000000   0.000000   0.000000  -0.000008   0.000000
    17  H    0.000000   0.000000   0.000000   0.000000  -0.000088  -0.000143
    18  O    0.000000   0.000000   0.000000   0.000000   0.000003   0.000000
    19  C    4.943335   0.366718   0.382652   0.365593   0.000001  -0.000030
    20  H    0.366718   0.575843  -0.028231  -0.042886   0.000000   0.000002
    21  H    0.382652  -0.028231   0.502272  -0.027382   0.000000  -0.000004
    22  H    0.365593  -0.042886  -0.027382   0.553442  -0.000019   0.000012
    23  C    0.000001   0.000000   0.000000  -0.000019   4.911709   0.364408
    24  H   -0.000030   0.000002  -0.000004   0.000012   0.364408   0.581148
    25  H    0.000005   0.000000   0.000001  -0.000013   0.370516  -0.043262
    26  H    0.000000   0.000000   0.000000   0.000000   0.385921  -0.030286
    27  C    0.000000   0.000010  -0.000004  -0.000073   0.000003   0.000000
    28  H    0.000009   0.000014  -0.000002   0.000011   0.000000   0.000000
    29  H    0.000010   0.000004   0.000000  -0.000027   0.000000   0.000000
    30  H    0.000002  -0.000005   0.000000   0.000017   0.000000   0.000000
    31  C    0.000000   0.000000   0.000000   0.000000  -0.000004   0.000000
    32  H    0.000000   0.000000   0.000000   0.000000  -0.000001   0.000001
    33  H    0.000000   0.000000   0.000000   0.000000   0.000000   0.000000
    34  H    0.000000   0.000000   0.000000   0.000000   0.000000   0.000000
              25         26         27         28         29         30
     1  C   -0.007142   0.004812   0.004567  -0.000212   0.000051  -0.000063
     2  C   -0.001793  -0.000143  -0.000231   0.000024  -0.000014  -0.000001
     3  C    0.000004   0.000006  -0.000224  -0.000007   0.000048  -0.000097
     4  C    0.000006   0.000022  -0.003730  -0.000155  -0.000650   0.002917
     5  C   -0.000006  -0.000166  -0.034848   0.005027  -0.007228  -0.005230
     6  H    0.000000   0.000000  -0.000001   0.000000   0.000000   0.000000
     7  H    0.000340  -0.000286   0.000001   0.000000   0.000001   0.000000
     8  H    0.011463   0.000017   0.000264  -0.000045  -0.000063   0.000030
     9  H    0.000000   0.000000   0.002918  -0.000166  -0.000036   0.003775
    10  H   -0.000079  -0.000027  -0.004860   0.000012   0.008764  -0.000908
    11  O    0.000000   0.000000   0.000289  -0.000006  -0.000010   0.000188
    12  O    0.000119   0.000015   0.000008   0.000000   0.000000   0.000000
    13  O   -0.034527  -0.030393  -0.000053   0.000001  -0.000012   0.000004
    14  O   -0.000006   0.000001   0.234880  -0.030729  -0.034988  -0.035535
    15  C   -0.000015   0.000003   0.000071   0.000002   0.000054  -0.000354
    16  H    0.000000  -0.000001  -0.000002   0.000000  -0.000001   0.000020
    17  H    0.000078  -0.000073  -0.000003   0.000000   0.000001  -0.000004
    18  O    0.000000  -0.000001  -0.000010   0.000000  -0.000009  -0.000003
    19  C    0.000005   0.000000   0.000000   0.000009   0.000010   0.000002
    20  H    0.000000   0.000000   0.000010   0.000014   0.000004  -0.000005
    21  H    0.000001   0.000000  -0.000004  -0.000002   0.000000   0.000000
    22  H   -0.000013   0.000000  -0.000073   0.000011  -0.000027   0.000017
    23  C    0.370516   0.385921   0.000003   0.000000   0.000000   0.000000
    24  H   -0.043262  -0.030286   0.000000   0.000000   0.000000   0.000000
    25  H    0.562335  -0.027669   0.000000   0.000000   0.000001   0.000000
    26  H   -0.027669   0.509312   0.000000   0.000000   0.000000   0.000000
    27  C    0.000000   0.000000   4.900255   0.385688   0.373311   0.365578
    28  H    0.000000   0.000000   0.385688   0.510307  -0.027905  -0.030494
    29  H    0.000001   0.000000   0.373311  -0.027905   0.559161  -0.042645
    30  H    0.000000   0.000000   0.365578  -0.030494  -0.042645   0.577766
    31  C    0.000000   0.000003   0.000000   0.000000   0.000000   0.000000
    32  H    0.000000   0.000021   0.000000   0.000000   0.000000   0.000000
    33  H    0.000000   0.000000   0.000000   0.000000   0.000000   0.000000
    34  H    0.000000   0.000000   0.000000   0.000000   0.000000   0.000000
              31         32         33         34
     1  C   -0.000027   0.000048   0.000000  -0.000005
     2  C    0.000001  -0.000001   0.000000   0.000000
     3  C   -0.000001   0.000001   0.000000   0.000000
     4  C    0.004302   0.000298  -0.000254  -0.000177
     5  C    0.000254  -0.000172   0.000009   0.000035
     6  H    0.000000   0.000000   0.000000   0.000000
     7  H    0.000001   0.000001   0.000000   0.000000
     8  H    0.000000   0.000000   0.000000   0.000000
     9  H   -0.000134   0.000046  -0.000001  -0.000058
    10  H   -0.000172   0.000026  -0.000024   0.000027
    11  O   -0.000047   0.000002   0.000000   0.000002
    12  O    0.000000   0.000000   0.000000   0.000000
    13  O    0.000028   0.000125   0.000000   0.000004
    14  O    0.000000   0.000000   0.000000   0.000000
    15  C   -0.038603  -0.008334   0.005580  -0.007614
    16  H   -0.003771  -0.002018  -0.000122   0.010364
    17  H   -0.004245   0.011403  -0.000099  -0.002295
    18  O    0.241466  -0.035339  -0.031497  -0.035800
    19  C    0.000000   0.000000   0.000000   0.000000
    20  H    0.000000   0.000000   0.000000   0.000000
    21  H    0.000000   0.000000   0.000000   0.000000
    22  H    0.000000   0.000000   0.000000   0.000000
    23  C   -0.000004  -0.000001   0.000000   0.000000
    24  H    0.000000   0.000001   0.000000   0.000000
    25  H    0.000000   0.000000   0.000000   0.000000
    26  H    0.000003   0.000021   0.000000   0.000000
    27  C    0.000000   0.000000   0.000000   0.000000
    28  H    0.000000   0.000000   0.000000   0.000000
    29  H    0.000000   0.000000   0.000000   0.000000
    30  H    0.000000   0.000000   0.000000   0.000000
    31  C    4.888956   0.368239   0.386144   0.367893
    32  H    0.368239   0.582702  -0.030009  -0.044804
    33  H    0.386144  -0.030009   0.521182  -0.030334
    34  H    0.367893  -0.044804  -0.030334   0.586228
 Mulliken charges:
               1
     1  C    0.127146
     2  C    0.028708
     3  C    0.275299
     4  C    0.055468
     5  C    0.057072
     6  H    0.279127
     7  H    0.265785
     8  H    0.197030
     9  H    0.235379
    10  H    0.209214
    11  O   -0.307412
    12  O   -0.468869
    13  O   -0.487393
    14  O   -0.492867
    15  C   -0.016123
    16  H    0.170362
    17  H    0.172738
    18  O   -0.481466
    19  C   -0.239011
    20  H    0.164426
    21  H    0.195843
    22  H    0.179946
    23  C   -0.228475
    24  H    0.164033
    25  H    0.169647
    26  H    0.188912
    27  C   -0.223806
    28  H    0.188627
    29  H    0.172181
    30  H    0.165042
    31  C   -0.210285
    32  H    0.157764
    33  H    0.179425
    34  H    0.156531
 Sum of Mulliken charges =   1.00000
 Mulliken charges with hydrogens summed into heavy atoms:
               1
     1  C    0.324176
     2  C    0.294493
     3  C    0.554426
     4  C    0.290847
     5  C    0.266286
    11  O   -0.307412
    12  O   -0.468869
    13  O   -0.487393
    14  O   -0.492867
    15  C    0.326977
    18  O   -0.481466
    19  C    0.301204
    23  C    0.294116
    27  C    0.302045
    31  C    0.283435
 Electronic spatial extent (au):  <R**2>=           3354.1364
 Charge=              1.0000 electrons
 Dipole moment (field-independent basis, Debye):
    X=             -1.4404    Y=             -0.8292    Z=              2.6771  Tot=              3.1511
 Quadrupole moment (field-independent basis, Debye-Ang):
   XX=            -67.3284   YY=            -71.9883   ZZ=            -73.5748
   XY=              4.2940   XZ=              0.2959   YZ=             -0.0017
 Traceless Quadrupole moment (field-independent basis, Debye-Ang):
   XX=              3.6354   YY=             -1.0245   ZZ=             -2.6109
   XY=              4.2940   XZ=              0.2959   YZ=             -0.0017
 Octapole moment (field-independent basis, Debye-Ang**2):
[...]
 00002721,0.00001133,0.00002755,0.00002781,-0.00000447,-0.00004150,-0.0
 0002017,0.00006839,0.00001224,-0.00004876,-0.00001719,-0.00002777,0.00
 003878,-0.00005610,-0.00003623,0.00007251,-0.00002414,0.00000375,0.000
 00478,0.00001053,0.00000908,-0.00000761,0.00001106,-0.00000119,-0.0000
 1163,0.00000705,-0.02724002,-0.07034879,0.06717580,-0.00414479,-0.0026
 7282,0.01676158,0.02022652,0.07592338,-0.00027780,0.00023465,0.0001121
 1,-0.00031604,0.00003271,-0.00004543,-0.00007431,0.00037640,0.00052583
 ,-0.00035408,-0.00009556,-0.00029958,0.00286895,0.00300493,0.00114949,
 -0.00000168,-0.00000294,0.00001445,0.00004414,-0.00002762,0.00005143,-
 0.00004126,0.00004046,-0.00004472,0.00011918,0.00003344,0.00003915,-0.
 00075335,-0.00094622,-0.00056897,-0.00011221,-0.00010007,0.00005018,0.
 00008820,0.00001357,0.00004882,-0.00001383,-0.00046763,0.00004325,0.00
 874912,-0.01285249,-0.01605702,0.00020596,0.00008193,-0.00024253,-0.00
 010102,-0.00004828,-0.00000281,-0.00003567,-0.00002170,0.00001062,-0.0
 0015176,-0.00002873,0.00006471,0.00002446,0.00005170,-0.00000683,-0.00
 003720,-0.00002630,0.00007282,0.00001819,-0.00004563,-0.00002284,-0.00
 005995,0.00005067,-0.00005335,-0.00009461,0.00011568,-0.00008272,0.000
 01415,-0.00001812,0.00001511,0.00002461,-0.00000962,0.00001810,0.00000
 421,-0.00003830,0.00001126,0.07661482,0.06295833,-0.26322243,-0.001508
 74,0.00022319,0.00515396,-0.09091894,-0.05882360,0.28750903,0.00021634
 ,-0.00016363,0.00008458,0.00012995,0.00001544,-0.00005192,-0.00013833,
 -0.00002170,-0.00040710,0.00061507,0.00063314,-0.00040760,-0.00129764,
 -0.00239935,0.00046954,-0.00000144,-0.00002763,-0.00000922,-0.00000666
 ,0.00002811,0.00000351,0.00008583,-0.00009561,0.00005824,0.00028950,-0
 .00082008,-0.00002355,0.00030371,0.00009205,0.00010178,0.00032641,-0.0
 0016923,0.00011167,-0.00008514,-0.00000858,0.00006980,-0.00000923,0.00
 048851,0.00001308,-0.00472466,0.01278033,0.00144090,0.00001725,-0.0001
 0581,0.00040662,0.00012271,0.00006995,0.00002760,-0.00003270,-0.000044
 22,-0.00000674,0.00006905,-0.00000986,-0.00002222,-0.00001739,-0.00000
 741,-0.00008806,0.00002303,0.00000559,-0.00003959,-0.00002094,0.000029
 09,0.00003748,0.00006841,-0.00004991,0.00007255,0.00011521,-0.00014270
 ,0.00007342,-0.00002266,0.00002313,-0.00000366,-0.00002315,0.00000820,
 -0.00001308,-0.00000527,0.00004426,-0.00001287,-0.17881365,0.08014263,
 -0.09802213,-0.01646868,0.01241350,-0.01554504,0.00941196,-0.00637142,
 0.00604398,0.18990845,-0.00055908,-0.00001331,0.00016847,-0.00013439,0
 .00014884,0.00011272,0.00022151,-0.00007546,0.00049514,0.00018953,-0.0
 0063494,-0.00036522,0.00431429,0.00337191,0.00242660,-0.00001624,0.000
 04095,0.00000062,0.00000191,-0.00001580,-0.00000170,-0.00020574,0.0001
 5011,-0.00011958,-0.00088066,-0.00044469,-0.00087615,-0.00041446,-0.00
 045027,0.00011078,-0.00032476,0.00017987,-0.00003801,0.00005630,0.0000
 1496,-0.00006980,-0.00002570,-0.00076406,-0.00010194,0.02386387,-0.028
 09529,0.00336723,-0.00014960,0.00034538,-0.00015357,-0.00006355,-0.000
 05621,-0.00000127,0.00012980,0.00005728,0.00005305,-0.00002815,0.00002
 043,-0.00002565,0.00009400,0.00002782,0.00016479,-0.00004022,-0.000017
 41,0.00005742,0.00002061,-0.00006490,-0.00007161,-0.00011125,0.0000889
 8,-0.00014234,-0.00016482,0.00015164,-0.00010167,0.00002973,-0.0000310
 3,0.00000095,0.00003098,-0.00000221,0.00001619,0.00001447,-0.00005942,
 0.00002092,0.07713458,-0.10475277,0.06470081,-0.01237915,0.01161958,-0
 .01007720,0.00572764,-0.00146391,0.00630246,-0.09631336,0.12072063,-0.
 00021797,-0.00003359,0.00008184,-0.00003665,0.00007151,0.00006257,0.00
 006133,-0.00013494,-0.00001014,0.00020351,-0.00000343,-0.00010670,0.00
 088020,0.00069970,0.00124931,0.00001041,0.00001404,0.00000242,0.000001
 05,0.00000959,-0.00000907,-0.00004656,0.00006894,-0.00004894,-0.000182
 31,-0.00042878,-0.00118261,-0.00013997,-0.00014454,-0.00036954,0.00020
 423,-0.00001744,-0.00003602,0.00004121,0.00001279,-0.00001396,-0.00002
 720,-0.00024980,-0.00003323,0.01671854,-0.01423813,0.01187421,-0.00003
 640,0.00025802,0.00019488,0.00000834,0.00000573,-0.00000444,0.00004542
 ,-0.00002022,0.00002962,-0.00005127,-0.00005508,-0.00003668,0.00003789
 ,-0.00001731,0.00004861,-0.00001149,-0.00000119,0.00002259,0.00000691,
 -0.00002474,-0.00003048,-0.00003365,0.00003412,-0.00005543,-0.00006539
 ,0.00004389,-0.00004568,0.00001100,-0.00001039,0.00000067,0.00001434,-
 0.00000237,0.00000802,0.00000766,-0.00002002,0.00000790,-0.10099682,0.
 06593810,-0.13294706,-0.00040511,0.00103668,-0.00039216,-0.02163829,0.
 01305322,-0.01424875,0.10563608,-0.06585232,0.13599390,-0.00036035,0.0
 0020414,-0.00011204,-0.00066023,-0.00021681,0.00000013,-0.00112525,0.0
 0064430,-0.00041338,-0.00454578,0.00007281,0.00327590,-0.00108226,-0.0
 0028420,-0.00077627,0.00009573,-0.00017593,-0.00001038,0.00000676,0.00
 010510,0.00014569,0.00014320,-0.00009446,0.00006317,-0.00008152,-0.000
 47604,-0.00017534,-0.00045997,-0.00001406,-0.00068523,0.00255889,-0.00
 047902,-0.00049886,0.00065559,0.00007853,0.00011469,0.00079748,-0.0010
 3121,0.00068255,0.00095360,0.00087311,0.00066072,-0.04233427,-0.017007
 13,0.00754199,0.00567260,0.00049091,-0.00427048,0.00389523,-0.00179997
 ,-0.00377355,-0.16380277,-0.05996708,0.00572987,-0.00016308,-0.0002320
 7,-0.00012503,-0.00001048,0.00002800,0.00002370,0.00005557,0.00001074,
 0.00000386,-0.00002692,0.00004142,-0.00000622,-0.00011725,0.00088955,-
 0.00020817,0.00009720,-0.00012807,0.00000106,0.00012211,-0.00014466,0.
 00010284,-0.00002328,-0.00008528,0.00002190,0.00017258,-0.00062523,-0.
 00043191,0.00004845,0.00008446,0.00005857,-0.00006915,0.00004174,0.000
 07417,-0.00006159,-0.00001951,0.00000254,0.51294056,0.00003480,0.00069
 217,-0.00016541,-0.00061001,-0.00014260,0.00005302,-0.00111838,0.00114
 825,-0.00052594,-0.00046400,-0.00284900,-0.00087038,-0.00071775,-0.000
 16343,-0.00061741,0.00000718,-0.00035816,-0.00008899,0.00003529,0.0000
 9517,0.00010586,0.00002945,-0.00015631,0.00007319,-0.00026423,0.000183
 10,0.00003523,-0.00016462,-0.00000312,-0.00046076,0.00337434,0.0008276
 8,-0.00038722,0.00050426,0.00000252,0.00015178,-0.00004120,-0.00096809
 ,0.00037585,0.00083186,0.00061997,0.00058812,0.00078269,-0.00008020,0.
 00430512,0.00147654,0.00009208,-0.00277086,0.00544600,0.00272518,-0.00
 302334,-0.08515112,-0.12413190,-0.01184148,-0.00012803,-0.00016492,-0.
 00011711,-0.00001485,0.00001301,0.00002325,0.00004300,0.00000487,0.000
 00545,-0.00001823,0.00003512,-0.00000014,0.00001053,0.00050556,-0.0001
 3924,0.00003447,-0.00007011,0.00002559,0.00004034,-0.00009421,0.000041
 79,0.00001911,-0.00013797,0.00006137,0.00013766,-0.00047714,-0.0003192
 2,0.00002897,0.00006971,0.00004078,-0.00005349,0.00003258,0.00005940,-
 0.00004216,-0.00000027,0.00001234,-0.06520635,0.53896458,0.00007126,-0
 .00008708,-0.00006480,-0.00027057,-0.00003691,0.00009298,-0.00037993,0
 .00066766,-0.00045924,0.00209854,-0.00124868,-0.00415610,-0.00038186,0
 .00005027,-0.00063447,-0.00002245,-0.00028530,-0.00010295,0.00004165,0
 .00002611,0.00006714,-0.00000454,-0.00000983,0.00004623,-0.00008190,0.
 00002509,-0.00017772,0.00012871,-0.00009657,0.00055213,0.00258498,0.00
 050138,0.00024419,0.00017925,0.00000935,0.00009403,0.00004385,-0.00011
 976,0.00009954,-0.00001793,0.00017789,0.00029709,0.02976765,0.01868512
 ,-0.00387193,0.00317394,0.00091780,0.00089556,-0.00020906,0.00007881,0
 .00049013,-0.02515565,-0.03177832,-0.08043783,-0.00005654,-0.00007723,
 -0.00004904,-0.00000915,0.00001043,-0.00000030,0.00001535,0.00000445,0
 .00000674,0.00000115,0.00001000,0.00000459,-0.00002723,0.00013014,-0.0
 0001418,0.00001059,-0.00000971,0.00000061,0.00001718,-0.00002177,0.000
 01809,-0.00000187,-0.00000581,0.00000555,0.00003526,-0.00004283,-0.000
 02196,0.00000306,0.00001165,0.00000661,-0.00000050,0.00001065,0.000011
 14,-0.00000343,-0.00000481,-0.00000297,-0.03394678,0.00723532,0.607524
 91,-0.00004239,-0.00010337,-0.00000505,0.00004106,0.00003804,-0.000002
 83,0.00006854,-0.00010174,0.00007520,0.00056422,-0.00020428,-0.0002957
 1,0.00008487,0.00003773,0.00009044,-0.00001994,0.00002108,-0.00000484,
 -0.00001132,-0.00000142,-0.00000629,-0.00000339,0.00001474,-0.00000605
 ,-0.00005662,0.00021115,0.00009296,0.00006222,-0.00001170,0.00007807,-
 0.00037924,0.00017080,0.00005165,-0.00003704,-0.00000267,-0.00001051,0
 .00005727,0.00008616,-0.00003056,-0.00006595,-0.00005723,-0.00004923,0
 .00505934,-0.00410215,-0.00334084,-0.00068955,0.00030385,0.00037478,0.
 00045996,0.00177735,-0.00011260,-0.00360395,-0.03918028,0.00294778,0.0
 0001024,0.00001317,0.00000830,0.00000090,-0.00000153,-0.00000133,-0.00
 000287,-0.00000027,-0.00000036,0.00000127,-0.00000267,-0.00000003,0.00
 000145,0.00001004,-0.00000854,-0.00000217,-0.00000575,-0.00000282,0.00
 000039,0.00000565,-0.00000174,-0.00001127,0.00000116,-0.00000174,-0.00
 000797,0.00004435,0.00003335,-0.00000416,-0.00000471,-0.00000468,0.000
 00414,-0.00000300,-0.00000580,0.00000355,0.00000441,0.00000158,-0.0740
 4859,0.07499859,-0.00363699,0.07770143,-0.00005959,-0.00023199,0.00006
 476,0.00011562,0.00006972,-0.00001605,0.00024651,-0.00024523,0.0001310
 7,0.00044859,0.00069602,-0.00009485,0.00017643,0.00001522,0.00012962,-
 0.00001661,0.00006042,0.00000591,-0.00001400,-0.00001964,-0.00001656,0
 .00000044,0.00004240,-0.00001201,0.00026255,0.00022427,0.00003873,0.00
 008033,-0.00002810,0.00013205,-0.00071923,0.00003653,0.00004146,-0.000
 08577,0.00000284,-0.00003331,0.00014579,0.00022620,-0.00006767,-0.0001
 7645,-0.00009746,-0.00011213,0.00328248,0.00070710,-0.00324789,-0.0001
 6526,-0.00011634,0.00061641,-0.00157453,-0.00017257,0.00132822,-0.0135
 3700,-0.02497167,-0.00052348,0.00002053,0.00002492,0.00002120,0.000002
 80,-0.00000141,-0.00000531,-0.00000743,-0.00000068,-0.00000074,0.00000
 338,-0.00000729,-0.00000005,-0.00002369,-0.00006416,0.00002157,0.00000
 561,0.00000922,-0.00001083,-0.00000307,0.00001438,-0.00000475,-0.00000
 915,0.00004790,-0.00001479,-0.00000991,0.00007398,0.00006573,-0.000009
 93,-0.00000990,-0.00000823,0.00001130,-0.00000658,-0.00000960,0.000004
 36,0.00000953,-0.00000525,0.07040942,-0.28046537,0.01755287,-0.0656419
 8,0.31352384,-0.00000248,-0.00005160,0.00004067,0.00005374,0.00002303,
 0.00000537,0.00008506,-0.00004301,0.00002682,0.00017752,0.00003257,-0.
 00003480,0.00003207,-0.00000529,0.00007734,0.00000010,0.00001632,0.000
 00082,0.00000366,-0.00000953,-0.00000353,-0.00000230,0.00001126,-0.000
 00670,0.00002199,-0.00002625,-0.00004128,0.00000370,-0.00001520,0.0000
 0863,-0.00010678,0.00001642,-0.00002109,-0.00003723,-0.00000833,-0.000
 02031,0.00003816,0.00008305,-0.00010225,-0.00004807,-0.00003976,-0.000
 05857,-0.00036608,0.00203407,0.00015724,-0.00022095,0.00000622,-0.0000
 5293,-0.00030043,-0.00024137,0.00032412,0.00093681,-0.00603877,0.00286
 984,0.00000993,0.00001705,0.00001125,0.00000107,-0.00000185,-0.0000010
 7,-0.00000325,-0.00000129,-0.00000072,0.00000066,-0.00000332,-0.000001
 35,-0.00000958,-0.00001647,-0.00000013,0.00000909,0.00000071,-0.000006
 55,-0.00001016,0.00000688,-0.00000801,-0.00000655,0.00001123,0.0000108
 3,-0.00000878,0.00002900,0.00002685,-0.00000243,-0.00000354,-0.0000033
 4,0.00000370,-0.00000294,-0.00000560,0.00000254,0.00000245,-0.00000069
 ,-0.00479752,0.01782906,-0.05615923,0.00659703,-0.01732056,0.04996693,
 -0.00003265,-0.00008447,0.00003411,0.00017487,0.00002486,-0.00002333,0
 .00031000,-0.00037637,0.00021192,-0.00002238,0.00075093,0.00119994,0.0
 0019057,0.00006662,0.00030417,-0.00000091,0.00012679,0.00003334,-0.000
 01283,-0.00002156,-0.00003396,-0.00001826,0.00003039,-0.00002492,0.000
 01873,-0.00002574,0.00001418,0.00000879,-0.00000523,0.00001453,-0.0011
 9455,-0.00020228,-0.00002616,-0.00014799,-0.00000837,-0.00005456,-0.00
 005886,0.00016351,-0.00012598,-0.00016130,-0.00019157,-0.00020723,-0.0
 0282736,-0.00380165,-0.00240529,-0.00007813,-0.00014960,0.00043531,0.0
 0004018,0.00005995,-0.00007546,-0.02762624,0.00151025,0.02320220,0.000
 04183,0.00005753,0.00003974,0.00000433,-0.00000597,-0.00000426,-0.0000
 1228,-0.00000267,-0.00000240,0.00000370,-0.00000957,-0.00000248,0.0000
 2106,-0.00012876,0.00003930,-0.00000864,0.00001537,-0.00000767,-0.0000
 2419,0.00002078,-0.00001861,0.00000575,0.00001803,0.00000210,-0.000049
 69,0.00012889,0.00010081,-0.00000207,-0.00001839,-0.00001362,0.0000110
 5,-0.00000761,-0.00002827,0.00001251,-0.00000183,0.00000157,-0.1406609
 8,0.04170202,0.11765172,-0.00333063,0.00315054,0.00648153,0.16378715,-
 0.00003871,-0.00006589,0.00001427,0.00007814,0.00001352,-0.00001619,0.
 00013326,-0.00021177,0.00012474,-0.00032473,0.00083945,0.00067604,0.00
 007241,0.00000912,0.00012100,0.00000250,0.00007954,0.00002473,-0.00001
 048,-0.00000996,-0.00001697,0.00000394,0.00001467,-0.00001251,0.000099
 82,0.00002664,0.00005252,0.00000008,0.00000203,-0.00001911,-0.00074160
 ,-0.00018257,-0.00000558,-0.00005810,0.00000111,-0.00002372,0.00002345
 ,0.00007883,-0.00001086,-0.00006324,-0.00008661,-0.00008496,-0.0033791
 9,-0.00200446,-0.00034091,0.00007323,-0.00005021,-0.00006460,-0.000443
 00,0.00027163,0.00016324,-0.01917688,0.00342761,0.01841521,0.00001696,
 0.00002154,0.00001507,0.00000254,-0.00000219,-0.00000130,-0.00000477,-
 0.00000065,-0.00000148,0.00000094,-0.00000342,-0.00000087,0.00000100,-
 0.00003134,0.00000421,-0.00000522,0.00000150,-0.00000013,0.00000281,0.
 00000808,-0.00000078,-0.00000406,0.00000980,-0.00001349,-0.00002370,0.
 00005643,0.00002880,0.00000021,-0.00000800,-0.00000444,0.00000359,-0.0
 0000344,-0.00000933,0.00000619,-0.00000367,0.00000263,0.04900538,-0.07
 166797,-0.05995754,0.01777840,-0.00516433,-0.02434842,-0.03894911,0.07
 204873,-0.00001825,0.00002027,-0.00000207,-0.00003105,-0.00001596,-0.0
 0000490,-0.00007270,0.00001886,-0.00000479,-0.00005718,-0.00009999,0.0
 0033900,-0.00001618,0.00005838,-0.00006057,0.00000919,0.00000813,0.000
 00878,0.00000319,0.00000351,0.00000410,0.00000845,-0.00000524,0.000000
 73,0.00001818,-0.00000479,0.00000746,-0.00003088,-0.00000118,-0.000043
 10,0.00001175,-0.00007482,-0.00001254,0.00003230,0.00000652,0.00000390
 ,0.00003644,-0.00004103,0.00002790,0.00009212,0.00006299,0.00007153,-0
 .00185770,0.00001838,0.00195184,-0.00020676,-0.00012805,0.00026035,0.0
 0000586,-0.00007402,-0.00012276,-0.00197699,0.00278845,0.00534269,-0.0
 0000845,-0.00001259,-0.00000543,-0.00000008,0.00000185,0.00000094,0.00
 000269,0.00000060,-0.00000030,-0.00000185,0.00000217,-0.00000043,-0.00
 000882,0.00003339,-0.00000935,0.00000309,-0.00000465,-0.00000001,0.000
 00539,-0.00000405,0.00000524,-0.00000061,-0.00000240,-0.00000068,0.000
 01824,-0.00005068,-0.00003199,0.00000123,0.00000692,0.00000405,-0.0000
 0420,0.00000217,0.00000657,-0.00000582,0.00000156,-0.00000183,0.126674
 63,-0.05443968,-0.21614822,-0.00309155,0.00083356,0.00373087,-0.135947
 90,0.05920285,0.22374700,0.00005626,-0.00008865,-0.00000083,0.00009204
 ,0.00000410,0.00000356,0.00013143,-0.00013668,0.00006287,0.00076706,0.
 00028264,-0.00002547,0.00018901,0.00019184,-0.00007261,-0.00001359,0.0
 0004098,0.00000287,0.00000552,-0.00001151,-0.00001708,-0.00002161,0.00
 002306,-0.00000799,0.00005074,0.00006130,-0.00001606,0.00009693,-0.000
 01467,0.00029202,-0.00051128,-0.00006602,0.00013480,-0.00010661,-0.000
 00709,-0.00000827,-0.00009876,0.00014307,-0.00006939,-0.00016959,-0.00
 013048,-0.00000331,0.00339236,0.00005496,-0.00597768,-0.00016484,-0.00
 011746,0.00145593,-0.00054848,0.00022615,0.00043211,-0.02891802,-0.007
 50261,-0.02410878,0.00002640,0.00003558,0.00001902,0.00000170,-0.00000
 361,-0.00000463,-0.00000876,-0.00000088,-0.00000038,0.00000523,-0.0000
 0642,0.00000167,0.00002897,-0.00012767,0.00003974,-0.00001930,0.000019
 89,0.00000125,-0.00001783,0.00001761,-0.00001268,0.00000617,0.00001019
 ,-0.00000217,-0.00002180,0.00010934,0.00007065,-0.00000856,-0.00001462
 ,-0.00000873,0.00001359,-0.00000451,-0.00000762,0.00001020,-0.00000117
 ,-0.00000474,-0.09858183,0.02445732,-0.09161774,-0.00180379,0.00368687
 ,-0.00853578,0.01163943,-0.00408206,0.01641421,0.11450160,-0.00001218,
 -0.00013582,0.00003723,0.00006383,0.00002784,0.00000009,0.00011724,-0.
 00010682,0.00004596,0.00050628,0.00018576,-0.00029792,0.00007023,0.000
 03330,-0.00002502,-0.00000709,0.00002621,-0.00000068,-0.00000403,-0.00
 000855,-0.00000391,-0.00000420,0.00002501,-0.00000629,-0.00000514,0.00
 001250,-0.00002011,0.00005464,-0.00001830,0.00018068,-0.00026311,-0.00
 000890,0.00007490,-0.00005918,-0.00000270,-0.00001548,0.00003282,0.000
 13442,-0.00005624,-0.00015082,-0.00008451,-0.00004228,0.00223373,0.000
 26696,-0.00288073,0.00053408,-0.00012712,0.00100001,-0.00031227,-0.000
 28018,0.00058238,-0.02081219,0.00155759,-0.02096693,0.00001486,0.00002
 066,0.00001361,0.00000147,-0.00000156,-0.00000307,-0.00000476,-0.00000
 046,-0.00000002,0.00000287,-0.00000482,-0.00000010,-0.00001368,-0.0000
 5131,0.00002521,0.00000299,0.00001024,-0.00000768,-0.00000430,0.000008
 71,-0.00000522,-0.00000642,0.00002570,-0.00000409,-0.00002028,0.000083
 63,0.00005186,-0.00000407,-0.00000998,-0.00000577,0.00000953,-0.000004
 29,-0.00000779,0.00000813,-0.00000225,-0.00000178,0.02500744,-0.064080
 77,0.04767717,0.01390807,-0.00418175,0.02805819,-0.00383572,0.00258627
 ,-0.00811142,-0.01704875,0.06410527,0.00005277,-0.00002362,0.00000406,
 0.00009360,0.00001889,-0.00000057,0.00013987,-0.00012560,0.00006279,0.
 00022481,0.00011219,0.00025923,0.00026264,0.00010513,0.00006037,-0.000
 00880,0.00003602,0.00000453,-0.00000262,-0.00000958,-0.00002027,-0.000
 01705,0.00000974,-0.00000867,0.00001583,0.00003072,-0.00000017,0.00005
 937,0.00002619,0.00008884,-0.00040890,0.00000520,-0.00000444,-0.000096
 05,-0.00001059,-0.00001126,-0.00010228,0.00010535,-0.00005435,-0.00009
 549,-0.00014918,-0.00006718,0.00236675,-0.00092435,0.00233317,-0.00211
 723,0.00010124,0.00042217,-0.00013019,0.00027492,-0.00007496,-0.006376
 77,-0.00566862,0.00224388,0.00002555,0.00003469,0.00001606,0.00000166,
 -0.00000466,-0.00000246,-0.00000796,-0.00000129,-0.00000094,0.00000320
 ,-0.00000514,0.00000123,0.00003038,-0.00010645,0.00001899,-0.00001694,
 0.00001313,0.00000534,-0.00001251,0.00001514,-0.00001153,0.00000383,0.
 00000252,-0.00000426,-0.00002679,0.00008709,0.00003737,-0.00000770,-0.
 00001210,-0.00000594,0.00000934,-0.00000633,-0.00000445,0.00000866,0.0
 0000070,-0.00000012,-0.09494682,0.04474464,-0.24815632,0.00026895,0.00
 052088,-0.00072941,-0.01076434,0.00608788,-0.01906397,0.11157123,-0.04
 528475,0.26266325\\0.00000542,-0.00000582,-0.00000961,-0.00001801,0.00
 000092,0.00001347,0.00000409,0.00001365,0.00000276,-0.00000182,0.00000
 327,0.00000377,0.00000145,0.00001197,-0.00000108,0.00000978,0.00001017
 ,0.00000924,0.00000989,0.00000592,-0.00000280,-0.00000560,-0.00000296,
 0.00000322,0.00000285,0.00000128,0.00000187,-0.00000650,-0.00001102,0.
 00000035,0.00001633,0.00000885,0.00000497,0.00001428,0.00000245,0.0000
 0988,-0.00000098,-0.00000606,-0.00001195,-0.00000746,-0.00000749,0.000
 02013,0.00000122,0.00000485,-0.00000685,0.00000928,0.00000689,-0.00000
 881,0.00000513,0.00000264,-0.00001259,0.00000236,0.,-0.00001146,-0.000
 00008,0.00000067,0.00001344,0.00000446,0.00000404,0.00002103,0.0000007
 7,0.00000226,0.00001987,-0.00000235,-0.00000320,0.00001715,-0.00000622
 ,-0.00000236,-0.00001124,-0.00000099,-0.00000186,-0.00000968,-0.000006
 74,-0.00000865,-0.00000842,-0.00000413,-0.00000518,-0.00001669,-0.0000
 0298,-0.00000661,0.00001111,-0.00000761,-0.00000532,0.00002105,-0.0000
 1151,-0.00001055,0.00001174,-0.00000642,-0.00000183,0.00001309,-0.0000
 0050,-0.00000189,-0.00002106,0.00000068,0.00000045,-0.00002196,-0.0000
 0311,-0.00000343,-0.00002230,0.00000501,0.00000398,-0.00002165\\\@


 MICHAEL FARADAY, ASKED BY A POLITICIAN WHAT GOOD
 HIS ELECTRICAL DISCOVERIES WERE, REPLIED 
 "AT PRESENT I DO NOT KNOW, BUT ONE DAY YOU WILL BE
 ABLE TO TAX THEM."
 Job cpu time:       0 days  3 hours 50 minutes 25.7 seconds.
 Elapsed time:       0 days  0 hours 57 minutes 57.1 seconds.
 File lengths (MBytes):  RWF=    377 Int=      0 D2E=      0 Chk=     16 Scr=      1
 Normal termination of Gaussian 16 at Fri May 24 09:44:33 2019.
