 Entering Gaussian System, Link 0=g16
 Input=clay-glucose_cation-008-b3lyp_d3bj-631gd-pcm_thf.gjf
 Output=clay-glucose_cation-008-b3lyp_d3bj-631gd-pcm_thf.out
 Initial command:
 /n/sw/g16_nehalem/g16/l1.exe "/scratch/Gau-6497.inp" -scrdir="/scratch/"
 Entering Link 1 = /n/sw/g16_nehalem/g16/l1.exe PID=      6498.
  
 Copyright (c) 1988,1990,1992,1993,1995,1998,2003,2009,2016,
            Gaussian, Inc.  All Rights Reserved.
  
 This is part of the Gaussian(R) 16 program.  It is based on
 the Gaussian(R) 09 system (copyright 2009, Gaussian, Inc.),
 the Gaussian(R) 03 system (copyright 2003, Gaussian, Inc.),
 the Gaussian(R) 98 system (copyright 1998, Gaussian, Inc.),
 the Gaussian(R) 94 system (copyright 1995, Gaussian, Inc.),
 the Gaussian 92(TM) system (copyright 1992, Gaussian, Inc.),
 the Gaussian 90(TM) system (copyright 1990, Gaussian, Inc.),
 the Gaussian 88(TM) system (copyright 1988, Gaussian, Inc.),
 the Gaussian 86(TM) system (copyright 1986, Carnegie Mellon
 University), and the Gaussian 82(TM) system (copyright 1983,
 Carnegie Mellon University). Gaussian is a federally registered
 trademark of Gaussian, Inc.
  
 This software contains proprietary and confidential information,
 including trade secrets, belonging to Gaussian, Inc.
  
 This software is provided under written license and may be
 used, copied, transmitted, or stored only in accord with that
 written license.
  
 The following legend is applicable only to US Government
 contracts under FAR:
  
                    RESTRICTED RIGHTS LEGEND
  
 Use, reproduction and disclosure by the US Government is
 subject to restrictions as set forth in subparagraphs (a)
 and (c) of the Commercial Computer Software - Restricted
 Rights clause in FAR 52.227-19.
  
 Gaussian, Inc.
 340 Quinnipiac St., Bldg. 40, Wallingford CT 06492
  
  
 ---------------------------------------------------------------
 Warning -- This program may not be used in any manner that
 competes with the business of Gaussian, Inc. or will provide
 assistance to any competitor of Gaussian, Inc.  The licensee
 of this program is prohibited from giving any competitor of
 Gaussian, Inc. access to this program.  By using this program,
 the user acknowledges that Gaussian, Inc. is engaged in the
 business of creating and licensing software in the field of
 computational chemistry and represents and warrants to the
 licensee that it is not a competitor of Gaussian, Inc. and that
 it will not use this program in any manner prohibited above.
 ---------------------------------------------------------------
  

 Cite this work as:
 Gaussian 16, Revision A.03,
 M. J. Frisch, G. W. Trucks, H. B. Schlegel, G. E. Scuseria, 
 M. A. Robb, J. R. Cheeseman, G. Scalmani, V. Barone, 
 G. A. Petersson, H. Nakatsuji, X. Li, M. Caricato, A. V. Marenich, 
 J. Bloino, B. G. Janesko, R. Gomperts, B. Mennucci, H. P. Hratchian, 
 J. V. Ortiz, A. F. Izmaylov, J. L. Sonnenberg, D. Williams-Young, 
 F. Ding, F. Lipparini, F. Egidi, J. Goings, B. Peng, A. Petrone, 
 T. Henderson, D. Ranasinghe, V. G. Zakrzewski, J. Gao, N. Rega, 
 G. Zheng, W. Liang, M. Hada, M. Ehara, K. Toyota, R. Fukuda, 
 J. Hasegawa, M. Ishida, T. Nakajima, Y. Honda, O. Kitao, H. Nakai, 
 T. Vreven, K. Throssell, J. A. Montgomery, Jr., J. E. Peralta, 
 F. Ogliaro, M. J. Bearpark, J. J. Heyd, E. N. Brothers, K. N. Kudin, 
 V. N. Staroverov, T. A. Keith, R. Kobayashi, J. Normand, 
 K. Raghavachari, A. P. Rendell, J. C. Burant, S. S. Iyengar, 
 J. Tomasi, M. Cossi, J. M. Millam, M. Klene, C. Adamo, R. Cammi, 
 J. W. Ochterski, R. L. Martin, K. Morokuma, O. Farkas, 
 J. B. Foresman, and D. J. Fox, Gaussian, Inc., Wallingford CT, 2016.
 
 ******************************************
 Gaussian 16:  ES64L-G16RevA.03 25-Dec-2016
                24-May-2019 
 ******************************************
 %nprocshared=4
 Will use up to    4 processors via shared memory.
 %mem=3GB
 -------------------------------------------------------------------
 #p b3lyp 6-31g* opt freq=noraman scrf=(pcm,solvent=tetrahydrofuran)
 -------------------------------------------------------------------
 1/18=20,19=15,26=3,38=1/1,3;
 2/9=110,12=2,17=6,18=5,40=1/2;
 3/5=1,6=6,7=1,11=2,25=1,30=1,70=2201,71=1,72=20,74=-5/1,2,3;
 4//1;
 5/5=2,38=5,53=20/2;
 6/7=2,8=2,9=2,10=2,28=1/1;
 7//1,2,3,16;
 1/18=20,19=15,26=3/3(2);
 2/9=110/2;
 99//99;
 2/9=110/2;
 3/5=1,6=6,7=1,11=2,25=1,30=1,70=2205,71=1,72=20,74=-5/1,2,3;
 4/5=5,16=3,69=1/1;
 5/5=2,38=5,53=20/2;
 7//1,2,3,16;
 1/18=20,19=15,26=3/3(-5);
 2/9=110/2;
 6/7=2,8=2,9=2,10=2,19=2,28=1/1;
 99/9=1/99;
 Leave Link    1 at Fri May 24 08:29:59 2019, MaxMem=   402653184 cpu:               0.3 elap:               0.1
 (Enter /n/sw/g16_nehalem/g16/l101.exe)
 -----
 title
 -----
 Symbolic Z-matrix:
 Charge =  1 Multiplicity = 1
 6                    -1.60944  -0.69088   0.2587 
 6                    -1.76429   0.713    -0.4191 
 6                    -0.75527   0.83951  -1.51836 
 6                     0.88888   0.0178    0.02887 
 6                    -0.11291  -1.06444   0.49947 
 1                    -0.97355   1.18516  -2.52985 
 1                    -2.78081   0.84245  -0.80239 
 1                    -2.09723  -0.5719    1.22873 
 1                     0.87634   0.89887   0.66899 
 1                     0.09374  -1.97105  -0.07659 
 8                     0.4541    0.55377  -1.3174 
 8                    -1.43338   1.66663   0.57613 
 8                    -2.35189  -1.68498  -0.40117 
 8                     0.16159  -1.44398   1.83151 
 6                     2.29717  -0.49031  -0.17337 
 1                     2.32402  -1.19785  -1.01822 
 1                     2.57587  -1.04675   0.73547 
 8                     3.13416   0.61786  -0.39385 
 6                    -1.96377   2.98911   0.36008 
 1                    -1.72849   3.54618   1.26721 
 1                    -1.49511   3.47897  -0.50007 
 1                    -3.04934   2.94597   0.22081 
 6                    -1.97624  -2.01384  -1.73077 
 1                    -0.98134  -2.47119  -1.79374 
 1                    -2.71777  -2.72724  -2.09259 
 1                    -2.00249  -1.13083  -2.39471 
 6                     0.08504  -0.43881   2.85075 
 1                     0.04198  -0.98235   3.79583 
 1                     0.97476   0.2025    2.85272 
 1                    -0.80733   0.18881   2.75483 
 6                     4.49139   0.24617  -0.60511 
 1                     5.04966   1.17063  -0.76426 
 1                     4.90102  -0.2802    0.26859 
 1                     4.596    -0.39834  -1.48942 
 
 ITRead=  0  0  0  0  0  0  0  0  0  0  0  0  0  0  0  0  0  0  0  0
 ITRead=  0  0  0  0  0  0  0  0  0  0  0  0  0  0
 MicOpt= -1 -1 -1 -1 -1 -1 -1 -1 -1 -1 -1 -1 -1 -1 -1 -1 -1 -1 -1 -1
 MicOpt= -1 -1 -1 -1 -1 -1 -1 -1 -1 -1 -1 -1 -1 -1
 NAtoms=     34 NQM=       34 NQMF=       0 NMMI=      0 NMMIF=      0
                NMic=       0 NMicF=      0.
                    Isotopes and Nuclear Properties:
 (Nuclear quadrupole moments (NQMom) in fm**2, nuclear magnetic moments (NMagM)
  in nuclear magnetons)

  Atom         1           2           3           4           5           6           7           8           9          10
 IAtWgt=          12          12          12          12          12           1           1           1           1           1
 AtmWgt=  12.0000000  12.0000000  12.0000000  12.0000000  12.0000000   1.0078250   1.0078250   1.0078250   1.0078250   1.0078250
 NucSpn=           0           0           0           0           0           1           1           1           1           1
 AtZEff=   0.0000000   0.0000000   0.0000000   0.0000000   0.0000000   0.0000000   0.0000000   0.0000000   0.0000000   0.0000000
 NQMom=    0.0000000   0.0000000   0.0000000   0.0000000   0.0000000   0.0000000   0.0000000   0.0000000   0.0000000   0.0000000
 NMagM=    0.0000000   0.0000000   0.0000000   0.0000000   0.0000000   2.7928460   2.7928460   2.7928460   2.7928460   2.7928460
 AtZNuc=   6.0000000   6.0000000   6.0000000   6.0000000   6.0000000   1.0000000   1.0000000   1.0000000   1.0000000   1.0000000

  Atom        11          12          13          14          15          16          17          18          19          20
 IAtWgt=          16          16          16          16          12           1           1          16          12           1
 AtmWgt=  15.9949146  15.9949146  15.9949146  15.9949146  12.0000000   1.0078250   1.0078250  15.9949146  12.0000000   1.0078250
 NucSpn=           0           0           0           0           0           1           1           0           0           1
 AtZEff=   0.0000000   0.0000000   0.0000000   0.0000000   0.0000000   0.0000000   0.0000000   0.0000000   0.0000000   0.0000000
 NQMom=    0.0000000   0.0000000   0.0000000   0.0000000   0.0000000   0.0000000   0.0000000   0.0000000   0.0000000   0.0000000
 NMagM=    0.0000000   0.0000000   0.0000000   0.0000000   0.0000000   2.7928460   2.7928460   0.0000000   0.0000000   2.7928460
 AtZNuc=   8.0000000   8.0000000   8.0000000   8.0000000   6.0000000   1.0000000   1.0000000   8.0000000   6.0000000   1.0000000

  Atom        21          22          23          24          25          26          27          28          29          30
 IAtWgt=           1           1          12           1           1           1          12           1           1           1
 AtmWgt=   1.0078250   1.0078250  12.0000000   1.0078250   1.0078250   1.0078250  12.0000000   1.0078250   1.0078250   1.0078250
 NucSpn=           1           1           0           1           1           1           0           1           1           1
 AtZEff=   0.0000000   0.0000000   0.0000000   0.0000000   0.0000000   0.0000000   0.0000000   0.0000000   0.0000000   0.0000000
 NQMom=    0.0000000   0.0000000   0.0000000   0.0000000   0.0000000   0.0000000   0.0000000   0.0000000   0.0000000   0.0000000
 NMagM=    2.7928460   2.7928460   0.0000000   2.7928460   2.7928460   2.7928460   0.0000000   2.7928460   2.7928460   2.7928460
 AtZNuc=   1.0000000   1.0000000   6.0000000   1.0000000   1.0000000   1.0000000   6.0000000   1.0000000   1.0000000   1.0000000

  Atom        31          32          33          34
 IAtWgt=          12           1           1           1
 AtmWgt=  12.0000000   1.0078250   1.0078250   1.0078250
 NucSpn=           0           1           1           1
 AtZEff=   0.0000000   0.0000000   0.0000000   0.0000000
 NQMom=    0.0000000   0.0000000   0.0000000   0.0000000
 NMagM=    0.0000000   2.7928460   2.7928460   2.7928460
 AtZNuc=   6.0000000   1.0000000   1.0000000   1.0000000
 Leave Link  101 at Fri May 24 08:29:59 2019, MaxMem=   402653184 cpu:               1.3 elap:               0.3
 (Enter /n/sw/g16_nehalem/g16/l103.exe)

 GradGradGradGradGradGradGradGradGradGradGradGradGradGradGradGradGradGrad
 Berny optimization.
 Initialization pass.
                           ----------------------------
                           !    Initial Parameters    !
                           ! (Angstroms and Degrees)  !
 --------------------------                            --------------------------
 ! Name  Definition              Value          Derivative Info.                !
 --------------------------------------------------------------------------------
 ! R1    R(1,2)                  1.5666         estimate D2E/DX2                !
 ! R2    R(1,5)                  1.5611         estimate D2E/DX2                !
 ! R3    R(1,8)                  1.0923         estimate D2E/DX2                !
 ! R4    R(1,13)                 1.4053         estimate D2E/DX2                !
 ! R5    R(2,3)                  1.4975         estimate D2E/DX2                !
 ! R6    R(2,7)                  1.0941         estimate D2E/DX2                !
 ! R7    R(2,12)                 1.4175         estimate D2E/DX2                !
 ! R8    R(3,6)                  1.091          estimate D2E/DX2                !
 ! R9    R(3,11)                 1.2588         estimate D2E/DX2                !
 ! R10   R(4,5)                  1.548          estimate D2E/DX2                !
 ! R11   R(4,9)                  1.0891         estimate D2E/DX2                !
 ! R12   R(4,11)                 1.5129         estimate D2E/DX2                !
 ! R13   R(4,15)                 1.5107         estimate D2E/DX2                !
 ! R14   R(5,10)                 1.0938         estimate D2E/DX2                !
 ! R15   R(5,14)                 1.412          estimate D2E/DX2                !
 ! R16   R(12,19)                1.4412         estimate D2E/DX2                !
 ! R17   R(13,23)                1.4202         estimate D2E/DX2                !
 ! R18   R(14,27)                1.4336         estimate D2E/DX2                !
 ! R19   R(15,16)                1.1023         estimate D2E/DX2                !
 ! R20   R(15,17)                1.1015         estimate D2E/DX2                !
 ! R21   R(15,18)                1.4061         estimate D2E/DX2                !
 ! R22   R(18,31)                1.423          estimate D2E/DX2                !
 ! R23   R(19,20)                1.0902         estimate D2E/DX2                !
 ! R24   R(19,21)                1.0952         estimate D2E/DX2                !
 ! R25   R(19,22)                1.0953         estimate D2E/DX2                !
 ! R26   R(23,24)                1.0968         estimate D2E/DX2                !
 ! R27   R(23,25)                1.0907         estimate D2E/DX2                !
 ! R28   R(23,26)                1.1051         estimate D2E/DX2                !
 ! R29   R(27,28)                1.0911         estimate D2E/DX2                !
 ! R30   R(27,29)                1.0968         estimate D2E/DX2                !
 ! R31   R(27,30)                1.0952         estimate D2E/DX2                !
 ! R32   R(31,32)                1.0916         estimate D2E/DX2                !
 ! R33   R(31,33)                1.0992         estimate D2E/DX2                !
 ! R34   R(31,34)                1.0992         estimate D2E/DX2                !
 ! A1    A(2,1,5)              112.0808         estimate D2E/DX2                !
 ! A2    A(2,1,8)              104.0322         estimate D2E/DX2                !
 ! A3    A(2,1,13)             112.2426         estimate D2E/DX2                !
 ! A4    A(5,1,8)              108.4943         estimate D2E/DX2                !
 ! A5    A(5,1,13)             114.1804         estimate D2E/DX2                !
 ! A6    A(8,1,13)             104.9587         estimate D2E/DX2                !
 ! A7    A(1,2,3)              109.0685         estimate D2E/DX2                !
 ! A8    A(1,2,7)              110.4534         estimate D2E/DX2                !
 ! A9    A(1,2,12)             106.0231         estimate D2E/DX2                !
 ! A10   A(3,2,7)              111.0315         estimate D2E/DX2                !
 ! A11   A(3,2,12)             107.5326         estimate D2E/DX2                !
 ! A12   A(7,2,12)             112.5358         estimate D2E/DX2                !
 ! A13   A(2,3,6)              124.9271         estimate D2E/DX2                !
 ! A14   A(2,3,11)             120.7289         estimate D2E/DX2                !
 ! A15   A(6,3,11)             114.3397         estimate D2E/DX2                !
 ! A16   A(5,4,9)              112.299          estimate D2E/DX2                !
 ! A17   A(5,4,11)             109.4042         estimate D2E/DX2                !
 ! A18   A(5,4,15)             114.1309         estimate D2E/DX2                !
 ! A19   A(9,4,11)             103.4807         estimate D2E/DX2                !
 ! A20   A(9,4,15)             111.1918         estimate D2E/DX2                !
 ! A21   A(11,4,15)            105.5409         estimate D2E/DX2                !
 ! A22   A(1,5,4)              113.9663         estimate D2E/DX2                !
 ! A23   A(1,5,10)             107.3498         estimate D2E/DX2                !
 ! A24   A(1,5,14)             113.3392         estimate D2E/DX2                !
 ! A25   A(4,5,10)             107.2834         estimate D2E/DX2                !
 ! A26   A(4,5,14)             110.4204         estimate D2E/DX2                !
 ! A27   A(10,5,14)            103.7273         estimate D2E/DX2                !
 ! A28   A(3,11,4)             119.9062         estimate D2E/DX2                !
 ! A29   A(2,12,19)            115.225          estimate D2E/DX2                !
 ! A30   A(1,13,23)            117.6222         estimate D2E/DX2                !
 ! A31   A(5,14,27)            118.1557         estimate D2E/DX2                !
 ! A32   A(4,15,16)            109.949          estimate D2E/DX2                !
 ! A33   A(4,15,17)            107.176          estimate D2E/DX2                !
 ! A34   A(4,15,18)            108.1078         estimate D2E/DX2                !
 ! A35   A(16,15,17)           107.5761         estimate D2E/DX2                !
 ! A36   A(16,15,18)           111.7885         estimate D2E/DX2                !
 ! A37   A(17,15,18)           112.1406         estimate D2E/DX2                !
 ! A38   A(15,18,31)           112.6543         estimate D2E/DX2                !
 ! A39   A(12,19,20)           105.351          estimate D2E/DX2                !
 ! A40   A(12,19,21)           111.7594         estimate D2E/DX2                !
 ! A41   A(12,19,22)           110.3449         estimate D2E/DX2                !
 ! A42   A(20,19,21)           109.4257         estimate D2E/DX2                !
 ! A43   A(20,19,22)           109.8651         estimate D2E/DX2                !
 ! A44   A(21,19,22)           109.9909         estimate D2E/DX2                !
 ! A45   A(13,23,24)           112.9687         estimate D2E/DX2                !
 ! A46   A(13,23,25)           106.3902         estimate D2E/DX2                !
 ! A47   A(13,23,26)           111.7874         estimate D2E/DX2                !
 ! A48   A(24,23,25)           108.9596         estimate D2E/DX2                !
 ! A49   A(24,23,26)           108.6776         estimate D2E/DX2                !
 ! A50   A(25,23,26)           107.8885         estimate D2E/DX2                !
 ! A51   A(14,27,28)           105.584          estimate D2E/DX2                !
 ! A52   A(14,27,29)           111.5892         estimate D2E/DX2                !
 ! A53   A(14,27,30)           112.5233         estimate D2E/DX2                !
 ! A54   A(28,27,29)           108.7694         estimate D2E/DX2                !
 ! A55   A(28,27,30)           109.2198         estimate D2E/DX2                !
 ! A56   A(29,27,30)           109.0301         estimate D2E/DX2                !
 ! A57   A(18,31,32)           106.7521         estimate D2E/DX2                !
 ! A58   A(18,31,33)           111.2547         estimate D2E/DX2                !
 ! A59   A(18,31,34)           111.3067         estimate D2E/DX2                !
 ! A60   A(32,31,33)           109.32           estimate D2E/DX2                !
 ! A61   A(32,31,34)           109.3046         estimate D2E/DX2                !
 ! A62   A(33,31,34)           108.8562         estimate D2E/DX2                !
 ! D1    D(5,1,2,3)             43.4983         estimate D2E/DX2                !
 ! D2    D(5,1,2,7)            165.7869         estimate D2E/DX2                !
 ! D3    D(5,1,2,12)           -72.0258         estimate D2E/DX2                !
 ! D4    D(8,1,2,3)            160.5138         estimate D2E/DX2                !
 ! D5    D(8,1,2,7)            -77.1975         estimate D2E/DX2                !
 ! D6    D(8,1,2,12)            44.9898         estimate D2E/DX2                !
 ! D7    D(13,1,2,3)           -86.5528         estimate D2E/DX2                !
 ! D8    D(13,1,2,7)            35.7358         estimate D2E/DX2                !
 ! D9    D(13,1,2,12)          157.9232         estimate D2E/DX2                !
 ! D10   D(2,1,5,4)              0.196          estimate D2E/DX2                !
 ! D11   D(2,1,5,10)          -118.4571         estimate D2E/DX2                !
 ! D12   D(2,1,5,14)           127.6161         estimate D2E/DX2                !
 ! D13   D(8,1,5,4)           -114.1092         estimate D2E/DX2                !
 ! D14   D(8,1,5,10)           127.2378         estimate D2E/DX2                !
 ! D15   D(8,1,5,14)            13.3109         estimate D2E/DX2                !
 ! D16   D(13,1,5,4)           129.2406         estimate D2E/DX2                !
 ! D17   D(13,1,5,10)           10.5876         estimate D2E/DX2                !
 ! D18   D(13,1,5,14)         -103.3393         estimate D2E/DX2                !
 ! D19   D(2,1,13,23)           64.9758         estimate D2E/DX2                !
 ! D20   D(5,1,13,23)          -63.9874         estimate D2E/DX2                !
 ! D21   D(8,1,13,23)          177.3351         estimate D2E/DX2                !
 ! D22   D(1,2,3,6)            131.9279         estimate D2E/DX2                !
 ! D23   D(1,2,3,11)           -48.8708         estimate D2E/DX2                !
 ! D24   D(7,2,3,6)              9.9881         estimate D2E/DX2                !
 ! D25   D(7,2,3,11)          -170.8106         estimate D2E/DX2                !
 ! D26   D(12,2,3,6)          -113.5224         estimate D2E/DX2                !
 ! D27   D(12,2,3,11)           65.6789         estimate D2E/DX2                !
 ! D28   D(1,2,12,19)         -157.9566         estimate D2E/DX2                !
 ! D29   D(3,2,12,19)           85.4799         estimate D2E/DX2                !
 ! D30   D(7,2,12,19)          -37.1066         estimate D2E/DX2                !
 ! D31   D(2,3,11,4)             2.7394         estimate D2E/DX2                !
 ! D32   D(6,3,11,4)          -177.9794         estimate D2E/DX2                !
 ! D33   D(9,4,5,1)             71.5123         estimate D2E/DX2                !
 ! D34   D(9,4,5,10)          -169.7968         estimate D2E/DX2                !
 ! D35   D(9,4,5,14)           -57.3994         estimate D2E/DX2                !
 ! D36   D(11,4,5,1)           -42.7924         estimate D2E/DX2                !
 ! D37   D(11,4,5,10)           75.8985         estimate D2E/DX2                !
 ! D38   D(11,4,5,14)         -171.7041         estimate D2E/DX2                !
 ! D39   D(15,4,5,1)          -160.7652         estimate D2E/DX2                !
 ! D40   D(15,4,5,10)          -42.0743         estimate D2E/DX2                !
 ! D41   D(15,4,5,14)           70.3231         estimate D2E/DX2                !
 ! D42   D(5,4,11,3)            44.7998         estimate D2E/DX2                !
 ! D43   D(9,4,11,3)           -75.0764         estimate D2E/DX2                !
 ! D44   D(15,4,11,3)          168.0192         estimate D2E/DX2                !
 ! D45   D(5,4,15,16)           66.6896         estimate D2E/DX2                !
 ! D46   D(5,4,15,17)          -49.9536         estimate D2E/DX2                !
 ! D47   D(5,4,15,18)         -171.0248         estimate D2E/DX2                !
 ! D48   D(9,4,15,16)         -165.0228         estimate D2E/DX2                !
 ! D49   D(9,4,15,17)           78.334          estimate D2E/DX2                !
 ! D50   D(9,4,15,18)          -42.7371         estimate D2E/DX2                !
 ! D51   D(11,4,15,16)         -53.4716         estimate D2E/DX2                !
 ! D52   D(11,4,15,17)        -170.1148         estimate D2E/DX2                !
 ! D53   D(11,4,15,18)          68.8141         estimate D2E/DX2                !
 ! D54   D(1,5,14,27)          -68.5329         estimate D2E/DX2                !
 ! D55   D(4,5,14,27)           60.717          estimate D2E/DX2                !
 ! D56   D(10,5,14,27)         175.3805         estimate D2E/DX2                !
 ! D57   D(2,12,19,20)         172.8025         estimate D2E/DX2                !
 ! D58   D(2,12,19,21)         -68.4517         estimate D2E/DX2                !
 ! D59   D(2,12,19,22)          54.2724         estimate D2E/DX2                !
 ! D60   D(1,13,23,24)          65.5051         estimate D2E/DX2                !
 ! D61   D(1,13,23,25)        -174.9908         estimate D2E/DX2                !
 ! D62   D(1,13,23,26)         -57.4503         estimate D2E/DX2                !
 ! D63   D(5,14,27,28)         164.0594         estimate D2E/DX2                !
 ! D64   D(5,14,27,29)         -77.9319         estimate D2E/DX2                !
 ! D65   D(5,14,27,30)          45.0052         estimate D2E/DX2                !
 ! D66   D(4,15,18,31)        -179.6579         estimate D2E/DX2                !
 ! D67   D(16,15,18,31)        -58.507          estimate D2E/DX2                !
 ! D68   D(17,15,18,31)         62.4063         estimate D2E/DX2                !
 ! D69   D(15,18,31,32)       -179.9783         estimate D2E/DX2                !
 ! D70   D(15,18,31,33)        -60.7818         estimate D2E/DX2                !
 ! D71   D(15,18,31,34)         60.8146         estimate D2E/DX2                !
 --------------------------------------------------------------------------------
 Trust Radius=3.00D-01 FncErr=1.00D-07 GrdErr=1.00D-06 EigMax=2.50D+02 EigMin=1.00D-04
 Number of steps in this run=    177 maximum allowed number of steps=    204.
 GradGradGradGradGradGradGradGradGradGradGradGradGradGradGradGradGradGrad

 Leave Link  103 at Fri May 24 08:30:00 2019, MaxMem=   402653184 cpu:               0.1 elap:               0.0
 (Enter /n/sw/g16_nehalem/g16/l202.exe)
                          Input orientation:                          
 ---------------------------------------------------------------------
 Center     Atomic      Atomic             Coordinates (Angstroms)
 Number     Number       Type             X           Y           Z
 ---------------------------------------------------------------------
      1          6           0       -1.609438   -0.690884    0.258698
      2          6           0       -1.764294    0.712995   -0.419101
      3          6           0       -0.755272    0.839508   -1.518361
      4          6           0        0.888880    0.017801    0.028865
      5          6           0       -0.112907   -1.064438    0.499465
      6          1           0       -0.973551    1.185161   -2.529848
      7          1           0       -2.780807    0.842445   -0.802389
      8          1           0       -2.097234   -0.571895    1.228728
      9          1           0        0.876341    0.898872    0.668994
     10          1           0        0.093735   -1.971045   -0.076590
     11          8           0        0.454104    0.553768   -1.317401
     12          8           0       -1.433384    1.666629    0.576132
     13          8           0       -2.351893   -1.684983   -0.401172
     14          8           0        0.161593   -1.443983    1.831513
     15          6           0        2.297173   -0.490309   -0.173374
     16          1           0        2.324023   -1.197847   -1.018224
     17          1           0        2.575873   -1.046746    0.735471
     18          8           0        3.134164    0.617857   -0.393846
     19          6           0       -1.963765    2.989105    0.360077
     20          1           0       -1.728486    3.546182    1.267213
     21          1           0       -1.495108    3.478971   -0.500065
     22          1           0       -3.049340    2.945966    0.220810
     23          6           0       -1.976242   -2.013837   -1.730769
     24          1           0       -0.981337   -2.471191   -1.793741
     25          1           0       -2.717766   -2.727235   -2.092588
     26          1           0       -2.002491   -1.130829   -2.394714
     27          6           0        0.085042   -0.438807    2.850753
     28          1           0        0.041977   -0.982347    3.795830
     29          1           0        0.974763    0.202496    2.852716
     30          1           0       -0.807328    0.188814    2.754826
     31          6           0        4.491389    0.246173   -0.605114
     32          1           0        5.049661    1.170630   -0.764262
     33          1           0        4.901018   -0.280204    0.268593
     34          1           0        4.596001   -0.398342   -1.489416
 ---------------------------------------------------------------------
                    Distance matrix (angstroms):
                    1          2          3          4          5
     1  C    0.000000
     2  C    1.566610   0.000000
     3  C    2.495924   1.497499   0.000000
     4  C    2.607039   2.779083   2.402571   0.000000
     5  C    1.561127   2.594246   2.847677   1.547993   0.000000
     6  H    3.420510   2.302926   1.090976   3.373187   3.870160
     7  H    2.202069   1.094059   2.148352   3.851964   3.528274
     8  H    1.092274   2.115923   3.367405   3.271741   2.170709
     9  H    2.979054   2.862072   2.729507   1.089132   2.204980
    10  H    2.156856   3.282325   3.270891   2.144501   1.093836
    11  O    2.879488   2.398663   1.258818   1.512853   2.498218
    12  O    2.385294   1.417536   2.351779   2.900180   3.034512
    13  O    1.405312   2.468986   3.189101   3.686057   2.491843
    14  O    2.485449   3.664268   4.156516   2.432139   1.412004
    15  C    3.935546   4.243093   3.590936   1.510750   2.567260
    16  H    4.166492   4.552428   3.725991   2.152633   2.873988
    17  H    4.227384   4.823564   4.442324   2.116246   2.699176
    18  O    4.963907   4.899447   4.054797   2.362213   3.764517
    19  C    3.698398   2.414039   3.099960   4.132304   4.458286
    20  H    4.357064   3.297254   4.004079   4.564382   4.945437
    21  H    4.239868   2.780223   2.924218   4.235902   4.853051
    22  H    3.911704   2.654617   3.567160   4.911270   4.978316
    23  C    2.417174   3.033316   3.110862   3.928459   3.057339
    24  H    2.788639   3.555516   3.329815   3.607587   2.826998
    25  H    3.302069   3.942696   4.111298   5.004366   4.033475
    26  H    2.718205   2.712835   2.491140   3.943743   3.457052
    27  C    3.107017   3.929203   4.629187   2.969461   2.441138
    28  H    3.914515   4.889012   5.674098   3.988429   3.301023
    29  H    3.768972   4.297421   4.743956   2.831187   2.885470
    30  H    2.765484   3.356242   4.322758   3.215156   2.671987
    31  C    6.232523   6.275834   5.358500   3.664990   4.912976
    32  H    6.989655   6.838022   5.863067   4.389779   5.765817
    33  H    6.523404   6.773902   6.036603   4.030326   5.080135
    34  H    6.453600   6.544769   5.492653   4.027542   5.154915
                    6          7          8          9         10
     6  H    0.000000
     7  H    2.523439   0.000000
     8  H    4.298465   2.567697   0.000000
     9  H    3.706299   3.942446   3.364314   0.000000
    10  H    4.137537   4.087236   2.908921   3.066723   0.000000
    11  O    1.976584   3.288346   3.776138   2.059890   2.836223
    12  O    3.176534   2.096461   2.424370   2.435755   3.998851
    13  O    3.829989   2.594771   1.990073   4.271189   2.483602
    14  O    5.217511   4.563213   2.495233   2.711325   1.980721
    15  C    4.365525   5.287511   4.613389   2.158280   2.656518
    16  H    4.340245   5.501697   4.998812   3.055932   2.541396
    17  H    5.314332   5.884563   4.722999   2.584232   2.770339
    18  O    4.664511   5.933315   5.604978   2.511247   4.005905
    19  C    3.547732   2.574303   3.667845   3.539874   5.387678
    20  H    4.534536   3.563822   4.134733   3.761813   5.963731
    21  H    3.107025   2.948846   4.445312   3.694236   5.692664
    22  H    3.869813   2.354537   3.781237   4.449993   5.843318
    23  C    3.446376   3.109270   3.294307   4.730747   2.650084
    24  H    3.729722   3.898853   3.740036   4.568737   2.086752
    25  H    4.305848   3.796209   4.007704   5.804532   3.541272
    26  H    2.537871   2.652373   3.667522   4.668369   3.236329
    27  C    5.719157   4.816653   2.722316   2.678733   3.304113
    28  H    6.763401   5.695752   3.366706   3.743294   3.996979
    29  H    5.808059   5.279549   3.560082   2.294181   3.752509
    30  H    5.380345   4.120149   2.138109   2.773016   3.673394
    31  C    5.869571   7.299267   6.887827   3.888179   4.953257
    32  H    6.276670   7.837435   7.621451   4.420936   5.907979
    33  H    6.670017   7.836950   7.069828   4.212905   5.107648
    34  H    5.883017   7.511914   7.226190   4.491923   4.973919
                   11         12         13         14         15
    11  O    0.000000
    12  O    2.895952   0.000000
    13  O    3.704740   3.609998   0.000000
    14  O    3.740619   3.714275   3.370545   0.000000
    15  C    2.407446   4.373922   4.805513   3.080547   0.000000
    16  H    2.579585   4.986512   4.741545   3.585762   1.102317
    17  H    3.358248   4.843752   5.097272   2.681017   1.101497
    18  O    2.835451   4.785737   5.949785   4.247303   1.406127
    19  C    3.819802   1.441155   4.751552   5.131719   5.526887
    20  H    4.516467   2.024203   5.526050   5.365872   5.880007
    21  H    3.608916   2.108695   5.235483   5.693539   5.499391
    22  H    4.512519   2.091476   4.724297   5.672399   6.367776
    23  C    3.559501   4.377478   1.420242   4.193438   4.796738
    24  H    3.381977   4.789802   2.106133   3.937501   4.159100
    25  H    4.628893   5.298844   2.020159   5.033489   5.816944
    26  H    3.167543   4.120143   2.098423   4.758395   4.881775
    27  C    4.300572   3.451431   4.250485   1.433558   3.747202
    28  H    5.354870   4.422694   4.882534   2.021375   4.591578
    29  H    4.217150   3.622940   5.021654   2.101189   3.374310
    30  H    4.278719   2.706029   3.982100   2.111242   4.321283
    31  C    4.111160   6.206124   7.113471   5.247944   2.354440
    32  H    4.669649   6.638716   7.941622   6.121067   3.268648
    33  H    4.794364   6.633957   7.417999   5.124378   2.649432
    34  H    4.253400   6.699558   7.149332   5.637899   2.650478
                   16         17         18         19         20
    16  H    0.000000
    17  H    1.778119   0.000000
    18  O    2.083976   2.087570   0.000000
    19  C    6.149423   6.085830   5.672750   0.000000
    20  H    6.644687   6.317060   5.914353   1.090223   0.000000
    21  H    6.060270   6.211405   5.443107   1.095195   1.783887
    22  H    6.897784   6.917344   6.635783   1.095322   1.788819
    23  C    4.434618   5.266816   5.901646   5.422289   6.321637
    24  H    3.626050   4.591263   5.332848   5.951380   6.792382
    25  H    5.377074   6.232542   6.951291   6.265830   7.184894
    26  H    4.540698   5.546760   5.783304   4.956231   5.946362
    27  C    4.534111   3.323890   4.576145   4.706555   4.655816
    28  H    5.331912   3.973735   5.447537   5.621373   5.480513
    29  H    4.331933   2.933749   3.921186   4.755353   4.582751
    30  H    5.095497   4.129219   5.062961   3.861839   3.785954
    31  C    2.636917   2.671705   1.422970   7.079850   7.285775
    32  H    3.619846   3.644939   2.027781   7.332062   7.464142
    33  H    3.023056   2.492361   2.089764   7.604078   7.719378
    34  H    2.454203   3.074324   2.090431   7.610910   7.947164
                   21         22         23         24         25
    21  H    0.000000
    22  H    1.794266   0.000000
    23  C    5.649519   5.436897   0.000000
    24  H    6.110809   6.138456   1.096802   0.000000
    25  H    6.522884   6.135712   1.090737   1.780464   0.000000
    26  H    5.009729   4.955514   1.105086   1.788993   1.775221
    27  C    5.392016   5.310145   5.264974   5.180644   6.126113
    28  H    6.381277   6.145621   5.973314   5.874277   6.733074
    29  H    5.298744   5.535970   5.884632   5.706531   6.831846
    30  H    4.678941   4.364601   5.132114   5.272131   5.970807
    31  C    6.804422   8.051933   6.942982   6.224760   7.938870
    32  H    6.944943   8.349611   7.774206   7.120086   8.791514
    33  H    7.458730   8.580131   7.368829   6.607249   8.343201
    34  H    7.287934   8.518246   6.772182   5.957853   7.699269
                   26         27         28         29         30
    26  H    0.000000
    27  C    5.687848   0.000000
    28  H    6.521099   1.091082   0.000000
    29  H    6.178780   1.096757   1.778597   0.000000
    30  H    5.448636   1.095187   1.782309   1.784830   0.000000
    31  C    6.875266   5.641641   6.377683   4.932054   6.274463
    32  H    7.595257   6.348706   7.106803   5.533950   6.903062
    33  H    7.448168   5.466839   6.045220   4.725058   6.243921
    34  H    6.700463   6.259988   7.001001   5.685814   6.895963
                   31         32         33         34
    31  C    0.000000
    32  H    1.091612   0.000000
    33  H    1.099196   1.787122   0.000000
    34  H    1.099242   1.786989   1.788180   0.000000
 Stoichiometry    C10H19O5(1+)
 Framework group  C1[X(C10H19O5)]
 Deg. of freedom    96
 Full point group                 C1      NOp   1
 Largest Abelian subgroup         C1      NOp   1
 Largest concise Abelian subgroup C1      NOp   1
                         Standard orientation:                         
 ---------------------------------------------------------------------
 Center     Atomic      Atomic             Coordinates (Angstroms)
 Number     Number       Type             X           Y           Z
 ---------------------------------------------------------------------
      1          6           0       -1.609438   -0.690884    0.258698
      2          6           0       -1.764294    0.712995   -0.419101
      3          6           0       -0.755272    0.839508   -1.518361
      4          6           0        0.888880    0.017801    0.028865
      5          6           0       -0.112907   -1.064438    0.499465
      6          1           0       -0.973551    1.185161   -2.529848
      7          1           0       -2.780807    0.842445   -0.802389
      8          1           0       -2.097234   -0.571895    1.228728
      9          1           0        0.876341    0.898872    0.668994
     10          1           0        0.093735   -1.971045   -0.076590
     11          8           0        0.454104    0.553768   -1.317401
     12          8           0       -1.433384    1.666629    0.576132
     13          8           0       -2.351893   -1.684983   -0.401172
     14          8           0        0.161593   -1.443983    1.831513
     15          6           0        2.297173   -0.490309   -0.173374
     16          1           0        2.324023   -1.197847   -1.018224
     17          1           0        2.575873   -1.046746    0.735471
     18          8           0        3.134164    0.617857   -0.393846
     19          6           0       -1.963765    2.989105    0.360077
     20          1           0       -1.728486    3.546182    1.267213
     21          1           0       -1.495108    3.478971   -0.500065
     22          1           0       -3.049340    2.945966    0.220810
     23          6           0       -1.976242   -2.013837   -1.730769
     24          1           0       -0.981337   -2.471191   -1.793741
     25          1           0       -2.717766   -2.727235   -2.092588
     26          1           0       -2.002491   -1.130829   -2.394714
     27          6           0        0.085042   -0.438807    2.850753
     28          1           0        0.041977   -0.982347    3.795830
     29          1           0        0.974763    0.202496    2.852716
     30          1           0       -0.807328    0.188814    2.754826
     31          6           0        4.491389    0.246173   -0.605114
     32          1           0        5.049661    1.170630   -0.764262
     33          1           0        4.901018   -0.280204    0.268593
     34          1           0        4.596001   -0.398342   -1.489416
 ---------------------------------------------------------------------
 Rotational constants (GHZ):           0.7068869           0.4159611           0.3935984
 Leave Link  202 at Fri May 24 08:30:00 2019, MaxMem=   402653184 cpu:               0.0 elap:               0.0
 (Enter /n/sw/g16_nehalem/g16/l301.exe)
 Standard basis: 6-31G(d) (6D, 7F)
 Ernie: Thresh=  0.10000D-02 Tol=  0.10000D-05 Strict=F.
 There are   263 symmetry adapted cartesian basis functions of A   symmetry.
 There are   263 symmetry adapted basis functions of A   symmetry.
   263 basis functions,   496 primitive gaussians,   263 cartesian basis functions
    59 alpha electrons       59 beta electrons
       nuclear repulsion energy      1166.4785474028 Hartrees.
 IExCor=  402 DFT=T Ex+Corr=B3LYP ExCW=0 ScaHFX=  0.200000
 ScaDFX=  0.800000  0.720000  1.000000  0.810000 ScalE2=  1.000000  1.000000
 IRadAn=      5 IRanWt=     -1 IRanGd=            0 ICorTp=0 IEmpDi=  4
 NAtoms=   34 NActive=   34 NUniq=   34 SFac= 1.00D+00 NAtFMM=   60 NAOKFM=F Big=F
 Integral buffers will be    131072 words long.
 Raffenetti 2 integral format.
 Two-electron integral symmetry is turned on.
 ------------------------------------------------------------------------------
 Polarizable Continuum Model (PCM)
 =================================
 Model                : PCM.
 Atomic radii         : UFF (Universal Force Field).
 Polarization charges : Total charges.
 Charge compensation  : None.
 Solution method      : On-the-fly selection.
 Cavity type          : Scaled VdW (van der Waals Surface) (Alpha=1.100).
 Cavity algorithm     : GePol (No added spheres)
                        Default sphere list used, NSphG=   34.
                        Lebedev-Laikov grids with approx.  5.0 points / Ang**2.
                        Smoothing algorithm: York/Karplus (Gamma=1.0000).
                        Polarization charges: spherical gaussians, with
                                              point-specific exponents (IZeta= 3).
                        Self-potential: point-specific (ISelfS= 7).
                        Self-field    : sphere-specific E.n sum rule (ISelfD= 2).
 1st derivatives      : Analytical E(r).r(x)/FMM algorithm (CHGder, D1EAlg=3).
                        Cavity 1st derivative terms included.
 Solvent              : TetraHydroFuran, Eps=   7.425700 Eps(inf)=   1.974025
 ------------------------------------------------------------------------------
 GePol: Number of generator spheres                  =      34
 GePol: Total number of spheres                      =      34
 GePol: Number of exposed spheres                    =      34 (100.00%)
 GePol: Number of points                             =    2307
 GePol: Average weight of points                     =       0.13
 GePol: Minimum weight of points                     =   0.23D-11
 GePol: Maximum weight of points                     =    0.20577
 GePol: Number of points with low weight             =     139
 GePol: Fraction of low-weight points (<1% of avg)   =       6.03%
 GePol: Cavity surface area                          =    299.557 Ang**2
 GePol: Cavity volume                                =    319.479 Ang**3
 Leave Link  301 at Fri May 24 08:30:00 2019, MaxMem=   402653184 cpu:               0.5 elap:               0.1
 (Enter /n/sw/g16_nehalem/g16/l302.exe)
 NPDir=0 NMtPBC=     1 NCelOv=     1 NCel=       1 NClECP=     1 NCelD=      1
         NCelK=      1 NCelE2=     1 NClLst=     1 CellRange=     0.0.
 One-electron integrals computed using PRISM.
 One-electron integral symmetry used in STVInt
 NBasis=   263 RedAO= T EigKep=  1.47D-03  NBF=   263
 NBsUse=   263 1.00D-06 EigRej= -1.00D+00 NBFU=   263
 Precomputing XC quadrature grid using
 IXCGrd= 4 IRadAn=           5 IRanWt=          -1 IRanGd=           0 AccXCQ= 0.00D+00.
 Generated NRdTot=       0 NPtTot=           0 NUsed=           0 NTot=          32
 NSgBfM=   262   262   262   262   262 MxSgAt=    34 MxSgA2=    34.
 Leave Link  302 at Fri May 24 08:30:01 2019, MaxMem=   402653184 cpu:               3.4 elap:               0.8
 (Enter /n/sw/g16_nehalem/g16/l303.exe)
 DipDrv:  MaxL=1.
 Leave Link  303 at Fri May 24 08:30:01 2019, MaxMem=   402653184 cpu:               0.3 elap:               0.1
 (Enter /n/sw/g16_nehalem/g16/l401.exe)
 ExpMin= 1.61D-01 ExpMax= 5.48D+03 ExpMxC= 8.25D+02 IAcc=3 IRadAn=         5 AccDes= 0.00D+00
 Harris functional with IExCor=  402 and IRadAn=       5 diagonalized for initial guess.
 HarFok:  IExCor=  402 AccDes= 0.00D+00 IRadAn=         5 IDoV= 1 UseB2=F ITyADJ=14
 ICtDFT=  3500011 ScaDFX=  1.000000  1.000000  1.000000  1.000000
 FoFCou: FMM=F IPFlag=           0 FMFlag=      100000 FMFlg1=           0
         NFxFlg=           0 DoJE=T BraDBF=F KetDBF=T FulRan=T
         wScrn=  0.000000 ICntrl=       500 IOpCl=  0 I1Cent=   200000004 NGrid=           0
         NMat0=    1 NMatS0=      1 NMatT0=    0 NMatD0=    1 NMtDS0=    0 NMtDT0=    0
 Petite list used in FoFCou.
 Harris En= -768.250566738303    
 JPrj=0 DoOrth=F DoCkMO=F.
 Leave Link  401 at Fri May 24 08:30:07 2019, MaxMem=   402653184 cpu:              25.5 elap:               6.6
 (Enter /n/sw/g16_nehalem/g16/l502.exe)
 Integral symmetry usage will be decided dynamically.
 Closed shell SCF:
 Using DIIS extrapolation, IDIIS=  1040.
 NGot=   402653184 LenX=   402510103 LenY=   402440493
 Requested convergence on RMS density matrix=1.00D-08 within 128 cycles.
 Requested convergence on MAX density matrix=1.00D-06.
 Requested convergence on             energy=1.00D-06.
 No special actions if energy rises.
 Fock matrices will be formed incrementally for  20 cycles.

 Cycle   1  Pass 1  IDiag  1:
 FoFJK:  IHMeth= 1 ICntrl=       0 DoSepK=F KAlg= 0 I1Cent=           0 FoldK=F
 IRaf= 880000000 NMat=       1 IRICut=       1 DoRegI=T DoRafI=F ISym2E= 0 IDoP0=0 IntGTp=1.
 FoFCou: FMM=F IPFlag=           0 FMFlag=      100000 FMFlg1=           0
         NFxFlg=           0 DoJE=F BraDBF=F KetDBF=F FulRan=T
         wScrn=  0.000000 ICntrl=         0 IOpCl=  0 I1Cent=           0 NGrid=           0
         NMat0=    1 NMatS0=      1 NMatT0=    0 NMatD0=    1 NMtDS0=    0 NMtDT0=    0
 Symmetry not used in FoFCou.
 Inv3:  Mode=1 IEnd=    15966747.
 Iteration    1 A*A^-1 deviation from unit magnitude is 6.22D-15 for    573.
 Iteration    1 A*A^-1 deviation from orthogonality  is 1.87D-15 for   1753    312.
 Iteration    1 A^-1*A deviation from unit magnitude is 6.44D-15 for    573.
 Iteration    1 A^-1*A deviation from orthogonality  is 1.77D-15 for   2133   1269.
 E= -768.077713195670    
 DIIS: error= 2.13D-02 at cycle   1 NSaved=   1.
 NSaved= 1 IEnMin= 1 EnMin= -768.077713195670     IErMin= 1 ErrMin= 2.13D-02
 ErrMax= 2.13D-02  0.00D+00 EMaxC= 1.00D-01 BMatC= 2.55D-01 BMatP= 2.55D-01
 IDIUse=3 WtCom= 7.87D-01 WtEn= 2.13D-01
 Coeff-Com:  0.100D+01
 Coeff-En:   0.100D+01
 Coeff:      0.100D+01
 Gap=     0.010 Goal=   None    Shift=    0.000
 GapD=    0.010 DampG=0.250 DampE=0.500 DampFc=0.2500 IDamp=-1.
 Damping current iteration by 2.50D-01
 RMSDP=5.04D-03 MaxDP=1.88D-01              OVMax= 5.30D-01

 Cycle   2  Pass 1  IDiag  1:
 RMSU=  1.25D-03    CP:  9.94D-01
 E= -768.142152286992     Delta-E=       -0.064439091322 Rises=F Damp=T
 DIIS: error= 9.93D-03 at cycle   2 NSaved=   2.
 NSaved= 2 IEnMin= 2 EnMin= -768.142152286992     IErMin= 2 ErrMin= 9.93D-03
 ErrMax= 9.93D-03  0.00D+00 EMaxC= 1.00D-01 BMatC= 6.82D-02 BMatP= 2.55D-01
 IDIUse=3 WtCom= 9.01D-01 WtEn= 9.93D-02
 Coeff-Com: -0.578D+00 0.158D+01
 Coeff-En:   0.000D+00 0.100D+01
 Coeff:     -0.521D+00 0.152D+01
 Gap=     0.082 Goal=   None    Shift=    0.000
 RMSDP=1.57D-03 MaxDP=5.68D-02 DE=-6.44D-02 OVMax= 5.01D-01

 Cycle   3  Pass 1  IDiag  1:
 RMSU=  1.56D-03    CP:  9.84D-01  1.02D+00
 E= -768.258882673207     Delta-E=       -0.116730386215 Rises=F Damp=F
 DIIS: error= 9.38D-03 at cycle   3 NSaved=   3.
 NSaved= 3 IEnMin= 3 EnMin= -768.258882673207     IErMin= 3 ErrMin= 9.38D-03
 ErrMax= 9.38D-03  0.00D+00 EMaxC= 1.00D-01 BMatC= 6.55D-02 BMatP= 6.82D-02
 IDIUse=3 WtCom= 9.06D-01 WtEn= 9.38D-02
 Coeff-Com: -0.499D+00 0.104D+01 0.461D+00
 Coeff-En:   0.000D+00 0.000D+00 0.100D+01
 Coeff:     -0.452D+00 0.940D+00 0.512D+00
 Gap=     0.136 Goal=   None    Shift=    0.000
 RMSDP=9.21D-04 MaxDP=3.53D-02 DE=-1.17D-01 OVMax= 3.39D-02

 Cycle   4  Pass 1  IDiag  1:
 RMSU=  6.91D-04    CP:  9.89D-01  1.20D+00  6.46D-01
 E= -768.313926312388     Delta-E=       -0.055043639181 Rises=F Damp=F
 DIIS: error= 2.53D-03 at cycle   4 NSaved=   4.
 NSaved= 4 IEnMin= 4 EnMin= -768.313926312388     IErMin= 4 ErrMin= 2.53D-03
 ErrMax= 2.53D-03  0.00D+00 EMaxC= 1.00D-01 BMatC= 3.14D-03 BMatP= 6.55D-02
 IDIUse=3 WtCom= 9.75D-01 WtEn= 2.53D-02
 Coeff-Com: -0.236D+00 0.396D+00 0.170D+00 0.669D+00
 Coeff-En:   0.000D+00 0.000D+00 0.000D+00 0.100D+01
 Coeff:     -0.230D+00 0.386D+00 0.166D+00 0.677D+00
 Gap=     0.127 Goal=   None    Shift=    0.000
 RMSDP=2.24D-04 MaxDP=8.79D-03 DE=-5.50D-02 OVMax= 8.75D-03

 Cycle   5  Pass 1  IDiag  1:
 RMSU=  2.07D-04    CP:  9.88D-01  1.25D+00  6.80D-01  9.85D-01
 E= -768.316219106663     Delta-E=       -0.002292794275 Rises=F Damp=F
 DIIS: error= 1.59D-03 at cycle   5 NSaved=   5.
 NSaved= 5 IEnMin= 5 EnMin= -768.316219106663     IErMin= 5 ErrMin= 1.59D-03
 ErrMax= 1.59D-03  0.00D+00 EMaxC= 1.00D-01 BMatC= 1.26D-03 BMatP= 3.14D-03
 IDIUse=3 WtCom= 9.84D-01 WtEn= 1.59D-02
 Coeff-Com: -0.103D+00 0.149D+00 0.483D-02 0.360D+00 0.589D+00
 Coeff-En:   0.000D+00 0.000D+00 0.000D+00 0.598D-01 0.940D+00
 Coeff:     -0.101D+00 0.147D+00 0.476D-02 0.355D+00 0.595D+00
 Gap=     0.127 Goal=   None    Shift=    0.000
 RMSDP=1.11D-04 MaxDP=5.07D-03 DE=-2.29D-03 OVMax= 5.17D-03

 Cycle   6  Pass 1  IDiag  1:
 RMSU=  8.14D-05    CP:  9.88D-01  1.27D+00  6.73D-01  1.07D+00  8.28D-01
 E= -768.317032209586     Delta-E=       -0.000813102923 Rises=F Damp=F
 DIIS: error= 5.02D-04 at cycle   6 NSaved=   6.
 NSaved= 6 IEnMin= 6 EnMin= -768.317032209586     IErMin= 6 ErrMin= 5.02D-04
 ErrMax= 5.02D-04  0.00D+00 EMaxC= 1.00D-01 BMatC= 1.61D-04 BMatP= 1.26D-03
 IDIUse=3 WtCom= 9.95D-01 WtEn= 5.02D-03
 Coeff-Com: -0.383D-01 0.477D-01-0.307D-01 0.124D+00 0.348D+00 0.550D+00
 Coeff-En:   0.000D+00 0.000D+00 0.000D+00 0.000D+00 0.000D+00 0.100D+01
 Coeff:     -0.381D-01 0.474D-01-0.305D-01 0.123D+00 0.346D+00 0.552D+00
 Gap=     0.125 Goal=   None    Shift=    0.000
 RMSDP=4.49D-05 MaxDP=2.36D-03 DE=-8.13D-04 OVMax= 2.43D-03

 Cycle   7  Pass 1  IDiag  1:
 RMSU=  2.80D-05    CP:  9.88D-01  1.28D+00  6.68D-01  1.11D+00  9.08D-01
                    CP:  8.79D-01
 E= -768.317169044803     Delta-E=       -0.000136835218 Rises=F Damp=F
 DIIS: error= 2.05D-04 at cycle   7 NSaved=   7.
 NSaved= 7 IEnMin= 7 EnMin= -768.317169044803     IErMin= 7 ErrMin= 2.05D-04
 ErrMax= 2.05D-04  0.00D+00 EMaxC= 1.00D-01 BMatC= 2.11D-05 BMatP= 1.61D-04
 IDIUse=3 WtCom= 9.98D-01 WtEn= 2.05D-03
 Coeff-Com: -0.838D-02 0.783D-02-0.233D-01 0.132D-01 0.112D+00 0.323D+00
 Coeff-Com:  0.576D+00
 Coeff-En:   0.000D+00 0.000D+00 0.000D+00 0.000D+00 0.000D+00 0.000D+00
 Coeff-En:   0.100D+01
 Coeff:     -0.836D-02 0.781D-02-0.233D-01 0.131D-01 0.112D+00 0.322D+00
 Coeff:      0.577D+00
 Gap=     0.124 Goal=   None    Shift=    0.000
 RMSDP=2.00D-05 MaxDP=1.06D-03 DE=-1.37D-04 OVMax= 1.32D-03

 Cycle   8  Pass 1  IDiag  1:
 RMSU=  1.16D-05    CP:  9.88D-01  1.28D+00  6.67D-01  1.13D+00  9.42D-01
                    CP:  9.29D-01  7.72D-01
 E= -768.317187539578     Delta-E=       -0.000018494774 Rises=F Damp=F
 DIIS: error= 4.72D-05 at cycle   8 NSaved=   8.
 NSaved= 8 IEnMin= 8 EnMin= -768.317187539578     IErMin= 8 ErrMin= 4.72D-05
 ErrMax= 4.72D-05  0.00D+00 EMaxC= 1.00D-01 BMatC= 1.68D-06 BMatP= 2.11D-05
 IDIUse=1 WtCom= 1.00D+00 WtEn= 0.00D+00
 Coeff-Com:  0.762D-03-0.167D-02-0.579D-02-0.126D-01-0.490D-02 0.524D-01
 Coeff-Com:  0.286D+00 0.686D+00
 Coeff:      0.762D-03-0.167D-02-0.579D-02-0.126D-01-0.490D-02 0.524D-01
 Coeff:      0.286D+00 0.686D+00
 Gap=     0.124 Goal=   None    Shift=    0.000
 RMSDP=6.35D-06 MaxDP=2.37D-04 DE=-1.85D-05 OVMax= 8.01D-04

 Cycle   9  Pass 1  IDiag  1:
 RMSU=  3.60D-06    CP:  9.88D-01  1.28D+00  6.67D-01  1.13D+00  9.50D-01
                    CP:  9.65D-01  8.65D-01  9.03D-01
 E= -768.317188869720     Delta-E=       -0.000001330143 Rises=F Damp=F
 DIIS: error= 1.56D-05 at cycle   9 NSaved=   9.
 NSaved= 9 IEnMin= 9 EnMin= -768.317188869720     IErMin= 9 ErrMin= 1.56D-05
 ErrMax= 1.56D-05  0.00D+00 EMaxC= 1.00D-01 BMatC= 2.13D-07 BMatP= 1.68D-06
 IDIUse=1 WtCom= 1.00D+00 WtEn= 0.00D+00
 Coeff-Com:  0.399D-03-0.568D-03-0.151D-02-0.652D-02-0.823D-02 0.977D-02
 Coeff-Com:  0.126D+00 0.386D+00 0.495D+00
 Coeff:      0.399D-03-0.568D-03-0.151D-02-0.652D-02-0.823D-02 0.977D-02
 Coeff:      0.126D+00 0.386D+00 0.495D+00
 Gap=     0.124 Goal=   None    Shift=    0.000
 RMSDP=1.90D-06 MaxDP=8.32D-05 DE=-1.33D-06 OVMax= 1.79D-04

 Cycle  10  Pass 1  IDiag  1:
 RMSU=  1.42D-06    CP:  9.88D-01  1.28D+00  6.67D-01  1.13D+00  9.51D-01
                    CP:  9.68D-01  8.81D-01  9.37D-01  7.57D-01
 E= -768.317189047253     Delta-E=       -0.000000177533 Rises=F Damp=F
 DIIS: error= 4.10D-06 at cycle  10 NSaved=  10.
 NSaved=10 IEnMin=10 EnMin= -768.317189047253     IErMin=10 ErrMin= 4.10D-06
 ErrMax= 4.10D-06  0.00D+00 EMaxC= 1.00D-01 BMatC= 8.93D-09 BMatP= 2.13D-07
 IDIUse=1 WtCom= 1.00D+00 WtEn= 0.00D+00
 Coeff-Com:  0.243D-03-0.307D-03 0.374D-05-0.152D-02-0.324D-02-0.180D-02
 Coeff-Com:  0.173D-01 0.707D-01 0.196D+00 0.723D+00
 Coeff:      0.243D-03-0.307D-03 0.374D-05-0.152D-02-0.324D-02-0.180D-02
 Coeff:      0.173D-01 0.707D-01 0.196D+00 0.723D+00
 Gap=     0.124 Goal=   None    Shift=    0.000
 RMSDP=7.00D-07 MaxDP=2.39D-05 DE=-1.78D-07 OVMax= 1.07D-04

 Cycle  11  Pass 1  IDiag  1:
 RMSU=  3.81D-07    CP:  9.88D-01  1.28D+00  6.67D-01  1.13D+00  9.51D-01
                    CP:  9.70D-01  8.89D-01  9.57D-01  8.11D-01  9.40D-01
 E= -768.317189057076     Delta-E=       -0.000000009823 Rises=F Damp=F
 DIIS: error= 1.38D-06 at cycle  11 NSaved=  11.
 NSaved=11 IEnMin=11 EnMin= -768.317189057076     IErMin=11 ErrMin= 1.38D-06
 ErrMax= 1.38D-06  0.00D+00 EMaxC= 1.00D-01 BMatC= 1.69D-09 BMatP= 8.93D-09
 IDIUse=1 WtCom= 1.00D+00 WtEn= 0.00D+00
 Coeff-Com:  0.941D-04-0.116D-03 0.132D-03-0.228D-03-0.987D-03-0.141D-02
 Coeff-Com: -0.161D-02 0.424D-02 0.604D-01 0.371D+00 0.568D+00
 Coeff:      0.941D-04-0.116D-03 0.132D-03-0.228D-03-0.987D-03-0.141D-02
 Coeff:     -0.161D-02 0.424D-02 0.604D-01 0.371D+00 0.568D+00
 Gap=     0.124 Goal=   None    Shift=    0.000
 RMSDP=2.41D-07 MaxDP=7.82D-06 DE=-9.82D-09 OVMax= 3.19D-05

 Cycle  12  Pass 1  IDiag  1:
 RMSU=  1.39D-07    CP:  9.88D-01  1.28D+00  6.67D-01  1.13D+00  9.51D-01
                    CP:  9.71D-01  8.90D-01  9.64D-01  8.30D-01  9.98D-01
                    CP:  7.62D-01
 E= -768.317189058866     Delta-E=       -0.000000001790 Rises=F Damp=F
 DIIS: error= 5.01D-07 at cycle  12 NSaved=  12.
 NSaved=12 IEnMin=12 EnMin= -768.317189058866     IErMin=12 ErrMin= 5.01D-07
 ErrMax= 5.01D-07  0.00D+00 EMaxC= 1.00D-01 BMatC= 1.92D-10 BMatP= 1.69D-09
 IDIUse=1 WtCom= 1.00D+00 WtEn= 0.00D+00
 Coeff-Com:  0.153D-04-0.199D-04 0.622D-04 0.121D-03 0.367D-04-0.230D-03
 Coeff-Com: -0.356D-02-0.921D-02-0.173D-02 0.560D-01 0.273D+00 0.686D+00
 Coeff:      0.153D-04-0.199D-04 0.622D-04 0.121D-03 0.367D-04-0.230D-03
 Coeff:     -0.356D-02-0.921D-02-0.173D-02 0.560D-01 0.273D+00 0.686D+00
 Gap=     0.124 Goal=   None    Shift=    0.000
 RMSDP=9.14D-08 MaxDP=2.81D-06 DE=-1.79D-09 OVMax= 1.45D-05

 Cycle  13  Pass 1  IDiag  1:
 RMSU=  3.63D-08    CP:  9.88D-01  1.28D+00  6.67D-01  1.13D+00  9.52D-01
                    CP:  9.71D-01  8.91D-01  9.66D-01  8.37D-01  1.02D+00
                    CP:  8.66D-01  9.09D-01
 E= -768.317189059104     Delta-E=       -0.000000000238 Rises=F Damp=F
 DIIS: error= 1.23D-07 at cycle  13 NSaved=  13.
 NSaved=13 IEnMin=13 EnMin= -768.317189059104     IErMin=13 ErrMin= 1.23D-07
 ErrMax= 1.23D-07  0.00D+00 EMaxC= 1.00D-01 BMatC= 1.42D-11 BMatP= 1.92D-10
 IDIUse=1 WtCom= 1.00D+00 WtEn= 0.00D+00
 Coeff-Com:  0.536D-05-0.810D-05 0.194D-04 0.591D-04 0.639D-04 0.110D-04
 Coeff-Com: -0.150D-02-0.429D-02-0.424D-02 0.194D-02 0.971D-01 0.318D+00
 Coeff-Com:  0.592D+00
 Coeff:      0.536D-05-0.810D-05 0.194D-04 0.591D-04 0.639D-04 0.110D-04
 Coeff:     -0.150D-02-0.429D-02-0.424D-02 0.194D-02 0.971D-01 0.318D+00
 Coeff:      0.592D+00
 Gap=     0.124 Goal=   None    Shift=    0.000
 RMSDP=2.26D-08 MaxDP=6.04D-07 DE=-2.38D-10 OVMax= 2.49D-06

 Cycle  14  Pass 1  IDiag  1:
 RMSU=  1.68D-08    CP:  9.88D-01  1.28D+00  6.67D-01  1.13D+00  9.52D-01
                    CP:  9.71D-01  8.91D-01  9.66D-01  8.38D-01  1.02D+00
                    CP:  8.75D-01  9.41D-01  8.62D-01
 E= -768.317189059124     Delta-E=       -0.000000000020 Rises=F Damp=F
 DIIS: error= 4.52D-08 at cycle  14 NSaved=  14.
 NSaved=14 IEnMin=14 EnMin= -768.317189059124     IErMin=14 ErrMin= 4.52D-08
 ErrMax= 4.52D-08  0.00D+00 EMaxC= 1.00D-01 BMatC= 2.22D-12 BMatP= 1.42D-11
 IDIUse=1 WtCom= 1.00D+00 WtEn= 0.00D+00
 Coeff-Com: -0.147D-05 0.171D-05-0.541D-06 0.107D-04 0.274D-04 0.560D-04
 Coeff-Com: -0.109D-03-0.433D-03-0.172D-02-0.927D-02-0.436D-03 0.219D-01
 Coeff-Com:  0.298D+00 0.692D+00
 Coeff:     -0.147D-05 0.171D-05-0.541D-06 0.107D-04 0.274D-04 0.560D-04
 Coeff:     -0.109D-03-0.433D-03-0.172D-02-0.927D-02-0.436D-03 0.219D-01
 Coeff:      0.298D+00 0.692D+00
 Gap=     0.124 Goal=   None    Shift=    0.000
 RMSDP=9.77D-09 MaxDP=2.17D-07 DE=-2.00D-11 OVMax= 9.80D-07

 Error on total polarization charges =  0.01265
 SCF Done:  E(RB3LYP) =  -768.317189059     A.U. after   14 cycles
            NFock= 14  Conv=0.98D-08     -V/T= 2.0091
 KE= 7.613972182590D+02 PE=-4.107638836527D+03 EE= 1.411445881806D+03
 Leave Link  502 at Fri May 24 08:33:01 2019, MaxMem=   402653184 cpu:             691.3 elap:             173.2
 (Enter /n/sw/g16_nehalem/g16/l601.exe)
 Copying SCF densities to generalized density rwf, IOpCl= 0 IROHF=0.

 **********************************************************************

            Population analysis using the SCF density.

 **********************************************************************

 Orbital symmetries:
       Occupied  (A) (A) (A) (A) (A) (A) (A) (A) (A) (A) (A) (A)
                 (A) (A) (A) (A) (A) (A) (A) (A) (A) (A) (A) (A)
                 (A) (A) (A) (A) (A) (A) (A) (A) (A) (A) (A) (A)
                 (A) (A) (A) (A) (A) (A) (A) (A) (A) (A) (A) (A)
                 (A) (A) (A) (A) (A) (A) (A) (A) (A) (A) (A)
       Virtual   (A) (A) (A) (A) (A) (A) (A) (A) (A) (A) (A) (A)
                 (A) (A) (A) (A) (A) (A) (A) (A) (A) (A) (A) (A)
                 (A) (A) (A) (A) (A) (A) (A) (A) (A) (A) (A) (A)
                 (A) (A) (A) (A) (A) (A) (A) (A) (A) (A) (A) (A)
                 (A) (A) (A) (A) (A) (A) (A) (A) (A) (A) (A) (A)
                 (A) (A) (A) (A) (A) (A) (A) (A) (A) (A) (A) (A)
                 (A) (A) (A) (A) (A) (A) (A) (A) (A) (A) (A) (A)
                 (A) (A) (A) (A) (A) (A) (A) (A) (A) (A) (A) (A)
                 (A) (A) (A) (A) (A) (A) (A) (A) (A) (A) (A) (A)
                 (A) (A) (A) (A) (A) (A) (A) (A) (A) (A) (A) (A)
                 (A) (A) (A) (A) (A) (A) (A) (A) (A) (A) (A) (A)
                 (A) (A) (A) (A) (A) (A) (A) (A) (A) (A) (A) (A)
                 (A) (A) (A) (A) (A) (A) (A) (A) (A) (A) (A) (A)
                 (A) (A) (A) (A) (A) (A) (A) (A) (A) (A) (A) (A)
                 (A) (A) (A) (A) (A) (A) (A) (A) (A) (A) (A) (A)
                 (A) (A) (A) (A) (A) (A) (A) (A) (A) (A) (A) (A)
                 (A) (A) (A) (A) (A) (A) (A) (A) (A) (A) (A) (A)
 The electronic state is 1-A.
 Alpha  occ. eigenvalues --  -19.33012 -19.22349 -19.20317 -19.19539 -19.18173
 Alpha  occ. eigenvalues --  -10.39569 -10.31911 -10.31705 -10.30069 -10.29980
 Alpha  occ. eigenvalues --  -10.27533 -10.26766 -10.26657 -10.25281 -10.24531
 Alpha  occ. eigenvalues --   -1.21756  -1.10155  -1.08672  -1.07289  -1.06537
 Alpha  occ. eigenvalues --   -0.87069  -0.85327  -0.77637  -0.75921  -0.74314
 Alpha  occ. eigenvalues --   -0.71766  -0.69063  -0.68600  -0.65956  -0.61468
 Alpha  occ. eigenvalues --   -0.61331  -0.58802  -0.57219  -0.54930  -0.53459
 Alpha  occ. eigenvalues --   -0.52425  -0.51361  -0.50897  -0.50045  -0.49751
 Alpha  occ. eigenvalues --   -0.49066  -0.48365  -0.47742  -0.46263  -0.45558
 Alpha  occ. eigenvalues --   -0.44403  -0.43225  -0.42378  -0.42034  -0.41711
 Alpha  occ. eigenvalues --   -0.40194  -0.37841  -0.36060  -0.35391  -0.35037
 Alpha  occ. eigenvalues --   -0.33502  -0.31291  -0.29129  -0.28598
 Alpha virt. eigenvalues --   -0.16203   0.00524   0.03828   0.05140   0.06434
 Alpha virt. eigenvalues --    0.06589   0.07523   0.08622   0.09545   0.10284
 Alpha virt. eigenvalues --    0.10722   0.11367   0.11751   0.12126   0.12701
 Alpha virt. eigenvalues --    0.13094   0.13704   0.13961   0.14782   0.15161
 Alpha virt. eigenvalues --    0.15841   0.15952   0.16505   0.16752   0.17268
 Alpha virt. eigenvalues --    0.18148   0.19029   0.19996   0.20318   0.23571
 Alpha virt. eigenvalues --    0.24186   0.25162   0.26138   0.28519   0.31185
 Alpha virt. eigenvalues --    0.43143   0.44471   0.45246   0.46515   0.47457
 Alpha virt. eigenvalues --    0.48927   0.49288   0.49641   0.50965   0.51637
 Alpha virt. eigenvalues --    0.52733   0.53758   0.54936   0.55137   0.55273
 Alpha virt. eigenvalues --    0.57724   0.58480   0.58922   0.59910   0.61343
 Alpha virt. eigenvalues --    0.63234   0.64770   0.66737   0.68773   0.71097
 Alpha virt. eigenvalues --    0.72656   0.74777   0.75611   0.77508   0.78384
 Alpha virt. eigenvalues --    0.80018   0.80353   0.80697   0.81241   0.82095
 Alpha virt. eigenvalues --    0.83451   0.83954   0.84585   0.85802   0.86145
 Alpha virt. eigenvalues --    0.86550   0.87121   0.87940   0.89258   0.89614
 Alpha virt. eigenvalues --    0.90971   0.91731   0.92780   0.93618   0.93900
 Alpha virt. eigenvalues --    0.95459   0.98031   0.98921   1.00475   1.01069
 Alpha virt. eigenvalues --    1.03404   1.06877   1.08257   1.10184   1.11067
 Alpha virt. eigenvalues --    1.13706   1.15118   1.15982   1.18201   1.20952
 Alpha virt. eigenvalues --    1.23393   1.24506   1.27993   1.28661   1.32781
 Alpha virt. eigenvalues --    1.34482   1.34838   1.36319   1.39287   1.42688
 Alpha virt. eigenvalues --    1.44210   1.45765   1.46577   1.47802   1.48373
 Alpha virt. eigenvalues --    1.51240   1.52435   1.55590   1.56459   1.58893
 Alpha virt. eigenvalues --    1.60701   1.63588   1.65070   1.66474   1.69410
 Alpha virt. eigenvalues --    1.73145   1.73977   1.75970   1.78192   1.82208
 Alpha virt. eigenvalues --    1.83128   1.85070   1.88174   1.89028   1.90713
 Alpha virt. eigenvalues --    1.91056   1.92260   1.94633   1.96239   1.99899
 Alpha virt. eigenvalues --    2.00158   2.01008   2.02598   2.03602   2.04725
 Alpha virt. eigenvalues --    2.05325   2.07114   2.07902   2.08683   2.09586
 Alpha virt. eigenvalues --    2.11524   2.12537   2.14667   2.16679   2.18254
 Alpha virt. eigenvalues --    2.20146   2.21774   2.23362   2.24076   2.25227
 Alpha virt. eigenvalues --    2.29389   2.30089   2.32626   2.34357   2.36224
 Alpha virt. eigenvalues --    2.37765   2.41176   2.44274   2.46753   2.47776
 Alpha virt. eigenvalues --    2.49274   2.51194   2.52189   2.57230   2.60809
 Alpha virt. eigenvalues --    2.61558   2.65902   2.67625   2.72891   2.74848
 Alpha virt. eigenvalues --    2.77160   2.82814   2.83876   2.89201   2.92873
 Alpha virt. eigenvalues --    2.95561   2.97294   3.00041   3.04037   3.80776
 Alpha virt. eigenvalues --    3.93010   3.94986   3.96415   4.12335   4.18070
 Alpha virt. eigenvalues --    4.21803   4.22851   4.24026   4.24691   4.26454
 Alpha virt. eigenvalues --    4.42006   4.47837   4.53735   4.72977
          Condensed to atoms (all electrons):
               1          2          3          4          5          6
     1  C    5.000276   0.264695  -0.027311  -0.045633   0.273758   0.002587
     2  C    0.264695   5.138008   0.268628   0.004222  -0.035446  -0.036902
     3  C   -0.027311   0.268628   4.851945  -0.043012  -0.021173   0.360182
     4  C   -0.045633   0.004222  -0.043012   5.186135   0.247658   0.003259
     5  C    0.273758  -0.035446  -0.021173   0.247658   5.003893  -0.000059
     6  H    0.002587  -0.036902   0.360182   0.003259  -0.000059   0.424190
     7  H   -0.026007   0.361791  -0.046915   0.000564   0.004158  -0.000227
     8  H    0.378511  -0.040028   0.005685   0.002700  -0.042608  -0.000107
     9  H   -0.005580  -0.001107  -0.002959   0.356858  -0.028421  -0.000197
    10  H   -0.049176   0.002495   0.002462  -0.045591   0.382246   0.000003
    11  O   -0.005101  -0.035134   0.399059   0.107140  -0.010351  -0.038999
    12  O   -0.036994   0.179921  -0.035137  -0.001341  -0.000167   0.002099
    13  O    0.251934  -0.044563   0.000475   0.002704  -0.033810  -0.000071
    14  O   -0.027468   0.002201   0.000092  -0.037027   0.242885   0.000002
    15  C    0.003440  -0.000301   0.002824   0.344210  -0.029828  -0.000117
    16  H   -0.000285   0.000041   0.000051  -0.028202  -0.002911  -0.000035
    17  H    0.000416  -0.000035  -0.000047  -0.045379   0.004163   0.000004
    18  O   -0.000041   0.000002   0.000086  -0.039987   0.001942   0.000011
    19  C    0.003401  -0.035437  -0.001555   0.000117  -0.000182   0.000204
    20  H   -0.000124   0.005102  -0.000206   0.000009   0.000020   0.000005
    21  H   -0.000102  -0.005661   0.004093  -0.000082   0.000006  -0.000917
    22  H    0.000119  -0.007593  -0.000914   0.000025  -0.000019   0.000095
    23  C   -0.044629  -0.010207   0.007223   0.000285  -0.009443  -0.000798
    24  H   -0.005715  -0.000985  -0.000999  -0.001779   0.006291  -0.000078
    25  H    0.004445  -0.000005  -0.000077  -0.000003   0.000071   0.000005
    26  H   -0.007226   0.007035   0.008276   0.000457  -0.001627   0.001319
    27  C   -0.008331   0.000027   0.000052  -0.005710  -0.042616   0.000000
    28  H    0.000089  -0.000012   0.000001   0.000053   0.004875   0.000000
    29  H   -0.000639   0.000245  -0.000005   0.001892  -0.004631   0.000000
    30  H    0.006089  -0.003530   0.000125  -0.001075  -0.005337  -0.000001
    31  C    0.000002   0.000000   0.000005   0.005025  -0.000126   0.000000
    32  H    0.000000   0.000000   0.000000  -0.000271   0.000000   0.000000
    33  H    0.000000   0.000000   0.000000  -0.000161   0.000028   0.000000
    34  H    0.000000   0.000000  -0.000002   0.000248   0.000008   0.000000
               7          8          9         10         11         12
     1  C   -0.026007   0.378511  -0.005580  -0.049176  -0.005101  -0.036994
     2  C    0.361791  -0.040028  -0.001107   0.002495  -0.035134   0.179921
     3  C   -0.046915   0.005685  -0.002959   0.002462   0.399059  -0.035137
     4  C    0.000564   0.002700   0.356858  -0.045591   0.107140  -0.001341
     5  C    0.004158  -0.042608  -0.028421   0.382246  -0.010351  -0.000167
     6  H   -0.000227  -0.000107  -0.000197   0.000003  -0.038999   0.002099
     7  H    0.509317  -0.004637   0.000102  -0.000181   0.002253  -0.026137
     8  H   -0.004637   0.497258   0.000387   0.002600   0.000042   0.003720
     9  H    0.000102   0.000387   0.474017   0.004074  -0.028392   0.011908
    10  H   -0.000181   0.002600   0.004074   0.531164  -0.000495   0.000025
    11  O    0.002253   0.000042  -0.028392  -0.000495   7.946169  -0.004455
    12  O   -0.026137   0.003720   0.011908   0.000025  -0.004455   8.242746
    13  O    0.002957  -0.030315  -0.000016  -0.003378   0.000037   0.001251
    14  O   -0.000049  -0.002096  -0.003980  -0.034813   0.000971  -0.000031
    15  C    0.000024  -0.000133  -0.034872  -0.006677  -0.035066   0.000461
    16  H   -0.000001   0.000002   0.005414   0.004881  -0.003537  -0.000006
    17  H    0.000000  -0.000001  -0.003294  -0.001161   0.002956   0.000000
    18  O    0.000000   0.000000   0.005053   0.000033   0.002858  -0.000002
    19  C   -0.005374   0.000201  -0.000130   0.000003   0.000027   0.219314
    20  H    0.000073  -0.000057  -0.000065   0.000000  -0.000011  -0.029267
    21  H   -0.001060   0.000042  -0.000083   0.000000   0.000393  -0.032617
    22  H    0.009486  -0.000085   0.000047   0.000000  -0.000004  -0.032156
    23  C   -0.000646   0.005224   0.000011   0.003394  -0.000329   0.000118
    24  H    0.000229  -0.000238   0.000008   0.005009   0.000506   0.000001
    25  H   -0.000117  -0.000117   0.000000  -0.000054   0.000023   0.000000
    26  H    0.000670  -0.000158  -0.000003   0.000239  -0.001910  -0.000009
    27  C   -0.000033   0.001887   0.005794   0.005505  -0.000021  -0.002063
    28  H    0.000000  -0.000196  -0.000083  -0.000150   0.000000   0.000055
    29  H   -0.000002   0.000137   0.002672  -0.000111  -0.000065  -0.000251
    30  H    0.000118   0.005117  -0.000389  -0.000279   0.000017   0.007543
    31  C    0.000000   0.000000  -0.000052  -0.000008  -0.000036   0.000000
    32  H    0.000000   0.000000  -0.000011   0.000000   0.000004   0.000000
    33  H    0.000000   0.000000  -0.000052  -0.000001   0.000005   0.000000
    34  H    0.000000   0.000000   0.000060   0.000003  -0.000023   0.000000
              13         14         15         16         17         18
     1  C    0.251934  -0.027468   0.003440  -0.000285   0.000416  -0.000041
     2  C   -0.044563   0.002201  -0.000301   0.000041  -0.000035   0.000002
     3  C    0.000475   0.000092   0.002824   0.000051  -0.000047   0.000086
     4  C    0.002704  -0.037027   0.344210  -0.028202  -0.045379  -0.039987
     5  C   -0.033810   0.242885  -0.029828  -0.002911   0.004163   0.001942
     6  H   -0.000071   0.000002  -0.000117  -0.000035   0.000004   0.000011
     7  H    0.002957  -0.000049   0.000024  -0.000001   0.000000   0.000000
     8  H   -0.030315  -0.002096  -0.000133   0.000002  -0.000001   0.000000
     9  H   -0.000016  -0.003980  -0.034872   0.005414  -0.003294   0.005053
    10  H   -0.003378  -0.034813  -0.006677   0.004881  -0.001161   0.000033
    11  O    0.000037   0.000971  -0.035066  -0.003537   0.002956   0.002858
    12  O    0.001251  -0.000031   0.000461  -0.000006   0.000000  -0.000002
    13  O    8.174070   0.000863  -0.000042  -0.000004  -0.000002   0.000000
    14  O    0.000863   8.202417  -0.001043   0.000200   0.007769   0.000022
    15  C   -0.000042  -0.001043   4.886469   0.345864   0.361160   0.235311
    16  H   -0.000004   0.000200   0.345864   0.590937  -0.044919  -0.039850
    17  H   -0.000002   0.007769   0.361160  -0.044919   0.566130  -0.036146
    18  O    0.000000   0.000022   0.235311  -0.039850  -0.036146   8.214095
    19  C   -0.000048   0.000002  -0.000013   0.000000   0.000000   0.000000
    20  H    0.000001   0.000000   0.000000   0.000000   0.000000   0.000000
    21  H    0.000003   0.000000  -0.000002   0.000000   0.000000   0.000000
    22  H   -0.000008   0.000000   0.000000   0.000000   0.000000   0.000000
    23  C    0.245212   0.000075  -0.000038  -0.000003   0.000000   0.000000
    24  H   -0.036248   0.000004   0.000102   0.000142   0.000008  -0.000001
    25  H   -0.030318  -0.000001   0.000000   0.000000   0.000000   0.000000
    26  H   -0.040146  -0.000005  -0.000008  -0.000006   0.000000   0.000000
    27  C    0.000067   0.231767  -0.000963   0.000013  -0.000009  -0.000025
    28  H    0.000000  -0.031560  -0.000018   0.000001  -0.000026   0.000000
    29  H   -0.000002  -0.037510   0.000640  -0.000014  -0.000466   0.000010
    30  H    0.000013  -0.033202   0.000138  -0.000001   0.000131   0.000000
    31  C    0.000000   0.000007  -0.040888  -0.004432  -0.003359   0.243934
    32  H    0.000000   0.000000   0.005536  -0.000136  -0.000106  -0.031579
    33  H    0.000000  -0.000004  -0.006706  -0.002319   0.010289  -0.036245
    34  H    0.000000   0.000000  -0.008219   0.011809  -0.002062  -0.035722
              19         20         21         22         23         24
     1  C    0.003401  -0.000124  -0.000102   0.000119  -0.044629  -0.005715
     2  C   -0.035437   0.005102  -0.005661  -0.007593  -0.010207  -0.000985
     3  C   -0.001555  -0.000206   0.004093  -0.000914   0.007223  -0.000999
     4  C    0.000117   0.000009  -0.000082   0.000025   0.000285  -0.001779
     5  C   -0.000182   0.000020   0.000006  -0.000019  -0.009443   0.006291
     6  H    0.000204   0.000005  -0.000917   0.000095  -0.000798  -0.000078
     7  H   -0.005374   0.000073  -0.001060   0.009486  -0.000646   0.000229
     8  H    0.000201  -0.000057   0.000042  -0.000085   0.005224  -0.000238
     9  H   -0.000130  -0.000065  -0.000083   0.000047   0.000011   0.000008
    10  H    0.000003   0.000000   0.000000   0.000000   0.003394   0.005009
    11  O    0.000027  -0.000011   0.000393  -0.000004  -0.000329   0.000506
    12  O    0.219314  -0.029267  -0.032617  -0.032156   0.000118   0.000001
    13  O   -0.000048   0.000001   0.000003  -0.000008   0.245212  -0.036248
    14  O    0.000002   0.000000   0.000000   0.000000   0.000075   0.000004
    15  C   -0.000013   0.000000  -0.000002   0.000000  -0.000038   0.000102
    16  H    0.000000   0.000000   0.000000   0.000000  -0.000003   0.000142
    17  H    0.000000   0.000000   0.000000   0.000000   0.000000   0.000008
    18  O    0.000000   0.000000   0.000000   0.000000   0.000000  -0.000001
    19  C    4.921961   0.385403   0.370908   0.371832   0.000000   0.000000
    20  H    0.385403   0.490997  -0.028762  -0.025615   0.000000   0.000000
    21  H    0.370908  -0.028762   0.556690  -0.039560   0.000001   0.000000
    22  H    0.371832  -0.025615  -0.039560   0.541847   0.000000   0.000000
    23  C    0.000000   0.000000   0.000001   0.000000   4.951672   0.362828
    24  H    0.000000   0.000000   0.000000   0.000000   0.362828   0.569875
    25  H    0.000000   0.000000   0.000000   0.000000   0.388925  -0.027653
    26  H    0.000015   0.000000  -0.000005   0.000004   0.348064  -0.048830
    27  C    0.000068   0.000022  -0.000004   0.000000   0.000007   0.000001
    28  H   -0.000002  -0.000001   0.000000   0.000000   0.000000   0.000000
    29  H    0.000007   0.000001   0.000000   0.000000   0.000000   0.000000
    30  H   -0.000222  -0.000010   0.000024   0.000001   0.000002   0.000002
    31  C    0.000000   0.000000   0.000000   0.000000   0.000000   0.000000
    32  H    0.000000   0.000000   0.000000   0.000000   0.000000   0.000000
    33  H    0.000000   0.000000   0.000000   0.000000   0.000000   0.000000
    34  H    0.000000   0.000000   0.000000   0.000000   0.000000   0.000000
              25         26         27         28         29         30
     1  C    0.004445  -0.007226  -0.008331   0.000089  -0.000639   0.006089
     2  C   -0.000005   0.007035   0.000027  -0.000012   0.000245  -0.003530
     3  C   -0.000077   0.008276   0.000052   0.000001  -0.000005   0.000125
     4  C   -0.000003   0.000457  -0.005710   0.000053   0.001892  -0.001075
     5  C    0.000071  -0.001627  -0.042616   0.004875  -0.004631  -0.005337
     6  H    0.000005   0.001319   0.000000   0.000000   0.000000  -0.000001
     7  H   -0.000117   0.000670  -0.000033   0.000000  -0.000002   0.000118
     8  H   -0.000117  -0.000158   0.001887  -0.000196   0.000137   0.005117
     9  H    0.000000  -0.000003   0.005794  -0.000083   0.002672  -0.000389
    10  H   -0.000054   0.000239   0.005505  -0.000150  -0.000111  -0.000279
    11  O    0.000023  -0.001910  -0.000021   0.000000  -0.000065   0.000017
    12  O    0.000000  -0.000009  -0.002063   0.000055  -0.000251   0.007543
    13  O   -0.030318  -0.040146   0.000067   0.000000  -0.000002   0.000013
    14  O   -0.000001  -0.000005   0.231767  -0.031560  -0.037510  -0.033202
    15  C    0.000000  -0.000008  -0.000963  -0.000018   0.000640   0.000138
    16  H    0.000000  -0.000006   0.000013   0.000001  -0.000014  -0.000001
    17  H    0.000000   0.000000  -0.000009  -0.000026  -0.000466   0.000131
    18  O    0.000000   0.000000  -0.000025   0.000000   0.000010   0.000000
    19  C    0.000000   0.000015   0.000068  -0.000002   0.000007  -0.000222
    20  H    0.000000   0.000000   0.000022  -0.000001   0.000001  -0.000010
    21  H    0.000000  -0.000005  -0.000004   0.000000   0.000000   0.000024
    22  H    0.000000   0.000004   0.000000   0.000000   0.000000   0.000001
    23  C    0.388925   0.348064   0.000007   0.000000   0.000000   0.000002
    24  H   -0.027653  -0.048830   0.000001   0.000000   0.000000   0.000002
    25  H    0.484146  -0.027349   0.000000   0.000000   0.000000   0.000000
    26  H   -0.027349   0.612412   0.000000   0.000000   0.000000  -0.000001
    27  C    0.000000   0.000000   4.948727   0.384731   0.370631   0.356029
    28  H    0.000000   0.000000   0.384731   0.509412  -0.032359  -0.025487
    29  H    0.000000   0.000000   0.370631  -0.032359   0.575909  -0.043460
    30  H    0.000000  -0.000001   0.356029  -0.025487  -0.043460   0.566860
    31  C    0.000000   0.000000   0.000000   0.000000  -0.000014   0.000000
    32  H    0.000000   0.000000   0.000000   0.000000   0.000000   0.000000
    33  H    0.000000   0.000000   0.000000   0.000000   0.000004   0.000000
    34  H    0.000000   0.000000   0.000000   0.000000   0.000000   0.000000
              31         32         33         34
     1  C    0.000002   0.000000   0.000000   0.000000
     2  C    0.000000   0.000000   0.000000   0.000000
     3  C    0.000005   0.000000   0.000000  -0.000002
     4  C    0.005025  -0.000271  -0.000161   0.000248
     5  C   -0.000126   0.000000   0.000028   0.000008
     6  H    0.000000   0.000000   0.000000   0.000000
     7  H    0.000000   0.000000   0.000000   0.000000
     8  H    0.000000   0.000000   0.000000   0.000000
     9  H   -0.000052  -0.000011  -0.000052   0.000060
    10  H   -0.000008   0.000000  -0.000001   0.000003
    11  O   -0.000036   0.000004   0.000005  -0.000023
    12  O    0.000000   0.000000   0.000000   0.000000
    13  O    0.000000   0.000000   0.000000   0.000000
    14  O    0.000007   0.000000  -0.000004   0.000000
    15  C   -0.040888   0.005536  -0.006706  -0.008219
    16  H   -0.004432  -0.000136  -0.002319   0.011809
    17  H   -0.003359  -0.000106   0.010289  -0.002062
    18  O    0.243934  -0.031579  -0.036245  -0.035722
    19  C    0.000000   0.000000   0.000000   0.000000
    20  H    0.000000   0.000000   0.000000   0.000000
    21  H    0.000000   0.000000   0.000000   0.000000
    22  H    0.000000   0.000000   0.000000   0.000000
    23  C    0.000000   0.000000   0.000000   0.000000
    24  H    0.000000   0.000000   0.000000   0.000000
    25  H    0.000000   0.000000   0.000000   0.000000
    26  H    0.000000   0.000000   0.000000   0.000000
    27  C    0.000000   0.000000   0.000000   0.000000
    28  H    0.000000   0.000000   0.000000   0.000000
    29  H   -0.000014   0.000000   0.000004   0.000000
    30  H    0.000000   0.000000   0.000000   0.000000
    31  C    4.890771   0.386015   0.368145   0.366827
    32  H    0.386015   0.524004  -0.030520  -0.030624
    33  H    0.368145  -0.030520   0.586542  -0.045133
    34  H    0.366827  -0.030624  -0.045133   0.588166
 Mulliken charges:
               1
     1  C    0.100599
     2  C    0.022534
     3  C    0.269047
     4  C    0.031693
     5  C    0.096753
     6  H    0.284544
     7  H    0.219644
     8  H    0.217263
     9  H    0.243281
    10  H    0.197941
    11  O   -0.298529
    12  O   -0.468530
    13  O   -0.460615
    14  O   -0.480489
    15  C   -0.021244
    16  H    0.167308
    17  H    0.183988
    18  O   -0.483760
    19  C   -0.230501
    20  H    0.202483
    21  H    0.176698
    22  H    0.182499
    23  C   -0.246948
    24  H    0.177520
    25  H    0.208078
    26  H    0.148792
    27  C   -0.245554
    28  H    0.190675
    29  H    0.167381
    30  H    0.170785
    31  C   -0.211815
    32  H    0.177689
    33  H    0.156126
    34  H    0.154666
 Sum of Mulliken charges =   1.00000
 Mulliken charges with hydrogens summed into heavy atoms:
               1
     1  C    0.317862
     2  C    0.242178
[...]
 31,-0.01593390,-0.02193606,-0.01550516,-0.00007116,0.00030233,0.000043
 85,0.00002437,-0.00003196,0.00006714,0.00003275,-0.00035547,-0.0000503
 7,0.00015970,-0.00001641,0.00004597,0.00003190,-0.00009798,0.00003019,
 0.00000381,0.00001488,0.00000592,-0.00000295,0.00000326,-0.00000882,-0
 .00000962,0.00001508,-0.00001174,0.00000974,0.00001369,0.00016434,0.00
 000220,0.00004257,0.00001302,-0.00002654,0.00000152,-0.00000141,0.0000
 1316,0.00002269,-0.00001974,-0.11639169,-0.12923298,0.00786296,-0.0149
 5774,-0.00767578,0.00154458,0.13219563,0.14730804,0.00032505,0.0001997
 8,-0.00067144,-0.00026137,-0.00005035,-0.00000194,-0.00015075,-0.00003
 691,-0.00003699,0.00066664,0.00138427,-0.00141968,-0.00183986,-0.00291
 617,0.00423814,0.00002838,-0.00005560,-0.00000659,0.00001283,0.0000743
 1,-0.00002482,0.00015896,0.00008325,0.00022543,-0.00007120,0.00011286,
 -0.00318107,0.00022591,0.00020767,-0.00041190,0.00021898,-0.00021066,0
 .00082504,0.00005151,0.00000284,0.00008586,-0.00006213,-0.00001108,-0.
 00009470,-0.02086469,-0.02445164,-0.00843230,-0.00020284,0.00056483,0.
 00023950,-0.00006036,-0.00005994,0.00011553,0.00041236,-0.00024879,-0.
 00028650,-0.00000864,-0.00005296,0.00003792,0.00002690,0.00001359,0.00
 004576,-0.00000543,0.00001301,-0.00000212,0.00000397,-0.00000958,-0.00
 000788,0.00000902,-0.00001399,0.00000222,-0.00004630,-0.00003458,0.000
 08116,0.00001200,0.00002566,0.00001997,-0.00001791,0.00000090,-0.00000
 954,0.00000932,0.00001412,-0.00000622,0.00962049,0.00980553,-0.0536127
 9,0.02391734,0.01486214,0.00166188,-0.00742368,0.00205508,0.05879981,0
 .00035988,-0.00068186,0.00009125,0.00010639,0.00018642,0.00048425,-0.0
 0019777,-0.00005822,0.00006799,-0.00005669,0.00012072,-0.00001809,0.00
 004175,0.00124394,-0.00233887,0.00004044,0.00009718,0.00001214,-0.0000
 2010,-0.00004897,-0.00003423,-0.00037612,-0.00038225,-0.00082847,-0.00
 037018,-0.00007818,0.00014235,-0.00000575,-0.00008386,0.00024739,0.000
 15010,-0.00014956,0.00010390,-0.00051852,0.00071390,-0.00108954,0.0001
 8755,-0.00017615,-0.00027874,0.00458970,0.00229726,0.00721196,-0.00002
 700,0.00001441,-0.00026332,0.00006032,-0.00003030,0.00003035,0.0000927
 8,-0.00008503,-0.00001791,-0.00003671,-0.00004721,0.00006771,-0.000009
 77,-0.00027748,-0.00022312,0.00003669,-0.00003123,0.00006061,-0.000036
 16,0.00009387,-0.00000359,-0.00004565,0.00007618,-0.00003213,-0.000040
 84,-0.00000876,0.00002108,0.00002380,-0.00001338,-0.00001948,0.0000072
 8,-0.00000977,-0.00002546,0.00000829,-0.00000993,-0.00000649,-0.233138
 68,0.11767682,-0.02649403,0.00317724,-0.00264375,-0.00037430,-0.020927
 75,0.01492249,-0.00474453,0.24690198,0.00051369,0.00091586,-0.00125933
 ,-0.00042814,-0.00001857,0.00005662,0.00021358,-0.00012844,0.00002205,
 -0.00033110,-0.00021002,-0.00028676,0.00023123,0.00028495,0.00395262,-
 0.00001934,0.00001917,0.00001591,-0.00002727,0.00004793,-0.00013469,-0
 .00085022,-0.00013565,-0.00057352,-0.00007895,0.00005334,-0.00006576,-
 0.00021034,0.00004533,-0.00015783,-0.00003866,0.00029107,-0.00023777,0
 .00024702,-0.00047589,0.00063874,-0.00037034,-0.00002626,0.00038657,0.
 01982590,-0.02097593,-0.00869977,-0.00008737,-0.00007332,0.00010474,0.
 00000564,-0.00000395,-0.00000286,-0.00011313,-0.00002875,-0.00002208,0
 .00015127,0.00008910,-0.00004800,0.00013422,-0.00025164,0.00003946,0.0
 0000399,0.00002203,0.00001467,-0.00001055,0.00005169,-0.00001511,-0.00
 002982,0.00000924,-0.00001823,0.00015001,0.00006210,-0.00002223,-0.000
 02564,0.00002141,0.00000791,-0.00002224,0.00000729,0.00004025,-0.00001
 004,-0.00003764,0.00001414,0.11580460,-0.12977517,0.01605843,0.0136395
 2,-0.00720171,0.00201088,-0.01559537,0.01275065,-0.00126378,-0.1326252
 8,0.14466184,-0.00053704,-0.00005113,-0.00046306,-0.00029721,-0.000063
 93,-0.00030298,0.00032189,-0.00008093,-0.00016388,0.00006708,-0.000368
 55,-0.00032164,0.00270383,-0.00079859,0.00433879,-0.00006469,-0.000048
 38,0.00000272,0.00005949,0.00013729,0.00009810,-0.00113333,-0.00088089
 ,-0.00125869,0.00027714,-0.00001068,-0.00017914,-0.00026049,0.00016239
 ,-0.00009959,-0.00015044,0.00032515,-0.00019856,-0.00019963,-0.0001118
 7,-0.00019517,0.00020723,0.00017602,0.00025744,0.02224492,-0.02424748,
 -0.00526774,0.00003567,-0.00001885,0.00011874,-0.00003381,0.00000588,0
 .00000028,-0.00013370,-0.00000706,-0.00000081,0.00002287,0.00005466,-0
 .00003398,-0.00024810,0.00054303,0.00025020,-0.00000785,-0.00002327,-0
 .00002779,0.00006695,-0.00018038,0.00003389,0.00007631,-0.00006689,0.0
 0003727,0.00016328,-0.00007370,-0.00007369,-0.00002301,0.00000826,-0.0
 0000545,-0.00001021,0.00001656,0.00003554,-0.00000315,0.00001256,0.000
 00948,-0.03011993,0.02186627,-0.05826965,-0.02378900,0.01396727,-0.000
 06245,0.00251443,0.00031607,0.00182192,0.02826582,-0.01056170,0.059915
 99,-0.00047397,-0.00023674,-0.00050669,-0.00024658,0.00008907,-0.00007
 344,-0.00170708,0.00032327,0.00005927,-0.00267033,0.00002650,-0.000285
 91,0.00013357,-0.00065568,0.00081556,0.00022356,0.00014722,0.00000935,
 0.00010252,-0.00004488,-0.00003675,0.00012482,0.00001744,0.00000771,-0
 .00052897,0.00001224,0.00020119,-0.00022085,-0.00013729,-0.00000124,0.
 00172505,-0.00086716,0.00067637,0.00058526,-0.00054531,-0.00025316,0.0
 0051397,0.00042955,0.00034348,0.00082508,-0.00002119,-0.00088663,-0.04
 502139,-0.00534651,0.00661965,0.00520182,0.00537211,-0.00001656,0.0056
 6926,0.00476112,-0.00159364,-0.20504141,0.02091172,0.02368224,-0.00021
 846,0.00060023,-0.00007394,0.00000956,-0.00007044,0.00000185,0.0000014
 2,-0.00004799,0.00005289,0.00007861,-0.00007287,0.00003458,0.00003020,
 -0.00018216,-0.00002391,-0.00001748,-0.00004371,0.00000639,0.00003504,
 0.00005261,0.00000167,-0.00000575,0.00014549,-0.00002346,-0.00022903,0
 .00040283,0.00053410,0.00005179,0.00002377,-0.00011683,-0.00002990,-0.
 00003082,0.00008174,0.00002413,-0.00007905,-0.00001913,0.47962423,0.00
 021157,-0.00033396,0.00053679,0.00011463,-0.00009218,-0.00000144,0.000
 51627,-0.00007316,-0.00000994,-0.00300905,-0.00608247,0.00158317,-0.00
 158505,0.00153921,-0.00042349,-0.00009492,-0.00003596,-0.00001494,-0.0
 0003164,0.00003619,0.00000026,-0.00016773,0.00005080,-0.00002867,0.000
 04834,0.00022484,0.00013631,0.00015700,0.00013570,-0.00005769,-0.00050
 641,0.00045005,-0.00038933,-0.00019118,0.00019810,0.00006276,-0.000398
 47,-0.00022160,-0.00030395,-0.00015828,-0.00005403,0.00046135,-0.03453
 983,0.00363658,0.00557208,-0.00307107,-0.00015695,0.00119349,-0.002532
 43,0.00003614,-0.00005719,0.06341252,-0.10180512,-0.00879765,0.0000718
 1,-0.00020271,0.00001965,-0.00000258,0.00002537,-0.00000033,-0.0000029
 0,0.00002228,-0.00001596,-0.00002648,0.00002697,-0.00001250,-0.0000283
 7,0.00005093,0.00015145,0.00002388,0.00001992,-0.00001744,-0.00001615,
 -0.00001614,-0.00001785,0.00000846,-0.00002068,-0.00001060,0.00006443,
 -0.00022819,-0.00025370,-0.00001628,0.00000298,0.00006196,0.00000424,0
 .00003344,-0.00001829,-0.00000046,0.00003243,0.00000916,0.05314490,0.6
 1086747,-0.00007362,0.00015231,0.00006642,0.00004174,0.00002745,0.0000
 3651,0.00031907,-0.00017310,0.00002671,0.00107844,0.00035326,-0.000533
 93,0.00024020,0.00031258,0.00027160,-0.00005776,-0.00007452,-0.0000069
 0,-0.00002688,0.00000944,0.00001326,-0.00002538,-0.00003669,0.00000392
 ,0.00006189,0.00016069,0.00011843,0.00004587,0.00004581,-0.00000670,-0
 .00005550,0.00024866,-0.00000938,-0.00010208,0.00009336,0.00006283,-0.
 00003709,-0.00010520,-0.00006097,-0.00027246,-0.00007648,0.00014782,0.
 00938122,-0.00029753,-0.00635052,-0.00357140,-0.00044427,0.00198274,0.
 00269301,-0.00115346,0.00126144,0.01989539,-0.00065022,-0.06642554,0.0
 0004678,-0.00011586,0.00002613,-0.00000083,0.00001212,-0.00000219,0.00
 000231,0.00000797,-0.00001430,-0.00001509,0.00001072,-0.00000646,-0.00
 005357,0.00005328,0.00001825,0.00001859,0.00000398,0.00000041,0.000001
 73,-0.00001844,0.00000737,0.00000692,-0.00002549,0.00000611,0.00008238
 ,-0.00002204,-0.00007517,-0.00000087,-0.00000448,0.00000796,0.00000384
 ,-0.00004459,0.00000323,-0.00002848,0.00000655,0.00000160,0.01221498,-
 0.01206182,0.57042275,0.00012534,-0.00013099,0.00022708,0.00005559,-0.
 00005166,-0.00001223,0.00024970,-0.00004627,-0.00001903,-0.00057931,-0
 .00218461,0.00063628,-0.00055573,0.00063599,-0.00031304,-0.00004896,-0
 .00001455,-0.00000185,-0.00001711,0.00001619,0.00000472,-0.00006889,0.
 00001516,-0.00001096,0.00009032,0.00002929,-0.00003906,0.00004857,0.00
 003840,-0.00001135,-0.00025546,0.00013931,-0.00014539,-0.00009937,0.00
 013270,0.00004800,-0.00018378,-0.00009211,-0.00012690,-0.00007127,-0.0
 0000225,0.00023290,-0.00435905,0.00413994,0.00067654,-0.00010978,-0.00
 021822,-0.00025795,-0.00006171,-0.00019581,0.00030590,-0.03034995,-0.0
 2968817,0.00730977,0.00003774,-0.00013171,0.00002026,-0.00000607,0.000
 01578,0.00000299,-0.00000287,0.00001183,-0.00001881,-0.00001135,0.0000
 1952,-0.00000790,-0.00000402,0.00002186,0.00005673,0.00000733,0.000010
 12,-0.00000747,-0.00000749,-0.00000900,-0.00000602,0.00000372,-0.00001
 221,-0.00000295,0.00003823,-0.00010951,-0.00012638,-0.00000604,0.00000
 063,0.00002667,0.00000527,0.00001313,-0.00000736,-0.00000440,0.0000153
 8,0.00000351,-0.10956070,-0.10737215,0.01703172,0.13459322,0.00002312,
 0.00003243,-0.00002249,0.00000827,-0.00000262,0.00000403,0.00007327,-0
 .00001276,-0.00001604,0.00042599,0.00046940,0.00001311,0.00015504,-0.0
 0004942,-0.00001421,-0.00001077,-0.00000252,0.00000093,-0.00000479,0.0
 0000075,0.00000246,0.00000747,-0.00000620,0.00000217,-0.00006043,-0.00
 000328,-0.00002801,0.00000248,-0.00001684,0.00000536,-0.00014164,0.000
 04711,-0.00004668,-0.00002860,0.00002620,0.00000915,-0.00000361,-0.000
 00411,0.00000544,-0.00003297,0.00000290,0.00002905,0.00263471,0.001559
 16,-0.00056127,0.00024396,0.00013891,0.00009695,0.00015329,0.00002120,
 -0.00012156,0.00633286,0.01246949,-0.00192247,0.00000773,-0.00002559,0
 .00000310,-0.00000063,0.00000273,0.00000027,0.00000006,0.00000194,-0.0
 0000269,-0.00000300,0.00000342,-0.00000142,0.00000546,0.00000307,-0.00
 000910,-0.00000274,0.00000119,0.00000089,-0.00000098,-0.00000185,0.000
 00134,-0.00000050,-0.00000427,0.00000186,0.00000866,-0.00000874,-0.000
 01533,0.00000005,-0.00000197,0.00000095,0.00000120,-0.00000236,-0.0000
 0280,-0.00000219,0.00000224,0.,-0.11991567,-0.26044052,0.03483301,0.12
 434401,0.27054248,-0.00002249,0.00000558,-0.00003113,-0.00001139,0.000
 00970,0.00000162,-0.00004646,-0.00000998,0.00003718,0.00011115,0.00040
 207,0.00035208,0.00007000,-0.00008518,0.00003568,0.00001094,0.00000299
 ,0.00000019,0.00000315,-0.00000267,-0.00000165,0.00000814,-0.00000112,
 0.00000116,-0.00006245,0.00000191,0.00000603,-0.00000492,-0.00000623,-
 0.00000226,0.00016542,-0.00005962,0.00002153,0.00001632,-0.00002302,-0
 .00001483,0.00002654,0.00001791,0.00001756,0.00002071,0.,-0.00005615,0
 .00056296,-0.00087515,0.00034367,0.00029682,0.00037373,0.00013542,-0.0
 0023442,-0.00026482,0.00019517,0.00501443,0.00435276,-0.00084863,-0.00
 000844,0.00002247,0.00000002,0.00000222,-0.00000366,-0.00000130,0.0000
 0106,-0.00000148,0.00000286,0.00000176,-0.00000350,0.00000077,0.000002
 26,-0.00000853,-0.00000253,-0.00000101,-0.00000107,0.00000074,0.000000
 96,0.00000196,0.00000058,-0.00000009,0.00000597,-0.00000055,-0.0000040
 2,0.00002853,0.00002983,0.00000008,-0.00000042,-0.00000440,-0.00000368
 ,-0.00000095,0.00000354,0.00000189,-0.00000372,-0.00000100,0.01788954,
 0.03270737,-0.05833974,-0.02344063,-0.03661403,0.05439956,0.00003499,0
 .00001876,0.00009129,0.00003683,-0.00001866,0.00001742,0.00026435,-0.0
 0009016,0.00007198,0.00013531,-0.00018651,0.00020014,-0.00010403,0.000
 29207,-0.00025157,-0.00001187,-0.00001276,0.00000695,-0.00001742,0.000
 00586,0.00000867,-0.00002900,-0.00000999,-0.00000145,0.00015465,-0.000
 05042,-0.00006129,0.00001117,0.00000544,0.00000153,0.00001984,-0.00013
 427,0.00005570,-0.00008324,0.00007995,0.00004651,-0.00008054,-0.000069
 40,-0.00004446,-0.00001633,-0.00001396,0.00016443,0.00420062,0.0060805
 0,-0.00339125,-0.00053303,-0.00071499,0.00007031,0.00045769,-0.0013016
 2,0.00137339,-0.03370881,0.02002407,-0.02331830,0.00003418,-0.00008862
 ,0.00001218,-0.00000242,0.00001172,-0.00000044,-0.00000013,0.00000597,
 -0.00000851,-0.00001097,0.00001022,-0.00000462,-0.00001034,0.00003425,
 0.00000066,0.00000612,0.00000560,-0.00000254,-0.00000328,-0.00000969,0
 .00000150,0.00000228,-0.00002454,0.00000469,0.00002132,-0.00005094,-0.
 00005606,-0.00000721,-0.00000129,0.00001597,0.00000143,0.00001402,-0.0
 0000409,0.00000547,0.00000875,-0.00000094,-0.07711695,0.03423315,-0.06
 453015,0.00809578,-0.00640325,0.01333295,0.09494744,-0.00006097,-0.000
 00503,-0.00006907,-0.00003643,0.00000321,-0.00000773,-0.00022130,0.000
 05268,0.00000179,-0.00012770,0.00034333,-0.00018602,0.00001549,-0.0001
 7984,0.00014021,0.00002740,0.00003432,0.00000643,0.00001198,-0.0000062
 3,-0.00000451,0.00002046,0.00000049,0.00000259,-0.00004257,0.00001001,
 0.00004702,-0.00002199,-0.00000952,-0.00000632,0.00010640,-0.00015646,
 0.00003779,0.00006991,-0.00006622,-0.00004028,0.00007148,0.00005142,0.
 00004152,0.00011549,-0.00001030,-0.00015995,-0.00229832,0.00004686,-0.
 00184730,0.00024101,0.00021484,-0.00002618,0.00120895,0.00068717,-0.00
 004973,0.01196875,-0.00370899,0.00571256,-0.00002704,0.00007179,-0.000
 00495,0.00000231,-0.00000993,-0.00000012,0.00000067,-0.00000558,0.0000
 0554,0.00000913,-0.00000895,0.00000345,0.00000221,-0.00002216,-0.00000
 389,-0.00000216,-0.00000397,0.00000130,0.00000361,0.00000655,0.0000003
 8,-0.00000039,0.00001738,-0.00000306,-0.00000766,0.00009114,0.00009534
 ,0.00000469,0.00000026,-0.00001637,-0.00000968,-0.00001663,0.00001050,
 -0.00000295,-0.00001636,-0.00000516,0.03680116,-0.10969539,0.09569045,
 0.00939769,-0.01090523,0.02301299,-0.05001037,0.11280436,0.00002104,-0
 .00000500,0.00002522,0.00001812,-0.00000616,0.00000452,0.00009449,-0.0
 0001817,-0.00000122,-0.00015041,-0.00038517,0.00013924,-0.00006580,0.0
 0008601,-0.00006235,0.00000002,-0.00001591,-0.00000385,-0.00000338,0.0
 0000126,0.00000086,-0.00000808,0.00000141,-0.00000069,0.00005272,0.000
 00080,-0.00002564,0.00000789,0.00000982,-0.00000263,0.00007317,0.00004
 188,0.00003970,-0.00002195,0.00001374,0.00001520,-0.00002877,-0.000021
 30,-0.00000387,-0.00001488,-0.00000857,0.00005936,0.00064158,-0.000738
 39,0.00208132,0.00012384,0.,-0.00059518,-0.00140300,-0.00044909,-0.000
 41081,0.00057204,-0.00319716,0.01247412,0.00001054,-0.00001741,-0.0000
 0214,-0.00000006,0.00000319,-0.00000031,-0.00000057,0.00000097,0.00000
 080,-0.00000344,0.00000168,-0.00000090,0.00000371,0.00001220,-0.000010
 23,-0.00000054,0.00000326,-0.00000254,-0.00000247,-0.00000189,-0.00000
 047,0.00000033,-0.00001221,0.00000301,0.00000074,-0.00001937,-0.000021
 81,-0.00000454,0.00000018,0.00000818,-0.00000130,0.00001035,-0.0000030
 2,0.00000438,0.00000416,0.00000199,-0.06758078,0.09727922,-0.22314697,
 -0.00057522,0.00071373,-0.00213864,0.07624476,-0.10640542,0.23236916,0
 .00008459,-0.00000354,0.00007247,0.00003621,-0.00001165,-0.00000150,0.
 00012293,0.00000515,-0.00001940,-0.00002876,-0.00021519,-0.00009162,-0
 .00008921,0.00009812,-0.00025449,-0.00002521,-0.00000644,0.00000488,-0
 .00000997,0.00000621,0.00000287,-0.00001475,0.00000184,-0.00000301,0.0
 0021759,-0.00020958,-0.00012718,-0.00002288,-0.00002894,0.00002067,-0.
 00013938,-0.00000311,-0.00000911,-0.00005542,0.00005509,0.00002807,-0.
 00007090,-0.00004884,-0.00005924,-0.00003965,0.00001479,0.00008661,0.0
 0461630,0.00688535,0.00179761,0.00018129,-0.00124373,-0.00124574,-0.00
 055986,-0.00069829,-0.00006396,-0.02152878,0.02359796,0.03261848,0.000
 02451,-0.00006351,0.00000738,-0.00000107,0.00000736,-0.00000027,-0.000
 00027,0.00000514,-0.00000543,-0.00000803,0.00000705,-0.00000341,-0.000
 00998,0.00002182,0.00001479,0.00000397,0.00000065,0.00000059,-0.000002
 69,-0.00000566,-0.00000136,0.00000026,-0.00001425,0.00000070,0.0000325
 9,-0.00003293,-0.00005191,-0.00000763,-0.00000492,0.00001171,0.0000020
 5,0.00000733,-0.00001026,-0.00000171,0.00000805,0.00000125,-0.05187102
 ,0.00174026,0.00568509,0.00301251,-0.00781585,-0.01369932,0.00330612,-
 0.00720930,-0.00800416,0.06284620,-0.00007449,0.00000556,-0.00008325,-
 0.00002666,0.00000450,-0.00000811,-0.00017373,0.00002961,-0.00000980,-
 0.00017834,0.00052953,-0.00002773,0.00006746,-0.00016483,0.00014592,0.
 00003230,0.00001175,0.00000040,0.00001069,-0.00000668,-0.00000092,0.00
 002169,-0.00000263,0.00000415,-0.00023997,-0.00003914,0.00002821,-0.00
 002177,-0.00001866,-0.00000289,0.00017203,-0.00009598,0.00010237,0.000
 06506,-0.00005617,-0.00001808,0.00007408,0.00005094,0.00006679,0.00007
 878,0.00000375,-0.00010512,-0.00177226,0.00032652,0.00266272,0.0014483
 1,0.00077845,-0.00052188,0.00018689,0.00015671,-0.00018231,0.01054997,
 -0.00479972,-0.00785526,-0.00002281,0.00006494,-0.00001024,-0.00000071
 ,-0.00000646,0.00000150,-0.00000096,-0.00000659,0.00000472,0.00000955,
 -0.00000741,0.00000400,0.00000828,-0.00001441,-0.00002840,-0.00000503,
 -0.00000404,-0.00000015,0.00000375,0.00000522,0.00000205,-0.00000069,0
 .00000782,0.00000139,-0.00003393,0.00003996,0.00005307,0.00000588,0.00
 000264,-0.00001367,-0.00000010,-0.00000303,0.00000675,0.00000359,-0.00
 000835,-0.00000114,0.00503622,-0.13793034,-0.11671746,0.00126228,-0.01
 383634,-0.02298079,-0.00163892,0.01039097,0.01311738,-0.01484646,0.144
 59193,-0.00004275,-0.00000983,-0.00005417,-0.00001985,0.00000105,-0.00
 000639,-0.00009934,0.00000541,-0.00000409,-0.00003004,0.00057187,0.000
 22194,0.00009562,-0.00012583,0.00006089,0.00001490,0.00000826,-0.00000
 057,0.00000762,-0.00000358,-0.00000126,0.00001120,0.00000036,0.0000018
 2,-0.00025286,0.00002296,0.00001117,-0.00000189,-0.00000494,-0.0000004
 4,0.00009956,-0.00003001,0.00003982,0.00003640,-0.00002535,-0.00001467
 ,0.00004621,0.00004619,0.00004534,0.00005437,0.00002036,-0.00003700,-0
 .00149417,-0.00137310,0.00106177,0.00125781,0.00078772,-0.00042925,-0.
 00013873,0.00012312,-0.00049031,0.01042215,-0.00280748,0.00150482,-0.0
 0001798,0.00003435,-0.00000635,-0.00000139,-0.00000343,0.00000149,-0.0
 0000079,-0.00000305,0.00000171,0.00000635,-0.00000229,0.00000236,0.000
 01560,-0.00002237,-0.00001410,-0.00000574,-0.00000185,0.00000127,0.000
 00170,0.00000484,0.00000094,-0.00000162,0.00001264,-0.00000079,-0.0000
 3634,-0.00000224,0.00001882,0.00000375,0.00000296,-0.00000651,0.000002
 75,0.00000980,0.00000260,0.00000770,-0.00000056,0.00000132,0.00825952,
 -0.11728224,-0.21950672,-0.00145255,0.00365429,0.00585763,-0.00004533,
 -0.01597382,-0.02078938,-0.01670184,0.13236579,0.23252630\\0.00000485,
 0.00002189,-0.00000122,-0.00000343,-0.00002103,0.00000419,0.00000337,-
 0.00000524,-0.00000635,-0.00000028,-0.00000126,-0.00000260,-0.00000522
 ,-0.00000223,0.00000372,0.00000006,-0.00000198,0.00000172,-0.00000028,
 0.00000297,0.00000300,0.00000102,0.00000385,0.00000218,0.00000341,-0.0
 0000158,-0.00000417,-0.00000234,0.00000097,0.00000433,-0.00000833,-0.0
 0000764,0.00000135,0.00000368,0.00001387,0.00000392,-0.00000515,-0.000
 00693,0.00000702,0.00000474,0.00000599,0.00000093,0.00000088,-0.000000
 58,-0.00000142,-0.00000125,-0.00000180,0.00000312,-0.00000005,-0.00000
 031,-0.00000029,-0.00000229,-0.00000474,-0.00000423,0.00000315,0.00000
 241,-0.00000550,0.00000423,0.00000340,-0.00000752,-0.00000095,-0.00000
 029,-0.00000453,0.00000196,0.00000108,-0.00000392,-0.00000232,0.000002
 44,0.00000639,-0.00000139,-0.00000366,0.00000709,-0.00000399,-0.000003
 83,0.00000861,-0.00000282,-0.00000651,0.00000448,0.00000124,0.00000251
 ,-0.00000066,0.00000238,0.00000956,0.00000282,0.00000362,0.00000787,-0
 .00000279,0.00000379,0.00000828,0.00000253,-0.00000056,-0.00000268,-0.
 00000553,0.00000027,-0.00000572,-0.00000826,0.00000003,-0.00000264,-0.
 00000468,-0.00000203,-0.00000642,-0.00000375\\\@


 BULLDOZER: SOMEONE WHO SLEEPS THROUGH SPEECHES.
 Job cpu time:       0 days  1 hours 35 minutes 35.8 seconds.
 Elapsed time:       0 days  0 hours 23 minutes 54.2 seconds.
 File lengths (MBytes):  RWF=    378 Int=      0 D2E=      0 Chk=     16 Scr=      1
 Normal termination of Gaussian 16 at Fri May 24 08:57:26 2019.
