 Entering Gaussian System, Link 0=g16
 Input=clay-glucose_cation-012-b3lyp_d3bj-631gd-pcm_thf.gjf
 Output=clay-glucose_cation-012-b3lyp_d3bj-631gd-pcm_thf.out
 Initial command:
 /n/sw/g16_nehalem/g16/l1.exe "/scratch/Gau-63554.inp" -scrdir="/scratch/"
 Entering Link 1 = /n/sw/g16_nehalem/g16/l1.exe PID=     63567.
  
 Copyright (c) 1988,1990,1992,1993,1995,1998,2003,2009,2016,
            Gaussian, Inc.  All Rights Reserved.
  
 This is part of the Gaussian(R) 16 program.  It is based on
 the Gaussian(R) 09 system (copyright 2009, Gaussian, Inc.),
 the Gaussian(R) 03 system (copyright 2003, Gaussian, Inc.),
 the Gaussian(R) 98 system (copyright 1998, Gaussian, Inc.),
 the Gaussian(R) 94 system (copyright 1995, Gaussian, Inc.),
 the Gaussian 92(TM) system (copyright 1992, Gaussian, Inc.),
 the Gaussian 90(TM) system (copyright 1990, Gaussian, Inc.),
 the Gaussian 88(TM) system (copyright 1988, Gaussian, Inc.),
 the Gaussian 86(TM) system (copyright 1986, Carnegie Mellon
 University), and the Gaussian 82(TM) system (copyright 1983,
 Carnegie Mellon University). Gaussian is a federally registered
 trademark of Gaussian, Inc.
  
 This software contains proprietary and confidential information,
 including trade secrets, belonging to Gaussian, Inc.
  
 This software is provided under written license and may be
 used, copied, transmitted, or stored only in accord with that
 written license.
  
 The following legend is applicable only to US Government
 contracts under FAR:
  
                    RESTRICTED RIGHTS LEGEND
  
 Use, reproduction and disclosure by the US Government is
 subject to restrictions as set forth in subparagraphs (a)
 and (c) of the Commercial Computer Software - Restricted
 Rights clause in FAR 52.227-19.
  
 Gaussian, Inc.
 340 Quinnipiac St., Bldg. 40, Wallingford CT 06492
  
  
 ---------------------------------------------------------------
 Warning -- This program may not be used in any manner that
 competes with the business of Gaussian, Inc. or will provide
 assistance to any competitor of Gaussian, Inc.  The licensee
 of this program is prohibited from giving any competitor of
 Gaussian, Inc. access to this program.  By using this program,
 the user acknowledges that Gaussian, Inc. is engaged in the
 business of creating and licensing software in the field of
 computational chemistry and represents and warrants to the
 licensee that it is not a competitor of Gaussian, Inc. and that
 it will not use this program in any manner prohibited above.
 ---------------------------------------------------------------
  

 Cite this work as:
 Gaussian 16, Revision A.03,
 M. J. Frisch, G. W. Trucks, H. B. Schlegel, G. E. Scuseria, 
 M. A. Robb, J. R. Cheeseman, G. Scalmani, V. Barone, 
 G. A. Petersson, H. Nakatsuji, X. Li, M. Caricato, A. V. Marenich, 
 J. Bloino, B. G. Janesko, R. Gomperts, B. Mennucci, H. P. Hratchian, 
 J. V. Ortiz, A. F. Izmaylov, J. L. Sonnenberg, D. Williams-Young, 
 F. Ding, F. Lipparini, F. Egidi, J. Goings, B. Peng, A. Petrone, 
 T. Henderson, D. Ranasinghe, V. G. Zakrzewski, J. Gao, N. Rega, 
 G. Zheng, W. Liang, M. Hada, M. Ehara, K. Toyota, R. Fukuda, 
 J. Hasegawa, M. Ishida, T. Nakajima, Y. Honda, O. Kitao, H. Nakai, 
 T. Vreven, K. Throssell, J. A. Montgomery, Jr., J. E. Peralta, 
 F. Ogliaro, M. J. Bearpark, J. J. Heyd, E. N. Brothers, K. N. Kudin, 
 V. N. Staroverov, T. A. Keith, R. Kobayashi, J. Normand, 
 K. Raghavachari, A. P. Rendell, J. C. Burant, S. S. Iyengar, 
 J. Tomasi, M. Cossi, J. M. Millam, M. Klene, C. Adamo, R. Cammi, 
 J. W. Ochterski, R. L. Martin, K. Morokuma, O. Farkas, 
 J. B. Foresman, and D. J. Fox, Gaussian, Inc., Wallingford CT, 2016.
 
 ******************************************
 Gaussian 16:  ES64L-G16RevA.03 25-Dec-2016
                24-May-2019 
 ******************************************
 %nprocshared=4
 Will use up to    4 processors via shared memory.
 %mem=3GB
 -------------------------------------------------------------------
 #p b3lyp 6-31g* opt freq=noraman scrf=(pcm,solvent=tetrahydrofuran)
 -------------------------------------------------------------------
 1/18=20,19=15,26=3,38=1/1,3;
 2/9=110,12=2,17=6,18=5,40=1/2;
 3/5=1,6=6,7=1,11=2,25=1,30=1,70=2201,71=1,72=20,74=-5/1,2,3;
 4//1;
 5/5=2,38=5,53=20/2;
 6/7=2,8=2,9=2,10=2,28=1/1;
 7//1,2,3,16;
 1/18=20,19=15,26=3/3(2);
 2/9=110/2;
 99//99;
 2/9=110/2;
 3/5=1,6=6,7=1,11=2,25=1,30=1,70=2205,71=1,72=20,74=-5/1,2,3;
 4/5=5,16=3,69=1/1;
 5/5=2,38=5,53=20/2;
 7//1,2,3,16;
 1/18=20,19=15,26=3/3(-5);
 2/9=110/2;
 6/7=2,8=2,9=2,10=2,19=2,28=1/1;
 99/9=1/99;
 Leave Link    1 at Fri May 24 08:30:03 2019, MaxMem=   402653184 cpu:               0.3 elap:               0.1
 (Enter /n/sw/g16_nehalem/g16/l101.exe)
 -----
 title
 -----
 Symbolic Z-matrix:
 Charge =  1 Multiplicity = 1
 6                    -1.09301  -0.12888   0.0181 
 6                    -0.47304   1.22644   0.45273 
 6                     0.44451   0.98166   1.59445 
 6                     1.27958  -1.06245   0.61373 
 6                     0.02777  -1.14466  -0.30587 
 1                     0.47921   1.67704   2.43482 
 1                     0.15055   1.59578  -0.38006 
 1                    -1.71959  -0.47934   0.84911 
 1                     1.42345  -1.98657   1.1706 
 1                     0.35915  -0.89036  -1.3156 
 8                     1.15523  -0.04564   1.72574 
 8                    -1.43686   2.14636   0.87334 
 8                    -1.87405   0.14201  -1.11708 
 8                    -0.41171  -2.48639  -0.41084 
 6                     2.55991  -0.68395  -0.11086 
 1                     2.76326  -1.47681  -0.84733 
 1                     3.40153  -0.64843   0.59565 
 8                     2.34568   0.56795  -0.72167 
 6                    -1.72441   3.19399  -0.06498 
 1                    -2.50997   3.79652   0.39302 
 1                    -0.84003   3.81928  -0.23828 
 1                    -2.08006   2.77561  -1.01077 
 6                    -3.02901  -0.68711  -1.27804 
 1                    -3.67498  -0.63548  -0.39186 
 1                    -3.56863  -0.28952  -2.13927 
 1                    -2.74855  -1.72771  -1.47177 
 6                    -1.03986  -3.07536   0.72982 
 1                    -1.10521  -4.14274   0.51285 
 1                    -0.45574  -2.94003   1.6496 
 1                    -2.05096  -2.6843    0.88961 
 6                     3.48689   1.05687  -1.42641 
 1                     3.20434   2.0232   -1.84669 
 1                     4.34055   1.18683  -0.74837 
 1                     3.76954   0.37338  -2.23729 
 
 ITRead=  0  0  0  0  0  0  0  0  0  0  0  0  0  0  0  0  0  0  0  0
 ITRead=  0  0  0  0  0  0  0  0  0  0  0  0  0  0
 MicOpt= -1 -1 -1 -1 -1 -1 -1 -1 -1 -1 -1 -1 -1 -1 -1 -1 -1 -1 -1 -1
 MicOpt= -1 -1 -1 -1 -1 -1 -1 -1 -1 -1 -1 -1 -1 -1
 NAtoms=     34 NQM=       34 NQMF=       0 NMMI=      0 NMMIF=      0
                NMic=       0 NMicF=      0.
                    Isotopes and Nuclear Properties:
 (Nuclear quadrupole moments (NQMom) in fm**2, nuclear magnetic moments (NMagM)
  in nuclear magnetons)

  Atom         1           2           3           4           5           6           7           8           9          10
 IAtWgt=          12          12          12          12          12           1           1           1           1           1
 AtmWgt=  12.0000000  12.0000000  12.0000000  12.0000000  12.0000000   1.0078250   1.0078250   1.0078250   1.0078250   1.0078250
 NucSpn=           0           0           0           0           0           1           1           1           1           1
 AtZEff=   0.0000000   0.0000000   0.0000000   0.0000000   0.0000000   0.0000000   0.0000000   0.0000000   0.0000000   0.0000000
 NQMom=    0.0000000   0.0000000   0.0000000   0.0000000   0.0000000   0.0000000   0.0000000   0.0000000   0.0000000   0.0000000
 NMagM=    0.0000000   0.0000000   0.0000000   0.0000000   0.0000000   2.7928460   2.7928460   2.7928460   2.7928460   2.7928460
 AtZNuc=   6.0000000   6.0000000   6.0000000   6.0000000   6.0000000   1.0000000   1.0000000   1.0000000   1.0000000   1.0000000

  Atom        11          12          13          14          15          16          17          18          19          20
 IAtWgt=          16          16          16          16          12           1           1          16          12           1
 AtmWgt=  15.9949146  15.9949146  15.9949146  15.9949146  12.0000000   1.0078250   1.0078250  15.9949146  12.0000000   1.0078250
 NucSpn=           0           0           0           0           0           1           1           0           0           1
 AtZEff=   0.0000000   0.0000000   0.0000000   0.0000000   0.0000000   0.0000000   0.0000000   0.0000000   0.0000000   0.0000000
 NQMom=    0.0000000   0.0000000   0.0000000   0.0000000   0.0000000   0.0000000   0.0000000   0.0000000   0.0000000   0.0000000
 NMagM=    0.0000000   0.0000000   0.0000000   0.0000000   0.0000000   2.7928460   2.7928460   0.0000000   0.0000000   2.7928460
 AtZNuc=   8.0000000   8.0000000   8.0000000   8.0000000   6.0000000   1.0000000   1.0000000   8.0000000   6.0000000   1.0000000

  Atom        21          22          23          24          25          26          27          28          29          30
 IAtWgt=           1           1          12           1           1           1          12           1           1           1
 AtmWgt=   1.0078250   1.0078250  12.0000000   1.0078250   1.0078250   1.0078250  12.0000000   1.0078250   1.0078250   1.0078250
 NucSpn=           1           1           0           1           1           1           0           1           1           1
 AtZEff=   0.0000000   0.0000000   0.0000000   0.0000000   0.0000000   0.0000000   0.0000000   0.0000000   0.0000000   0.0000000
 NQMom=    0.0000000   0.0000000   0.0000000   0.0000000   0.0000000   0.0000000   0.0000000   0.0000000   0.0000000   0.0000000
 NMagM=    2.7928460   2.7928460   0.0000000   2.7928460   2.7928460   2.7928460   0.0000000   2.7928460   2.7928460   2.7928460
 AtZNuc=   1.0000000   1.0000000   6.0000000   1.0000000   1.0000000   1.0000000   6.0000000   1.0000000   1.0000000   1.0000000

  Atom        31          32          33          34
 IAtWgt=          12           1           1           1
 AtmWgt=  12.0000000   1.0078250   1.0078250   1.0078250
 NucSpn=           0           1           1           1
 AtZEff=   0.0000000   0.0000000   0.0000000   0.0000000
 NQMom=    0.0000000   0.0000000   0.0000000   0.0000000
 NMagM=    0.0000000   2.7928460   2.7928460   2.7928460
 AtZNuc=   6.0000000   1.0000000   1.0000000   1.0000000
 Leave Link  101 at Fri May 24 08:30:03 2019, MaxMem=   402653184 cpu:               0.6 elap:               0.2
 (Enter /n/sw/g16_nehalem/g16/l103.exe)

 GradGradGradGradGradGradGradGradGradGradGradGradGradGradGradGradGradGrad
 Berny optimization.
 Initialization pass.
                           ----------------------------
                           !    Initial Parameters    !
                           ! (Angstroms and Degrees)  !
 --------------------------                            --------------------------
 ! Name  Definition              Value          Derivative Info.                !
 --------------------------------------------------------------------------------
 ! R1    R(1,2)                  1.5525         estimate D2E/DX2                !
 ! R2    R(1,5)                  1.5469         estimate D2E/DX2                !
 ! R3    R(1,8)                  1.0982         estimate D2E/DX2                !
 ! R4    R(1,13)                 1.4043         estimate D2E/DX2                !
 ! R5    R(2,3)                  1.485          estimate D2E/DX2                !
 ! R6    R(2,7)                  1.104          estimate D2E/DX2                !
 ! R7    R(2,12)                 1.3972         estimate D2E/DX2                !
 ! R8    R(3,6)                  1.0913         estimate D2E/DX2                !
 ! R9    R(3,11)                 1.2561         estimate D2E/DX2                !
 ! R10   R(4,5)                  1.5555         estimate D2E/DX2                !
 ! R11   R(4,9)                  1.0885         estimate D2E/DX2                !
 ! R12   R(4,11)                 1.5119         estimate D2E/DX2                !
 ! R13   R(4,15)                 1.5191         estimate D2E/DX2                !
 ! R14   R(5,10)                 1.0927         estimate D2E/DX2                !
 ! R15   R(5,14)                 1.4158         estimate D2E/DX2                !
 ! R16   R(12,19)                1.4355         estimate D2E/DX2                !
 ! R17   R(13,23)                1.4308         estimate D2E/DX2                !
 ! R18   R(14,27)                1.4292         estimate D2E/DX2                !
 ! R19   R(15,16)                1.1011         estimate D2E/DX2                !
 ! R20   R(15,17)                1.0994         estimate D2E/DX2                !
 ! R21   R(15,18)                1.4093         estimate D2E/DX2                !
 ! R22   R(18,31)                1.4276         estimate D2E/DX2                !
 ! R23   R(19,20)                1.0908         estimate D2E/DX2                !
 ! R24   R(19,21)                1.0969         estimate D2E/DX2                !
 ! R25   R(19,22)                1.0936         estimate D2E/DX2                !
 ! R26   R(23,24)                1.0978         estimate D2E/DX2                !
 ! R27   R(23,25)                1.0913         estimate D2E/DX2                !
 ! R28   R(23,26)                1.095          estimate D2E/DX2                !
 ! R29   R(27,28)                1.0912         estimate D2E/DX2                !
 ! R30   R(27,29)                1.0979         estimate D2E/DX2                !
 ! R31   R(27,30)                1.0958         estimate D2E/DX2                !
 ! R32   R(31,32)                1.091          estimate D2E/DX2                !
 ! R33   R(31,33)                1.0979         estimate D2E/DX2                !
 ! R34   R(31,34)                1.0975         estimate D2E/DX2                !
 ! A1    A(2,1,5)              110.0326         estimate D2E/DX2                !
 ! A2    A(2,1,8)              107.1339         estimate D2E/DX2                !
 ! A3    A(2,1,13)             106.2609         estimate D2E/DX2                !
 ! A4    A(5,1,8)              111.2424         estimate D2E/DX2                !
 ! A5    A(5,1,13)             111.1214         estimate D2E/DX2                !
 ! A6    A(8,1,13)             110.8501         estimate D2E/DX2                !
 ! A7    A(1,2,3)              108.547          estimate D2E/DX2                !
 ! A8    A(1,2,7)              107.8457         estimate D2E/DX2                !
 ! A9    A(1,2,12)             112.5565         estimate D2E/DX2                !
 ! A10   A(3,2,7)              106.6244         estimate D2E/DX2                !
 ! A11   A(3,2,12)             107.6556         estimate D2E/DX2                !
 ! A12   A(7,2,12)             113.3574         estimate D2E/DX2                !
 ! A13   A(2,3,6)              120.4411         estimate D2E/DX2                !
 ! A14   A(2,3,11)             124.3866         estimate D2E/DX2                !
 ! A15   A(6,3,11)             115.0021         estimate D2E/DX2                !
 ! A16   A(5,4,9)              111.3442         estimate D2E/DX2                !
 ! A17   A(5,4,11)             113.84           estimate D2E/DX2                !
 ! A18   A(5,4,15)             114.1718         estimate D2E/DX2                !
 ! A19   A(9,4,11)             101.8619         estimate D2E/DX2                !
 ! A20   A(9,4,15)             110.1315         estimate D2E/DX2                !
 ! A21   A(11,4,15)            104.6299         estimate D2E/DX2                !
 ! A22   A(1,5,4)              115.1234         estimate D2E/DX2                !
 ! A23   A(1,5,10)             105.0951         estimate D2E/DX2                !
 ! A24   A(1,5,14)             114.3892         estimate D2E/DX2                !
 ! A25   A(4,5,10)             106.855          estimate D2E/DX2                !
 ! A26   A(4,5,14)             110.1051         estimate D2E/DX2                !
 ! A27   A(10,5,14)            104.2517         estimate D2E/DX2                !
 ! A28   A(3,11,4)             121.3118         estimate D2E/DX2                !
 ! A29   A(2,12,19)            114.9552         estimate D2E/DX2                !
 ! A30   A(1,13,23)            115.3473         estimate D2E/DX2                !
 ! A31   A(5,14,27)            117.8921         estimate D2E/DX2                !
 ! A32   A(4,15,16)            107.1746         estimate D2E/DX2                !
 ! A33   A(4,15,17)            110.2875         estimate D2E/DX2                !
 ! A34   A(4,15,18)            107.4548         estimate D2E/DX2                !
 ! A35   A(16,15,17)           108.1615         estimate D2E/DX2                !
 ! A36   A(16,15,18)           112.1992         estimate D2E/DX2                !
 ! A37   A(17,15,18)           111.4801         estimate D2E/DX2                !
 ! A38   A(15,18,31)           113.3692         estimate D2E/DX2                !
 ! A39   A(12,19,20)           105.8384         estimate D2E/DX2                !
 ! A40   A(12,19,21)           110.9656         estimate D2E/DX2                !
 ! A41   A(12,19,22)           110.5627         estimate D2E/DX2                !
 ! A42   A(20,19,21)           109.3954         estimate D2E/DX2                !
 ! A43   A(20,19,22)           109.89           estimate D2E/DX2                !
 ! A44   A(21,19,22)           110.0992         estimate D2E/DX2                !
 ! A45   A(13,23,24)           110.9099         estimate D2E/DX2                !
 ! A46   A(13,23,25)           106.0693         estimate D2E/DX2                !
 ! A47   A(13,23,26)           111.3357         estimate D2E/DX2                !
 ! A48   A(24,23,25)           109.2043         estimate D2E/DX2                !
 ! A49   A(24,23,26)           109.7673         estimate D2E/DX2                !
 ! A50   A(25,23,26)           109.4657         estimate D2E/DX2                !
 ! A51   A(14,27,28)           105.7079         estimate D2E/DX2                !
 ! A52   A(14,27,29)           112.5804         estimate D2E/DX2                !
 ! A53   A(14,27,30)           112.0157         estimate D2E/DX2                !
 ! A54   A(28,27,29)           108.6026         estimate D2E/DX2                !
 ! A55   A(28,27,30)           108.8341         estimate D2E/DX2                !
 ! A56   A(29,27,30)           108.9503         estimate D2E/DX2                !
 ! A57   A(18,31,32)           106.6475         estimate D2E/DX2                !
 ! A58   A(18,31,33)           110.9305         estimate D2E/DX2                !
 ! A59   A(18,31,34)           110.9349         estimate D2E/DX2                !
 ! A60   A(32,31,33)           109.5382         estimate D2E/DX2                !
 ! A61   A(32,31,34)           109.4919         estimate D2E/DX2                !
 ! A62   A(33,31,34)           109.254          estimate D2E/DX2                !
 ! D1    D(5,1,2,3)            -55.5514         estimate D2E/DX2                !
 ! D2    D(5,1,2,7)             59.6016         estimate D2E/DX2                !
 ! D3    D(5,1,2,12)          -174.6143         estimate D2E/DX2                !
 ! D4    D(8,1,2,3)             65.5104         estimate D2E/DX2                !
 ! D5    D(8,1,2,7)           -179.3365         estimate D2E/DX2                !
 ! D6    D(8,1,2,12)           -53.5524         estimate D2E/DX2                !
 ! D7    D(13,1,2,3)          -175.9415         estimate D2E/DX2                !
 ! D8    D(13,1,2,7)           -60.7885         estimate D2E/DX2                !
 ! D9    D(13,1,2,12)           64.9957         estimate D2E/DX2                !
 ! D10   D(2,1,5,4)             37.0951         estimate D2E/DX2                !
 ! D11   D(2,1,5,10)           -80.1744         estimate D2E/DX2                !
 ! D12   D(2,1,5,14)           166.1061         estimate D2E/DX2                !
 ! D13   D(8,1,5,4)            -81.4711         estimate D2E/DX2                !
 ! D14   D(8,1,5,10)           161.2594         estimate D2E/DX2                !
 ! D15   D(8,1,5,14)            47.54           estimate D2E/DX2                !
 ! D16   D(13,1,5,4)           154.5053         estimate D2E/DX2                !
 ! D17   D(13,1,5,10)           37.2358         estimate D2E/DX2                !
 ! D18   D(13,1,5,14)          -76.4836         estimate D2E/DX2                !
 ! D19   D(2,1,13,23)         -148.5152         estimate D2E/DX2                !
 ! D20   D(5,1,13,23)           91.8017         estimate D2E/DX2                !
 ! D21   D(8,1,13,23)          -32.4446         estimate D2E/DX2                !
 ! D22   D(1,2,3,6)           -139.7014         estimate D2E/DX2                !
 ! D23   D(1,2,3,11)            35.3136         estimate D2E/DX2                !
 ! D24   D(7,2,3,6)            104.353          estimate D2E/DX2                !
 ! D25   D(7,2,3,11)           -80.632          estimate D2E/DX2                !
 ! D26   D(12,2,3,6)           -17.6016         estimate D2E/DX2                !
 ! D27   D(12,2,3,11)          157.4134         estimate D2E/DX2                !
 ! D28   D(1,2,12,19)         -104.6878         estimate D2E/DX2                !
 ! D29   D(3,2,12,19)          135.7306         estimate D2E/DX2                !
 ! D30   D(7,2,12,19)           18.0532         estimate D2E/DX2                !
 ! D31   D(2,3,11,4)             8.5025         estimate D2E/DX2                !
 ! D32   D(6,3,11,4)          -176.2391         estimate D2E/DX2                !
 ! D33   D(9,4,5,1)            117.668          estimate D2E/DX2                !
 ! D34   D(9,4,5,10)          -126.0612         estimate D2E/DX2                !
 ! D35   D(9,4,5,14)           -13.4284         estimate D2E/DX2                !
 ! D36   D(11,4,5,1)             3.2146         estimate D2E/DX2                !
 ! D37   D(11,4,5,10)          119.4853         estimate D2E/DX2                !
 ! D38   D(11,4,5,14)         -127.8818         estimate D2E/DX2                !
 ! D39   D(15,4,5,1)          -116.8518         estimate D2E/DX2                !
 ! D40   D(15,4,5,10)           -0.581          estimate D2E/DX2                !
 ! D41   D(15,4,5,14)          112.0519         estimate D2E/DX2                !
 ! D42   D(5,4,11,3)           -28.922          estimate D2E/DX2                !
 ! D43   D(9,4,11,3)          -148.8834         estimate D2E/DX2                !
 ! D44   D(15,4,11,3)           96.3895         estimate D2E/DX2                !
 ! D45   D(5,4,15,16)          -62.2558         estimate D2E/DX2                !
 ! D46   D(5,4,15,17)         -179.7767         estimate D2E/DX2                !
 ! D47   D(5,4,15,18)           58.5233         estimate D2E/DX2                !
 ! D48   D(9,4,15,16)           63.8611         estimate D2E/DX2                !
 ! D49   D(9,4,15,17)          -53.6598         estimate D2E/DX2                !
 ! D50   D(9,4,15,18)         -175.3598         estimate D2E/DX2                !
 ! D51   D(11,4,15,16)         172.6422         estimate D2E/DX2                !
 ! D52   D(11,4,15,17)          55.1213         estimate D2E/DX2                !
 ! D53   D(11,4,15,18)         -66.5787         estimate D2E/DX2                !
 ! D54   D(1,5,14,27)          -59.5315         estimate D2E/DX2                !
 ! D55   D(4,5,14,27)           71.9503         estimate D2E/DX2                !
 ! D56   D(10,5,14,27)        -173.7477         estimate D2E/DX2                !
 ! D57   D(2,12,19,20)         178.0437         estimate D2E/DX2                !
 ! D58   D(2,12,19,21)         -63.3774         estimate D2E/DX2                !
 ! D59   D(2,12,19,22)          59.0882         estimate D2E/DX2                !
 ! D60   D(1,13,23,24)          56.2538         estimate D2E/DX2                !
 ! D61   D(1,13,23,25)         174.7109         estimate D2E/DX2                !
 ! D62   D(1,13,23,26)         -66.2882         estimate D2E/DX2                !
 ! D63   D(5,14,27,28)        -168.4944         estimate D2E/DX2                !
 ! D64   D(5,14,27,29)         -50.0801         estimate D2E/DX2                !
 ! D65   D(5,14,27,30)          73.1172         estimate D2E/DX2                !
 ! D66   D(4,15,18,31)         179.082          estimate D2E/DX2                !
 ! D67   D(16,15,18,31)        -63.3611         estimate D2E/DX2                !
 ! D68   D(17,15,18,31)         58.1296         estimate D2E/DX2                !
 ! D69   D(15,18,31,32)       -179.6999         estimate D2E/DX2                !
 ! D70   D(15,18,31,33)        -60.4846         estimate D2E/DX2                !
 ! D71   D(15,18,31,34)         61.1383         estimate D2E/DX2                !
 --------------------------------------------------------------------------------
 Trust Radius=3.00D-01 FncErr=1.00D-07 GrdErr=1.00D-06 EigMax=2.50D+02 EigMin=1.00D-04
 Number of steps in this run=    177 maximum allowed number of steps=    204.
 GradGradGradGradGradGradGradGradGradGradGradGradGradGradGradGradGradGrad

 Leave Link  103 at Fri May 24 08:30:03 2019, MaxMem=   402653184 cpu:               0.2 elap:               0.1
 (Enter /n/sw/g16_nehalem/g16/l202.exe)
                          Input orientation:                          
 ---------------------------------------------------------------------
 Center     Atomic      Atomic             Coordinates (Angstroms)
 Number     Number       Type             X           Y           Z
 ---------------------------------------------------------------------
      1          6           0       -1.093014   -0.128880    0.018101
      2          6           0       -0.473039    1.226437    0.452726
      3          6           0        0.444505    0.981664    1.594445
      4          6           0        1.279576   -1.062451    0.613725
      5          6           0        0.027772   -1.144663   -0.305870
      6          1           0        0.479213    1.677041    2.434815
      7          1           0        0.150547    1.595782   -0.380060
      8          1           0       -1.719594   -0.479339    0.849108
      9          1           0        1.423449   -1.986565    1.170604
     10          1           0        0.359146   -0.890356   -1.315599
     11          8           0        1.155226   -0.045639    1.725740
     12          8           0       -1.436863    2.146357    0.873344
     13          8           0       -1.874054    0.142011   -1.117075
     14          8           0       -0.411706   -2.486392   -0.410838
     15          6           0        2.559906   -0.683945   -0.110861
     16          1           0        2.763264   -1.476814   -0.847329
     17          1           0        3.401535   -0.648430    0.595651
     18          8           0        2.345681    0.567952   -0.721673
     19          6           0       -1.724409    3.193990   -0.064975
     20          1           0       -2.509968    3.796522    0.393022
     21          1           0       -0.840033    3.819283   -0.238278
     22          1           0       -2.080065    2.775606   -1.010769
     23          6           0       -3.029010   -0.687106   -1.278038
     24          1           0       -3.674982   -0.635484   -0.391859
     25          1           0       -3.568630   -0.289522   -2.139266
     26          1           0       -2.748546   -1.727708   -1.471766
     27          6           0       -1.039862   -3.075356    0.729824
     28          1           0       -1.105210   -4.142745    0.512848
     29          1           0       -0.455740   -2.940032    1.649597
     30          1           0       -2.050957   -2.684296    0.889612
     31          6           0        3.486888    1.056868   -1.426406
     32          1           0        3.204339    2.023200   -1.846691
     33          1           0        4.340554    1.186829   -0.748369
     34          1           0        3.769535    0.373375   -2.237287
 ---------------------------------------------------------------------
                    Distance matrix (angstroms):
                    1          2          3          4          5
     1  C    0.000000
     2  C    1.552466   0.000000
     3  C    2.466198   1.485033   0.000000
     4  C    2.618302   2.887315   2.416105   0.000000
     5  C    1.546911   2.539369   2.882036   1.555451   0.000000
     6  H    3.402022   2.244661   1.091318   3.385523   3.959440
     7  H    2.163200   1.103996   2.088593   3.054262   2.744197
     8  H    1.098179   2.149579   2.715397   3.064383   2.197707
     9  H    3.333443   3.799394   3.154101   1.088485   2.199247
    10  H    2.113615   2.881027   3.461228   2.144551   1.092718
    11  O    2.824454   2.426930   1.256071   1.511935   2.570301
    12  O    2.454868   1.397186   2.327239   4.212231   3.790318
    13  O    1.404290   2.367086   3.665116   3.793650   2.435267
    14  O    2.491191   3.812428   4.096544   2.436754   1.415767
    15  C    3.697101   3.628491   3.187043   1.519058   2.581084
    16  H    4.175736   4.412637   4.169295   2.123136   2.808277
    17  H    4.561191   4.306725   3.521196   2.162048   3.527218
    18  O    3.585731   3.123779   3.024902   2.361796   2.911811
    19  C    3.383345   2.388557   3.514577   5.253746   4.685305
    20  H    4.190120   3.279936   4.253910   6.165953   5.598561
    21  H    3.964558   2.708324   3.614000   5.389803   5.039684
    22  H    3.235565   2.669134   4.047076   5.353209   4.506481
    23  C    2.395761   3.631829   4.806377   4.720547   3.240121
    24  H    2.662945   3.799015   4.850850   5.073573   3.738589
    25  H    3.287661   4.312683   5.626879   5.628630   4.126344
    26  H    2.741668   4.196257   5.190175   4.584496   3.067115
    27  C    3.031682   4.347815   4.405715   3.073281   2.437228
    28  H    4.044260   5.406604   5.461780   3.896869   3.307936
    29  H    3.312170   4.335004   4.024075   2.758562   2.698330
    30  H    2.864845   4.239638   4.490366   3.714693   2.849695
    31  C    4.946524   4.386446   4.288040   3.677754   4.250626
    32  H    5.155205   4.409678   4.532427   4.390854   4.743423
    33  H    5.642892   4.961338   4.550832   4.035362   4.922575
    34  H    5.383625   5.095421   5.109600   4.048427   4.476115
                    6          7          8          9         10
     6  H    0.000000
     7  H    2.835162   0.000000
     8  H    3.463985   3.051952   0.000000
     9  H    3.988962   4.105855   3.500544   0.000000
    10  H    4.546597   2.664513   3.029200   2.918154   0.000000
    11  O    1.981769   2.852724   3.036638   2.036495   3.255308
    12  O    2.515909   2.096193   2.640985   5.034957   4.151957
    13  O    4.528808   2.599163   2.067803   4.542889   2.468274
    14  O    5.121099   4.120828   2.706713   2.473576   1.990009
    15  C    4.047716   3.327857   4.390618   2.151861   2.517408
    16  H    5.092756   4.060231   4.895801   2.475279   2.518530
    17  H    4.162968   4.069081   5.130185   2.456420   3.601046
    18  O    3.831083   2.447805   4.482257   3.310103   2.534903
    19  C    3.661425   2.483749   3.785356   6.186584   4.752593
    20  H    4.194797   3.538256   4.372150   7.037080   5.754826
    21  H    3.670836   2.438300   4.520419   6.388753   4.977886
    22  H    4.430440   2.601040   3.766132   6.301688   4.413836
    23  C    5.628685   4.015909   2.506489   5.244886   3.394455
    24  H    5.531292   4.428697   2.321190   5.500973   4.146377
    25  H    6.416745   4.525644   3.519282   6.225435   4.057937
    26  H    6.105090   4.543363   2.829068   4.945166   3.222312
    27  C    5.272557   4.946559   2.686181   2.729039   3.303817
    28  H    6.330424   5.941793   3.729756   3.387606   4.008191
    29  H    4.775779   5.006066   2.879778   2.160992   3.695619
    30  H    5.273583   4.977726   2.230085   3.554896   3.726899
    31  C    4.933533   3.537858   5.886030   4.501636   3.686018
    32  H    5.086986   3.414577   6.146149   5.324834   4.106822
    33  H    5.028213   4.225997   6.484863   4.718304   4.526373
    34  H    5.861254   4.247428   6.354801   4.763104   3.751970
                   11         12         13         14         15
    11  O    0.000000
    12  O    3.500050   0.000000
    13  O    4.158527   2.858375   0.000000
    14  O    3.602432   4.915530   3.089617   0.000000
    15  C    2.398680   4.995341   4.621111   3.488449   0.000000
    16  H    3.354807   5.807680   4.919154   3.360090   1.101082
    17  H    2.585800   5.594465   5.602684   4.351084   1.099436
    18  O    2.789894   4.398077   4.259569   4.126599   1.409337
    19  C    4.689793   1.435500   3.231700   5.840338   5.778913
    20  H    5.474668   2.026156   4.005026   6.672623   6.784696
    21  H    4.772426   2.095374   3.919670   6.322561   5.644013
    22  H    5.090679   2.087952   2.643778   5.552654   5.857274
    23  C    5.190568   3.897677   1.430828   3.292377   5.709492
    24  H    5.306887   3.787949   2.091358   3.751692   6.241405
    25  H    6.108401   4.421963   2.025508   4.216618   6.467530
    26  H    5.319101   4.714704   2.094371   2.676190   5.578635
    27  C    3.871620   5.238749   3.802415   1.429185   4.402718
    28  H    4.833938   6.308150   4.648323   2.019319   5.077931
    29  H    3.313385   5.237989   4.377794   2.110242   4.157314
    30  H    4.235709   4.869557   3.470749   2.101780   5.124686
    31  C    4.072861   5.542487   5.447233   5.365175   2.370735
    32  H    4.608820   5.380940   5.464548   5.955995   3.279792
    33  H    4.217405   6.076940   6.312602   6.015850   2.660248
    34  H    4.766106   6.318708   5.758342   5.384883   2.665111
                   16         17         18         19         20
    16  H    0.000000
    17  H    1.782078   0.000000
    18  O    2.090749   2.080806   0.000000
    19  C    6.524392   6.440180   4.888043   0.000000
    20  H    7.559995   7.398954   5.936627   1.090830   0.000000
    21  H    6.434542   6.216655   4.577510   1.096880   1.785425
    22  H    6.447296   6.659771   4.954245   1.093646   1.788216
    23  C    5.861705   6.698068   5.547253   4.270411   4.812979
    24  H    6.508940   7.145099   6.148611   4.310042   4.649298
    25  H    6.570513   7.496118   6.141979   4.454064   4.922297
    26  H    5.552740   6.577427   5.637716   5.220252   5.835364
    27  C    4.416618   5.063001   5.180969   6.356493   7.035436
    28  H    4.891049   5.703319   5.968531   7.385456   8.063477
    29  H    4.328699   4.608776   5.077089   6.494267   7.154019
    30  H    5.258488   5.827592   5.701209   5.964236   6.516003
    31  C    2.697871   2.646515   1.427600   5.794687   6.839467
    32  H    3.666520   3.625124   2.029952   5.370085   6.388606
    33  H    3.097197   2.460960   2.088837   6.424912   7.419092
    34  H    2.523443   3.033982   2.088613   6.546620   7.620277
                   21         22         23         24         25
    21  H    0.000000
    22  H    1.795462   0.000000
    23  C    5.116665   3.600320   0.000000
    24  H    5.282563   3.816064   1.097842   0.000000
    25  H    5.285951   3.589476   1.091319   1.784498   0.000000
    26  H    5.994416   4.575939   1.095008   1.793721   1.785069
    27  C    6.965142   6.192370   3.700265   3.762314   4.731513
    28  H    8.001775   7.150897   4.341626   4.441070   5.286726
    29  H    7.028520   6.510338   4.502049   4.454436   5.574116
    30  H    6.710813   5.781248   3.105489   2.911573   4.148780
    31  C    5.269234   5.841043   6.746880   7.431469   7.218121
    32  H    4.708487   5.402759   6.820833   7.517326   7.162918
    33  H    5.833394   6.619472   7.622510   8.227803   8.165133
    34  H    6.092490   6.441497   6.947301   7.735906   7.368698
                   26         27         28         29         30
    26  H    0.000000
    27  C    3.095602   0.000000
    28  H    3.531522   1.091177   0.000000
    29  H    4.058275   1.097950   1.777787   0.000000
    30  H    2.641552   1.095798   1.778612   1.785412   0.000000
    31  C    6.829096   6.497389   7.203058   6.401665   7.073046
    32  H    7.046043   7.116667   7.884067   7.088997   7.567431
    33  H    7.698907   7.021407   7.723430   6.766510   7.649837
    34  H    6.891005   6.620256   7.191782   6.628686   7.280452
                   31         32         33         34
    31  C    0.000000
    32  H    1.090995   0.000000
    33  H    1.097893   1.787963   0.000000
    34  H    1.097534   1.787158   1.790153   0.000000
 Stoichiometry    C10H19O5(1+)
 Framework group  C1[X(C10H19O5)]
 Deg. of freedom    96
 Full point group                 C1      NOp   1
 Largest Abelian subgroup         C1      NOp   1
 Largest concise Abelian subgroup C1      NOp   1
                         Standard orientation:                         
 ---------------------------------------------------------------------
 Center     Atomic      Atomic             Coordinates (Angstroms)
 Number     Number       Type             X           Y           Z
 ---------------------------------------------------------------------
      1          6           0        1.093014    0.128880    0.018101
      2          6           0        0.473039   -1.226437    0.452726
      3          6           0       -0.444505   -0.981664    1.594445
      4          6           0       -1.279576    1.062451    0.613725
      5          6           0       -0.027772    1.144663   -0.305870
      6          1           0       -0.479213   -1.677041    2.434815
      7          1           0       -0.150547   -1.595782   -0.380060
      8          1           0        1.719594    0.479339    0.849108
      9          1           0       -1.423449    1.986565    1.170604
     10          1           0       -0.359146    0.890356   -1.315599
     11          8           0       -1.155226    0.045639    1.725740
     12          8           0        1.436863   -2.146357    0.873344
     13          8           0        1.874054   -0.142011   -1.117075
     14          8           0        0.411706    2.486392   -0.410838
     15          6           0       -2.559906    0.683945   -0.110861
     16          1           0       -2.763264    1.476814   -0.847329
     17          1           0       -3.401535    0.648430    0.595651
     18          8           0       -2.345681   -0.567952   -0.721673
     19          6           0        1.724409   -3.193990   -0.064975
     20          1           0        2.509968   -3.796522    0.393022
     21          1           0        0.840033   -3.819283   -0.238278
     22          1           0        2.080065   -2.775606   -1.010769
     23          6           0        3.029010    0.687106   -1.278038
     24          1           0        3.674982    0.635484   -0.391859
     25          1           0        3.568630    0.289522   -2.139266
     26          1           0        2.748546    1.727708   -1.471766
     27          6           0        1.039862    3.075356    0.729824
     28          1           0        1.105210    4.142745    0.512848
     29          1           0        0.455740    2.940032    1.649597
     30          1           0        2.050957    2.684296    0.889612
     31          6           0       -3.486888   -1.056868   -1.426406
     32          1           0       -3.204339   -2.023200   -1.846691
     33          1           0       -4.340554   -1.186829   -0.748369
     34          1           0       -3.769535   -0.373375   -2.237287
 ---------------------------------------------------------------------
 Rotational constants (GHZ):           0.6301660           0.5290807           0.3789042
 Leave Link  202 at Fri May 24 08:30:03 2019, MaxMem=   402653184 cpu:               0.3 elap:               0.2
 (Enter /n/sw/g16_nehalem/g16/l301.exe)
 Standard basis: 6-31G(d) (6D, 7F)
 Ernie: Thresh=  0.10000D-02 Tol=  0.10000D-05 Strict=F.
 There are   263 symmetry adapted cartesian basis functions of A   symmetry.
 There are   263 symmetry adapted basis functions of A   symmetry.
   263 basis functions,   496 primitive gaussians,   263 cartesian basis functions
    59 alpha electrons       59 beta electrons
       nuclear repulsion energy      1171.2345528060 Hartrees.
 IExCor=  402 DFT=T Ex+Corr=B3LYP ExCW=0 ScaHFX=  0.200000
 ScaDFX=  0.800000  0.720000  1.000000  0.810000 ScalE2=  1.000000  1.000000
 IRadAn=      5 IRanWt=     -1 IRanGd=            0 ICorTp=0 IEmpDi=  4
 NAtoms=   34 NActive=   34 NUniq=   34 SFac= 1.00D+00 NAtFMM=   60 NAOKFM=F Big=F
 Integral buffers will be    131072 words long.
 Raffenetti 2 integral format.
 Two-electron integral symmetry is turned on.
 ------------------------------------------------------------------------------
 Polarizable Continuum Model (PCM)
 =================================
 Model                : PCM.
 Atomic radii         : UFF (Universal Force Field).
 Polarization charges : Total charges.
 Charge compensation  : None.
 Solution method      : On-the-fly selection.
 Cavity type          : Scaled VdW (van der Waals Surface) (Alpha=1.100).
 Cavity algorithm     : GePol (No added spheres)
                        Default sphere list used, NSphG=   34.
                        Lebedev-Laikov grids with approx.  5.0 points / Ang**2.
                        Smoothing algorithm: York/Karplus (Gamma=1.0000).
                        Polarization charges: spherical gaussians, with
                                              point-specific exponents (IZeta= 3).
                        Self-potential: point-specific (ISelfS= 7).
                        Self-field    : sphere-specific E.n sum rule (ISelfD= 2).
 1st derivatives      : Analytical E(r).r(x)/FMM algorithm (CHGder, D1EAlg=3).
                        Cavity 1st derivative terms included.
 Solvent              : TetraHydroFuran, Eps=   7.425700 Eps(inf)=   1.974025
 ------------------------------------------------------------------------------
 GePol: Number of generator spheres                  =      34
 GePol: Total number of spheres                      =      34
 GePol: Number of exposed spheres                    =      34 (100.00%)
 GePol: Number of points                             =    2300
 GePol: Average weight of points                     =       0.13
 GePol: Minimum weight of points                     =   0.83D-11
 GePol: Maximum weight of points                     =    0.20577
 GePol: Number of points with low weight             =     156
 GePol: Fraction of low-weight points (<1% of avg)   =       6.78%
 GePol: Cavity surface area                          =    300.853 Ang**2
 GePol: Cavity volume                                =    320.609 Ang**3
 Leave Link  301 at Fri May 24 08:30:04 2019, MaxMem=   402653184 cpu:               0.3 elap:               0.2
 (Enter /n/sw/g16_nehalem/g16/l302.exe)
 NPDir=0 NMtPBC=     1 NCelOv=     1 NCel=       1 NClECP=     1 NCelD=      1
         NCelK=      1 NCelE2=     1 NClLst=     1 CellRange=     0.0.
 One-electron integrals computed using PRISM.
 One-electron integral symmetry used in STVInt
 NBasis=   263 RedAO= T EigKep=  1.49D-03  NBF=   263
 NBsUse=   263 1.00D-06 EigRej= -1.00D+00 NBFU=   263
 Precomputing XC quadrature grid using
 IXCGrd= 4 IRadAn=           5 IRanWt=          -1 IRanGd=           0 AccXCQ= 0.00D+00.
 Generated NRdTot=       0 NPtTot=           0 NUsed=           0 NTot=          32
 NSgBfM=   263   263   263   263   263 MxSgAt=    34 MxSgA2=    34.
 Leave Link  302 at Fri May 24 08:30:05 2019, MaxMem=   402653184 cpu:               3.0 elap:               1.0
 (Enter /n/sw/g16_nehalem/g16/l303.exe)
 DipDrv:  MaxL=1.
 Leave Link  303 at Fri May 24 08:30:05 2019, MaxMem=   402653184 cpu:               0.6 elap:               0.3
 (Enter /n/sw/g16_nehalem/g16/l401.exe)
 ExpMin= 1.61D-01 ExpMax= 5.48D+03 ExpMxC= 8.25D+02 IAcc=3 IRadAn=         5 AccDes= 0.00D+00
 Harris functional with IExCor=  402 and IRadAn=       5 diagonalized for initial guess.
 HarFok:  IExCor=  402 AccDes= 0.00D+00 IRadAn=         5 IDoV= 1 UseB2=F ITyADJ=14
 ICtDFT=  3500011 ScaDFX=  1.000000  1.000000  1.000000  1.000000
 FoFCou: FMM=F IPFlag=           0 FMFlag=      100000 FMFlg1=           0
         NFxFlg=           0 DoJE=T BraDBF=F KetDBF=T FulRan=T
         wScrn=  0.000000 ICntrl=       500 IOpCl=  0 I1Cent=   200000004 NGrid=           0
         NMat0=    1 NMatS0=      1 NMatT0=    0 NMatD0=    1 NMtDS0=    0 NMtDT0=    0
 Petite list used in FoFCou.
 Harris En= -768.259491691035    
 JPrj=0 DoOrth=F DoCkMO=F.
 Leave Link  401 at Fri May 24 08:30:11 2019, MaxMem=   402653184 cpu:              20.8 elap:               5.6
 (Enter /n/sw/g16_nehalem/g16/l502.exe)
 Integral symmetry usage will be decided dynamically.
 Closed shell SCF:
 Using DIIS extrapolation, IDIIS=  1040.
 NGot=   402653184 LenX=   402510103 LenY=   402440493
 Requested convergence on RMS density matrix=1.00D-08 within 128 cycles.
 Requested convergence on MAX density matrix=1.00D-06.
 Requested convergence on             energy=1.00D-06.
 No special actions if energy rises.
 Fock matrices will be formed incrementally for  20 cycles.

 Cycle   1  Pass 1  IDiag  1:
 FoFJK:  IHMeth= 1 ICntrl=       0 DoSepK=F KAlg= 0 I1Cent=           0 FoldK=F
 IRaf= 890000000 NMat=       1 IRICut=       1 DoRegI=T DoRafI=F ISym2E= 0 IDoP0=0 IntGTp=1.
 FoFCou: FMM=F IPFlag=           0 FMFlag=      100000 FMFlg1=           0
         NFxFlg=           0 DoJE=F BraDBF=F KetDBF=F FulRan=T
         wScrn=  0.000000 ICntrl=         0 IOpCl=  0 I1Cent=           0 NGrid=           0
         NMat0=    1 NMatS0=      1 NMatT0=    0 NMatD0=    1 NMtDS0=    0 NMtDT0=    0
 Symmetry not used in FoFCou.
 Inv3:  Mode=1 IEnd=    15870000.
 Iteration    1 A*A^-1 deviation from unit magnitude is 6.88D-15 for    564.
 Iteration    1 A*A^-1 deviation from orthogonality  is 1.90D-15 for   2163   1264.
 Iteration    1 A^-1*A deviation from unit magnitude is 6.66D-15 for   2298.
 Iteration    1 A^-1*A deviation from orthogonality  is 1.46D-15 for   1800   1785.
 E= -768.092130023710    
 DIIS: error= 2.36D-02 at cycle   1 NSaved=   1.
 NSaved= 1 IEnMin= 1 EnMin= -768.092130023710     IErMin= 1 ErrMin= 2.36D-02
 ErrMax= 2.36D-02  0.00D+00 EMaxC= 1.00D-01 BMatC= 2.54D-01 BMatP= 2.54D-01
 IDIUse=3 WtCom= 7.64D-01 WtEn= 2.36D-01
 Coeff-Com:  0.100D+01
 Coeff-En:   0.100D+01
 Coeff:      0.100D+01
 Gap=     0.009 Goal=   None    Shift=    0.000
 GapD=    0.009 DampG=0.250 DampE=0.500 DampFc=0.2500 IDamp=-1.
 Damping current iteration by 2.50D-01
 RMSDP=4.77D-03 MaxDP=1.02D-01              OVMax= 4.34D-01

 Cycle   2  Pass 1  IDiag  1:
 RMSU=  1.19D-03    CP:  9.95D-01
 E= -768.166712065583     Delta-E=       -0.074582041872 Rises=F Damp=T
 DIIS: error= 1.11D-02 at cycle   2 NSaved=   2.
 NSaved= 2 IEnMin= 2 EnMin= -768.166712065583     IErMin= 2 ErrMin= 1.11D-02
 ErrMax= 1.11D-02  0.00D+00 EMaxC= 1.00D-01 BMatC= 6.91D-02 BMatP= 2.54D-01
 IDIUse=3 WtCom= 8.89D-01 WtEn= 1.11D-01
 Coeff-Com: -0.710D+00 0.171D+01
 Coeff-En:   0.000D+00 0.100D+01
 Coeff:     -0.631D+00 0.163D+01
 Gap=     0.119 Goal=   None    Shift=    0.000
 RMSDP=1.40D-03 MaxDP=3.17D-02 DE=-7.46D-02 OVMax= 4.12D-01

 Cycle   3  Pass 1  IDiag  1:
 RMSU=  1.36D-03    CP:  9.86D-01  1.22D+00
 E= -768.296651431709     Delta-E=       -0.129939366126 Rises=F Damp=F
 DIIS: error= 7.23D-03 at cycle   3 NSaved=   3.
 NSaved= 3 IEnMin= 3 EnMin= -768.296651431709     IErMin= 3 ErrMin= 7.23D-03
 ErrMax= 7.23D-03  0.00D+00 EMaxC= 1.00D-01 BMatC= 3.86D-02 BMatP= 6.91D-02
 IDIUse=3 WtCom= 9.28D-01 WtEn= 7.23D-02
 Coeff-Com: -0.503D+00 0.101D+01 0.492D+00
 Coeff-En:   0.000D+00 0.000D+00 0.100D+01
 Coeff:     -0.466D+00 0.937D+00 0.529D+00
 Gap=     0.135 Goal=   None    Shift=    0.000
 RMSDP=8.26D-04 MaxDP=2.90D-02 DE=-1.30D-01 OVMax= 4.17D-02

 Cycle   4  Pass 1  IDiag  1:
 RMSU=  5.96D-04    CP:  9.90D-01  1.45D+00  6.31D-01
 E= -768.327752191502     Delta-E=       -0.031100759793 Rises=F Damp=F
 DIIS: error= 2.17D-03 at cycle   4 NSaved=   4.
 NSaved= 4 IEnMin= 4 EnMin= -768.327752191502     IErMin= 4 ErrMin= 2.17D-03
 ErrMax= 2.17D-03  0.00D+00 EMaxC= 1.00D-01 BMatC= 2.90D-03 BMatP= 3.86D-02
 IDIUse=3 WtCom= 9.78D-01 WtEn= 2.17D-02
 Coeff-Com: -0.209D+00 0.353D+00 0.225D+00 0.631D+00
 Coeff-En:   0.000D+00 0.000D+00 0.000D+00 0.100D+01
 Coeff:     -0.204D+00 0.345D+00 0.220D+00 0.639D+00
 Gap=     0.131 Goal=   None    Shift=    0.000
 RMSDP=2.23D-04 MaxDP=9.66D-03 DE=-3.11D-02 OVMax= 1.32D-02

 Cycle   5  Pass 1  IDiag  1:
 RMSU=  1.88D-04    CP:  9.89D-01  1.46D+00  6.92D-01  8.60D-01
 E= -768.329696521753     Delta-E=       -0.001944330251 Rises=F Damp=F
 DIIS: error= 8.75D-04 at cycle   5 NSaved=   5.
 NSaved= 5 IEnMin= 5 EnMin= -768.329696521753     IErMin= 5 ErrMin= 8.75D-04
 ErrMax= 8.75D-04  0.00D+00 EMaxC= 1.00D-01 BMatC= 8.14D-04 BMatP= 2.90D-03
 IDIUse=3 WtCom= 9.91D-01 WtEn= 8.75D-03
 Coeff-Com: -0.868D-01 0.130D+00 0.545D-01 0.366D+00 0.536D+00
 Coeff-En:   0.000D+00 0.000D+00 0.000D+00 0.144D+00 0.856D+00
 Coeff:     -0.860D-01 0.129D+00 0.540D-01 0.364D+00 0.539D+00
 Gap=     0.131 Goal=   None    Shift=    0.000
 RMSDP=9.44D-05 MaxDP=5.30D-03 DE=-1.94D-03 OVMax= 5.73D-03

 Cycle   6  Pass 1  IDiag  1:
 RMSU=  6.73D-05    CP:  9.89D-01  1.48D+00  6.91D-01  9.37D-01  7.68D-01
 E= -768.330241095200     Delta-E=       -0.000544573447 Rises=F Damp=F
 DIIS: error= 2.98D-04 at cycle   6 NSaved=   6.
 NSaved= 6 IEnMin= 6 EnMin= -768.330241095200     IErMin= 6 ErrMin= 2.98D-04
 ErrMax= 2.98D-04  0.00D+00 EMaxC= 1.00D-01 BMatC= 1.03D-04 BMatP= 8.14D-04
 IDIUse=3 WtCom= 9.97D-01 WtEn= 2.98D-03
 Coeff-Com: -0.302D-01 0.387D-01-0.503D-02 0.142D+00 0.327D+00 0.528D+00
 Coeff-En:   0.000D+00 0.000D+00 0.000D+00 0.000D+00 0.000D+00 0.100D+01
 Coeff:     -0.301D-01 0.385D-01-0.501D-02 0.141D+00 0.326D+00 0.529D+00
 Gap=     0.131 Goal=   None    Shift=    0.000
 RMSDP=3.41D-05 MaxDP=1.85D-03 DE=-5.45D-04 OVMax= 2.41D-03

 Cycle   7  Pass 1  IDiag  1:
 RMSU=  2.52D-05    CP:  9.89D-01  1.48D+00  6.89D-01  9.65D-01  8.30D-01
                    CP:  8.57D-01
 E= -768.330319760075     Delta-E=       -0.000078664875 Rises=F Damp=F
 DIIS: error= 1.24D-04 at cycle   7 NSaved=   7.
 NSaved= 7 IEnMin= 7 EnMin= -768.330319760075     IErMin= 7 ErrMin= 1.24D-04
 ErrMax= 1.24D-04  0.00D+00 EMaxC= 1.00D-01 BMatC= 9.29D-06 BMatP= 1.03D-04
 IDIUse=3 WtCom= 9.99D-01 WtEn= 1.24D-03
 Coeff-Com: -0.723D-02 0.714D-02-0.133D-01 0.313D-01 0.116D+00 0.285D+00
 Coeff-Com:  0.581D+00
 Coeff-En:   0.000D+00 0.000D+00 0.000D+00 0.000D+00 0.000D+00 0.000D+00
 Coeff-En:   0.100D+01
 Coeff:     -0.722D-02 0.713D-02-0.133D-01 0.312D-01 0.116D+00 0.285D+00
 Coeff:      0.582D+00
 Gap=     0.130 Goal=   None    Shift=    0.000
 RMSDP=1.33D-05 MaxDP=5.98D-04 DE=-7.87D-05 OVMax= 1.07D-03

 Cycle   8  Pass 1  IDiag  1:
 RMSU=  7.98D-06    CP:  9.89D-01  1.48D+00  6.89D-01  9.77D-01  8.61D-01
                    CP:  9.15D-01  8.31D-01
 E= -768.330328300676     Delta-E=       -0.000008540601 Rises=F Damp=F
 DIIS: error= 3.28D-05 at cycle   8 NSaved=   8.
 NSaved= 8 IEnMin= 8 EnMin= -768.330328300676     IErMin= 8 ErrMin= 3.28D-05
 ErrMax= 3.28D-05  0.00D+00 EMaxC= 1.00D-01 BMatC= 6.59D-07 BMatP= 9.29D-06
 IDIUse=1 WtCom= 1.00D+00 WtEn= 0.00D+00
 Coeff-Com:  0.303D-03-0.929D-03-0.508D-02-0.754D-02-0.179D-02 0.308D-01
 Coeff-Com:  0.224D+00 0.761D+00
 Coeff:      0.303D-03-0.929D-03-0.508D-02-0.754D-02-0.179D-02 0.308D-01
 Coeff:      0.224D+00 0.761D+00
 Gap=     0.130 Goal=   None    Shift=    0.000
 RMSDP=5.74D-06 MaxDP=1.35D-04 DE=-8.54D-06 OVMax= 8.33D-04

 Cycle   9  Pass 1  IDiag  1:
 RMSU=  2.84D-06    CP:  9.89D-01  1.48D+00  6.90D-01  9.82D-01  8.72D-01
                    CP:  9.47D-01  9.23D-01  1.01D+00
 E= -768.330328988157     Delta-E=       -0.000000687481 Rises=F Damp=F
 DIIS: error= 1.35D-05 at cycle   9 NSaved=   9.
 NSaved= 9 IEnMin= 9 EnMin= -768.330328988157     IErMin= 9 ErrMin= 1.35D-05
 ErrMax= 1.35D-05  0.00D+00 EMaxC= 1.00D-01 BMatC= 1.17D-07 BMatP= 6.59D-07
 IDIUse=1 WtCom= 1.00D+00 WtEn= 0.00D+00
 Coeff-Com:  0.485D-03-0.667D-03-0.149D-02-0.602D-02-0.106D-01-0.813D-02
 Coeff-Com:  0.644D-01 0.417D+00 0.545D+00
 Coeff:      0.485D-03-0.667D-03-0.149D-02-0.602D-02-0.106D-01-0.813D-02
 Coeff:      0.644D-01 0.417D+00 0.545D+00
 Gap=     0.130 Goal=   None    Shift=    0.000
 RMSDP=1.66D-06 MaxDP=4.35D-05 DE=-6.87D-07 OVMax= 1.99D-04

 Cycle  10  Pass 1  IDiag  1:
 RMSU=  9.82D-07    CP:  9.89D-01  1.48D+00  6.90D-01  9.82D-01  8.74D-01
                    CP:  9.57D-01  9.42D-01  1.06D+00  7.71D-01
 E= -768.330329096861     Delta-E=       -0.000000108704 Rises=F Damp=F
 DIIS: error= 2.09D-06 at cycle  10 NSaved=  10.
 NSaved=10 IEnMin=10 EnMin= -768.330329096861     IErMin=10 ErrMin= 2.09D-06
 ErrMax= 2.09D-06  0.00D+00 EMaxC= 1.00D-01 BMatC= 4.44D-09 BMatP= 1.17D-07
 IDIUse=1 WtCom= 1.00D+00 WtEn= 0.00D+00
 Coeff-Com:  0.222D-03-0.268D-03-0.784D-04-0.151D-02-0.414D-02-0.609D-02
 Coeff-Com: -0.413D-02 0.596D-01 0.171D+00 0.786D+00
 Coeff:      0.222D-03-0.268D-03-0.784D-04-0.151D-02-0.414D-02-0.609D-02
 Coeff:     -0.413D-02 0.596D-01 0.171D+00 0.786D+00
 Gap=     0.130 Goal=   None    Shift=    0.000
 RMSDP=6.32D-07 MaxDP=1.06D-05 DE=-1.09D-07 OVMax= 9.01D-05

 Cycle  11  Pass 1  IDiag  1:
 RMSU=  2.37D-07    CP:  9.89D-01  1.48D+00  6.90D-01  9.83D-01  8.75D-01
                    CP:  9.61D-01  9.50D-01  1.09D+00  8.19D-01  9.49D-01
 E= -768.330329103264     Delta-E=       -0.000000006404 Rises=F Damp=F
 DIIS: error= 9.74D-07 at cycle  11 NSaved=  11.
 NSaved=11 IEnMin=11 EnMin= -768.330329103264     IErMin=11 ErrMin= 9.74D-07
 ErrMax= 9.74D-07  0.00D+00 EMaxC= 1.00D-01 BMatC= 6.50D-10 BMatP= 4.44D-09
 IDIUse=1 WtCom= 1.00D+00 WtEn= 0.00D+00
 Coeff-Com:  0.484D-04-0.508D-04 0.634D-04-0.199D-03-0.107D-02-0.177D-02
 Coeff-Com: -0.637D-02-0.148D-03 0.375D-01 0.355D+00 0.617D+00
 Coeff:      0.484D-04-0.508D-04 0.634D-04-0.199D-03-0.107D-02-0.177D-02
 Coeff:     -0.637D-02-0.148D-03 0.375D-01 0.355D+00 0.617D+00
 Gap=     0.130 Goal=   None    Shift=    0.000
 RMSDP=1.60D-07 MaxDP=4.88D-06 DE=-6.40D-09 OVMax= 1.90D-05

 Cycle  12  Pass 1  IDiag  1:
 RMSU=  9.58D-08    CP:  9.89D-01  1.48D+00  6.90D-01  9.83D-01  8.75D-01
                    CP:  9.62D-01  9.51D-01  1.10D+00  8.39D-01  9.97D-01
                    CP:  7.97D-01
 E= -768.330329103916     Delta-E=       -0.000000000651 Rises=F Damp=F
 DIIS: error= 3.27D-07 at cycle  12 NSaved=  12.
 NSaved=12 IEnMin=12 EnMin= -768.330329103916     IErMin=12 ErrMin= 3.27D-07
 ErrMax= 3.27D-07  0.00D+00 EMaxC= 1.00D-01 BMatC= 9.20D-11 BMatP= 6.50D-10
 IDIUse=1 WtCom= 1.00D+00 WtEn= 0.00D+00
 Coeff-Com:  0.446D-05-0.387D-05 0.385D-04 0.866D-04-0.182D-05 0.142D-04
 Coeff-Com: -0.289D-02-0.868D-02-0.727D-02 0.575D-01 0.302D+00 0.659D+00
 Coeff:      0.446D-05-0.387D-05 0.385D-04 0.866D-04-0.182D-05 0.142D-04
 Coeff:     -0.289D-02-0.868D-02-0.727D-02 0.575D-01 0.302D+00 0.659D+00
 Gap=     0.130 Goal=   None    Shift=    0.000
 RMSDP=5.40D-08 MaxDP=1.31D-06 DE=-6.51D-10 OVMax= 6.16D-06

 Cycle  13  Pass 1  IDiag  1:
 RMSU=  2.31D-08    CP:  9.89D-01  1.48D+00  6.90D-01  9.83D-01  8.75D-01
                    CP:  9.62D-01  9.52D-01  1.10D+00  8.41D-01  1.01D+00
                    CP:  8.89D-01  8.00D-01
 E= -768.330329103983     Delta-E=       -0.000000000068 Rises=F Damp=F
 DIIS: error= 5.94D-08 at cycle  13 NSaved=  13.
 NSaved=13 IEnMin=13 EnMin= -768.330329103983     IErMin=13 ErrMin= 5.94D-08
 ErrMax= 5.94D-08  0.00D+00 EMaxC= 1.00D-01 BMatC= 2.91D-12 BMatP= 9.20D-11
 IDIUse=1 WtCom= 1.00D+00 WtEn= 0.00D+00
 Coeff-Com: -0.219D-05 0.301D-05 0.101D-04 0.452D-04 0.625D-04 0.133D-03
 Coeff-Com: -0.675D-03-0.280D-02-0.479D-02 0.197D-03 0.740D-01 0.228D+00
 Coeff-Com:  0.706D+00
 Coeff:     -0.219D-05 0.301D-05 0.101D-04 0.452D-04 0.625D-04 0.133D-03
 Coeff:     -0.675D-03-0.280D-02-0.479D-02 0.197D-03 0.740D-01 0.228D+00
 Coeff:      0.706D+00
 Gap=     0.130 Goal=   None    Shift=    0.000
 RMSDP=1.01D-08 MaxDP=3.49D-07 DE=-6.78D-11 OVMax= 9.29D-07

 Cycle  14  Pass 1  IDiag  1:
 RMSU=  7.76D-09    CP:  9.89D-01  1.48D+00  6.90D-01  9.83D-01  8.75D-01
                    CP:  9.62D-01  9.52D-01  1.10D+00  8.42D-01  1.02D+00
                    CP:  9.01D-01  8.41D-01  9.68D-01
 E= -768.330329103985     Delta-E=       -0.000000000002 Rises=F Damp=F
 DIIS: error= 3.21D-08 at cycle  14 NSaved=  14.
 NSaved=14 IEnMin=14 EnMin= -768.330329103985     IErMin=14 ErrMin= 3.21D-08
 ErrMax= 3.21D-08  0.00D+00 EMaxC= 1.00D-01 BMatC= 6.37D-13 BMatP= 2.91D-12
 IDIUse=1 WtCom= 1.00D+00 WtEn= 0.00D+00
 Coeff-Com: -0.122D-05 0.142D-05-0.216D-06 0.835D-05 0.245D-04 0.571D-04
 Coeff-Com:  0.326D-04-0.153D-03-0.136D-02-0.676D-02-0.175D-02 0.250D-01
 Coeff-Com:  0.352D+00 0.633D+00
 Coeff:     -0.122D-05 0.142D-05-0.216D-06 0.835D-05 0.245D-04 0.571D-04
 Coeff:      0.326D-04-0.153D-03-0.136D-02-0.676D-02-0.175D-02 0.250D-01
 Coeff:      0.352D+00 0.633D+00
 Gap=     0.130 Goal=   None    Shift=    0.000
 RMSDP=3.67D-09 MaxDP=8.03D-08 DE=-1.59D-12 OVMax= 2.39D-07

 Error on total polarization charges =  0.01189
 SCF Done:  E(RB3LYP) =  -768.330329104     A.U. after   14 cycles
            NFock= 14  Conv=0.37D-08     -V/T= 2.0091
 KE= 7.613998734680D+02 PE=-4.117550626874D+03 EE= 1.416585871496D+03
 Leave Link  502 at Fri May 24 08:32:29 2019, MaxMem=   402653184 cpu:             553.6 elap:             138.6
 (Enter /n/sw/g16_nehalem/g16/l601.exe)
 Copying SCF densities to generalized density rwf, IOpCl= 0 IROHF=0.

 **********************************************************************

            Population analysis using the SCF density.

 **********************************************************************

 Orbital symmetries:
       Occupied  (A) (A) (A) (A) (A) (A) (A) (A) (A) (A) (A) (A)
                 (A) (A) (A) (A) (A) (A) (A) (A) (A) (A) (A) (A)
                 (A) (A) (A) (A) (A) (A) (A) (A) (A) (A) (A) (A)
                 (A) (A) (A) (A) (A) (A) (A) (A) (A) (A) (A) (A)
                 (A) (A) (A) (A) (A) (A) (A) (A) (A) (A) (A)
       Virtual   (A) (A) (A) (A) (A) (A) (A) (A) (A) (A) (A) (A)
                 (A) (A) (A) (A) (A) (A) (A) (A) (A) (A) (A) (A)
                 (A) (A) (A) (A) (A) (A) (A) (A) (A) (A) (A) (A)
                 (A) (A) (A) (A) (A) (A) (A) (A) (A) (A) (A) (A)
                 (A) (A) (A) (A) (A) (A) (A) (A) (A) (A) (A) (A)
                 (A) (A) (A) (A) (A) (A) (A) (A) (A) (A) (A) (A)
                 (A) (A) (A) (A) (A) (A) (A) (A) (A) (A) (A) (A)
                 (A) (A) (A) (A) (A) (A) (A) (A) (A) (A) (A) (A)
                 (A) (A) (A) (A) (A) (A) (A) (A) (A) (A) (A) (A)
                 (A) (A) (A) (A) (A) (A) (A) (A) (A) (A) (A) (A)
                 (A) (A) (A) (A) (A) (A) (A) (A) (A) (A) (A) (A)
                 (A) (A) (A) (A) (A) (A) (A) (A) (A) (A) (A) (A)
                 (A) (A) (A) (A) (A) (A) (A) (A) (A) (A) (A) (A)
                 (A) (A) (A) (A) (A) (A) (A) (A) (A) (A) (A) (A)
                 (A) (A) (A) (A) (A) (A) (A) (A) (A) (A) (A) (A)
                 (A) (A) (A) (A) (A) (A) (A) (A) (A) (A) (A) (A)
                 (A) (A) (A) (A) (A) (A) (A) (A) (A) (A) (A) (A)
 The electronic state is 1-A.
 Alpha  occ. eigenvalues --  -19.32752 -19.20114 -19.19703 -19.19442 -19.19082
 Alpha  occ. eigenvalues --  -10.39344 -10.32149 -10.31278 -10.29595 -10.29352
 Alpha  occ. eigenvalues --  -10.28440 -10.25504 -10.25331 -10.25300 -10.24887
 Alpha  occ. eigenvalues --   -1.21528  -1.09311  -1.07937  -1.07605  -1.06316
 Alpha  occ. eigenvalues --   -0.87054  -0.85735  -0.77478  -0.75288  -0.73709
 Alpha  occ. eigenvalues --   -0.70961  -0.69185  -0.67976  -0.65853  -0.62206
 Alpha  occ. eigenvalues --   -0.59615  -0.58728  -0.56508  -0.54133  -0.53922
 Alpha  occ. eigenvalues --   -0.52315  -0.51521  -0.51308  -0.50609  -0.48882
 Alpha  occ. eigenvalues --   -0.48231  -0.47712  -0.46733  -0.45729  -0.45562
 Alpha  occ. eigenvalues --   -0.44235  -0.43183  -0.42409  -0.41391  -0.40601
 Alpha  occ. eigenvalues --   -0.40022  -0.37342  -0.36200  -0.35743  -0.34970
 Alpha  occ. eigenvalues --   -0.31909  -0.30899  -0.30066  -0.27918
 Alpha virt. eigenvalues --   -0.14912   0.00184   0.04713   0.05363   0.05996
 Alpha virt. eigenvalues --    0.06726   0.08335   0.09060   0.09795   0.10640
 Alpha virt. eigenvalues --    0.11034   0.11474   0.12330   0.12974   0.13239
 Alpha virt. eigenvalues --    0.13438   0.14237   0.14512   0.15201   0.15531
 Alpha virt. eigenvalues --    0.15695   0.16272   0.16576   0.16813   0.17682
 Alpha virt. eigenvalues --    0.18715   0.19540   0.20136   0.20739   0.22664
 Alpha virt. eigenvalues --    0.24041   0.25523   0.26334   0.28164   0.29657
 Alpha virt. eigenvalues --    0.44599   0.45644   0.46248   0.47860   0.48221
 Alpha virt. eigenvalues --    0.48939   0.50076   0.50522   0.50812   0.51476
 Alpha virt. eigenvalues --    0.52492   0.53407   0.54194   0.54927   0.55983
 Alpha virt. eigenvalues --    0.56267   0.58322   0.58898   0.61161   0.61942
 Alpha virt. eigenvalues --    0.63035   0.65025   0.67265   0.67779   0.69045
 Alpha virt. eigenvalues --    0.72328   0.73248   0.75246   0.76383   0.77888
 Alpha virt. eigenvalues --    0.78977   0.80190   0.80345   0.81522   0.82298
 Alpha virt. eigenvalues --    0.82306   0.83456   0.84346   0.84994   0.86067
 Alpha virt. eigenvalues --    0.86533   0.86722   0.87386   0.88939   0.89920
 Alpha virt. eigenvalues --    0.90300   0.92255   0.92542   0.93524   0.95221
 Alpha virt. eigenvalues --    0.96221   0.97103   0.98046   0.98921   1.02219
 Alpha virt. eigenvalues --    1.03984   1.05607   1.08204   1.09847   1.11727
 Alpha virt. eigenvalues --    1.13419   1.14889   1.17240   1.19394   1.20751
 Alpha virt. eigenvalues --    1.23167   1.26417   1.29610   1.30227   1.32572
 Alpha virt. eigenvalues --    1.33406   1.37013   1.38422   1.40449   1.41375
 Alpha virt. eigenvalues --    1.43444   1.44973   1.47357   1.48813   1.49378
 Alpha virt. eigenvalues --    1.53199   1.54415   1.56232   1.57313   1.61260
 Alpha virt. eigenvalues --    1.62305   1.63612   1.65744   1.69758   1.71673
 Alpha virt. eigenvalues --    1.75793   1.76733   1.78017   1.79094   1.79654
 Alpha virt. eigenvalues --    1.81749   1.84200   1.86417   1.88430   1.89665
 Alpha virt. eigenvalues --    1.92900   1.93588   1.95702   1.98865   1.99905
 Alpha virt. eigenvalues --    2.00722   2.02416   2.03608   2.04315   2.05513
 Alpha virt. eigenvalues --    2.05886   2.06437   2.08691   2.09683   2.10907
 Alpha virt. eigenvalues --    2.11998   2.12813   2.13958   2.14765   2.17172
 Alpha virt. eigenvalues --    2.19813   2.21770   2.23417   2.23954   2.25111
 Alpha virt. eigenvalues --    2.28588   2.30616   2.31944   2.32342   2.34592
 Alpha virt. eigenvalues --    2.37147   2.39286   2.42247   2.44001   2.46705
 Alpha virt. eigenvalues --    2.48484   2.50800   2.54228   2.58027   2.61017
 Alpha virt. eigenvalues --    2.64417   2.65288   2.69656   2.73831   2.78070
 Alpha virt. eigenvalues --    2.78647   2.80507   2.83014   2.89787   2.90641
 Alpha virt. eigenvalues --    2.94904   2.97179   3.02446   3.08895   3.83835
 Alpha virt. eigenvalues --    3.91141   3.92674   4.04645   4.07677   4.14722
 Alpha virt. eigenvalues --    4.21667   4.23355   4.24832   4.24979   4.34819
 Alpha virt. eigenvalues --    4.42088   4.46616   4.50011   4.72783
          Condensed to atoms (all electrons):
               1          2          3          4          5          6
     1  C    5.016880   0.283798  -0.038767  -0.035395   0.264157   0.002969
     2  C    0.283798   5.111601   0.291912  -0.000539  -0.037603  -0.039782
     3  C   -0.038767   0.291912   4.809137  -0.041720  -0.001802   0.357030
     4  C   -0.035395  -0.000539  -0.041720   5.197332   0.225045   0.003113
     5  C    0.264157  -0.037603  -0.001802   0.225045   5.050835  -0.000342
     6  H    0.002969  -0.039782   0.357030   0.003113  -0.000342   0.424313
     7  H   -0.032670   0.329211  -0.031586   0.000208  -0.004187   0.002090
     8  H    0.353924  -0.041945  -0.002359   0.000516  -0.050208   0.000126
     9  H    0.001008  -0.000001   0.002297   0.367037  -0.031317  -0.000104
    10  H   -0.036895  -0.004088   0.000214  -0.054525   0.375076   0.000010
    11  O   -0.000081  -0.029570   0.372233   0.125045  -0.023576  -0.033158
    12  O   -0.037822   0.181202  -0.029140   0.000060   0.002936   0.005805
    13  O    0.226894  -0.043057   0.002628   0.003565  -0.044780  -0.000047
    14  O   -0.029322   0.002396  -0.000018  -0.034437   0.236562   0.000003
    15  C    0.000713   0.000462  -0.003008   0.336534  -0.020275  -0.000244
    16  H    0.000392  -0.000132   0.000403  -0.036857  -0.005153   0.000008
    17  H   -0.000280   0.000124  -0.000507  -0.028031   0.004633  -0.000048
    18  O   -0.001106  -0.007748   0.012689  -0.053130  -0.002940   0.000122
    19  C   -0.000005  -0.027834   0.002488   0.000000  -0.000101   0.000081
    20  H   -0.000123   0.004978  -0.000162   0.000000   0.000002  -0.000031
    21  H   -0.000233  -0.007157   0.000387  -0.000002   0.000047  -0.000090
    22  H    0.000531  -0.005869   0.000247  -0.000003  -0.000069   0.000039
    23  C   -0.032143   0.004693  -0.000160   0.000012  -0.002576   0.000003
    24  H   -0.010913   0.000536   0.000016   0.000039  -0.000584   0.000000
    25  H    0.004804  -0.000173   0.000000   0.000005  -0.000131   0.000000
    26  H   -0.004095  -0.000281   0.000019  -0.000082   0.002481   0.000000
    27  C   -0.005843  -0.000012   0.000054  -0.007739  -0.042642   0.000001
    28  H    0.000085  -0.000002   0.000000   0.000000   0.004743   0.000000
    29  H   -0.000981   0.000041  -0.000019   0.007596  -0.007015  -0.000004
    30  H    0.002748  -0.000306   0.000028  -0.001020  -0.004083   0.000000
    31  C   -0.000003   0.000221  -0.000313   0.005613   0.000090   0.000000
    32  H    0.000006   0.000043   0.000013  -0.000249  -0.000009   0.000000
    33  H   -0.000005  -0.000005  -0.000064   0.000068   0.000031  -0.000001
    34  H    0.000002  -0.000017   0.000035  -0.000110  -0.000045   0.000000
               7          8          9         10         11         12
     1  C   -0.032670   0.353924   0.001008  -0.036895  -0.000081  -0.037822
     2  C    0.329211  -0.041945  -0.000001  -0.004088  -0.029570   0.181202
     3  C   -0.031586  -0.002359   0.002297   0.000214   0.372233  -0.029140
     4  C    0.000208   0.000516   0.367037  -0.054525   0.125045   0.000060
     5  C   -0.004187  -0.050208  -0.031317   0.375076  -0.023576   0.002936
     6  H    0.002090   0.000126  -0.000104   0.000010  -0.033158   0.005805
     7  H    0.487761   0.005786  -0.000017   0.004329  -0.000769  -0.024100
     8  H    0.005786   0.580906  -0.000078   0.005372   0.001056   0.000879
     9  H   -0.000017  -0.000078   0.464986   0.002866  -0.026437   0.000003
    10  H    0.004329   0.005372   0.002866   0.519232   0.002184  -0.000073
    11  O   -0.000769   0.001056  -0.026437   0.002184   7.955429   0.001495
    12  O   -0.024100   0.000879   0.000003  -0.000073   0.001495   8.249708
    13  O   -0.000691  -0.036136  -0.000042   0.003051   0.000021   0.002789
    14  O    0.000003  -0.004797  -0.001316  -0.035391   0.000892  -0.000008
    15  C   -0.000895   0.000031  -0.028551  -0.003576  -0.038202  -0.000013
    16  H    0.000014  -0.000006   0.001447  -0.001530   0.002790   0.000000
    17  H    0.000143   0.000004  -0.002027   0.000776  -0.001668   0.000000
    18  O    0.015434  -0.000015   0.002377   0.010185  -0.002297   0.000054
    19  C   -0.005093  -0.000378   0.000000  -0.000010  -0.000045   0.229719
    20  H   -0.000110   0.000003   0.000000   0.000000   0.000001  -0.030526
    21  H    0.006161   0.000019   0.000000  -0.000003  -0.000016  -0.034748
    22  H    0.001849   0.000200   0.000000   0.000019   0.000006  -0.033569
    23  C   -0.000150  -0.006871   0.000001  -0.000009   0.000001  -0.000308
    24  H    0.000052   0.011675  -0.000001   0.000117  -0.000001   0.000082
    25  H   -0.000001  -0.000013   0.000000  -0.000065   0.000000  -0.000007
    26  H   -0.000018  -0.001417   0.000005  -0.000169  -0.000001   0.000008
    27  C    0.000006   0.004633   0.002704   0.005183   0.000093  -0.000002
    28  H    0.000000  -0.000041  -0.000329  -0.000121   0.000003   0.000000
    29  H    0.000000   0.000158   0.003363  -0.000170  -0.000530   0.000000
    30  H   -0.000006   0.002292   0.000164  -0.000130   0.000045   0.000006
    31  C   -0.000334   0.000000  -0.000145  -0.000274   0.000061  -0.000001
    32  H   -0.000155   0.000000   0.000003   0.000003   0.000000  -0.000001
    33  H    0.000072   0.000000   0.000005   0.000048   0.000012   0.000000
    34  H    0.000041   0.000000   0.000008  -0.000117  -0.000003   0.000000
              13         14         15         16         17         18
     1  C    0.226894  -0.029322   0.000713   0.000392  -0.000280  -0.001106
     2  C   -0.043057   0.002396   0.000462  -0.000132   0.000124  -0.007748
     3  C    0.002628  -0.000018  -0.003008   0.000403  -0.000507   0.012689
     4  C    0.003565  -0.034437   0.336534  -0.036857  -0.028031  -0.053130
     5  C   -0.044780   0.236562  -0.020275  -0.005153   0.004633  -0.002940
     6  H   -0.000047   0.000003  -0.000244   0.000008  -0.000048   0.000122
     7  H   -0.000691   0.000003  -0.000895   0.000014   0.000143   0.015434
     8  H   -0.036136  -0.004797   0.000031  -0.000006   0.000004  -0.000015
     9  H   -0.000042  -0.001316  -0.028551   0.001447  -0.002027   0.002377
    10  H    0.003051  -0.035391  -0.003576  -0.001530   0.000776   0.010185
    11  O    0.000021   0.000892  -0.038202   0.002790  -0.001668  -0.002297
    12  O    0.002789  -0.000008  -0.000013   0.000000   0.000000   0.000054
    13  O    8.226738   0.002032  -0.000045  -0.000002   0.000001  -0.000008
    14  O    0.002032   8.208859   0.000745   0.000814  -0.000059   0.000103
    15  C   -0.000045   0.000745   4.885849   0.361030   0.358325   0.233379
    16  H   -0.000002   0.000814   0.361030   0.557180  -0.042636  -0.035467
    17  H    0.000001  -0.000059   0.358325  -0.042636   0.560733  -0.038916
    18  O   -0.000008   0.000103   0.233379  -0.035467  -0.038916   8.220394
    19  C   -0.003869   0.000000   0.000000   0.000000   0.000000  -0.000012
    20  H    0.000051   0.000000   0.000000   0.000000   0.000000   0.000000
    21  H    0.000185   0.000000   0.000001   0.000000   0.000000  -0.000009
    22  H    0.009291   0.000000   0.000000   0.000000   0.000000   0.000000
    23  C    0.233579  -0.002003  -0.000002   0.000000   0.000000  -0.000001
    24  H   -0.033824   0.000133   0.000000   0.000000   0.000000   0.000000
    25  H   -0.031549   0.000074   0.000000   0.000000   0.000000   0.000000
    26  H   -0.034745   0.007163   0.000000   0.000000   0.000000   0.000000
    27  C   -0.000187   0.233696   0.000412  -0.000013  -0.000004  -0.000004
    28  H   -0.000007  -0.031409  -0.000001  -0.000002   0.000000   0.000000
    29  H    0.000019  -0.034912   0.000042  -0.000030   0.000017  -0.000001
    30  H   -0.000100  -0.037816  -0.000010   0.000003   0.000000   0.000000
    31  C    0.000000  -0.000001  -0.039884  -0.003320  -0.003953   0.239320
    32  H    0.000000   0.000000   0.005322  -0.000120  -0.000112  -0.030907
    33  H    0.000000   0.000000  -0.006672  -0.001802   0.010239  -0.035372
    34  H    0.000000  -0.000001  -0.006566   0.009392  -0.001946  -0.035210
              19         20         21         22         23         24
     1  C   -0.000005  -0.000123  -0.000233   0.000531  -0.032143  -0.010913
     2  C   -0.027834   0.004978  -0.007157  -0.005869   0.004693   0.000536
     3  C    0.002488  -0.000162   0.000387   0.000247  -0.000160   0.000016
     4  C    0.000000   0.000000  -0.000002  -0.000003   0.000012   0.000039
     5  C   -0.000101   0.000002   0.000047  -0.000069  -0.002576  -0.000584
     6  H    0.000081  -0.000031  -0.000090   0.000039   0.000003   0.000000
     7  H   -0.005093  -0.000110   0.006161   0.001849  -0.000150   0.000052
     8  H   -0.000378   0.000003   0.000019   0.000200  -0.006871   0.011675
     9  H    0.000000   0.000000   0.000000   0.000000   0.000001  -0.000001
    10  H   -0.000010   0.000000  -0.000003   0.000019  -0.000009   0.000117
    11  O   -0.000045   0.000001  -0.000016   0.000006   0.000001  -0.000001
    12  O    0.229719  -0.030526  -0.034748  -0.033569  -0.000308   0.000082
    13  O   -0.003869   0.000051   0.000185   0.009291   0.233579  -0.033824
    14  O    0.000000   0.000000   0.000000   0.000000  -0.002003   0.000133
    15  C    0.000000   0.000000   0.000001   0.000000  -0.000002   0.000000
    16  H    0.000000   0.000000   0.000000   0.000000   0.000000   0.000000
    17  H    0.000000   0.000000   0.000000   0.000000   0.000000   0.000000
    18  O   -0.000012   0.000000  -0.000009   0.000000  -0.000001   0.000000
    19  C    4.913654   0.384620   0.368027   0.367649   0.000245  -0.000022
    20  H    0.384620   0.510530  -0.028969  -0.027120  -0.000004   0.000003
    21  H    0.368027  -0.028969   0.569493  -0.039832  -0.000008   0.000000
    22  H    0.367649  -0.027120  -0.039832   0.546077  -0.000186  -0.000047
    23  C    0.000245  -0.000004  -0.000008  -0.000186   4.914094   0.367887
    24  H   -0.000022   0.000003   0.000000  -0.000047   0.367887   0.571583
    25  H    0.000046  -0.000002   0.000000  -0.000102   0.383882  -0.027713
    26  H   -0.000006   0.000000   0.000000   0.000038   0.366967  -0.042244
    27  C    0.000000   0.000000   0.000000   0.000000  -0.000500  -0.000277
    28  H    0.000000   0.000000   0.000000   0.000000  -0.000001   0.000009
    29  H    0.000000   0.000000   0.000000   0.000000  -0.000001   0.000008
    30  H    0.000000   0.000000   0.000000   0.000000   0.001643   0.000417
    31  C    0.000000   0.000000   0.000001   0.000000   0.000000   0.000000
    32  H    0.000000   0.000000   0.000004   0.000000   0.000000   0.000000
    33  H    0.000000   0.000000   0.000000   0.000000   0.000000   0.000000
    34  H    0.000000   0.000000   0.000000   0.000000   0.000000   0.000000
              25         26         27         28         29         30
     1  C    0.004804  -0.004095  -0.005843   0.000085  -0.000981   0.002748
     2  C   -0.000173  -0.000281  -0.000012  -0.000002   0.000041  -0.000306
     3  C    0.000000   0.000019   0.000054   0.000000  -0.000019   0.000028
     4  C    0.000005  -0.000082  -0.007739   0.000000   0.007596  -0.001020
     5  C   -0.000131   0.002481  -0.042642   0.004743  -0.007015  -0.004083
     6  H    0.000000   0.000000   0.000001   0.000000  -0.000004   0.000000
     7  H   -0.000001  -0.000018   0.000006   0.000000   0.000000  -0.000006
     8  H   -0.000013  -0.001417   0.004633  -0.000041   0.000158   0.002292
     9  H    0.000000   0.000005   0.002704  -0.000329   0.003363   0.000164
    10  H   -0.000065  -0.000169   0.005183  -0.000121  -0.000170  -0.000130
    11  O    0.000000  -0.000001   0.000093   0.000003  -0.000530   0.000045
    12  O   -0.000007   0.000008  -0.000002   0.000000   0.000000   0.000006
    13  O   -0.031549  -0.034745  -0.000187  -0.000007   0.000019  -0.000100
    14  O    0.000074   0.007163   0.233696  -0.031409  -0.034912  -0.037816
    15  C    0.000000   0.000000   0.000412  -0.000001   0.000042  -0.000010
    16  H    0.000000   0.000000  -0.000013  -0.000002  -0.000030   0.000003
    17  H    0.000000   0.000000  -0.000004   0.000000   0.000017   0.000000
    18  O    0.000000   0.000000  -0.000004   0.000000  -0.000001   0.000000
    19  C    0.000046  -0.000006   0.000000   0.000000   0.000000   0.000000
    20  H   -0.000002   0.000000   0.000000   0.000000   0.000000   0.000000
    21  H    0.000000   0.000000   0.000000   0.000000   0.000000   0.000000
    22  H   -0.000102   0.000038   0.000000   0.000000   0.000000   0.000000
    23  C    0.383882   0.366967  -0.000500  -0.000001  -0.000001   0.001643
    24  H   -0.027713  -0.042244  -0.000277   0.000009   0.000008   0.000417
    25  H    0.517767  -0.029950   0.000030   0.000000   0.000000  -0.000044
    26  H   -0.029950   0.565554  -0.000672   0.000014   0.000180  -0.000689
    27  C    0.000030  -0.000672   4.935824   0.387801   0.360025   0.368413
    28  H    0.000000   0.000014   0.387801   0.505679  -0.027584  -0.031235
    29  H    0.000000   0.000180   0.360025  -0.027584   0.586623  -0.045757
    30  H   -0.000044  -0.000689   0.368413  -0.031235  -0.045757   0.578946
    31  C    0.000000   0.000000   0.000000   0.000000   0.000000   0.000000
    32  H    0.000000   0.000000   0.000000   0.000000   0.000000   0.000000
    33  H    0.000000   0.000000   0.000000   0.000000   0.000000   0.000000
    34  H    0.000000   0.000000   0.000000   0.000000   0.000000   0.000000
              31         32         33         34
     1  C   -0.000003   0.000006  -0.000005   0.000002
     2  C    0.000221   0.000043  -0.000005  -0.000017
     3  C   -0.000313   0.000013  -0.000064   0.000035
     4  C    0.005613  -0.000249   0.000068  -0.000110
     5  C    0.000090  -0.000009   0.000031  -0.000045
     6  H    0.000000   0.000000  -0.000001   0.000000
     7  H   -0.000334  -0.000155   0.000072   0.000041
     8  H    0.000000   0.000000   0.000000   0.000000
     9  H   -0.000145   0.000003   0.000005   0.000008
    10  H   -0.000274   0.000003   0.000048  -0.000117
    11  O    0.000061   0.000000   0.000012  -0.000003
    12  O   -0.000001  -0.000001   0.000000   0.000000
    13  O    0.000000   0.000000   0.000000   0.000000
    14  O   -0.000001   0.000000   0.000000  -0.000001
    15  C   -0.039884   0.005322  -0.006672  -0.006566
    16  H   -0.003320  -0.000120  -0.001802   0.009392
    17  H   -0.003953  -0.000112   0.010239  -0.001946
    18  O    0.239320  -0.030907  -0.035372  -0.035210
    19  C    0.000000   0.000000   0.000000   0.000000
    20  H    0.000000   0.000000   0.000000   0.000000
    21  H    0.000001   0.000004   0.000000   0.000000
    22  H    0.000000   0.000000   0.000000   0.000000
    23  C    0.000000   0.000000   0.000000   0.000000
    24  H    0.000000   0.000000   0.000000   0.000000
    25  H    0.000000   0.000000   0.000000   0.000000
    26  H    0.000000   0.000000   0.000000   0.000000
    27  C    0.000000   0.000000   0.000000   0.000000
    28  H    0.000000   0.000000   0.000000   0.000000
    29  H    0.000000   0.000000   0.000000   0.000000
    30  H    0.000000   0.000000   0.000000   0.000000
    31  C    4.890089   0.385225   0.369499   0.371853
    32  H    0.385225   0.517086  -0.029806  -0.029495
    33  H    0.369499  -0.029806   0.572612  -0.042621
    34  H    0.371853  -0.029495  -0.042621   0.568314
 Mulliken charges:
               1
     1  C    0.107773
     2  C    0.034906
     3  C    0.297795
     4  C    0.022052
     5  C    0.112802
     6  H    0.278138
     7  H    0.247621
     8  H    0.176682
     9  H    0.242093
    10  H    0.208479
    11  O   -0.305010
    12  O   -0.484429
    13  O   -0.481757
    14  O   -0.481987
    15  C   -0.034897
    16  H    0.193595
    17  H    0.185193
    18  O   -0.490910
    19  C   -0.229154
    20  H    0.186861
    21  H    0.166743
    22  H    0.180852
    23  C   -0.228082
    24  H    0.163071
    25  H    0.183145
    26  H    0.171941
    27  C   -0.240982
    28  H    0.192396
    29  H    0.158931
    30  H    0.166490
    31  C   -0.213745
    32  H    0.183149
    33  H    0.163762
    34  H    0.166485
 Sum of Mulliken charges =   1.00000
 Mulliken charges with hydrogens summed into heavy atoms:
               1
     1  C    0.284455
     2  C    0.282527
[...]
 10,-0.00000079,-0.00002820,0.00007706,0.00001952,-0.00004191,0.0000659
 4,0.00003927,-0.00005019,0.00000647,-0.00005193,0.00003542,-0.00000392
 ,0.00000683,-0.00000204,0.00000506,0.00000548,-0.00000657,-0.00000032,
 0.00000523,-0.00000626,0.00012305,0.00011335,0.00003388,-0.00003639,0.
 00000235,0.00002961,-0.00002335,-0.00003791,0.00000209,-0.00007993,-0.
 00003196,-0.00006790,-0.02073778,-0.06040343,-0.03258706,-0.01857216,-
 0.00137336,-0.02586597,0.02552157,0.05704583,0.00069696,0.00021534,0.0
 0008602,-0.00011185,0.00003297,0.00007197,-0.00020439,0.00018586,-0.00
 027470,-0.00051062,0.00120310,0.00064649,-0.00253033,-0.00547990,0.000
 15713,-0.00003089,-0.00003232,0.00003342,-0.00003081,-0.00004803,-0.00
 002614,-0.00009698,0.00009740,-0.00010494,0.00124988,-0.00006778,0.000
 44717,0.00028433,0.00031792,0.00014173,0.00034457,0.00016499,0.0007682
 7,-0.00006400,0.00027375,0.00005155,-0.00009611,-0.00005902,0.00003917
 ,-0.00413012,0.00685208,-0.03448608,0.00046005,-0.00033801,0.00004545,
 -0.00001039,0.00001779,-0.00000127,0.00005067,0.00003197,-0.00003328,-
 0.00015530,-0.00013934,0.00020201,0.00002735,-0.00006409,0.00008855,-0
 .00000807,0.00001732,-0.00000706,0.00000306,0.00001618,-0.00001344,0.0
 0000613,-0.00001188,-0.00000862,0.00012016,-0.00010100,-0.00000161,-0.
 00004139,0.00004729,0.00002088,-0.00003938,0.00003308,-0.00000138,0.00
 019801,0.00003022,0.00006424,-0.11490139,-0.02984069,-0.21569443,-0.00
 458390,-0.00157633,-0.00373602,0.12341739,0.02877934,0.24609709,-0.000
 86992,0.00006866,0.00079604,0.00039650,-0.00012516,-0.00027535,-0.0002
 7164,0.00029309,-0.00016346,-0.00012768,0.00028273,0.00028147,0.000697
 72,0.00408466,0.00029712,0.00002701,-0.00003590,0.00002891,0.00007932,
 0.00017697,0.00004338,0.00091620,-0.00038196,-0.00068987,0.00032385,0.
 00006005,0.00001392,0.00000398,-0.00039868,0.00000693,0.00000081,-0.00
 051708,-0.00029665,0.00005046,-0.00020236,-0.00003256,0.00019899,0.000
 01164,-0.00045065,-0.01314327,-0.00515620,0.01441827,0.00018872,0.0000
 4940,-0.00011119,0.00003966,-0.00001279,-0.00000848,-0.00005943,-0.000
 03569,0.00001985,-0.00018506,-0.00017844,0.00011351,0.00000001,0.00000
 842,-0.00003274,0.00000294,-0.00001091,0.00000635,-0.00000017,-0.00000
 301,0.00000470,-0.00000094,-0.00000636,0.00000653,-0.00003719,0.000220
 26,0.00008139,-0.00029848,0.00017404,-0.00020458,0.00003301,0.00008164
 ,-0.00000751,-0.00003859,-0.00009732,0.00005705,-0.26942829,0.09114015
 ,0.02243504,0.00359919,-0.00007394,-0.00139794,-0.01528217,0.00838302,
 0.00068277,0.29312847,0.00041894,-0.00096104,-0.00054176,0.00012009,0.
 00042826,-0.00004159,-0.00015944,0.00004431,-0.00009550,-0.00009861,-0
 .00016575,0.00020100,-0.00155024,0.00240559,0.00009180,0.00001446,-0.0
 0000414,0.00000016,-0.00001425,0.00001517,0.00002318,-0.00037832,-0.00
 294939,0.00064432,0.00017551,0.00007582,-0.00005661,0.00020466,-0.0001
 8075,0.00002511,0.00001365,-0.00006390,-0.00005160,-0.00007274,0.00010
 723,0.00003774,-0.00001309,0.00013983,0.00019105,-0.01879433,0.0070880
 9,0.00581955,0.00006775,-0.00001641,0.00003233,0.00002299,0.00000868,0
 .00000013,0.00000130,-0.00000044,-0.00000435,-0.00002799,-0.00002622,0
 .00000690,0.00001304,-0.00003939,0.00004356,-0.00000485,0.00000647,-0.
 00000227,0.00000652,0.00000375,-0.00000466,0.00000169,-0.00000433,-0.0
 0000536,-0.00007693,-0.00004395,0.00002077,0.00031121,-0.00042034,0.00
 020598,0.00004272,0.00002403,-0.00005929,-0.00009887,-0.00014281,0.000
 16979,0.09367830,-0.09320181,-0.01186447,0.02979488,-0.00979245,-0.002
 16799,-0.00577474,0.00290532,-0.00048544,-0.09781095,0.09477159,0.0000
 8627,0.00062087,0.00117383,-0.00019643,-0.00014876,0.00001990,-0.00004
 421,-0.00006317,-0.00008746,-0.00046409,0.00068694,-0.00037495,-0.0008
 6884,-0.00485167,-0.00016449,-0.00002571,-0.00000853,0.00000399,-0.000
 01800,-0.00003146,-0.00002249,-0.00003430,0.00046446,-0.00014305,0.000
 23790,0.00001212,-0.00000090,-0.00002747,0.00031723,-0.00005419,0.0002
 2496,0.00023102,0.00029308,-0.00007693,0.00028919,0.00000957,-0.000514
 80,-0.00014648,-0.00043763,0.03443624,-0.00224426,-0.01458551,0.000173
 95,-0.00018668,0.00004734,-0.00004272,0.00001202,0.00000341,0.00005190
 ,0.00003225,-0.00001654,0.00004585,0.00002458,0.00003043,0.00003583,-0
 .00006960,0.00010055,-0.00000763,0.00001638,-0.00000896,0.00000110,0.0
 0001681,-0.00001786,0.00000199,0.00000349,-0.00001749,0.00049072,0.000
 69546,0.00038514,-0.00019848,0.00030045,-0.00027499,-0.00006737,-0.000
 26591,0.00000767,0.00018527,-0.00014829,-0.00048347,0.02029140,-0.0099
 4500,-0.05356668,0.00689404,-0.00379092,0.00060106,-0.02496913,0.01035
 301,0.00539315,-0.03557529,0.00786782,0.06213815,-0.00087585,0.0000952
 2,-0.00024673,-0.00031187,0.00100215,0.00063797,-0.00248045,0.00085198
 ,0.00079111,-0.00079971,0.00375574,-0.00120060,-0.00105623,-0.00135841
 ,-0.00043870,-0.00004184,-0.00016465,0.00019358,-0.00067597,0.00029603
 ,-0.00008731,0.00016087,-0.00001457,-0.00001759,0.00123193,0.00020089,
 -0.00095186,-0.00045541,-0.00034839,-0.00013941,0.00165336,0.00007826,
 -0.00034758,0.00076056,-0.00094059,-0.00009100,0.00108611,-0.00002010,
 0.00059325,0.00075812,0.00103922,-0.00023609,0.00127200,-0.00859615,0.
 00244876,0.00105857,0.00464181,-0.00222970,0.00208177,0.00555976,-0.00
 331111,-0.17638650,-0.04462035,0.06803596,-0.00007966,0.00055278,-0.00
 037601,0.00005442,-0.00008379,0.00002192,-0.00005236,-0.00003639,0.000
 07074,-0.00000912,-0.00005640,0.00006248,-0.00055804,-0.00033657,-0.00
 001663,0.00006567,0.00004917,-0.00003989,0.00009124,0.00002545,0.00005
 048,0.00002695,0.00007615,-0.00003383,-0.00039337,-0.00022993,0.000392
 32,0.00006687,0.00010364,-0.00003464,0.00001197,-0.00005539,0.00002185
 ,0.00011201,-0.00000932,-0.00004864,0.50303485,-0.00062832,-0.00016705
 ,-0.00028225,0.00005621,0.00005706,0.00061559,-0.00185174,0.00020794,0
 .00193094,0.00070667,-0.00596152,0.00224319,-0.00007635,-0.00045167,0.
 00030285,-0.00011425,-0.00004629,0.00006170,-0.00036751,0.00067871,-0.
 00059783,0.00011849,0.00002729,0.00001324,-0.00104332,0.00009198,0.000
 49850,-0.00026854,-0.00022101,-0.00030121,0.00108068,0.00137815,-0.000
 88586,0.00079661,-0.00060094,-0.00022694,0.00050366,0.00005527,0.00029
 767,0.00031316,0.00051157,-0.00024799,-0.03156701,-0.02660925,0.024041
 66,-0.00140525,0.00247922,0.00085075,-0.00039977,0.00279456,-0.0015110
 5,-0.00912512,-0.09113921,0.01974462,-0.00006533,0.00051505,-0.0003384
 9,0.00002587,-0.00006870,0.00003359,-0.00005350,-0.00005297,0.00004459
 ,0.00000732,-0.00004354,0.00004918,-0.00028806,-0.00016054,-0.00000428
 ,0.00003244,0.00002286,-0.00002097,0.00004811,0.00001798,0.00002797,0.
 00002116,0.00003920,-0.00000944,-0.00013539,-0.00009915,0.00029878,0.0
 0001835,0.00004458,-0.00004491,-0.00000830,-0.00001295,-0.00007074,0.0
 0002779,-0.00000960,-0.00005085,-0.05182904,0.60543629,0.00078657,-0.0
 0016969,0.00008056,0.00022997,-0.00024533,-0.00035399,0.00069431,-0.00
 059964,-0.00036537,-0.00012723,0.00058148,-0.00239987,0.00070886,0.000
 38376,0.00014072,0.00004675,0.00005747,-0.00006245,0.00063969,-0.00059
 516,0.00019412,-0.00016024,0.00002270,0.00000270,0.00022952,0.00008132
 ,0.00042011,0.00064244,0.00058420,0.00066437,-0.00063996,0.00120364,0.
 00020284,-0.00061259,0.00061410,0.00016658,-0.00072253,0.00004199,-0.0
 0040230,-0.00066841,-0.00081496,0.00056416,0.01472686,0.01516333,-0.01
 872636,-0.00162903,-0.00386184,0.00370992,0.00254192,-0.00129678,0.001
 68427,0.04949981,0.03357868,-0.09848740,0.00008908,-0.00041964,0.00030
 835,-0.00002856,0.00006076,-0.00002388,0.00003777,0.00004250,-0.000039
 63,-0.00000263,0.00002395,-0.00004660,0.00036522,0.00023706,0.00003411
 ,-0.00004345,-0.00003638,0.00002010,-0.00006709,-0.00001572,-0.0000339
 3,-0.00001504,-0.00005396,0.00002714,0.00019579,0.00006374,-0.00040079
 ,-0.00006680,-0.00008748,0.00006577,0.00000272,0.00003785,0.00002427,-
 0.00007651,-0.00000346,0.00006271,0.05631314,0.00501028,0.55470974,0.0
 0006083,-0.00003679,0.00001057,-0.00002320,-0.00011426,-0.00007121,0.0
 0023836,-0.00015584,0.00017540,0.00048802,-0.00175277,0.00078893,0.000
 23729,0.00014925,0.00011420,-0.00001908,0.00001509,-0.00001267,-0.0000
 5430,-0.00001067,-0.00000336,-0.00000254,0.00001081,0.00000387,-0.0004
 7466,-0.00001176,0.00028001,0.00002260,0.00001220,-0.00002416,-0.00011
 789,0.00018774,-0.00012799,0.00001258,0.00006303,-0.00003986,-0.000073
 51,0.00003228,-0.00004986,-0.00006156,-0.00005841,-0.00000210,-0.00411
 489,-0.00109148,0.00217689,-0.00011826,-0.00018745,-0.00006515,0.00016
 341,-0.00022989,0.00045578,0.00351498,-0.03337830,0.01703878,-0.000015
 00,-0.00003903,0.00002456,0.00000378,0.00000695,-0.00000678,0.00000451
 ,0.00001165,0.00000536,-0.00000762,0.00000071,-0.00000097,0.00002345,0
 .00001650,-0.00000161,-0.00000171,-0.00000223,0.00000030,-0.00000740,-
 0.00000160,-0.00000276,0.00000141,-0.00000267,0.00000452,0.00003741,0.
 00001320,0.00000122,-0.00000932,-0.00000789,-0.00000275,-0.00000547,0.
 00000557,-0.00002128,-0.00001475,-0.00000197,-0.00000328,-0.07481707,0
 .08013445,-0.03533899,0.08017102,0.00012425,-0.00002524,0.00003462,-0.
 00002462,-0.00008527,-0.00007326,0.00026214,-0.00018926,0.00002193,0.0
 0043332,-0.00069314,0.00023374,0.00014458,0.00015082,0.00012555,0.0000
 0330,0.00002633,-0.00002582,0.00004276,-0.00005294,0.00008390,-0.00001
 724,0.00000654,0.00000130,-0.00023166,-0.00001403,0.00013987,0.0000458
 4,0.00001229,0.00003387,-0.00026293,0.00017435,0.00003659,-0.00008908,
 0.00011553,-0.00000567,-0.00012504,0.00002618,-0.00009111,-0.00011004,
 -0.00011732,0.00001668,-0.00258787,0.00225943,-0.00010085,0.00006428,0
 .00014188,-0.00012108,0.00013545,-0.00006651,0.00012434,-0.00238762,-0
 .01183694,0.00762129,0.00001224,-0.00008029,0.00005848,-0.00000330,0.0
 0001111,-0.00000827,0.00000972,0.00001290,-0.00000252,-0.00000826,0.00
 000393,-0.00000729,0.00005449,0.00003162,-0.00000019,-0.00000486,-0.00
 000462,0.00000164,-0.00001365,-0.00000289,-0.00000596,-0.00000180,-0.0
 0000724,0.00000585,0.00005227,0.00002535,-0.00004241,-0.00000886,-0.00
 001194,0.00000319,-0.00000296,0.00000680,-0.00000816,-0.00001657,0.000
 00073,0.00000516,0.06914669,-0.26681283,0.09028580,-0.07058940,0.28657
 851,-0.00008153,0.00004701,0.00002293,0.00001506,0.00007942,0.00005103
 ,-0.00022436,0.00017122,-0.00004486,-0.00024926,0.00125922,-0.00005564
 ,-0.00011944,-0.00015055,-0.00011900,0.00001725,-0.00000853,0.00000227
 ,0.00001249,0.00006418,0.00000851,0.00001075,-0.00001114,-0.00000881,0
 .00029350,-0.00000556,-0.00019236,-0.00001498,-0.00001505,-0.00000456,
 0.00010230,-0.00012961,0.00008745,0.00002957,-0.00010197,0.00000510,0.
 00010007,-0.00002326,0.00004578,0.00008860,0.00009540,-0.00001479,0.00
 310270,-0.00045229,-0.00055115,0.00006682,0.00047255,0.00001072,-0.000
 01864,-0.00021927,0.00010554,-0.00005433,0.01927702,-0.01031888,0.0000
 2494,0.00007316,-0.00003532,-0.00000230,-0.00001093,0.00000475,-0.0000
 0811,-0.00001569,0.00000892,-0.00000625,-0.00000708,0.00000356,-0.0000
 4480,-0.00002655,-0.00000028,0.00000612,0.00000406,-0.00000463,0.00000
 639,0.00000212,0.00000406,0.00000029,0.00000393,-0.00000375,-0.0000450
 9,-0.00001975,0.00002865,0.00000901,0.00000977,-0.00000121,0.00000231,
 -0.00000667,0.00001048,0.00001484,0.00000036,-0.00000154,-0.02926676,0
 .08610327,-0.08906559,0.02599086,-0.10349256,0.09451595,0.00028733,-0.
 00003101,0.00003909,0.00010076,-0.00005431,-0.00013012,0.00025597,-0.0
 0015437,-0.00036580,0.00040388,-0.00029475,-0.00005490,0.00041654,0.00
 020633,-0.00014868,0.00000491,0.00002165,-0.00001202,0.00020541,-0.000
 25388,0.00006521,-0.00005916,0.00000390,0.00000012,-0.00014371,0.00001
 267,0.00017452,0.00021219,0.00020781,0.00021349,-0.00017112,0.00011295
 ,0.00007661,-0.00023935,0.00021903,0.00009132,-0.00023568,-0.00000675,
 -0.00010875,-0.00020444,-0.00026007,0.00020922,0.00017799,0.00522275,-
 0.00271936,-0.00000272,-0.00067813,0.00019927,0.00053340,-0.00142677,0
 .00099342,-0.03592210,-0.01202242,-0.00419100,0.00002779,-0.00014886,0
 .00010464,-0.00001302,0.00002185,-0.00000654,0.00001336,0.00001176,-0.
 00002451,0.00000739,0.00001236,-0.00001624,0.00012988,0.00008020,0.000
 00905,-0.00001702,-0.00001202,0.00001087,-0.00001969,-0.00000561,-0.00
 001141,-0.00000506,-0.00001647,0.00000731,0.00007247,0.00002575,-0.000
 13121,-0.00002285,-0.00002844,0.00002114,-0.00000168,0.00001042,0.0000
 0680,-0.00002733,-0.00000193,0.00001862,-0.19171426,-0.01914819,-0.123
 93750,-0.00429852,-0.00043680,-0.00604382,0.22185593,0.00006313,0.0000
 2401,0.00004881,0.00001151,0.00002769,-0.00002761,0.00005167,0.0000313
 3,-0.00011558,0.00014494,-0.00001037,0.00018009,0.00011189,-0.00008648
 ,-0.00015027,0.00000668,-0.00000158,-0.00000152,0.00003910,-0.00007780
 ,0.00003488,-0.00001371,0.00000131,-0.00000339,-0.00003767,0.00000475,
 0.00007053,0.00005470,0.00003103,0.00008513,-0.00001152,-0.00005697,-0
 .00000980,-0.00004961,0.00003025,0.00001569,-0.00001203,-0.00001222,-0
 .00001296,-0.00004713,-0.00003588,0.00007296,-0.00262376,0.00224032,-0
 .00312792,0.00008893,-0.00027097,0.00001085,0.00085247,0.00012392,0.00
 053042,-0.01494389,-0.00281899,-0.00171714,0.00001058,-0.00003211,0.00
 002288,-0.00000033,0.00000428,-0.00000340,0.00000288,0.00000488,0.0000
 0214,-0.00000482,0.00000032,-0.00000339,0.00001330,0.00000561,0.000001
 33,-0.00000108,-0.00000076,0.00000059,-0.00000265,-0.00000062,-0.00000
 139,-0.00000085,-0.00000151,0.00000035,-0.00000316,-0.00000538,-0.0000
 2398,-0.00000569,-0.00000522,0.00000557,-0.00000057,0.00000134,0.00000
 279,-0.00000380,-0.00000247,0.00000533,-0.01739355,-0.05776728,-0.0173
 5046,0.02197430,0.00611904,0.01847993,0.02753313,0.05348232,-0.0000751
 3,-0.00000157,-0.00004020,-0.00000158,-0.00003347,0.00001274,0.0000610
 7,0.00001263,0.00003113,0.00014563,-0.00011492,0.00021821,-0.00002713,
 0.00011560,0.00004210,-0.00000383,0.00000018,-0.00000328,-0.00004806,0
 .00008205,-0.00002898,0.00001175,-0.00000468,0.00000303,-0.00003779,-0
 .00002325,-0.00004944,-0.00004205,-0.00002091,-0.00013664,-0.00003295,
 -0.00008444,0.00005360,0.00005164,-0.00003596,-0.00001856,0.00002188,-
 0.00000236,0.00003841,0.00008777,0.00006639,-0.00006418,0.00233425,-0.
 00191744,0.00339092,-0.00013483,0.00019626,-0.00058776,-0.00141830,-0.
 00076756,0.00001364,0.02143206,0.00640277,0.01365851,-0.00001014,0.000
 03517,-0.00003076,-0.00000068,-0.00000434,0.00000524,-0.00000294,-0.00
 000715,-0.00000122,0.00000609,0.00000040,0.00000323,-0.00001050,-0.000
 00755,-0.00000362,0.,0.00000198,0.00000232,0.00000609,-0.00000010,0.00
 000141,0.00000088,0.00000328,-0.00000331,0.00000193,0.00001104,0.00002
 933,0.00000647,0.00000680,-0.00000903,0.00000077,-0.00000200,-0.000000
 65,0.00000574,0.00000259,-0.00000579,-0.12857281,-0.01782057,-0.164690
 37,-0.00760994,-0.00249326,-0.00635199,0.13210195,0.01779524,0.1682476
 0,0.00020740,0.00006203,0.00009877,0.00004700,-0.00007719,-0.00019351,
 0.00065101,-0.00015978,-0.00053654,0.00006484,0.00004090,-0.00004709,0
 .00019522,0.00018473,0.00011215,0.00001062,0.00001095,-0.00001910,0.00
 014383,-0.00015108,0.00017068,-0.00003083,-0.00001579,-0.00000878,-0.0
 0011060,-0.00000780,0.00007671,0.00003913,0.00006089,0.00007180,-0.000
 26516,-0.00031197,0.00006009,-0.00024693,0.00019104,0.00005846,-0.0001
 8396,-0.00001114,-0.00013002,-0.00011229,-0.00017416,0.00001089,0.0001
 2062,0.00494895,-0.00209821,0.00023371,-0.00134500,-0.00027631,-0.0000
 5325,-0.00070958,0.00018749,-0.01949176,0.01095438,0.03219061,0.000028
 39,-0.00014509,0.00010460,-0.00001168,0.00002001,-0.00000947,0.0000146
 8,0.00000996,-0.00001695,-0.00000352,0.00001533,-0.00001614,0.00009532
 ,0.00005934,0.00000218,-0.00000921,-0.00000922,0.00000342,-0.00001991,
 -0.00000500,-0.00000900,-0.00000795,-0.00001731,0.00000647,0.00005400,
 0.00003132,-0.00005802,-0.00001003,-0.00001572,0.00000759,-0.00000357,
 0.00000812,-0.00000279,-0.00001396,0.00000085,0.00000728,-0.06281954,0
 .03448402,0.03638617,-0.00074288,0.00639124,0.00628578,0.00839250,-0.0
 1580338,-0.01824729,0.07383877,-0.00001911,0.00000903,-0.00001293,-0.0
 0001412,0.00006937,0.00001200,-0.00001538,-0.00007511,-0.00011430,-0.0
 0014212,0.00040952,0.00007672,-0.00003033,-0.00001680,-0.00004368,-0.0
 0001805,-0.00002442,0.00002247,-0.00000247,-0.00003647,0.00004356,0.00
 000414,-0.00000230,0.00000072,0.00000491,-0.00002681,-0.00003200,-0.00
 003120,-0.00001379,-0.00002297,0.00002741,-0.00019905,0.00011350,-0.00
 000777,0.,0.00000943,0.00004047,-0.00000065,0.00003676,0.00004533,0.00
 004466,-0.00001020,-0.00078893,0.00439129,0.00203316,0.00061844,0.0003
 1369,-0.00163007,-0.00009386,-0.00038623,-0.00008460,-0.00597720,0.010
 27071,0.01417774,-0.00001657,-0.00001677,0.,0.00000411,0.00000164,-0.0
 0000225,0.00000160,0.00000743,-0.00000102,0.00000324,0.00000168,0.0000
 0132,-0.00001774,-0.00001390,-0.00000293,0.00000126,0.00000222,0.00000
 123,0.00000552,-0.00000002,0.00000167,0.00000117,0.00000474,-0.0000027
 6,-0.00001058,-0.00000717,0.00001544,0.00000270,0.00000471,-0.00000185
 ,-0.00000023,-0.00000284,0.00000334,0.00000463,0.00000033,-0.00000301,
 0.03861866,-0.16413322,-0.12252412,0.00503869,-0.01570288,-0.02144618,
 0.00127825,-0.00094579,-0.00139084,-0.03851486,0.16607319,-0.00014964,
 -0.00003758,-0.00007198,-0.00003961,0.00006092,0.00013969,-0.00044370,
 0.00006289,0.00041122,-0.00005148,0.00024960,-0.00001482,-0.00014193,-
 0.00015443,-0.00000849,-0.00000735,0.00000632,0.00000736,-0.00011750,0
 .00012024,-0.00013403,0.00002510,0.00000873,0.00000522,0.00012360,0.00
 000777,-0.00008887,-0.00006296,-0.00008179,-0.00006573,0.00003470,0.00
 028081,0.00009662,0.00017277,-0.00013198,-0.00003970,0.00013858,0.0000
 1776,0.00008740,0.00008110,0.00014598,-0.00003709,0.00037417,-0.004066
 63,0.00156334,-0.00000836,0.00128032,-0.00015429,-0.00029782,0.0001418
 2,-0.00044730,0.01670219,-0.00179488,-0.01563135,-0.00002389,0.0001018
 5,-0.00007137,0.00000818,-0.00001460,0.00000540,-0.00000959,-0.0000068
 7,0.00001043,0.00000174,-0.00001021,0.00001210,-0.00007692,-0.00004919
 ,-0.00000333,0.00000826,0.00000726,-0.00000401,0.00001357,0.00000384,0
 .00000686,0.00000584,0.00001339,-0.00000377,-0.00003557,-0.00001859,0.
 00004455,0.00001030,0.00001399,-0.00000722,0.00000315,-0.00000656,0.00
 000059,0.00000898,0.00000024,-0.00000600,0.03805331,-0.11975502,-0.187
 98400,-0.00368653,0.00764463,0.01185868,0.00355922,-0.01481672,-0.0137
 2567,-0.05417191,0.13077668,0.20424955\\0.00002257,-0.00000632,-0.0000
 0587,0.00001509,0.00001395,0.00000627,-0.00002454,-0.00000548,-0.00000
 640,0.00001227,-0.00000606,-0.00002734,-0.00001889,0.00000336,0.000007
 86,0.00000532,-0.00000163,0.00000161,-0.00000715,-0.00000224,0.0000063
 6,-0.00000087,0.00000048,0.00000194,0.00000238,0.00000180,-0.00000609,
 -0.00000565,0.00000425,-0.00000222,0.00000442,-0.00000352,0.00001709,-
 0.00000175,-0.00000796,0.00000050,-0.00000894,0.00001635,0.00000341,0.
 00002020,-0.00001871,0.00000270,-0.00000873,-0.00000611,0.00000697,0.0
 0000222,0.00000377,-0.00000299,0.00000002,0.00000532,-0.00000538,0.000
 00877,0.00001031,0.00000331,-0.00000290,-0.00000592,0.00001163,-0.0000
 0156,0.00000023,0.00000611,-0.00000284,0.00000125,0.00000773,-0.000003
 00,0.00000163,0.00000721,-0.00000283,-0.00000892,-0.00000321,0.0000014
 1,-0.00000068,0.00000033,-0.00000100,-0.00000370,-0.00000023,-0.000000
 54,0.00000118,-0.00000079,-0.00000084,-0.00000171,-0.00001038,-0.00000
 170,0.00000169,-0.00000784,0.00000540,-0.00000167,-0.00000415,0.000002
 67,-0.00000456,-0.00000203,-0.00000407,0.00000463,-0.00000557,-0.00000
 160,0.00000418,0.00000193,-0.00000224,0.00000378,-0.00000092,-0.000001
 10,0.00000700,-0.00000155\\\@


 MICHAEL FARADAY, ASKED BY A POLITICIAN WHAT GOOD
 HIS ELECTRICAL DISCOVERIES WERE, REPLIED 
 "AT PRESENT I DO NOT KNOW, BUT ONE DAY YOU WILL BE
 ABLE TO TAX THEM."
 Job cpu time:       0 days  1 hours 16 minutes 39.7 seconds.
 Elapsed time:       0 days  0 hours 19 minutes 26.8 seconds.
 File lengths (MBytes):  RWF=    378 Int=      0 D2E=      0 Chk=     17 Scr=      1
 Normal termination of Gaussian 16 at Fri May 24 08:52:26 2019.
