 Entering Gaussian System, Link 0=g16
 Input=clay-glucose_cation-062-b3lyp_d3bj-631gd-pcm_thf.gjf
 Output=clay-glucose_cation-062-b3lyp_d3bj-631gd-pcm_thf.out
 Initial command:
 /n/sw/g16_nehalem/g16/l1.exe "/scratch/Gau-23822.inp" -scrdir="/scratch/"
 Entering Link 1 = /n/sw/g16_nehalem/g16/l1.exe PID=     23823.
  
 Copyright (c) 1988,1990,1992,1993,1995,1998,2003,2009,2016,
            Gaussian, Inc.  All Rights Reserved.
  
 This is part of the Gaussian(R) 16 program.  It is based on
 the Gaussian(R) 09 system (copyright 2009, Gaussian, Inc.),
 the Gaussian(R) 03 system (copyright 2003, Gaussian, Inc.),
 the Gaussian(R) 98 system (copyright 1998, Gaussian, Inc.),
 the Gaussian(R) 94 system (copyright 1995, Gaussian, Inc.),
 the Gaussian 92(TM) system (copyright 1992, Gaussian, Inc.),
 the Gaussian 90(TM) system (copyright 1990, Gaussian, Inc.),
 the Gaussian 88(TM) system (copyright 1988, Gaussian, Inc.),
 the Gaussian 86(TM) system (copyright 1986, Carnegie Mellon
 University), and the Gaussian 82(TM) system (copyright 1983,
 Carnegie Mellon University). Gaussian is a federally registered
 trademark of Gaussian, Inc.
  
 This software contains proprietary and confidential information,
 including trade secrets, belonging to Gaussian, Inc.
  
 This software is provided under written license and may be
 used, copied, transmitted, or stored only in accord with that
 written license.
  
 The following legend is applicable only to US Government
 contracts under FAR:
  
                    RESTRICTED RIGHTS LEGEND
  
 Use, reproduction and disclosure by the US Government is
 subject to restrictions as set forth in subparagraphs (a)
 and (c) of the Commercial Computer Software - Restricted
 Rights clause in FAR 52.227-19.
  
 Gaussian, Inc.
 340 Quinnipiac St., Bldg. 40, Wallingford CT 06492
  
  
 ---------------------------------------------------------------
 Warning -- This program may not be used in any manner that
 competes with the business of Gaussian, Inc. or will provide
 assistance to any competitor of Gaussian, Inc.  The licensee
 of this program is prohibited from giving any competitor of
 Gaussian, Inc. access to this program.  By using this program,
 the user acknowledges that Gaussian, Inc. is engaged in the
 business of creating and licensing software in the field of
 computational chemistry and represents and warrants to the
 licensee that it is not a competitor of Gaussian, Inc. and that
 it will not use this program in any manner prohibited above.
 ---------------------------------------------------------------
  

 Cite this work as:
 Gaussian 16, Revision A.03,
 M. J. Frisch, G. W. Trucks, H. B. Schlegel, G. E. Scuseria, 
 M. A. Robb, J. R. Cheeseman, G. Scalmani, V. Barone, 
 G. A. Petersson, H. Nakatsuji, X. Li, M. Caricato, A. V. Marenich, 
 J. Bloino, B. G. Janesko, R. Gomperts, B. Mennucci, H. P. Hratchian, 
 J. V. Ortiz, A. F. Izmaylov, J. L. Sonnenberg, D. Williams-Young, 
 F. Ding, F. Lipparini, F. Egidi, J. Goings, B. Peng, A. Petrone, 
 T. Henderson, D. Ranasinghe, V. G. Zakrzewski, J. Gao, N. Rega, 
 G. Zheng, W. Liang, M. Hada, M. Ehara, K. Toyota, R. Fukuda, 
 J. Hasegawa, M. Ishida, T. Nakajima, Y. Honda, O. Kitao, H. Nakai, 
 T. Vreven, K. Throssell, J. A. Montgomery, Jr., J. E. Peralta, 
 F. Ogliaro, M. J. Bearpark, J. J. Heyd, E. N. Brothers, K. N. Kudin, 
 V. N. Staroverov, T. A. Keith, R. Kobayashi, J. Normand, 
 K. Raghavachari, A. P. Rendell, J. C. Burant, S. S. Iyengar, 
 J. Tomasi, M. Cossi, J. M. Millam, M. Klene, C. Adamo, R. Cammi, 
 J. W. Ochterski, R. L. Martin, K. Morokuma, O. Farkas, 
 J. B. Foresman, and D. J. Fox, Gaussian, Inc., Wallingford CT, 2016.
 
 ******************************************
 Gaussian 16:  ES64L-G16RevA.03 25-Dec-2016
                24-May-2019 
 ******************************************
 %nprocshared=4
 Will use up to    4 processors via shared memory.
 %mem=3GB
 -------------------------------------------------------------------
 #p b3lyp 6-31g* opt freq=noraman scrf=(pcm,solvent=tetrahydrofuran)
 -------------------------------------------------------------------
 1/18=20,19=15,26=3,38=1/1,3;
 2/9=110,12=2,17=6,18=5,40=1/2;
 3/5=1,6=6,7=1,11=2,25=1,30=1,70=2201,71=1,72=20,74=-5/1,2,3;
 4//1;
 5/5=2,38=5,53=20/2;
 6/7=2,8=2,9=2,10=2,28=1/1;
 7//1,2,3,16;
 1/18=20,19=15,26=3/3(2);
 2/9=110/2;
 99//99;
 2/9=110/2;
 3/5=1,6=6,7=1,11=2,25=1,30=1,70=2205,71=1,72=20,74=-5/1,2,3;
 4/5=5,16=3,69=1/1;
 5/5=2,38=5,53=20/2;
 7//1,2,3,16;
 1/18=20,19=15,26=3/3(-5);
 2/9=110/2;
 6/7=2,8=2,9=2,10=2,19=2,28=1/1;
 99/9=1/99;
 Leave Link    1 at Fri May 24 08:30:30 2019, MaxMem=   402653184 cpu:               0.2 elap:               0.1
 (Enter /n/sw/g16_nehalem/g16/l101.exe)
 -----
 title
 -----
 Symbolic Z-matrix:
 Charge =  1 Multiplicity = 1
 6                     0.73509   0.67284   0.66533 
 6                     1.61309   0.26309  -0.54251 
 6                     0.90164  -0.54741  -1.58115 
 6                    -1.21197  -0.64107  -0.37494 
 6                    -0.49251  -0.24688   0.91604 
 1                     1.44794  -0.88883  -2.4604 
 1                     2.00248   1.16952  -1.02119 
 1                     1.36489   0.64749   1.56312 
 1                    -1.75712  -1.57475  -0.23848 
 1                    -1.21019   0.37748   1.45549 
 8                    -0.26386  -1.01065  -1.48826 
 8                     2.65579  -0.63702  -0.20001 
 8                     0.20632   1.96478   0.425 
 8                    -0.2501   -1.33072   1.78728 
 6                    -2.13996   0.44546  -0.96957 
 1                    -2.51473   0.10275  -1.94319 
 1                    -1.57351   1.37009  -1.10544 
 8                    -3.18165   0.72122  -0.06787 
 6                     3.97904  -0.23316  -0.59839 
 1                     4.23243   0.72947  -0.14011 
 1                     4.6484   -1.01108  -0.23116 
 1                     4.06272  -0.16011  -1.68807 
 6                     1.08044   3.04224   0.7649 
 1                     0.53043   3.96039   0.55365 
 1                     1.34533   3.00623   1.82883 
 1                     2.00156   3.03352   0.16539 
 6                     0.49628  -2.45339   1.31368 
 1                     1.52325  -2.18496   1.04608 
 1                     0.51537  -3.16282   2.14285 
 1                     0.00862  -2.94146   0.45833 
 6                    -4.31247  -0.14536  -0.17237 
 1                    -4.06976  -1.18113   0.09896 
 1                    -5.05615   0.2365    0.52918 
 1                    -4.72601  -0.12731  -1.18903 
 
 ITRead=  0  0  0  0  0  0  0  0  0  0  0  0  0  0  0  0  0  0  0  0
 ITRead=  0  0  0  0  0  0  0  0  0  0  0  0  0  0
 MicOpt= -1 -1 -1 -1 -1 -1 -1 -1 -1 -1 -1 -1 -1 -1 -1 -1 -1 -1 -1 -1
 MicOpt= -1 -1 -1 -1 -1 -1 -1 -1 -1 -1 -1 -1 -1 -1
 NAtoms=     34 NQM=       34 NQMF=       0 NMMI=      0 NMMIF=      0
                NMic=       0 NMicF=      0.
                    Isotopes and Nuclear Properties:
 (Nuclear quadrupole moments (NQMom) in fm**2, nuclear magnetic moments (NMagM)
  in nuclear magnetons)

  Atom         1           2           3           4           5           6           7           8           9          10
 IAtWgt=          12          12          12          12          12           1           1           1           1           1
 AtmWgt=  12.0000000  12.0000000  12.0000000  12.0000000  12.0000000   1.0078250   1.0078250   1.0078250   1.0078250   1.0078250
 NucSpn=           0           0           0           0           0           1           1           1           1           1
 AtZEff=   0.0000000   0.0000000   0.0000000   0.0000000   0.0000000   0.0000000   0.0000000   0.0000000   0.0000000   0.0000000
 NQMom=    0.0000000   0.0000000   0.0000000   0.0000000   0.0000000   0.0000000   0.0000000   0.0000000   0.0000000   0.0000000
 NMagM=    0.0000000   0.0000000   0.0000000   0.0000000   0.0000000   2.7928460   2.7928460   2.7928460   2.7928460   2.7928460
 AtZNuc=   6.0000000   6.0000000   6.0000000   6.0000000   6.0000000   1.0000000   1.0000000   1.0000000   1.0000000   1.0000000

  Atom        11          12          13          14          15          16          17          18          19          20
 IAtWgt=          16          16          16          16          12           1           1          16          12           1
 AtmWgt=  15.9949146  15.9949146  15.9949146  15.9949146  12.0000000   1.0078250   1.0078250  15.9949146  12.0000000   1.0078250
 NucSpn=           0           0           0           0           0           1           1           0           0           1
 AtZEff=   0.0000000   0.0000000   0.0000000   0.0000000   0.0000000   0.0000000   0.0000000   0.0000000   0.0000000   0.0000000
 NQMom=    0.0000000   0.0000000   0.0000000   0.0000000   0.0000000   0.0000000   0.0000000   0.0000000   0.0000000   0.0000000
 NMagM=    0.0000000   0.0000000   0.0000000   0.0000000   0.0000000   2.7928460   2.7928460   0.0000000   0.0000000   2.7928460
 AtZNuc=   8.0000000   8.0000000   8.0000000   8.0000000   6.0000000   1.0000000   1.0000000   8.0000000   6.0000000   1.0000000

  Atom        21          22          23          24          25          26          27          28          29          30
 IAtWgt=           1           1          12           1           1           1          12           1           1           1
 AtmWgt=   1.0078250   1.0078250  12.0000000   1.0078250   1.0078250   1.0078250  12.0000000   1.0078250   1.0078250   1.0078250
 NucSpn=           1           1           0           1           1           1           0           1           1           1
 AtZEff=   0.0000000   0.0000000   0.0000000   0.0000000   0.0000000   0.0000000   0.0000000   0.0000000   0.0000000   0.0000000
 NQMom=    0.0000000   0.0000000   0.0000000   0.0000000   0.0000000   0.0000000   0.0000000   0.0000000   0.0000000   0.0000000
 NMagM=    2.7928460   2.7928460   0.0000000   2.7928460   2.7928460   2.7928460   0.0000000   2.7928460   2.7928460   2.7928460
 AtZNuc=   1.0000000   1.0000000   6.0000000   1.0000000   1.0000000   1.0000000   6.0000000   1.0000000   1.0000000   1.0000000

  Atom        31          32          33          34
 IAtWgt=          12           1           1           1
 AtmWgt=  12.0000000   1.0078250   1.0078250   1.0078250
 NucSpn=           0           1           1           1
 AtZEff=   0.0000000   0.0000000   0.0000000   0.0000000
 NQMom=    0.0000000   0.0000000   0.0000000   0.0000000
 NMagM=    0.0000000   2.7928460   2.7928460   2.7928460
 AtZNuc=   6.0000000   1.0000000   1.0000000   1.0000000
 Leave Link  101 at Fri May 24 08:30:30 2019, MaxMem=   402653184 cpu:               0.6 elap:               0.2
 (Enter /n/sw/g16_nehalem/g16/l103.exe)

 GradGradGradGradGradGradGradGradGradGradGradGradGradGradGradGradGradGrad
 Berny optimization.
 Initialization pass.
                           ----------------------------
                           !    Initial Parameters    !
                           ! (Angstroms and Degrees)  !
 --------------------------                            --------------------------
 ! Name  Definition              Value          Derivative Info.                !
 --------------------------------------------------------------------------------
 ! R1    R(1,2)                  1.5484         estimate D2E/DX2                !
 ! R2    R(1,5)                  1.5543         estimate D2E/DX2                !
 ! R3    R(1,8)                  1.097          estimate D2E/DX2                !
 ! R4    R(1,13)                 1.4165         estimate D2E/DX2                !
 ! R5    R(2,3)                  1.4973         estimate D2E/DX2                !
 ! R6    R(2,7)                  1.0965         estimate D2E/DX2                !
 ! R7    R(2,12)                 1.4194         estimate D2E/DX2                !
 ! R8    R(3,6)                  1.09           estimate D2E/DX2                !
 ! R9    R(3,11)                 1.2576         estimate D2E/DX2                !
 ! R10   R(4,5)                  1.5296         estimate D2E/DX2                !
 ! R11   R(4,9)                  1.0898         estimate D2E/DX2                !
 ! R12   R(4,11)                 1.5083         estimate D2E/DX2                !
 ! R13   R(4,15)                 1.5477         estimate D2E/DX2                !
 ! R14   R(5,10)                 1.0936         estimate D2E/DX2                !
 ! R15   R(5,14)                 1.4116         estimate D2E/DX2                !
 ! R16   R(12,19)                1.4397         estimate D2E/DX2                !
 ! R17   R(13,23)                1.4285         estimate D2E/DX2                !
 ! R18   R(14,27)                1.4289         estimate D2E/DX2                !
 ! R19   R(15,16)                1.0981         estimate D2E/DX2                !
 ! R20   R(15,17)                1.0928         estimate D2E/DX2                !
 ! R21   R(15,18)                1.4051         estimate D2E/DX2                !
 ! R22   R(18,31)                1.4285         estimate D2E/DX2                !
 ! R23   R(19,20)                1.0958         estimate D2E/DX2                !
 ! R24   R(19,21)                1.09           estimate D2E/DX2                !
 ! R25   R(19,22)                1.0953         estimate D2E/DX2                !
 ! R26   R(23,24)                1.0909         estimate D2E/DX2                !
 ! R27   R(23,25)                1.097          estimate D2E/DX2                !
 ! R28   R(23,26)                1.0991         estimate D2E/DX2                !
 ! R29   R(27,28)                1.0947         estimate D2E/DX2                !
 ! R30   R(27,29)                1.0914         estimate D2E/DX2                !
 ! R31   R(27,30)                1.0989         estimate D2E/DX2                !
 ! R32   R(31,32)                1.0979         estimate D2E/DX2                !
 ! R33   R(31,33)                1.0913         estimate D2E/DX2                !
 ! R34   R(31,34)                1.0977         estimate D2E/DX2                !
 ! A1    A(2,1,5)              114.6505         estimate D2E/DX2                !
 ! A2    A(2,1,8)              107.8639         estimate D2E/DX2                !
 ! A3    A(2,1,13)             108.7033         estimate D2E/DX2                !
 ! A4    A(5,1,8)              107.9255         estimate D2E/DX2                !
 ! A5    A(5,1,13)             105.7972         estimate D2E/DX2                !
 ! A6    A(8,1,13)             111.9784         estimate D2E/DX2                !
 ! A7    A(1,2,3)              114.5143         estimate D2E/DX2                !
 ! A8    A(1,2,7)              108.8527         estimate D2E/DX2                !
 ! A9    A(1,2,12)             113.3357         estimate D2E/DX2                !
 ! A10   A(3,2,7)              108.2631         estimate D2E/DX2                !
 ! A11   A(3,2,12)              99.9721         estimate D2E/DX2                !
 ! A12   A(7,2,12)             111.6339         estimate D2E/DX2                !
 ! A13   A(2,3,6)              119.4043         estimate D2E/DX2                !
 ! A14   A(2,3,11)             126.0514         estimate D2E/DX2                !
 ! A15   A(6,3,11)             114.1225         estimate D2E/DX2                !
 ! A16   A(5,4,9)              110.5122         estimate D2E/DX2                !
 ! A17   A(5,4,11)             112.9829         estimate D2E/DX2                !
 ! A18   A(5,4,15)             115.1749         estimate D2E/DX2                !
 ! A19   A(9,4,11)             101.3587         estimate D2E/DX2                !
 ! A20   A(9,4,15)             110.4665         estimate D2E/DX2                !
 ! A21   A(11,4,15)            105.3866         estimate D2E/DX2                !
 ! A22   A(1,5,4)              112.8218         estimate D2E/DX2                !
 ! A23   A(1,5,10)             105.0737         estimate D2E/DX2                !
 ! A24   A(1,5,14)             114.7251         estimate D2E/DX2                !
 ! A25   A(4,5,10)             104.7613         estimate D2E/DX2                !
 ! A26   A(4,5,14)             113.8181         estimate D2E/DX2                !
 ! A27   A(10,5,14)            104.2775         estimate D2E/DX2                !
 ! A28   A(3,11,4)             123.1488         estimate D2E/DX2                !
 ! A29   A(2,12,19)            115.5005         estimate D2E/DX2                !
 ! A30   A(1,13,23)            114.7805         estimate D2E/DX2                !
 ! A31   A(5,14,27)            119.2358         estimate D2E/DX2                !
 ! A32   A(4,15,16)            109.0379         estimate D2E/DX2                !
 ! A33   A(4,15,17)            109.3273         estimate D2E/DX2                !
 ! A34   A(4,15,18)            109.6181         estimate D2E/DX2                !
 ! A35   A(16,15,17)           109.3131         estimate D2E/DX2                !
 ! A36   A(16,15,18)           112.1618         estimate D2E/DX2                !
 ! A37   A(17,15,18)           107.3379         estimate D2E/DX2                !
 ! A38   A(15,18,31)           114.8902         estimate D2E/DX2                !
 ! A39   A(12,19,20)           110.073          estimate D2E/DX2                !
 ! A40   A(12,19,21)           105.7236         estimate D2E/DX2                !
 ! A41   A(12,19,22)           111.3582         estimate D2E/DX2                !
 ! A42   A(20,19,21)           110.1236         estimate D2E/DX2                !
 ! A43   A(20,19,22)           109.8642         estimate D2E/DX2                !
 ! A44   A(21,19,22)           109.6247         estimate D2E/DX2                !
 ! A45   A(13,23,24)           106.2733         estimate D2E/DX2                !
 ! A46   A(13,23,25)           110.7179         estimate D2E/DX2                !
 ! A47   A(13,23,26)           112.1527         estimate D2E/DX2                !
 ! A48   A(24,23,25)           109.7041         estimate D2E/DX2                !
 ! A49   A(24,23,26)           108.8805         estimate D2E/DX2                !
 ! A50   A(25,23,26)           109.0505         estimate D2E/DX2                !
 ! A51   A(14,27,28)           112.2338         estimate D2E/DX2                !
 ! A52   A(14,27,29)           105.5473         estimate D2E/DX2                !
 ! A53   A(14,27,30)           112.0325         estimate D2E/DX2                !
 ! A54   A(28,27,29)           109.1896         estimate D2E/DX2                !
 ! A55   A(28,27,30)           109.5697         estimate D2E/DX2                !
 ! A56   A(29,27,30)           108.0838         estimate D2E/DX2                !
 ! A57   A(18,31,32)           112.2863         estimate D2E/DX2                !
 ! A58   A(18,31,33)           106.2694         estimate D2E/DX2                !
 ! A59   A(18,31,34)           110.8547         estimate D2E/DX2                !
 ! A60   A(32,31,33)           108.7767         estimate D2E/DX2                !
 ! A61   A(32,31,34)           109.1282         estimate D2E/DX2                !
 ! A62   A(33,31,34)           109.4446         estimate D2E/DX2                !
 ! D1    D(5,1,2,3)             23.7726         estimate D2E/DX2                !
 ! D2    D(5,1,2,7)            145.0824         estimate D2E/DX2                !
 ! D3    D(5,1,2,12)           -90.0567         estimate D2E/DX2                !
 ! D4    D(8,1,2,3)            144.0175         estimate D2E/DX2                !
 ! D5    D(8,1,2,7)            -94.6727         estimate D2E/DX2                !
 ! D6    D(8,1,2,12)            30.1881         estimate D2E/DX2                !
 ! D7    D(13,1,2,3)           -94.3648         estimate D2E/DX2                !
 ! D8    D(13,1,2,7)            26.945          estimate D2E/DX2                !
 ! D9    D(13,1,2,12)          151.8058         estimate D2E/DX2                !
 ! D10   D(2,1,5,4)            -42.0946         estimate D2E/DX2                !
 ! D11   D(2,1,5,10)          -155.6489         estimate D2E/DX2                !
 ! D12   D(2,1,5,14)            90.4472         estimate D2E/DX2                !
 ! D13   D(8,1,5,4)           -162.3053         estimate D2E/DX2                !
 ! D14   D(8,1,5,10)            84.1404         estimate D2E/DX2                !
 ! D15   D(8,1,5,14)           -29.7635         estimate D2E/DX2                !
 ! D16   D(13,1,5,4)            77.6742         estimate D2E/DX2                !
 ! D17   D(13,1,5,10)          -35.8801         estimate D2E/DX2                !
 ! D18   D(13,1,5,14)         -149.784          estimate D2E/DX2                !
 ! D19   D(2,1,13,23)          -83.5785         estimate D2E/DX2                !
 ! D20   D(5,1,13,23)          152.8209         estimate D2E/DX2                !
 ! D21   D(8,1,13,23)           35.4912         estimate D2E/DX2                !
 ! D22   D(1,2,3,6)           -179.2834         estimate D2E/DX2                !
 ! D23   D(1,2,3,11)            -7.1979         estimate D2E/DX2                !
 ! D24   D(7,2,3,6)             59.0834         estimate D2E/DX2                !
 ! D25   D(7,2,3,11)          -128.8311         estimate D2E/DX2                !
 ! D26   D(12,2,3,6)           -57.802          estimate D2E/DX2                !
 ! D27   D(12,2,3,11)          114.2834         estimate D2E/DX2                !
 ! D28   D(1,2,12,19)         -126.4368         estimate D2E/DX2                !
 ! D29   D(3,2,12,19)          111.2418         estimate D2E/DX2                !
 ! D30   D(7,2,12,19)           -3.0908         estimate D2E/DX2                !
 ! D31   D(2,3,11,4)             9.4187         estimate D2E/DX2                !
 ! D32   D(6,3,11,4)          -178.1338         estimate D2E/DX2                !
 ! D33   D(9,4,5,1)            155.6344         estimate D2E/DX2                !
 ! D34   D(9,4,5,10)           -90.6212         estimate D2E/DX2                !
 ! D35   D(9,4,5,14)            22.6505         estimate D2E/DX2                !
 ! D36   D(11,4,5,1)            42.8608         estimate D2E/DX2                !
 ! D37   D(11,4,5,10)          156.6052         estimate D2E/DX2                !
 ! D38   D(11,4,5,14)          -90.1231         estimate D2E/DX2                !
 ! D39   D(15,4,5,1)           -78.3245         estimate D2E/DX2                !
 ! D40   D(15,4,5,10)           35.4199         estimate D2E/DX2                !
 ! D41   D(15,4,5,14)          148.6915         estimate D2E/DX2                !
 ! D42   D(5,4,11,3)           -27.7722         estimate D2E/DX2                !
 ! D43   D(9,4,11,3)          -146.029          estimate D2E/DX2                !
 ! D44   D(15,4,11,3)           98.8085         estimate D2E/DX2                !
 ! D45   D(5,4,15,16)          173.8109         estimate D2E/DX2                !
 ! D46   D(5,4,15,17)           54.3527         estimate D2E/DX2                !
 ! D47   D(5,4,15,18)          -63.0525         estimate D2E/DX2                !
 ! D48   D(9,4,15,16)          -60.1246         estimate D2E/DX2                !
 ! D49   D(9,4,15,17)         -179.5827         estimate D2E/DX2                !
 ! D50   D(9,4,15,18)           63.012          estimate D2E/DX2                !
 ! D51   D(11,4,15,16)          48.5833         estimate D2E/DX2                !
 ! D52   D(11,4,15,17)         -70.8749         estimate D2E/DX2                !
 ! D53   D(11,4,15,18)         171.7199         estimate D2E/DX2                !
 ! D54   D(1,5,14,27)          -74.9824         estimate D2E/DX2                !
 ! D55   D(4,5,14,27)           57.0874         estimate D2E/DX2                !
 ! D56   D(10,5,14,27)         170.6483         estimate D2E/DX2                !
 ! D57   D(2,12,19,20)          59.2034         estimate D2E/DX2                !
 ! D58   D(2,12,19,21)         178.112          estimate D2E/DX2                !
 ! D59   D(2,12,19,22)         -62.8927         estimate D2E/DX2                !
 ! D60   D(1,13,23,24)        -178.4242         estimate D2E/DX2                !
 ! D61   D(1,13,23,25)         -59.3509         estimate D2E/DX2                !
 ! D62   D(1,13,23,26)          62.7064         estimate D2E/DX2                !
 ! D63   D(5,14,27,28)          63.3061         estimate D2E/DX2                !
 ! D64   D(5,14,27,29)        -177.8573         estimate D2E/DX2                !
 ! D65   D(5,14,27,30)         -60.4593         estimate D2E/DX2                !
 ! D66   D(4,15,18,31)         -85.6751         estimate D2E/DX2                !
 ! D67   D(16,15,18,31)         35.597          estimate D2E/DX2                !
 ! D68   D(17,15,18,31)        155.6811         estimate D2E/DX2                !
 ! D69   D(15,18,31,32)         65.3502         estimate D2E/DX2                !
 ! D70   D(15,18,31,33)       -175.8344         estimate D2E/DX2                !
 ! D71   D(15,18,31,34)        -57.0004         estimate D2E/DX2                !
 --------------------------------------------------------------------------------
 Trust Radius=3.00D-01 FncErr=1.00D-07 GrdErr=1.00D-06 EigMax=2.50D+02 EigMin=1.00D-04
 Number of steps in this run=    177 maximum allowed number of steps=    204.
 GradGradGradGradGradGradGradGradGradGradGradGradGradGradGradGradGradGrad

 Leave Link  103 at Fri May 24 08:30:30 2019, MaxMem=   402653184 cpu:               0.1 elap:               0.1
 (Enter /n/sw/g16_nehalem/g16/l202.exe)
                          Input orientation:                          
 ---------------------------------------------------------------------
 Center     Atomic      Atomic             Coordinates (Angstroms)
 Number     Number       Type             X           Y           Z
 ---------------------------------------------------------------------
      1          6           0        0.735092    0.672836    0.665334
      2          6           0        1.613085    0.263089   -0.542509
      3          6           0        0.901636   -0.547407   -1.581149
      4          6           0       -1.211974   -0.641072   -0.374942
      5          6           0       -0.492512   -0.246883    0.916035
      6          1           0        1.447939   -0.888827   -2.460396
      7          1           0        2.002480    1.169520   -1.021194
      8          1           0        1.364889    0.647490    1.563123
      9          1           0       -1.757122   -1.574754   -0.238476
     10          1           0       -1.210190    0.377481    1.455486
     11          8           0       -0.263859   -1.010649   -1.488257
     12          8           0        2.655785   -0.637022   -0.200008
     13          8           0        0.206318    1.964782    0.424998
     14          8           0       -0.250095   -1.330718    1.787275
     15          6           0       -2.139956    0.445456   -0.969574
     16          1           0       -2.514726    0.102751   -1.943188
     17          1           0       -1.573505    1.370090   -1.105436
     18          8           0       -3.181645    0.721222   -0.067873
     19          6           0        3.979042   -0.233161   -0.598386
     20          1           0        4.232433    0.729466   -0.140106
     21          1           0        4.648400   -1.011080   -0.231164
     22          1           0        4.062717   -0.160110   -1.688069
     23          6           0        1.080444    3.042240    0.764895
     24          1           0        0.530429    3.960393    0.553649
     25          1           0        1.345326    3.006229    1.828833
     26          1           0        2.001563    3.033518    0.165389
     27          6           0        0.496280   -2.453394    1.313676
     28          1           0        1.523245   -2.184960    1.046082
     29          1           0        0.515374   -3.162815    2.142850
     30          1           0        0.008621   -2.941461    0.458333
     31          6           0       -4.312468   -0.145356   -0.172365
     32          1           0       -4.069762   -1.181128    0.098960
     33          1           0       -5.056152    0.236502    0.529177
     34          1           0       -4.726006   -0.127311   -1.189030
 ---------------------------------------------------------------------
                    Distance matrix (angstroms):
                    1          2          3          4          5
     1  C    0.000000
     2  C    1.548434   0.000000
     3  C    2.561916   1.497276   0.000000
     4  C    2.568968   2.970950   2.435376   0.000000
     5  C    1.554267   2.611697   2.875742   1.529586   0.000000
     6  H    3.566109   2.243318   1.089995   3.389047   3.946863
     7  H    2.167336   1.096533   2.115005   3.745477   3.461797
     8  H    1.096956   2.154774   3.395413   3.472277   2.160686
     9  H    3.475581   3.850766   3.150747   1.089757   2.166882
    10  H    2.120306   3.460629   3.812660   2.094736   1.093572
    11  O    2.910323   2.457594   1.257617   1.508304   2.533030
    12  O    2.480646   1.419412   2.234417   3.871715   3.362965
    13  O    1.416505   2.410565   3.289253   3.072773   2.370853
    14  O    2.498714   3.382241   3.645043   2.464955   1.411568
    15  C    3.315196   3.781661   3.257466   1.547670   2.597870
    16  H    4.206031   4.361930   3.496471   2.170214   3.519481
    17  H    2.991891   3.420043   3.166926   2.170046   2.805262
    18  O    3.985067   4.839897   4.535704   2.414485   3.022704
    19  C    3.597364   2.418086   3.245767   5.211810   4.721065
    20  H    3.589336   2.690803   3.847235   5.619172   4.939008
    21  H    4.353534   3.306596   4.009450   5.873803   5.322503
    22  H    4.159975   2.737170   3.186513   5.456921   5.247761
    23  C    2.396509   3.117161   4.292023   4.485666   3.649022
    24  H    3.295814   4.005467   5.001542   5.007168   4.344986
    25  H    2.677842   3.635901   4.945014   4.969830   3.846243
    26  H    2.725200   2.885708   4.133190   4.911353   4.188664
    27  C    3.201670   3.474472   3.489572   3.008999   2.450412
    28  H    2.988838   2.919698   3.157581   3.447365   2.799345
    29  H    4.116254   4.489203   4.567026   3.960075   3.320176
    30  H    3.692391   3.720904   3.269321   2.734225   2.778736
    31  C    5.181606   5.951135   5.416013   3.146400   3.973284
    32  H    5.181176   5.898474   5.285751   2.946726   3.786442
    33  H    5.809254   6.754846   6.368927   4.045401   4.605446
    34  H    5.822585   6.383923   5.656907   3.643503   4.729489
                    6          7          8          9         10
     6  H    0.000000
     7  H    2.572083   0.000000
     8  H    4.307653   2.712514   0.000000
     9  H    3.959778   4.719989   4.234511   0.000000
    10  H    4.899318   4.133100   2.591433   2.641943   0.000000
    11  O    1.972346   3.179242   3.835774   2.027314   3.389406
    12  O    2.575199   2.089198   2.534761   4.511604   4.326158
    13  O    4.243843   2.439285   2.091142   4.101659   2.363879
    14  O    4.595791   4.383239   2.563537   2.536602   1.987413
    15  C    4.108023   4.205557   4.328893   2.182273   2.598076
    16  H    4.117456   4.732147   5.257601   2.508791   3.650791
    17  H    4.008459   3.582596   4.034541   3.075295   2.770486
    18  O    5.454308   5.290080   4.830792   2.707375   2.515038
    19  C    3.209901   2.460300   3.504492   5.901948   5.614214
    20  H    3.969386   2.437756   3.336243   6.418246   5.682601
    21  H    3.902227   3.518530   4.092892   6.430279   6.252677
    22  H    2.822159   2.541105   4.301249   6.162229   6.162345
    23  C    5.098121   2.747243   2.540257   5.511367   3.581181
    24  H    5.782839   3.526477   3.562399   6.041374   4.084155
    25  H    5.794780   3.453694   2.373738   5.906298   3.685155
    26  H    4.752477   2.209631   2.837630   5.960452   4.362825
    27  C    4.194895   4.565716   3.229890   2.873848   3.308474
    28  H    3.739120   3.969362   2.883606   3.575367   3.769003
    29  H    5.218292   5.567027   3.946667   3.654708   3.997967
    30  H    3.847586   4.802566   3.992567   2.339077   3.673580
    31  C    6.242606   6.505996   5.989399   2.928710   3.542229
    32  H    6.089398   6.606997   5.918027   2.370044   3.527971
    33  H    7.246179   7.286869   6.516726   3.841034   3.958453
    34  H    6.349321   6.854375   6.728571   3.436992   4.428232
                   11         12         13         14         15
    11  O    0.000000
    12  O    3.213021   0.000000
    13  O    3.568585   3.627658   0.000000
    14  O    3.291161   3.588126   3.595057   0.000000
    15  C    2.430846   4.976256   3.123809   3.785048   0.000000
    16  H    2.552063   5.506371   4.059501   4.593445   1.098100
    17  H    2.744019   4.768143   2.421499   4.172955   1.092828
    18  O    3.678361   5.994821   3.642479   4.030635   1.405072
    19  C    4.404380   1.439728   4.484609   4.978113   6.167693
    20  H    5.006211   2.087270   4.249112   5.296434   6.432419
    21  H    5.070559   2.027660   5.386873   5.307685   6.982014
    22  H    4.413910   2.102672   4.883854   5.661156   6.273444
    23  C    4.828018   4.117002   1.428475   4.683840   4.485827
    24  H    5.432452   5.120680   2.025849   5.488798   4.669684
    25  H    5.452327   4.371130   2.086313   4.621277   5.151294
    26  H    4.921582   3.746249   2.105350   5.171753   5.013819
    27  C    3.241937   3.202172   4.515983   1.428906   4.535009
    28  H    3.315965   2.287247   4.397772   2.103291   4.939737
    29  H    4.292314   4.055857   5.416529   2.017165   5.455051
    30  H    2.755266   3.570900   4.910338   2.104166   4.257524
    31  C    4.344138   6.985632   5.022843   4.663491   2.388391
    32  H    4.127132   6.754141   5.318638   4.178832   2.740747
    33  H    5.347102   7.795430   5.539982   5.209335   3.285440
    34  H    4.558572   7.465173   5.595512   5.508208   2.657796
                   16         17         18         19         20
    16  H    0.000000
    17  H    1.787141   0.000000
    18  O    2.084249   2.020812   0.000000
    19  C    6.640057   5.801577   7.243461   0.000000
    20  H    7.011992   5.920403   7.414434   1.095846   0.000000
    21  H    7.448625   6.719109   8.021044   1.089977   1.791876
    22  H    6.587635   5.869239   7.475464   1.095330   1.793415
    23  C    5.375831   3.652077   4.924026   4.581338   4.012852
    24  H    5.512582   3.726764   4.965683   5.550316   4.962360
    25  H    6.128485   4.450445   5.414076   4.829234   4.170822
    26  H    5.782072   4.142837   5.680385   3.894222   3.221609
    27  C    5.119297   4.975454   5.051138   4.551379   5.118879
    28  H    5.520377   5.182400   5.641168   3.541854   4.152183
    29  H    6.044926   5.954998   5.800085   5.300400   5.846218
    30  H    4.626209   4.851594   4.885687   4.920954   5.628003
    31  C    2.535596   3.266361   1.428509   8.302912   8.589627
    32  H    2.869991   3.767039   2.106068   8.134383   8.522556
    33  H    3.548144   4.010712   2.026129   9.117385   9.325705
    34  H    2.347646   3.491054   2.088553   8.725705   9.060239
                   21         22         23         24         25
    21  H    0.000000
    22  H    1.785986   0.000000
    23  C    5.491070   5.016576   0.000000
    24  H    6.503012   5.872044   1.090938   0.000000
    25  H    5.593984   5.456970   1.097007   1.789017   0.000000
    26  H    4.849925   4.228820   1.099065   1.781594   1.788418
    27  C    4.659067   5.195103   5.553774   6.458751   5.549212
    28  H    3.574345   4.245529   5.253452   6.244481   5.252885
    29  H    5.229513   6.022941   6.381283   7.298348   6.232538
    30  H    5.072408   5.364574   6.086663   6.922208   6.248205
    31  C    9.002782   8.511246   6.334250   6.390456   6.778489
    32  H    8.726067   8.388872   6.693648   6.914025   7.060425
    33  H    9.813914   9.392936   6.751706   6.714004   7.095027
    34  H    9.464568   8.802941   6.897734   6.883049   7.469113
                   26         27         28         29         30
    26  H    0.000000
    27  C    5.804364   0.000000
    28  H    5.313842   1.094678   0.000000
    29  H    6.671855   1.091408   1.781826   0.000000
    30  H    6.305395   1.098923   1.792158   1.772962   0.000000
    31  C    7.077168   5.537094   6.300805   6.146002   5.185344
    32  H    7.391119   4.893152   5.760768   5.397040   4.456583
    33  H    7.600459   6.219363   7.029874   6.723184   5.979665
    34  H    7.555493   6.240711   6.948581   6.912870   5.748908
                   31         32         33         34
    31  C    0.000000
    32  H    1.097883   0.000000
    33  H    1.091349   1.779811   0.000000
    34  H    1.097701   1.788884   1.787062   0.000000
 Stoichiometry    C10H19O5(1+)
 Framework group  C1[X(C10H19O5)]
 Deg. of freedom    96
 Full point group                 C1      NOp   1
 Largest Abelian subgroup         C1      NOp   1
 Largest concise Abelian subgroup C1      NOp   1
                         Standard orientation:                         
 ---------------------------------------------------------------------
 Center     Atomic      Atomic             Coordinates (Angstroms)
 Number     Number       Type             X           Y           Z
 ---------------------------------------------------------------------
      1          6           0        0.735092    0.672836    0.665334
      2          6           0        1.613085    0.263089   -0.542509
      3          6           0        0.901636   -0.547407   -1.581149
      4          6           0       -1.211974   -0.641072   -0.374942
      5          6           0       -0.492512   -0.246883    0.916035
      6          1           0        1.447939   -0.888827   -2.460396
      7          1           0        2.002480    1.169520   -1.021194
      8          1           0        1.364889    0.647490    1.563123
      9          1           0       -1.757122   -1.574754   -0.238476
     10          1           0       -1.210190    0.377481    1.455486
     11          8           0       -0.263859   -1.010649   -1.488257
     12          8           0        2.655785   -0.637022   -0.200008
     13          8           0        0.206318    1.964782    0.424998
     14          8           0       -0.250095   -1.330718    1.787275
     15          6           0       -2.139956    0.445456   -0.969574
     16          1           0       -2.514726    0.102751   -1.943188
     17          1           0       -1.573505    1.370090   -1.105436
     18          8           0       -3.181645    0.721222   -0.067873
     19          6           0        3.979042   -0.233161   -0.598386
     20          1           0        4.232433    0.729466   -0.140106
     21          1           0        4.648400   -1.011080   -0.231164
     22          1           0        4.062717   -0.160110   -1.688069
     23          6           0        1.080444    3.042240    0.764895
     24          1           0        0.530429    3.960393    0.553649
     25          1           0        1.345326    3.006229    1.828833
     26          1           0        2.001563    3.033518    0.165389
     27          6           0        0.496280   -2.453394    1.313676
     28          1           0        1.523245   -2.184960    1.046082
     29          1           0        0.515374   -3.162815    2.142850
     30          1           0        0.008621   -2.941461    0.458333
     31          6           0       -4.312468   -0.145356   -0.172365
     32          1           0       -4.069762   -1.181128    0.098960
     33          1           0       -5.056152    0.236502    0.529177
     34          1           0       -4.726006   -0.127311   -1.189030
 ---------------------------------------------------------------------
 Rotational constants (GHZ):           0.8330442           0.4218569           0.3679300
 Leave Link  202 at Fri May 24 08:30:30 2019, MaxMem=   402653184 cpu:               0.1 elap:               0.1
 (Enter /n/sw/g16_nehalem/g16/l301.exe)
 Standard basis: 6-31G(d) (6D, 7F)
 Ernie: Thresh=  0.10000D-02 Tol=  0.10000D-05 Strict=F.
 There are   263 symmetry adapted cartesian basis functions of A   symmetry.
 There are   263 symmetry adapted basis functions of A   symmetry.
   263 basis functions,   496 primitive gaussians,   263 cartesian basis functions
    59 alpha electrons       59 beta electrons
       nuclear repulsion energy      1168.9539465563 Hartrees.
 IExCor=  402 DFT=T Ex+Corr=B3LYP ExCW=0 ScaHFX=  0.200000
 ScaDFX=  0.800000  0.720000  1.000000  0.810000 ScalE2=  1.000000  1.000000
 IRadAn=      5 IRanWt=     -1 IRanGd=            0 ICorTp=0 IEmpDi=  4
 NAtoms=   34 NActive=   34 NUniq=   34 SFac= 1.00D+00 NAtFMM=   60 NAOKFM=F Big=F
 Integral buffers will be    131072 words long.
 Raffenetti 2 integral format.
 Two-electron integral symmetry is turned on.
 ------------------------------------------------------------------------------
 Polarizable Continuum Model (PCM)
 =================================
 Model                : PCM.
 Atomic radii         : UFF (Universal Force Field).
 Polarization charges : Total charges.
 Charge compensation  : None.
 Solution method      : On-the-fly selection.
 Cavity type          : Scaled VdW (van der Waals Surface) (Alpha=1.100).
 Cavity algorithm     : GePol (No added spheres)
                        Default sphere list used, NSphG=   34.
                        Lebedev-Laikov grids with approx.  5.0 points / Ang**2.
                        Smoothing algorithm: York/Karplus (Gamma=1.0000).
                        Polarization charges: spherical gaussians, with
                                              point-specific exponents (IZeta= 3).
                        Self-potential: point-specific (ISelfS= 7).
                        Self-field    : sphere-specific E.n sum rule (ISelfD= 2).
 1st derivatives      : Analytical E(r).r(x)/FMM algorithm (CHGder, D1EAlg=3).
                        Cavity 1st derivative terms included.
 Solvent              : TetraHydroFuran, Eps=   7.425700 Eps(inf)=   1.974025
 ------------------------------------------------------------------------------
 GePol: Number of generator spheres                  =      34
 GePol: Total number of spheres                      =      34
 GePol: Number of exposed spheres                    =      34 (100.00%)
 GePol: Number of points                             =    2311
 GePol: Average weight of points                     =       0.13
 GePol: Minimum weight of points                     =   0.31D-10
 GePol: Maximum weight of points                     =    0.20577
 GePol: Number of points with low weight             =     178
 GePol: Fraction of low-weight points (<1% of avg)   =       7.70%
 GePol: Cavity surface area                          =    298.680 Ang**2
 GePol: Cavity volume                                =    320.122 Ang**3
 Leave Link  301 at Fri May 24 08:30:30 2019, MaxMem=   402653184 cpu:               0.4 elap:               0.1
 (Enter /n/sw/g16_nehalem/g16/l302.exe)
 NPDir=0 NMtPBC=     1 NCelOv=     1 NCel=       1 NClECP=     1 NCelD=      1
         NCelK=      1 NCelE2=     1 NClLst=     1 CellRange=     0.0.
 One-electron integrals computed using PRISM.
 One-electron integral symmetry used in STVInt
 NBasis=   263 RedAO= T EigKep=  2.06D-03  NBF=   263
 NBsUse=   263 1.00D-06 EigRej= -1.00D+00 NBFU=   263
 Precomputing XC quadrature grid using
 IXCGrd= 4 IRadAn=           5 IRanWt=          -1 IRanGd=           0 AccXCQ= 0.00D+00.
 Generated NRdTot=       0 NPtTot=           0 NUsed=           0 NTot=          32
 NSgBfM=   262   262   262   262   262 MxSgAt=    34 MxSgA2=    34.
 Leave Link  302 at Fri May 24 08:30:31 2019, MaxMem=   402653184 cpu:               2.2 elap:               0.6
 (Enter /n/sw/g16_nehalem/g16/l303.exe)
 DipDrv:  MaxL=1.
 Leave Link  303 at Fri May 24 08:30:31 2019, MaxMem=   402653184 cpu:               0.2 elap:               0.1
 (Enter /n/sw/g16_nehalem/g16/l401.exe)
 ExpMin= 1.61D-01 ExpMax= 5.48D+03 ExpMxC= 8.25D+02 IAcc=3 IRadAn=         5 AccDes= 0.00D+00
 Harris functional with IExCor=  402 and IRadAn=       5 diagonalized for initial guess.
 HarFok:  IExCor=  402 AccDes= 0.00D+00 IRadAn=         5 IDoV= 1 UseB2=F ITyADJ=14
 ICtDFT=  3500011 ScaDFX=  1.000000  1.000000  1.000000  1.000000
 FoFCou: FMM=F IPFlag=           0 FMFlag=      100000 FMFlg1=           0
         NFxFlg=           0 DoJE=T BraDBF=F KetDBF=T FulRan=T
         wScrn=  0.000000 ICntrl=       500 IOpCl=  0 I1Cent=   200000004 NGrid=           0
         NMat0=    1 NMatS0=      1 NMatT0=    0 NMatD0=    1 NMtDS0=    0 NMtDT0=    0
 Petite list used in FoFCou.
 Harris En= -768.254903680429    
 JPrj=0 DoOrth=F DoCkMO=F.
 Leave Link  401 at Fri May 24 08:30:36 2019, MaxMem=   402653184 cpu:              17.3 elap:               4.4
 (Enter /n/sw/g16_nehalem/g16/l502.exe)
 Integral symmetry usage will be decided dynamically.
 Closed shell SCF:
 Using DIIS extrapolation, IDIIS=  1040.
 NGot=   402653184 LenX=   402510103 LenY=   402440493
 Requested convergence on RMS density matrix=1.00D-08 within 128 cycles.
 Requested convergence on MAX density matrix=1.00D-06.
 Requested convergence on             energy=1.00D-06.
 No special actions if energy rises.
 Fock matrices will be formed incrementally for  20 cycles.

 Cycle   1  Pass 1  IDiag  1:
 FoFJK:  IHMeth= 1 ICntrl=       0 DoSepK=F KAlg= 0 I1Cent=           0 FoldK=F
 IRaf= 880000000 NMat=       1 IRICut=       1 DoRegI=T DoRafI=F ISym2E= 0 IDoP0=0 IntGTp=1.
 FoFCou: FMM=F IPFlag=           0 FMFlag=      100000 FMFlg1=           0
         NFxFlg=           0 DoJE=F BraDBF=F KetDBF=F FulRan=T
         wScrn=  0.000000 ICntrl=         0 IOpCl=  0 I1Cent=           0 NGrid=           0
         NMat0=    1 NMatS0=      1 NMatT0=    0 NMatD0=    1 NMtDS0=    0 NMtDT0=    0
 Symmetry not used in FoFCou.
 Inv3:  Mode=1 IEnd=    16022163.
 Iteration    1 A*A^-1 deviation from unit magnitude is 1.51D-14 for   2304.
 Iteration    1 A*A^-1 deviation from orthogonality  is 3.16D-15 for   2304   2122.
 Iteration    1 A^-1*A deviation from unit magnitude is 1.51D-14 for   2304.
 Iteration    1 A^-1*A deviation from orthogonality  is 2.51D-15 for   2308   1383.
 E= -768.084345785891    
 DIIS: error= 2.38D-02 at cycle   1 NSaved=   1.
 NSaved= 1 IEnMin= 1 EnMin= -768.084345785891     IErMin= 1 ErrMin= 2.38D-02
 ErrMax= 2.38D-02  0.00D+00 EMaxC= 1.00D-01 BMatC= 2.52D-01 BMatP= 2.52D-01
 IDIUse=3 WtCom= 7.62D-01 WtEn= 2.38D-01
 Coeff-Com:  0.100D+01
 Coeff-En:   0.100D+01
 Coeff:      0.100D+01
 Gap=     0.040 Goal=   None    Shift=    0.000
 GapD=    0.040 DampG=0.250 DampE=0.500 DampFc=0.2500 IDamp=-1.
 Damping current iteration by 2.50D-01
 RMSDP=4.47D-03 MaxDP=1.11D-01              OVMax= 2.40D-01

 Cycle   2  Pass 1  IDiag  1:
 RMSU=  1.11D-03    CP:  9.95D-01
 E= -768.161584712075     Delta-E=       -0.077238926184 Rises=F Damp=T
 DIIS: error= 1.18D-02 at cycle   2 NSaved=   2.
 NSaved= 2 IEnMin= 2 EnMin= -768.161584712075     IErMin= 2 ErrMin= 1.18D-02
 ErrMax= 1.18D-02  0.00D+00 EMaxC= 1.00D-01 BMatC= 7.00D-02 BMatP= 2.52D-01
 IDIUse=3 WtCom= 8.82D-01 WtEn= 1.18D-01
 Coeff-Com: -0.755D+00 0.175D+01
 Coeff-En:   0.000D+00 0.100D+01
 Coeff:     -0.666D+00 0.167D+01
 Gap=     0.150 Goal=   None    Shift=    0.000
 RMSDP=1.34D-03 MaxDP=3.34D-02 DE=-7.72D-02 OVMax= 2.88D-01

 Cycle   3  Pass 1  IDiag  1:
 RMSU=  1.24D-03    CP:  9.86D-01  1.42D+00
 E= -768.293399359063     Delta-E=       -0.131814646988 Rises=F Damp=F
 DIIS: error= 5.90D-03 at cycle   3 NSaved=   3.
 NSaved= 3 IEnMin= 3 EnMin= -768.293399359063     IErMin= 3 ErrMin= 5.90D-03
 ErrMax= 5.90D-03  0.00D+00 EMaxC= 1.00D-01 BMatC= 3.26D-02 BMatP= 7.00D-02
 IDIUse=3 WtCom= 9.41D-01 WtEn= 5.90D-02
 Coeff-Com: -0.508D+00 0.100D+01 0.508D+00
 Coeff-En:   0.000D+00 0.000D+00 0.100D+01
 Coeff:     -0.478D+00 0.941D+00 0.537D+00
 Gap=     0.142 Goal=   None    Shift=    0.000
 RMSDP=7.13D-04 MaxDP=2.47D-02 DE=-1.32D-01 OVMax= 3.86D-02

 Cycle   4  Pass 1  IDiag  1:
 RMSU=  4.88D-04    CP:  9.90D-01  1.61D+00  6.23D-01
 E= -768.318885922935     Delta-E=       -0.025486563872 Rises=F Damp=F
 DIIS: error= 1.74D-03 at cycle   4 NSaved=   4.
 NSaved= 4 IEnMin= 4 EnMin= -768.318885922935     IErMin= 4 ErrMin= 1.74D-03
 ErrMax= 1.74D-03  0.00D+00 EMaxC= 1.00D-01 BMatC= 3.11D-03 BMatP= 3.26D-02
 IDIUse=3 WtCom= 9.83D-01 WtEn= 1.74D-02
 Coeff-Com: -0.201D+00 0.341D+00 0.254D+00 0.606D+00
 Coeff-En:   0.000D+00 0.000D+00 0.000D+00 0.100D+01
 Coeff:     -0.197D+00 0.335D+00 0.249D+00 0.613D+00
 Gap=     0.136 Goal=   None    Shift=    0.000
 RMSDP=2.19D-04 MaxDP=1.02D-02 DE=-2.55D-02 OVMax= 1.28D-02

 Cycle   5  Pass 1  IDiag  1:
 RMSU=  1.68D-04    CP:  9.89D-01  1.64D+00  6.79D-01  7.62D-01
 E= -768.320980960831     Delta-E=       -0.002095037896 Rises=F Damp=F
 DIIS: error= 8.39D-04 at cycle   5 NSaved=   5.
 NSaved= 5 IEnMin= 5 EnMin= -768.320980960831     IErMin= 5 ErrMin= 8.39D-04
 ErrMax= 8.39D-04  0.00D+00 EMaxC= 1.00D-01 BMatC= 6.61D-04 BMatP= 3.11D-03
 IDIUse=3 WtCom= 9.92D-01 WtEn= 8.39D-03
 Coeff-Com: -0.817D-01 0.125D+00 0.782D-01 0.351D+00 0.527D+00
 Coeff-En:   0.000D+00 0.000D+00 0.000D+00 0.123D+00 0.877D+00
 Coeff:     -0.810D-01 0.124D+00 0.775D-01 0.349D+00 0.530D+00
 Gap=     0.138 Goal=   None    Shift=    0.000
 RMSDP=9.37D-05 MaxDP=4.36D-03 DE=-2.10D-03 OVMax= 5.22D-03

 Cycle   6  Pass 1  IDiag  1:
 RMSU=  6.29D-05    CP:  9.89D-01  1.65D+00  6.79D-01  8.34D-01  6.48D-01
 E= -768.321424780996     Delta-E=       -0.000443820166 Rises=F Damp=F
 DIIS: error= 3.22D-04 at cycle   6 NSaved=   6.
 NSaved= 6 IEnMin= 6 EnMin= -768.321424780996     IErMin= 6 ErrMin= 3.22D-04
 ErrMax= 3.22D-04  0.00D+00 EMaxC= 1.00D-01 BMatC= 8.25D-05 BMatP= 6.61D-04
 IDIUse=3 WtCom= 9.97D-01 WtEn= 3.22D-03
 Coeff-Com: -0.260D-01 0.340D-01 0.712D-02 0.133D+00 0.325D+00 0.526D+00
 Coeff-En:   0.000D+00 0.000D+00 0.000D+00 0.000D+00 0.323D-01 0.968D+00
 Coeff:     -0.259D-01 0.339D-01 0.710D-02 0.133D+00 0.324D+00 0.528D+00
 Gap=     0.138 Goal=   None    Shift=    0.000
 RMSDP=2.82D-05 MaxDP=1.67D-03 DE=-4.44D-04 OVMax= 1.69D-03

 Cycle   7  Pass 1  IDiag  1:
 RMSU=  1.88D-05    CP:  9.89D-01  1.65D+00  6.77D-01  8.47D-01  7.22D-01
                    CP:  7.62D-01
 E= -768.321486138946     Delta-E=       -0.000061357950 Rises=F Damp=F
 DIIS: error= 9.03D-05 at cycle   7 NSaved=   7.
 NSaved= 7 IEnMin= 7 EnMin= -768.321486138946     IErMin= 7 ErrMin= 9.03D-05
 ErrMax= 9.03D-05  0.00D+00 EMaxC= 1.00D-01 BMatC= 5.81D-06 BMatP= 8.25D-05
 IDIUse=1 WtCom= 1.00D+00 WtEn= 0.00D+00
 Coeff-Com: -0.743D-02 0.807D-02-0.626D-02 0.391D-01 0.132D+00 0.281D+00
 Coeff-Com:  0.553D+00
 Coeff:     -0.743D-02 0.807D-02-0.626D-02 0.391D-01 0.132D+00 0.281D+00
 Coeff:      0.553D+00
 Gap=     0.138 Goal=   None    Shift=    0.000
 RMSDP=9.52D-06 MaxDP=5.22D-04 DE=-6.14D-05 OVMax= 3.88D-04

 Cycle   8  Pass 1  IDiag  1:
 RMSU=  6.17D-06    CP:  9.89D-01  1.65D+00  6.76D-01  8.56D-01  7.42D-01
                    CP:  7.83D-01  7.73D-01
 E= -768.321490947408     Delta-E=       -0.000004808462 Rises=F Damp=F
 DIIS: error= 2.33D-05 at cycle   8 NSaved=   8.
 NSaved= 8 IEnMin= 8 EnMin= -768.321490947408     IErMin= 8 ErrMin= 2.33D-05
 ErrMax= 2.33D-05  0.00D+00 EMaxC= 1.00D-01 BMatC= 4.96D-07 BMatP= 5.81D-06
 IDIUse=1 WtCom= 1.00D+00 WtEn= 0.00D+00
 Coeff-Com: -0.510D-03 0.123D-03-0.412D-02-0.156D-02 0.119D-01 0.386D-01
 Coeff-Com:  0.236D+00 0.720D+00
 Coeff:     -0.510D-03 0.123D-03-0.412D-02-0.156D-02 0.119D-01 0.386D-01
 Coeff:      0.236D+00 0.720D+00
 Gap=     0.138 Goal=   None    Shift=    0.000
 RMSDP=3.17D-06 MaxDP=1.02D-04 DE=-4.81D-06 OVMax= 2.83D-04

 Cycle   9  Pass 1  IDiag  1:
 RMSU=  2.26D-06    CP:  9.89D-01  1.65D+00  6.76D-01  8.58D-01  7.45D-01
                    CP:  8.02D-01  8.23D-01  8.86D-01
 E= -768.321491307298     Delta-E=       -0.000000359889 Rises=F Damp=F
 DIIS: error= 9.41D-06 at cycle   9 NSaved=   9.
 NSaved= 9 IEnMin= 9 EnMin= -768.321491307298     IErMin= 9 ErrMin= 9.41D-06
 ErrMax= 9.41D-06  0.00D+00 EMaxC= 1.00D-01 BMatC= 1.08D-07 BMatP= 4.96D-07
 IDIUse=1 WtCom= 1.00D+00 WtEn= 0.00D+00
 Coeff-Com:  0.943D-04-0.220D-03-0.168D-02-0.401D-02-0.482D-02-0.577D-02
 Coeff-Com:  0.803D-01 0.422D+00 0.514D+00
 Coeff:      0.943D-04-0.220D-03-0.168D-02-0.401D-02-0.482D-02-0.577D-02
 Coeff:      0.803D-01 0.422D+00 0.514D+00
 Gap=     0.138 Goal=   None    Shift=    0.000
 RMSDP=1.25D-06 MaxDP=4.57D-05 DE=-3.60D-07 OVMax= 8.22D-05

 Cycle  10  Pass 1  IDiag  1:
 RMSU=  6.78D-07    CP:  9.89D-01  1.65D+00  6.77D-01  8.58D-01  7.47D-01
                    CP:  8.06D-01  8.49D-01  9.41D-01  6.75D-01
 E= -768.321491391826     Delta-E=       -0.000000084528 Rises=F Damp=F
 DIIS: error= 2.83D-06 at cycle  10 NSaved=  10.
 NSaved=10 IEnMin=10 EnMin= -768.321491391826     IErMin=10 ErrMin= 2.83D-06
 ErrMax= 2.83D-06  0.00D+00 EMaxC= 1.00D-01 BMatC= 5.37D-09 BMatP= 1.08D-07
 IDIUse=1 WtCom= 1.00D+00 WtEn= 0.00D+00
 Coeff-Com:  0.103D-03-0.132D-03-0.460D-03-0.195D-02-0.389D-02-0.755D-02
 Coeff-Com:  0.140D-01 0.120D+00 0.229D+00 0.651D+00
 Coeff:      0.103D-03-0.132D-03-0.460D-03-0.195D-02-0.389D-02-0.755D-02
 Coeff:      0.140D-01 0.120D+00 0.229D+00 0.651D+00
 Gap=     0.138 Goal=   None    Shift=    0.000
 RMSDP=3.31D-07 MaxDP=1.02D-05 DE=-8.45D-08 OVMax= 2.55D-05

 Cycle  11  Pass 1  IDiag  1:
 RMSU=  2.24D-07    CP:  9.89D-01  1.65D+00  6.77D-01  8.59D-01  7.47D-01
                    CP:  8.07D-01  8.54D-01  9.55D-01  7.18D-01  8.33D-01
 E= -768.321491396354     Delta-E=       -0.000000004529 Rises=F Damp=F
 DIIS: error= 9.36D-07 at cycle  11 NSaved=  11.
 NSaved=11 IEnMin=11 EnMin= -768.321491396354     IErMin=11 ErrMin= 9.36D-07
 ErrMax= 9.36D-07  0.00D+00 EMaxC= 1.00D-01 BMatC= 6.93D-10 BMatP= 5.37D-09
 IDIUse=1 WtCom= 1.00D+00 WtEn= 0.00D+00
 Coeff-Com:  0.446D-04-0.521D-04-0.101D-03-0.639D-03-0.154D-02-0.334D-02
 Coeff-Com: -0.525D-03 0.197D-01 0.702D-01 0.338D+00 0.578D+00
 Coeff:      0.446D-04-0.521D-04-0.101D-03-0.639D-03-0.154D-02-0.334D-02
 Coeff:     -0.525D-03 0.197D-01 0.702D-01 0.338D+00 0.578D+00
 Gap=     0.138 Goal=   None    Shift=    0.000
 RMSDP=1.19D-07 MaxDP=4.61D-06 DE=-4.53D-09 OVMax= 7.53D-06

 Cycle  12  Pass 1  IDiag  1:
 RMSU=  6.78D-08    CP:  9.89D-01  1.65D+00  6.77D-01  8.59D-01  7.47D-01
                    CP:  8.07D-01  8.55D-01  9.60D-01  7.25D-01  8.71D-01
                    CP:  7.23D-01
 E= -768.321491396953     Delta-E=       -0.000000000599 Rises=F Damp=F
 DIIS: error= 1.90D-07 at cycle  12 NSaved=  12.
 NSaved=12 IEnMin=12 EnMin= -768.321491396953     IErMin=12 ErrMin= 1.90D-07
 ErrMax= 1.90D-07  0.00D+00 EMaxC= 1.00D-01 BMatC= 4.58D-11 BMatP= 6.93D-10
 IDIUse=1 WtCom= 1.00D+00 WtEn= 0.00D+00
 Coeff-Com:  0.184D-05 0.104D-05 0.398D-05-0.642D-04-0.248D-03-0.632D-03
 Coeff-Com: -0.173D-02-0.438D-02 0.769D-02 0.747D-01 0.253D+00 0.671D+00
 Coeff:      0.184D-05 0.104D-05 0.398D-05-0.642D-04-0.248D-03-0.632D-03
 Coeff:     -0.173D-02-0.438D-02 0.769D-02 0.747D-01 0.253D+00 0.671D+00
 Gap=     0.138 Goal=   None    Shift=    0.000
 RMSDP=3.34D-08 MaxDP=9.31D-07 DE=-5.99D-10 OVMax= 2.57D-06

 Cycle  13  Pass 1  IDiag  1:
 RMSU=  2.13D-08    CP:  9.89D-01  1.65D+00  6.77D-01  8.59D-01  7.48D-01
                    CP:  8.07D-01  8.55D-01  9.61D-01  7.30D-01  8.87D-01
                    CP:  7.82D-01  8.47D-01
 E= -768.321491397025     Delta-E=       -0.000000000072 Rises=F Damp=F
 DIIS: error= 7.07D-08 at cycle  13 NSaved=  13.
 NSaved=13 IEnMin=13 EnMin= -768.321491397025     IErMin=13 ErrMin= 7.07D-08
 ErrMax= 7.07D-08  0.00D+00 EMaxC= 1.00D-01 BMatC= 5.51D-12 BMatP= 4.58D-11
 IDIUse=1 WtCom= 1.00D+00 WtEn= 0.00D+00
 Coeff-Com: -0.139D-05 0.286D-05 0.786D-05 0.120D-04-0.134D-04-0.571D-04
 Coeff-Com: -0.872D-03-0.379D-02-0.130D-02 0.102D-01 0.837D-01 0.344D+00
 Coeff-Com:  0.568D+00
 Coeff:     -0.139D-05 0.286D-05 0.786D-05 0.120D-04-0.134D-04-0.571D-04
 Coeff:     -0.872D-03-0.379D-02-0.130D-02 0.102D-01 0.837D-01 0.344D+00
 Coeff:      0.568D+00
 Gap=     0.138 Goal=   None    Shift=    0.000
 RMSDP=1.08D-08 MaxDP=2.58D-07 DE=-7.19D-11 OVMax= 7.56D-07

 Cycle  14  Pass 1  IDiag  1:
 RMSU=  7.74D-09    CP:  9.89D-01  1.65D+00  6.77D-01  8.59D-01  7.48D-01
                    CP:  8.07D-01  8.55D-01  9.61D-01  7.30D-01  8.87D-01
                    CP:  7.91D-01  8.97D-01  7.50D-01
 E= -768.321491397028     Delta-E=       -0.000000000003 Rises=F Damp=F
 DIIS: error= 1.37D-08 at cycle  14 NSaved=  14.
 NSaved=14 IEnMin=14 EnMin= -768.321491397028     IErMin=14 ErrMin= 1.37D-08
 ErrMax= 1.37D-08  0.00D+00 EMaxC= 1.00D-01 BMatC= 3.48D-13 BMatP= 5.51D-12
 IDIUse=1 WtCom= 1.00D+00 WtEn= 0.00D+00
 Coeff-Com: -0.125D-05 0.169D-05 0.231D-05 0.121D-04 0.217D-04 0.534D-04
 Coeff-Com: -0.147D-03-0.894D-03-0.111D-02-0.445D-02 0.374D-02 0.536D-01
 Coeff-Com:  0.227D+00 0.722D+00
 Coeff:     -0.125D-05 0.169D-05 0.231D-05 0.121D-04 0.217D-04 0.534D-04
 Coeff:     -0.147D-03-0.894D-03-0.111D-02-0.445D-02 0.374D-02 0.536D-01
 Coeff:      0.227D+00 0.722D+00
 Gap=     0.138 Goal=   None    Shift=    0.000
 RMSDP=3.08D-09 MaxDP=7.66D-08 DE=-3.41D-12 OVMax= 2.20D-07

 Error on total polarization charges =  0.01293
 SCF Done:  E(RB3LYP) =  -768.321491397     A.U. after   14 cycles
            NFock= 14  Conv=0.31D-08     -V/T= 2.0091
 KE= 7.613801076128D+02 PE=-4.112883603061D+03 EE= 1.414228057494D+03
 Leave Link  502 at Fri May 24 08:32:32 2019, MaxMem=   402653184 cpu:             464.9 elap:             116.6
 (Enter /n/sw/g16_nehalem/g16/l601.exe)
 Copying SCF densities to generalized density rwf, IOpCl= 0 IROHF=0.

 **********************************************************************

            Population analysis using the SCF density.

 **********************************************************************

 Orbital symmetries:
       Occupied  (A) (A) (A) (A) (A) (A) (A) (A) (A) (A) (A) (A)
                 (A) (A) (A) (A) (A) (A) (A) (A) (A) (A) (A) (A)
                 (A) (A) (A) (A) (A) (A) (A) (A) (A) (A) (A) (A)
                 (A) (A) (A) (A) (A) (A) (A) (A) (A) (A) (A) (A)
                 (A) (A) (A) (A) (A) (A) (A) (A) (A) (A) (A)
       Virtual   (A) (A) (A) (A) (A) (A) (A) (A) (A) (A) (A) (A)
                 (A) (A) (A) (A) (A) (A) (A) (A) (A) (A) (A) (A)
                 (A) (A) (A) (A) (A) (A) (A) (A) (A) (A) (A) (A)
                 (A) (A) (A) (A) (A) (A) (A) (A) (A) (A) (A) (A)
                 (A) (A) (A) (A) (A) (A) (A) (A) (A) (A) (A) (A)
                 (A) (A) (A) (A) (A) (A) (A) (A) (A) (A) (A) (A)
                 (A) (A) (A) (A) (A) (A) (A) (A) (A) (A) (A) (A)
                 (A) (A) (A) (A) (A) (A) (A) (A) (A) (A) (A) (A)
                 (A) (A) (A) (A) (A) (A) (A) (A) (A) (A) (A) (A)
                 (A) (A) (A) (A) (A) (A) (A) (A) (A) (A) (A) (A)
                 (A) (A) (A) (A) (A) (A) (A) (A) (A) (A) (A) (A)
                 (A) (A) (A) (A) (A) (A) (A) (A) (A) (A) (A) (A)
                 (A) (A) (A) (A) (A) (A) (A) (A) (A) (A) (A) (A)
                 (A) (A) (A) (A) (A) (A) (A) (A) (A) (A) (A) (A)
                 (A) (A) (A) (A) (A) (A) (A) (A) (A) (A) (A) (A)
                 (A) (A) (A) (A) (A) (A) (A) (A) (A) (A) (A) (A)
                 (A) (A) (A) (A) (A) (A) (A) (A) (A) (A) (A) (A)
 The electronic state is 1-A.
 Alpha  occ. eigenvalues --  -19.32938 -19.22739 -19.19638 -19.18892 -19.18713
 Alpha  occ. eigenvalues --  -10.39492 -10.31857 -10.31578 -10.29388 -10.28972
 Alpha  occ. eigenvalues --  -10.27836 -10.26807 -10.25544 -10.24913 -10.24887
 Alpha  occ. eigenvalues --   -1.21504  -1.10395  -1.07984  -1.06943  -1.06534
 Alpha  occ. eigenvalues --   -0.86815  -0.85229  -0.77529  -0.75315  -0.73949
 Alpha  occ. eigenvalues --   -0.71468  -0.69352  -0.68378  -0.66417  -0.61675
 Alpha  occ. eigenvalues --   -0.59399  -0.58178  -0.57173  -0.54376  -0.53739
 Alpha  occ. eigenvalues --   -0.52783  -0.51164  -0.51023  -0.50391  -0.49039
 Alpha  occ. eigenvalues --   -0.48477  -0.47908  -0.47254  -0.46263  -0.45946
 Alpha  occ. eigenvalues --   -0.44165  -0.43506  -0.42930  -0.41253  -0.40891
 Alpha  occ. eigenvalues --   -0.39556  -0.37926  -0.36239  -0.35002  -0.34185
 Alpha  occ. eigenvalues --   -0.33091  -0.30716  -0.29500  -0.28753
 Alpha virt. eigenvalues --   -0.14992   0.00450   0.02973   0.04399   0.06308
 Alpha virt. eigenvalues --    0.06791   0.08111   0.09431   0.09917   0.10458
 Alpha virt. eigenvalues --    0.11221   0.11486   0.11751   0.12372   0.13186
 Alpha virt. eigenvalues --    0.13828   0.13953   0.14117   0.14577   0.15035
 Alpha virt. eigenvalues --    0.15391   0.16248   0.16869   0.17255   0.17483
 Alpha virt. eigenvalues --    0.18665   0.19320   0.20394   0.21283   0.22330
 Alpha virt. eigenvalues --    0.23906   0.24944   0.26720   0.28913   0.30149
 Alpha virt. eigenvalues --    0.42372   0.45598   0.46162   0.47532   0.48057
 Alpha virt. eigenvalues --    0.48538   0.49309   0.50202   0.50519   0.52005
 Alpha virt. eigenvalues --    0.52537   0.53975   0.54191   0.54807   0.55669
 Alpha virt. eigenvalues --    0.56008   0.56872   0.58640   0.59308   0.61631
 Alpha virt. eigenvalues --    0.63271   0.64566   0.66512   0.67316   0.69259
 Alpha virt. eigenvalues --    0.70931   0.75570   0.76549   0.78356   0.79528
 Alpha virt. eigenvalues --    0.79860   0.80257   0.80681   0.81347   0.82629
 Alpha virt. eigenvalues --    0.82879   0.83622   0.84264   0.84559   0.85668
 Alpha virt. eigenvalues --    0.86367   0.86736   0.87453   0.89394   0.90199
 Alpha virt. eigenvalues --    0.91085   0.91900   0.92238   0.93638   0.94107
 Alpha virt. eigenvalues --    0.94948   0.95283   0.97599   0.99990   1.02188
 Alpha virt. eigenvalues --    1.04318   1.06936   1.07209   1.09364   1.11120
 Alpha virt. eigenvalues --    1.12604   1.15045   1.17235   1.19329   1.22754
 Alpha virt. eigenvalues --    1.23759   1.26323   1.29164   1.31213   1.31409
 Alpha virt. eigenvalues --    1.34764   1.36743   1.38339   1.39957   1.41434
 Alpha virt. eigenvalues --    1.45103   1.46035   1.47006   1.47499   1.50658
 Alpha virt. eigenvalues --    1.53463   1.53819   1.56571   1.58159   1.59054
 Alpha virt. eigenvalues --    1.61899   1.63780   1.67273   1.68168   1.68581
 Alpha virt. eigenvalues --    1.71653   1.74657   1.76258   1.79750   1.81262
 Alpha virt. eigenvalues --    1.82805   1.84201   1.86158   1.86995   1.87502
 Alpha virt. eigenvalues --    1.90808   1.94094   1.95830   1.97359   1.97780
 Alpha virt. eigenvalues --    1.99963   2.01133   2.03194   2.04124   2.05007
 Alpha virt. eigenvalues --    2.05785   2.07438   2.07829   2.09248   2.10280
 Alpha virt. eigenvalues --    2.10880   2.12892   2.13996   2.14893   2.17727
 Alpha virt. eigenvalues --    2.18590   2.21371   2.22451   2.22686   2.24168
 Alpha virt. eigenvalues --    2.27261   2.29498   2.32642   2.33088   2.36372
 Alpha virt. eigenvalues --    2.37480   2.40210   2.40498   2.42841   2.45969
 Alpha virt. eigenvalues --    2.48897   2.52359   2.54301   2.55641   2.59272
 Alpha virt. eigenvalues --    2.63888   2.65860   2.70343   2.72935   2.74006
 Alpha virt. eigenvalues --    2.75546   2.81325   2.83057   2.88423   2.89338
 Alpha virt. eigenvalues --    2.94103   2.97566   3.00537   3.07372   3.82415
 Alpha virt. eigenvalues --    3.87480   3.93868   3.95948   4.08841   4.13774
 Alpha virt. eigenvalues --    4.22335   4.23294   4.24434   4.27416   4.28659
 Alpha virt. eigenvalues --    4.33473   4.55896   4.63680   4.65458
          Condensed to atoms (all electrons):
               1          2          3          4          5          6
     1  C    5.097237   0.250388  -0.032441  -0.032061   0.279998   0.002766
     2  C    0.250388   5.169562   0.296495  -0.024928  -0.014987  -0.041978
     3  C   -0.032441   0.296495   4.757565  -0.028291  -0.015036   0.366106
     4  C   -0.032061  -0.024928  -0.028291   5.242642   0.279764   0.002697
     5  C    0.279998  -0.014987  -0.015036   0.279764   4.957415  -0.000121
     6  H    0.002766  -0.041978   0.366106   0.002697  -0.000121   0.432198
     7  H   -0.035862   0.354382  -0.033750   0.000342   0.003165  -0.001177
     8  H    0.368129  -0.059198   0.004158   0.005377  -0.038016  -0.000117
     9  H    0.004899  -0.000186   0.002272   0.375297  -0.043724  -0.000092
    10  H   -0.042381   0.005466  -0.000114  -0.050703   0.372326   0.000016
    11  O   -0.008018  -0.025744   0.401763   0.098793  -0.019183  -0.036741
    12  O   -0.028974   0.131126  -0.023037   0.000081   0.001721   0.000377
    13  O    0.170848  -0.039691   0.005653   0.002059  -0.040843  -0.000080
    14  O   -0.045252   0.004167  -0.000259  -0.040551   0.255736  -0.000005
    15  C   -0.002029   0.000494  -0.000611   0.291069  -0.027021  -0.000076
    16  H   -0.000284   0.000065   0.000444  -0.048489   0.004410  -0.000019
    17  H    0.000525  -0.000944   0.003425  -0.042181  -0.010042   0.000001
    18  O    0.000272  -0.000012   0.000006  -0.046120  -0.005748   0.000001
    19  C    0.002234  -0.022984   0.000471  -0.000011  -0.000156   0.001365
    20  H    0.000407  -0.005584   0.000118   0.000000  -0.000008   0.000018
    21  H   -0.000140   0.004949  -0.000251   0.000000   0.000008  -0.000050
    22  H   -0.000167  -0.006356   0.000692   0.000002  -0.000001   0.000263
    23  C   -0.031941  -0.005168   0.000213  -0.000181   0.004134  -0.000003
    24  H    0.004869  -0.000078   0.000000   0.000018  -0.000146   0.000000
    25  H   -0.008121  -0.001034   0.000016   0.000009   0.000007   0.000000
    26  H   -0.005574   0.004812  -0.000134  -0.000030  -0.000099   0.000010
    27  C   -0.005458   0.001824   0.001385  -0.006100  -0.041293   0.000059
    28  H    0.005052  -0.005348   0.000307  -0.001340  -0.001486  -0.000013
    29  H   -0.000163   0.000000  -0.000006  -0.000167   0.004470   0.000000
    30  H   -0.000749  -0.000184   0.000150   0.010368  -0.009832  -0.000051
    31  C    0.000004  -0.000001   0.000007  -0.003976  -0.000253   0.000000
    32  H   -0.000005   0.000000  -0.000003   0.003195   0.000524   0.000000
    33  H    0.000000   0.000000   0.000000  -0.000091  -0.000002   0.000000
    34  H    0.000000   0.000000   0.000002  -0.001100   0.000009   0.000000
               7          8          9         10         11         12
     1  C   -0.035862   0.368129   0.004899  -0.042381  -0.008018  -0.028974
     2  C    0.354382  -0.059198  -0.000186   0.005466  -0.025744   0.131126
     3  C   -0.033750   0.004158   0.002272  -0.000114   0.401763  -0.023037
     4  C    0.000342   0.005377   0.375297  -0.050703   0.098793   0.000081
     5  C    0.003165  -0.038016  -0.043724   0.372326  -0.019183   0.001721
     6  H   -0.001177  -0.000117  -0.000092   0.000016  -0.036741   0.000377
     7  H    0.494055  -0.000339   0.000009  -0.000132   0.001460  -0.020786
     8  H   -0.000339   0.536998  -0.000109  -0.003493  -0.000027   0.005729
     9  H    0.000009  -0.000109   0.483197  -0.000358  -0.029861   0.000011
    10  H   -0.000132  -0.003493  -0.000358   0.509931   0.002736  -0.000063
    11  O    0.001460  -0.000027  -0.029861   0.002736   7.944350  -0.000401
    12  O   -0.020786   0.005729   0.000011  -0.000063  -0.000401   8.261230
    13  O   -0.003033  -0.023654  -0.000098   0.006818  -0.000427   0.001619
    14  O   -0.000051   0.003912   0.001661  -0.032824   0.000227   0.000129
    15  C    0.000004  -0.000117  -0.030951  -0.004829  -0.023138   0.000001
    16  H   -0.000010   0.000006  -0.005793   0.000727   0.003255   0.000000
    17  H    0.000050   0.000169   0.003955   0.000196   0.000489   0.000011
    18  O    0.000000  -0.000005  -0.000810   0.016215   0.001108   0.000000
    19  C   -0.006473   0.000333   0.000000   0.000002   0.000009   0.212094
    20  H    0.004791   0.000015   0.000000   0.000001  -0.000002  -0.033217
    21  H    0.000088  -0.000058   0.000000   0.000000   0.000002  -0.029153
    22  H    0.001844   0.000052   0.000000   0.000000  -0.000002  -0.030705
    23  C    0.003559  -0.005832   0.000005   0.000151  -0.000004   0.000023
    24  H   -0.000293   0.000002   0.000000  -0.000061   0.000000   0.000001
    25  H    0.000043   0.010028   0.000000  -0.000113   0.000000   0.000041
    26  H    0.004307  -0.001363   0.000000   0.000079   0.000002  -0.000545
    27  C   -0.000055  -0.000235   0.000040   0.004922   0.000354  -0.008595
    28  H    0.000351   0.000422   0.000460  -0.000293   0.000004   0.017689
    29  H    0.000001  -0.000065  -0.000226  -0.000121   0.000063   0.000174
    30  H   -0.000011   0.000190  -0.000238  -0.000096  -0.000297   0.000218
    31  C    0.000000   0.000000   0.003446  -0.000205   0.000008   0.000000
    32  H    0.000000   0.000000   0.002305  -0.000244  -0.000130   0.000000
    33  H    0.000000   0.000000  -0.000117  -0.000046   0.000001   0.000000
    34  H    0.000000   0.000000  -0.000057   0.000091   0.000014   0.000000
              13         14         15         16         17         18
     1  C    0.170848  -0.045252  -0.002029  -0.000284   0.000525   0.000272
     2  C   -0.039691   0.004167   0.000494   0.000065  -0.000944  -0.000012
     3  C    0.005653  -0.000259  -0.000611   0.000444   0.003425   0.000006
     4  C    0.002059  -0.040551   0.291069  -0.048489  -0.042181  -0.046120
     5  C   -0.040843   0.255736  -0.027021   0.004410  -0.010042  -0.005748
     6  H   -0.000080  -0.000005  -0.000076  -0.000019   0.000001   0.000001
     7  H   -0.003033  -0.000051   0.000004  -0.000010   0.000050   0.000000
     8  H   -0.023654   0.003912  -0.000117   0.000006   0.000169  -0.000005
     9  H   -0.000098   0.001661  -0.030951  -0.005793   0.003955  -0.000810
    10  H    0.006818  -0.032824  -0.004829   0.000727   0.000196   0.016215
    11  O   -0.000427   0.000227  -0.023138   0.003255   0.000489   0.001108
    12  O    0.001619   0.000129   0.000001   0.000000   0.000011   0.000000
    13  O    8.259332   0.001455  -0.005581   0.000203   0.016371  -0.000139
    14  O    0.001455   8.198442   0.002120  -0.000057   0.000008  -0.000004
    15  C   -0.005581   0.002120   4.915860   0.356569   0.371493   0.253519
    16  H    0.000203  -0.000057   0.356569   0.567520  -0.030108  -0.027748
    17  H    0.016371   0.000008   0.371493  -0.030108   0.518206  -0.031722
    18  O   -0.000139  -0.000004   0.253519  -0.027748  -0.031722   8.165394
    19  C   -0.000082   0.000003   0.000000   0.000000   0.000000   0.000000
    20  H   -0.000074   0.000000   0.000000   0.000000   0.000000   0.000000
    21  H    0.000000  -0.000001   0.000000   0.000000   0.000000   0.000000
    22  H    0.000010   0.000000   0.000000   0.000000   0.000000   0.000000
    23  C    0.233730  -0.000067   0.000177  -0.000007  -0.000160  -0.000001
    24  H   -0.030181   0.000001   0.000021   0.000000  -0.000119   0.000001
    25  H   -0.034403  -0.000013  -0.000020   0.000000   0.000072   0.000000
    26  H   -0.037377   0.000004   0.000016   0.000000  -0.000037   0.000000
    27  C    0.000016   0.236453   0.000319  -0.000003   0.000001  -0.000002
    28  H   -0.000040  -0.036736  -0.000004  -0.000001   0.000001   0.000000
    29  H    0.000001  -0.031998   0.000002   0.000000   0.000000   0.000000
    30  H    0.000005  -0.037173  -0.000079   0.000028  -0.000002   0.000001
    31  C   -0.000005  -0.000018  -0.044694  -0.008684   0.005310   0.239381
    32  H    0.000000   0.000003  -0.003346  -0.000765  -0.000342  -0.037581
    33  H    0.000000   0.000000   0.005228  -0.000050  -0.000171  -0.031136
    34  H    0.000000   0.000000  -0.009823   0.011287   0.000192  -0.033989
              19         20         21         22         23         24
     1  C    0.002234   0.000407  -0.000140  -0.000167  -0.031941   0.004869
     2  C   -0.022984  -0.005584   0.004949  -0.006356  -0.005168  -0.000078
     3  C    0.000471   0.000118  -0.000251   0.000692   0.000213   0.000000
     4  C   -0.000011   0.000000   0.000000   0.000002  -0.000181   0.000018
     5  C   -0.000156  -0.000008   0.000008  -0.000001   0.004134  -0.000146
     6  H    0.001365   0.000018  -0.000050   0.000263  -0.000003   0.000000
     7  H   -0.006473   0.004791   0.000088   0.001844   0.003559  -0.000293
     8  H    0.000333   0.000015  -0.000058   0.000052  -0.005832   0.000002
     9  H    0.000000   0.000000   0.000000   0.000000   0.000005   0.000000
    10  H    0.000002   0.000001   0.000000   0.000000   0.000151  -0.000061
    11  O    0.000009  -0.000002   0.000002  -0.000002  -0.000004   0.000000
    12  O    0.212094  -0.033217  -0.029153  -0.030705   0.000023   0.000001
    13  O   -0.000082  -0.000074   0.000000   0.000010   0.233730  -0.030181
    14  O    0.000003   0.000000  -0.000001   0.000000  -0.000067   0.000001
    15  C    0.000000   0.000000   0.000000   0.000000   0.000177   0.000021
    16  H    0.000000   0.000000   0.000000   0.000000  -0.000007   0.000000
    17  H    0.000000   0.000000   0.000000   0.000000  -0.000160  -0.000119
    18  O    0.000000   0.000000   0.000000   0.000000  -0.000001   0.000001
    19  C    4.920735   0.372166   0.384828   0.370183  -0.000076   0.000001
    20  H    0.372166   0.539527  -0.026470  -0.038756  -0.000015  -0.000001
    21  H    0.384828  -0.026470   0.490899  -0.028081   0.000001   0.000000
    22  H    0.370183  -0.038756  -0.028081   0.548619   0.000003   0.000000
    23  C   -0.000076  -0.000015   0.000001   0.000003   4.909528   0.386443
    24  H    0.000001  -0.000001   0.000000   0.000000   0.386443   0.506712
    25  H   -0.000003  -0.000001   0.000000   0.000000   0.372567  -0.027744
    26  H    0.000053   0.000809  -0.000004  -0.000031   0.359662  -0.030241
    27  C    0.000292  -0.000015   0.000039  -0.000014   0.000000   0.000000
    28  H   -0.000426   0.000041  -0.000080   0.000064   0.000006   0.000000
    29  H   -0.000005   0.000000  -0.000001   0.000000   0.000000   0.000000
    30  H   -0.000006   0.000000  -0.000002   0.000001   0.000000   0.000000
    31  C    0.000000   0.000000   0.000000   0.000000   0.000000   0.000000
    32  H    0.000000   0.000000   0.000000   0.000000   0.000000   0.000000
    33  H    0.000000   0.000000   0.000000   0.000000   0.000000   0.000000
    34  H    0.000000   0.000000   0.000000   0.000000   0.000000   0.000000
              25         26         27         28         29         30
     1  C   -0.008121  -0.005574  -0.005458   0.005052  -0.000163  -0.000749
     2  C   -0.001034   0.004812   0.001824  -0.005348   0.000000  -0.000184
     3  C    0.000016  -0.000134   0.001385   0.000307  -0.000006   0.000150
     4  C    0.000009  -0.000030  -0.006100  -0.001340  -0.000167   0.010368
     5  C    0.000007  -0.000099  -0.041293  -0.001486   0.004470  -0.009832
     6  H    0.000000   0.000010   0.000059  -0.000013   0.000000  -0.000051
     7  H    0.000043   0.004307  -0.000055   0.000351   0.000001  -0.000011
     8  H    0.010028  -0.001363  -0.000235   0.000422  -0.000065   0.000190
     9  H    0.000000   0.000000   0.000040   0.000460  -0.000226  -0.000238
    10  H   -0.000113   0.000079   0.004922  -0.000293  -0.000121  -0.000096
    11  O    0.000000   0.000002   0.000354   0.000004   0.000063  -0.000297
    12  O    0.000041  -0.000545  -0.008595   0.017689   0.000174   0.000218
    13  O   -0.034403  -0.037377   0.000016  -0.000040   0.000001   0.000005
    14  O   -0.000013   0.000004   0.236453  -0.036736  -0.031998  -0.037173
    15  C   -0.000020   0.000016   0.000319  -0.000004   0.000002  -0.000079
    16  H    0.000000   0.000000  -0.000003  -0.000001   0.000000   0.000028
    17  H    0.000072  -0.000037   0.000001   0.000001   0.000000  -0.000002
    18  O    0.000000   0.000000  -0.000002   0.000000   0.000000   0.000001
    19  C   -0.000003   0.000053   0.000292  -0.000426  -0.000005  -0.000006
    20  H   -0.000001   0.000809  -0.000015   0.000041   0.000000   0.000000
    21  H    0.000000  -0.000004   0.000039  -0.000080  -0.000001  -0.000002
    22  H    0.000000  -0.000031  -0.000014   0.000064   0.000000   0.000001
    23  C    0.372567   0.359662   0.000000   0.000006   0.000000   0.000000
    24  H   -0.027744  -0.030241   0.000000   0.000000   0.000000   0.000000
    25  H    0.561324  -0.044482   0.000001   0.000001   0.000000   0.000000
    26  H   -0.044482   0.593742   0.000000  -0.000001   0.000000   0.000000
    27  C    0.000001   0.000000   4.978016   0.356106   0.385157   0.359432
    28  H    0.000001  -0.000001   0.356106   0.556691  -0.026715  -0.045640
    29  H    0.000000   0.000000   0.385157  -0.026715   0.510408  -0.029212
    30  H    0.000000   0.000000   0.359432  -0.045640  -0.029212   0.600488
    31  C    0.000000   0.000000  -0.000001   0.000000   0.000000  -0.000001
    32  H    0.000000   0.000000   0.000002   0.000000   0.000000  -0.000007
    33  H    0.000000   0.000000   0.000000   0.000000   0.000000   0.000000
    34  H    0.000000   0.000000   0.000000   0.000000   0.000000   0.000000
              31         32         33         34
     1  C    0.000004  -0.000005   0.000000   0.000000
     2  C   -0.000001   0.000000   0.000000   0.000000
     3  C    0.000007  -0.000003   0.000000   0.000002
     4  C   -0.003976   0.003195  -0.000091  -0.001100
     5  C   -0.000253   0.000524  -0.000002   0.000009
     6  H    0.000000   0.000000   0.000000   0.000000
     7  H    0.000000   0.000000   0.000000   0.000000
     8  H    0.000000   0.000000   0.000000   0.000000
     9  H    0.003446   0.002305  -0.000117  -0.000057
    10  H   -0.000205  -0.000244  -0.000046   0.000091
    11  O    0.000008  -0.000130   0.000001   0.000014
    12  O    0.000000   0.000000   0.000000   0.000000
    13  O   -0.000005   0.000000   0.000000   0.000000
    14  O   -0.000018   0.000003   0.000000   0.000000
    15  C   -0.044694  -0.003346   0.005228  -0.009823
    16  H   -0.008684  -0.000765  -0.000050   0.011287
    17  H    0.005310  -0.000342  -0.000171   0.000192
    18  O    0.239381  -0.037581  -0.031136  -0.033989
    19  C    0.000000   0.000000   0.000000   0.000000
    20  H    0.000000   0.000000   0.000000   0.000000
    21  H    0.000000   0.000000   0.000000   0.000000
    22  H    0.000000   0.000000   0.000000   0.000000
    23  C    0.000000   0.000000   0.000000   0.000000
    24  H    0.000000   0.000000   0.000000   0.000000
    25  H    0.000000   0.000000   0.000000   0.000000
    26  H    0.000000   0.000000   0.000000   0.000000
    27  C   -0.000001   0.000002   0.000000   0.000000
    28  H    0.000000   0.000000   0.000000   0.000000
    29  H    0.000000   0.000000   0.000000   0.000000
    30  H   -0.000001  -0.000007   0.000000   0.000000
    31  C    4.915430   0.364097   0.387109   0.368807
    32  H    0.364097   0.589898  -0.031633  -0.044591
    33  H    0.387109  -0.031633   0.513303  -0.027986
    34  H    0.368807  -0.044591  -0.027986   0.574081
 Mulliken charges:
               1
     1  C    0.091992
     2  C    0.030674
     3  C    0.292685
     4  C    0.014605
     5  C    0.104309
     6  H    0.274648
     7  H    0.233525
     8  H    0.197106
     9  H    0.235064
    10  H    0.216400
    11  O   -0.310662
    12  O   -0.456800
    13  O   -0.482412
    14  O   -0.479311
    15  C   -0.044570
    16  H    0.177504
    17  H    0.195354
    18  O   -0.460875
    19  C   -0.234546
    20  H    0.186249
    21  H    0.203476
    22  H    0.182380
    23  C   -0.226746
    24  H    0.190794
    25  H    0.171826
    26  H    0.156422
    27  C   -0.262645
    28  H    0.180928
    29  H    0.188406
    30  H    0.152701
    31  C   -0.225760
    32  H    0.158624
    33  H    0.185590
    34  H    0.163064
 Sum of Mulliken charges =   1.00000
 Mulliken charges with hydrogens summed into heavy atoms:
               1
     1  C    0.289098
     2  C    0.264199
     3  C    0.567333
     4  C    0.249669
     5  C    0.320709
    11  O   -0.310662
[...]
 .00004734,-0.00004732,0.00003719,-0.00004446,0.00017703,0.00001190,0.0
 0005438,0.00021222,0.00000524,0.00001637,-0.00002476,-0.00002348,0.000
 01350,-0.00002044,0.00000956,0.00000007,-0.00004400,-0.00001938,0.0000
 1746,0.00016615,0.00018157,0.00015968,-0.00002200,-0.00005244,-0.00000
 980,-0.00002711,-0.00000680,-0.00002986,-0.00005553,-0.00003405,-0.000
 00635,-0.00240875,-0.15405565,0.13076384,-0.00063081,-0.00380291,0.007
 25996,-0.00719141,0.17939644,0.00029627,-0.00016496,-0.00004378,0.0000
 4511,-0.00023498,0.00005669,-0.00056338,-0.00042583,0.00034196,0.00031
 571,-0.00032409,-0.00012856,0.00122146,-0.00325364,0.00061304,0.000004
 54,0.00001708,0.00001568,0.00000899,0.00001379,0.00000903,-0.00002489,
 -0.00002723,-0.00000071,0.00027591,-0.00002998,0.00012606,0.00013071,-
 0.00028357,0.00024042,0.00008603,0.00041156,-0.00010195,0.00036050,0.0
 0027650,-0.00011453,-0.00009368,0.00000622,0.00003671,0.00111434,-0.01
 139211,0.01283679,0.00023999,0.00000600,0.00004956,0.00000971,0.000001
 88,-0.00000176,-0.00005682,0.00003505,-0.00003550,-0.00013907,0.000014
 80,0.00005881,-0.00026849,0.00004731,0.00003460,0.00005795,0.00002294,
 -0.00001747,0.00001693,-0.00000792,0.00000213,0.00003909,0.00001557,-0
 .00002384,-0.00003369,-0.00004044,0.00000562,-0.00000165,0.00000494,0.
 00000251,0.00000312,0.00000389,0.00000509,-0.00000791,-0.00000851,0.00
 000312,-0.00211355,0.14149684,-0.22137590,-0.00074722,0.00287885,-0.00
 388055,-0.00109486,-0.14462106,0.22932848,-0.00048060,0.00010848,-0.00
 029805,-0.00019677,0.00000233,-0.00009342,-0.00091505,-0.00131087,0.00
 055734,0.00048410,0.00015225,-0.00031446,0.00172547,-0.00133036,0.0010
 4792,-0.00001029,0.00001288,0.00001140,0.00003613,-0.00001212,0.000032
 58,-0.00006230,0.00002264,0.00010584,-0.00068306,0.00082084,-0.0004205
 8,-0.00004742,-0.00018124,0.00005102,0.00034331,0.00075002,-0.00069267
 ,-0.00002575,-0.00023773,0.00061095,0.00017912,0.00022041,0.00001818,0
 .00987757,0.01430963,0.01989281,0.00013369,-0.00009715,0.00023990,0.00
 000474,-0.00001038,-0.00000290,-0.00003596,0.00002043,0.00000372,-0.00
 012245,0.00004313,0.00001143,0.00006325,-0.00006398,0.00010415,-0.0000
 0787,-0.00000868,0.00000438,0.00002546,0.00001278,-0.00002508,-0.00005
 914,-0.00002405,0.00002193,-0.00004012,-0.00001245,-0.00004877,0.00001
 076,0.00001557,0.00000563,0.00000237,0.00000469,0.00001097,0.00000880,
 0.00001051,0.00000195,-0.11410057,-0.05048852,-0.09620303,-0.01153624,
 -0.01145017,-0.02540865,0.00057039,-0.00011151,0.00087812,0.11483690,0
 .00045749,-0.00025367,0.00034810,0.00001353,-0.00035725,-0.00000960,-0
 .00106157,-0.00021828,0.00056818,-0.00010392,-0.00049580,0.00065648,-0
 .00293525,0.00381510,-0.00491239,-0.00001469,0.00009088,-0.00001759,-0
 .00003360,0.00001034,0.00006164,0.00018886,0.00015726,-0.00000718,0.00
 112031,-0.00089805,0.00005431,0.00021061,0.00008439,0.00022853,0.00035
 450,-0.00012898,0.00095331,0.00006167,0.00002996,0.00026439,-0.0002265
 5,-0.00044269,0.00008184,-0.00081338,-0.02496219,-0.02531052,0.0003894
 0,0.00007140,-0.00009370,0.00000979,0.00000669,-0.00000601,-0.00010762
 ,0.00007584,-0.00008312,-0.00008921,-0.00000404,0.00012365,-0.00003442
 ,0.00001873,0.00005563,0.00002455,0.00000030,-0.00000173,0.00000591,0.
 00000688,-0.00000666,-0.00001433,-0.00000812,0.00000012,0.00010296,0.0
 0005373,0.00008170,-0.00001868,-0.00003489,-0.00000499,-0.00001014,0.0
 0000707,-0.00000677,-0.00003390,-0.00001832,0.00000348,-0.05031096,-0.
 09366105,-0.07526644,-0.00592038,-0.00153834,-0.00744424,0.00995334,0.
 01137521,0.01553863,0.04881344,0.10721717,0.00040492,-0.00000028,0.000
 16652,-0.00004907,-0.00002962,-0.00015877,-0.00003395,0.00090240,-0.00
 053187,-0.00016524,-0.00098313,0.00048228,0.00001976,0.00351947,-0.001
 10850,0.00002097,-0.00002440,0.00006039,0.00000398,-0.00001586,0.00003
 055,0.00012471,0.00008006,-0.00001943,-0.00002639,0.00006434,-0.000274
 17,0.00009946,-0.00015346,0.00016371,-0.00009812,0.00033781,0.00008651
 ,-0.00029358,-0.00018451,0.00010359,-0.00024626,-0.00046270,0.00008551
 ,0.00318221,-0.01460858,-0.00732854,0.00019692,0.00050403,0.00041525,0
 .00013098,-0.00013528,0.00007548,-0.00012680,0.00006868,-0.00005671,0.
 00015866,0.00000803,-0.00000900,0.00013347,0.00002117,-0.00002895,-0.0
 0001379,-0.00000839,0.00000418,-0.00002070,-0.00000267,-0.00000013,-0.
 00001220,-0.00000954,0.00001479,0.00014133,0.00010781,0.00007579,-0.00
 001735,-0.00004154,-0.00000838,-0.00001865,-0.00000133,-0.00001342,-0.
 00003698,-0.00001470,0.00000079,-0.09315248,-0.07720259,-0.20101370,0.
 00327828,0.00461391,0.00743550,-0.01340616,-0.01042520,-0.01804309,0.0
 9990140,0.09414107,0.21937925,-0.00008370,-0.00063807,-0.00002532,-0.0
 0022980,-0.00015905,-0.00019378,-0.00161449,-0.00031219,-0.00095453,-0
 .00198316,0.00015680,0.00014057,-0.00034505,0.00053490,-0.00138758,0.0
 0009260,0.00052019,-0.00017525,0.00010591,-0.00002181,0.00003332,0.000
 15991,0.00012179,0.00006180,-0.00028856,0.00048123,-0.00036825,-0.0009
 4223,-0.00038499,-0.00094722,0.00377611,-0.00136101,0.00090019,0.00111
 093,0.00002373,0.00033037,0.00051344,0.00074064,0.00027307,0.00075612,
 -0.00097712,0.00083862,-0.04357000,-0.01608316,0.00652004,0.00539740,-
 0.00132901,-0.00354877,0.00033715,0.00149377,-0.00050338,-0.15442704,-
 0.05812680,0.00766790,-0.00060592,-0.00009466,0.00025654,0.00012363,0.
 00003011,-0.00003423,0.00010491,0.00001659,0.00000132,0.00002934,0.000
 03410,-0.00006161,-0.00034754,-0.00058123,-0.00015326,0.00000323,0.000
 07131,0.00000741,0.00008671,0.00005932,0.00008528,0.00009753,0.0000496
 1,0.00001540,-0.00037408,0.00049504,0.00025223,0.00003129,-0.00003095,
 -0.00007835,0.00005652,-0.00011491,0.00005806,0.00004485,0.00003694,-0
 .00010185,0.51289803,-0.00029366,-0.00032865,-0.00009983,-0.00012852,0
 .00001014,-0.00009007,-0.00160202,-0.00084219,-0.00043167,0.00104367,0
 .00413440,-0.00224297,0.00009940,0.00026308,-0.00061788,0.00009273,0.0
 0036330,-0.00016240,0.00003255,-0.00000072,0.00001223,0.00006569,0.000
 04515,0.00003737,0.00119013,-0.00072509,-0.00058026,-0.00054463,-0.000
 22244,-0.00074678,0.00453026,-0.00180167,-0.00012187,0.00051873,-0.000
 02646,0.00006373,0.00044842,0.00042755,0.00026339,0.00034102,-0.000820
 57,0.00069616,0.00108623,0.00235668,0.00675986,0.00259912,-0.00033366,
 -0.00223325,0.00147515,0.00090466,-0.00069762,-0.08055340,-0.13097046,
 -0.01544699,-0.00029451,-0.00005137,0.00011941,0.00005681,0.00001405,-
 0.00001709,0.00005675,0.00000841,0.00000229,0.00001566,0.00001942,-0.0
 0002506,-0.00019707,-0.00040194,-0.00007246,-0.00000230,0.00003410,-0.
 00000038,0.00006552,0.00005179,0.00005654,0.00007373,0.00003980,0.0000
 0559,-0.00016966,0.00034694,0.00022806,0.00000606,-0.00003163,-0.00006
 273,0.00005120,-0.00007914,0.00003298,0.00003907,-0.00000408,-0.000109
 10,-0.07303331,0.53991615,0.00002740,0.00005264,0.00000729,-0.00012313
 ,-0.00004893,-0.00004870,-0.00045177,0.00000634,-0.00012663,-0.0008605
 7,0.00011304,0.00023119,-0.00024556,-0.00000338,-0.00068796,0.00003388
 ,0.00003821,0.00000983,0.00001020,-0.00000326,0.00001834,0.00003352,0.
 00002954,0.00000795,-0.00035230,0.00014476,0.00016972,0.00007626,-0.00
 012304,0.00041343,0.00029799,0.00006940,0.00014243,0.00019468,0.000004
 61,0.00007874,0.00009000,0.00013588,0.00020461,0.00003752,0.00003050,0
 .00017123,0.02581516,0.01780425,-0.00665467,0.00409800,0.00216112,0.00
 178100,0.00504924,-0.00128712,-0.00345141,-0.02199256,-0.03244900,-0.0
 7654960,-0.00011188,-0.00001563,0.00004935,0.00002269,0.00000435,-0.00
 000584,0.00001693,0.00000360,0.00000001,0.00000491,0.00000573,-0.00001
 424,-0.00005486,-0.00010517,0.00003417,-0.00000078,0.00001482,0.000000
 57,0.00002473,0.00002775,0.00001359,0.00000862,0.00000296,-0.00000059,
 -0.00008228,0.00005324,-0.00003308,0.00000495,0.00000553,-0.00000187,-
 0.00000332,0.00000386,0.00001482,0.00000089,0.00002614,0.00000332,-0.0
 3042451,0.00864511,0.60486417,-0.00000686,-0.00003369,0.00008016,0.000
 02774,0.00007033,0.00003204,-0.00009142,-0.00024517,-0.00001210,-0.001
 38815,0.00060110,-0.00022138,0.00016513,-0.00000384,0.00013285,0.00004
 939,0.00000183,-0.00000671,-0.00000545,0.00000405,-0.00000702,0.000000
 85,0.00000981,-0.00001198,-0.00146650,0.00039875,0.00002032,0.00005501
 ,-0.00004531,0.00002197,0.00109043,0.00012219,-0.00056340,-0.00009421,
 -0.00001014,-0.00006450,-0.00003180,-0.00002460,-0.00003594,0.00001359
 ,0.00003975,-0.00003578,0.00462482,-0.00267091,-0.00105411,-0.00050111
 ,0.00016356,0.00027991,-0.00053114,0.00034492,0.00046568,-0.00120806,-
 0.03705869,0.00727780,0.00003944,0.00000554,-0.00002134,-0.00000998,-0
 .00000185,0.00000279,-0.00000676,-0.00000175,0.00000053,-0.00000148,-0
 .00000180,0.00000542,0.00001338,0.00003376,0.00000229,0.00000119,-0.00
 000148,-0.00000044,-0.00000591,-0.00000483,-0.00000589,-0.00000426,-0.
 00000267,-0.00000074,-0.00002317,0.00001426,-0.00000818,0.00000679,-0.
 00000424,0.00000209,0.00000168,0.00000173,-0.00000031,-0.00000958,-0.0
 0000049,0.00000142,-0.07265504,0.06823882,-0.01684172,0.07658849,0.000
 08037,0.00000201,0.00009076,0.00002794,0.00004280,0.00002997,0.0002231
 6,0.00000320,0.00015025,0.00005108,-0.00054711,0.00067039,-0.00006258,
 -0.00007410,-0.00001078,0.00000888,-0.00013362,0.00007103,-0.00000487,
 0.00000119,-0.00001120,-0.00000233,0.00000923,-0.00001702,0.00001044,0
 .00018881,-0.00024296,0.00011852,0.00003699,0.00016233,-0.00081632,0.0
 0071242,-0.00025076,-0.00013218,0.00001197,-0.00003248,-0.00011734,-0.
 00007067,-0.00008576,-0.00001730,0.00017088,-0.00011927,0.00363485,-0.
 00094003,-0.00309176,-0.00025794,0.00027218,0.00050946,-0.00066805,0.0
 0019559,0.00036375,-0.01281894,-0.02306936,0.00335119,0.00006201,0.000
 00822,-0.00002966,-0.00001445,-0.00000251,0.00000455,-0.00001335,-0.00
 000206,-0.00000054,-0.00000289,-0.00000475,0.00000447,0.00004023,0.000
 09024,0.00001206,0.00000323,-0.00000074,0.00000092,-0.00001596,-0.0000
 1263,-0.00001656,-0.00001591,-0.00000871,-0.00000088,0.00000013,-0.000
 03402,-0.00004466,0.00000683,0.00000022,0.00001259,-0.00001098,0.00001
 418,-0.00000623,-0.00000946,0.00000084,0.00002138,0.06494937,-0.268033
 36,0.06034871,-0.06068612,0.29960877,0.00000267,0.00001362,-0.00003060
 ,0.00002570,0.00001930,0.00001649,0.00013617,0.00006189,0.00006885,-0.
 00026272,0.00030100,0.00020999,0.00007003,0.00001329,0.00021249,-0.000
 00858,-0.00001929,-0.00000354,-0.00000931,0.00000164,-0.00000580,-0.00
 001401,-0.00001281,-0.00000339,0.00022625,-0.00048570,-0.00001103,-0.0
 0003820,-0.00004657,-0.00005153,-0.00013009,-0.00015567,-0.00006190,-0
 .00008686,-0.00000743,-0.00004196,-0.00002318,-0.00005196,-0.00002046,
 -0.00003507,0.00004444,-0.00008779,-0.00031927,0.00073042,-0.00006964,
 -0.00022315,0.00016392,-0.00025474,0.00001055,-0.00005055,-0.00002378,
 0.00269284,-0.00457176,0.00449215,0.00004989,0.00000612,-0.00001987,-0
 .00001071,-0.00000275,0.00000236,-0.00000726,-0.00000099,0.00000037,-0
 .00000218,-0.00000200,0.00000526,0.00001877,0.00003216,0.00000956,-0.0
 0000044,-0.00000617,-0.00000078,-0.00000560,-0.00000449,-0.00000466,-0
 .00000353,-0.00000223,-0.00000235,0.00003091,-0.00000943,0.00001004,-0
 .00000014,-0.00000077,0.00000144,-0.00000477,0.00000538,-0.00000751,-0
 .00000583,-0.00001057,0.00000189,-0.01782374,0.06110765,-0.07165456,0.
 01937265,-0.06573517,0.06647468,0.00003116,0.00005566,-0.00000395,0.00
 006160,0.00004148,0.00004291,0.00038144,0.00012026,0.00011219,0.000223
 73,-0.00054544,0.00037466,0.00003461,-0.00008288,0.00031834,-0.0000120
 2,-0.00007457,0.00002103,-0.00001129,0.00000194,-0.00000871,-0.0000319
 4,-0.00002165,-0.00001149,0.00009577,0.00000695,-0.00000934,0.00004375
 ,0.00002640,0.00007690,-0.00061775,0.00022713,-0.00007424,-0.00018744,
 -0.00000781,-0.00006416,-0.00011450,-0.00014806,-0.00011218,-0.0000954
 6,0.00013957,-0.00017157,-0.00199904,-0.00361938,-0.00223131,0.0000070
 9,0.00004681,0.00013998,-0.00113601,0.00040821,0.00078810,-0.02898799,
 0.00331986,0.01961898,0.00010280,0.00001666,-0.00004221,-0.00002131,-0
 .00000576,0.00000570,-0.00001782,-0.00000279,0.00000025,-0.00000507,-0
 .00000551,0.00000996,0.00005556,0.00011997,0.00001811,-0.00000146,-0.0
 0001540,0.00000284,-0.00002455,-0.00001769,-0.00001876,-0.00001518,-0.
 00001172,-0.00000512,0.00005382,-0.00005624,-0.00001969,-0.00000152,0.
 00000118,0.00000962,-0.00000884,0.00001625,-0.00001083,-0.00000861,-0.
 00001163,0.00000947,-0.16694112,0.06699293,0.11379359,-0.00371816,0.00
 434080,0.00529495,0.19204910,0.00003628,-0.00000619,0.00005995,0.00001
 418,0.00000705,0.00000925,0.00013189,0.00004432,0.00001253,-0.00013802
 ,-0.00063018,0.00042916,0.00003919,0.00005547,-0.00002576,0.00000194,-
 0.00003752,0.00001983,0.00000103,0.00000046,-0.00000281,0.00000593,0.0
 0000814,-0.00000559,-0.00036806,0.00031013,-0.00001376,0.00001997,0.00
 000541,0.00001441,-0.00034343,0.00032818,-0.00001713,-0.00003100,0.000
 00266,-0.00000375,-0.00004074,-0.00003602,-0.00005133,-0.00000591,0.00
 003094,-0.00004117,-0.00403788,-0.00198496,-0.00017497,0.00008496,-0.0
 0010706,0.00007110,-0.00088031,0.00023686,0.00056130,-0.02204400,0.006
 78327,0.01684592,0.00001599,0.00000223,-0.00000828,-0.00000384,-0.0000
 0045,0.00000084,-0.00000327,-0.00000089,-0.00000030,-0.00000072,-0.000
 00119,0.00000156,0.00000745,0.00003718,-0.00000507,0.00000007,-0.00000
 310,0.00000122,-0.00000752,-0.00000759,-0.00000492,-0.00000462,-0.0000
 0450,-0.00000044,-0.00000458,-0.00002030,-0.00001808,0.00000115,0.0000
 0185,0.00000562,0.00000083,0.00000102,-0.00000010,-0.00000245,0.000002
 19,0.00000844,0.07620635,-0.09105955,-0.07167498,0.01991382,-0.0091915
 5,-0.02034003,-0.06694399,0.09366662,-0.00002946,-0.00000502,-0.000017
 95,-0.00000065,0.00002186,0.00000142,-0.00010166,0.00000040,-0.0000049
 7,0.00004915,-0.00000966,0.00014962,-0.00002840,-0.00006778,0.00001251
 ,0.00000727,-0.00000334,0.00000076,0.00000259,-0.00000125,-0.00000202,
 0.00000211,-0.00000227,0.00000109,0.00014291,-0.00006130,-0.00003563,-
 0.00003995,-0.00000476,-0.00003704,0.00010705,0.00000844,-0.00000876,0
 .00001642,-0.00000343,-0.00000203,0.00004539,0.00004316,0.00002315,0.0
 0004623,-0.00003470,0.00004363,-0.00143920,0.00020405,0.00110337,-0.00
 017602,0.00008795,0.00049336,0.00014677,0.00000264,0.00024576,-0.00214
 824,0.00240070,0.00351870,-0.00001353,-0.00000355,0.00000292,0.0000014
 6,0.00000107,-0.00000047,0.00000179,0.00000002,-0.00000004,0.00000093,
 0.00000070,-0.00000115,-0.00001118,-0.00003321,-0.00000120,0.00000031,
 0.00000348,-0.00000050,0.00000522,0.00000462,0.00000405,0.00000543,0.0
 0000414,0.00000031,-0.00001725,0.00002291,0.00001262,0.00000355,-0.000
 00262,-0.00000260,0.00000223,-0.00000471,0.00000068,0.00000262,-0.0000
 0081,-0.00000366,0.12134102,-0.06639886,-0.17074152,-0.00721575,0.0035
 8875,0.00724710,-0.13067943,0.07189887,0.17474774,0.00001383,0.0001179
 8,-0.00000012,0.00002739,0.00005784,0.00003075,0.00009424,0.00004190,0
 .00012600,-0.00002271,0.00009285,0.00044978,0.00005602,-0.00026825,0.0
 0009434,-0.00000096,-0.00008071,0.00002699,-0.00001247,0.00000071,-0.0
 0000399,-0.00002276,-0.00001842,-0.00000829,0.00003438,-0.00001069,-0.
 00003918,0.00016241,0.00004915,0.00026911,-0.00040728,0.00027239,-0.00
 013339,-0.00016741,-0.00001164,-0.00004100,-0.00007604,-0.00010525,-0.
 00001156,-0.00010104,0.00018057,-0.00003112,0.00407296,-0.00140060,-0.
 00684267,0.00007538,0.00074375,0.00138431,0.00014238,0.00001931,0.0001
 3674,-0.02565545,-0.01119291,-0.02391016,0.00008415,0.00001553,-0.0000
 3926,-0.00001758,-0.00000441,0.00000475,-0.00001580,-0.00000306,-0.000
 00003,-0.00000416,-0.00000450,0.00000894,0.00004933,0.00008881,0.00003
 002,-0.00000015,-0.00001062,-0.00000241,-0.00001131,-0.00000712,-0.000
 01055,-0.00001826,-0.00000842,-0.00000225,0.00003472,-0.00005918,-0.00
 004748,-0.00000437,0.00000487,0.00001156,-0.00000863,0.00001944,-0.000
 00620,-0.00000510,-0.00000258,0.00001163,-0.08131788,0.00769944,-0.078
 09590,-0.00091891,0.00210915,-0.00891672,0.01081663,-0.00162069,0.0199
 7030,0.09312445,0.00003899,0.00007483,0.00001136,0.00001138,-0.0000043
 4,0.00001156,0.00020307,0.00008861,0.00004177,0.00009590,-0.00059843,0
 .00022467,-0.00005255,-0.00017010,0.00002790,-0.00000248,-0.00004841,0
 .00002500,-0.00000906,0.00000123,0.00000090,-0.00001433,-0.00000994,-0
 .00000602,-0.00005316,0.00010105,0.00012359,0.00011743,0.00004705,0.00
 022275,-0.00045283,0.00024422,-0.00003199,-0.00008610,0.00000034,-0.00
 001255,-0.00008027,-0.00008277,-0.00002706,-0.00005501,0.00016495,-0.0
 0006982,0.00325757,-0.00019374,-0.00244477,0.00017539,0.00044412,0.000
 76561,0.00014959,-0.00006004,-0.00004917,-0.02032420,-0.00399666,-0.02
 239304,0.00004889,0.00001033,-0.00001888,-0.00000896,-0.00000318,0.000
 00230,-0.00000890,-0.00000115,0.00000026,-0.00000276,-0.00000241,0.000
 00409,0.00003452,0.00007766,0.00001999,0.00000022,-0.00000812,-0.00000
 129,-0.00001080,-0.00000839,-0.00000926,-0.00001505,-0.00000882,-0.000
 00204,0.00001953,-0.00003418,-0.00003673,-0.00000067,0.00000364,0.0000
 0838,-0.00001101,0.00001722,-0.00000415,-0.00000798,0.00000180,0.00001
 427,0.00722646,-0.05320264,0.01597841,0.01083335,0.00075548,0.02901550
 ,-0.00431156,0.00156707,-0.01165651,0.00329537,0.05483370,0.00002306,0
 .00009542,-0.00001671,0.00002905,-0.00001100,0.00001379,0.00021977,0.0
 0005630,0.00007355,-0.00011159,0.00001473,-0.00044072,0.00012291,-0.00
 002952,0.00027935,-0.00001882,-0.00002754,0.00000251,-0.00001405,0.000
 00244,0.00000072,-0.00001854,-0.00001722,-0.00000129,0.00002254,-0.000
 04647,-0.00004037,0.00014503,0.00000579,0.00010404,-0.00030943,0.00000
 028,-0.00004009,-0.00011725,-0.00000218,-0.00002229,-0.00004800,-0.000
 07933,-0.00001489,-0.00010572,0.00010774,-0.00013429,0.00274487,0.0001
 9001,0.00248896,-0.00182043,0.00011154,0.00011783,-0.00014716,0.000137
 26,0.00053696,-0.00554080,-0.00562306,0.00256135,0.00007013,0.00001212
 ,-0.00002808,-0.00001255,-0.00000342,0.00000349,-0.00001103,-0.0000017
 3,-0.00000035,-0.00000376,-0.00000380,0.00000816,0.00004520,0.00006548
 ,0.00001538,-0.00000063,-0.00001002,-0.00000324,-0.00000727,-0.0000069
 6,-0.00000631,-0.00001332,-0.00000495,-0.00000008,0.00007200,-0.000087
 77,-0.00003210,-0.00000942,0.00000499,0.00000973,-0.00000342,0.0000123
 2,-0.00000668,-0.00000170,-0.00000489,0.00001306,-0.08200148,0.0121269
 0,-0.27824512,-0.00159065,0.00030311,-0.00639678,-0.00717459,0.0024484
 7,-0.01674925,0.09558705,-0.00973505,0.29594975\\-0.00000264,0.0000099
 1,-0.00000560,-0.00000335,0.00000075,-0.00000814,-0.00001950,-0.000007
 52,0.00000772,0.00000043,-0.00001140,0.00000354,0.00000117,-0.00000454
 ,0.00000166,-0.00000269,0.00000868,-0.00000898,-0.00000804,0.00002110,
 -0.00000144,0.00000170,-0.00000310,0.00000005,0.00000120,-0.00000047,-
 0.00000359,0.00000152,-0.00000723,0.00000491,0.00000795,0.00000227,-0.
 00000690,0.00001708,0.00000060,0.00001077,0.00000520,0.00000210,-0.000
 00638,-0.00000659,-0.00000940,0.00000263,-0.00000040,0.00000891,0.0000
 0568,-0.00000753,0.00000057,0.00001040,-0.00000613,-0.00000059,-0.0000
 0240,-0.00000275,-0.00001046,0.00001202,0.00000724,0.00001257,-0.00000
 864,-0.00000229,0.00000310,-0.00000885,-0.00000113,0.00000903,-0.00001
 303,0.00000134,0.00001247,-0.00000326,-0.00000455,0.00000760,0.0000097
 4,-0.00000668,-0.00000445,0.00000671,-0.00000230,-0.00000037,0.0000050
 0,-0.00000919,0.00000056,0.00000067,0.00000908,0.00000423,-0.00001439,
 0.00000842,-0.00000484,0.00000079,0.00001982,-0.00000192,-0.00000637,0
 .00000206,-0.00000115,-0.00000495,0.00000085,-0.00000633,0.00000086,0.
 00000261,-0.00001036,0.00000567,-0.00000017,-0.00000951,0.00000658,-0.
 00000176,-0.00001082,0.00000751\\\@


 REVOLUTIONS HAVE NEVER LIGHTENED THE BURDEN OF TYRANNY:
 THEY HAVE MERELY SHIFTED IT TO OTHER SHOULDERS.
                                   -- G. B. SHAW (1903)
 Job cpu time:       0 days  1 hours  6 minutes 39.1 seconds.
 Elapsed time:       0 days  0 hours 16 minutes 42.8 seconds.
 File lengths (MBytes):  RWF=    379 Int=      0 D2E=      0 Chk=     17 Scr=      1
 Normal termination of Gaussian 16 at Fri May 24 08:49:38 2019.
