 Entering Gaussian System, Link 0=g16
 Input=clay-glucose_cation-014-b3lyp_d3bj-631gd-pcm_thf.gjf
 Output=clay-glucose_cation-014-b3lyp_d3bj-631gd-pcm_thf.out
 Initial command:
 /n/sw/g16_nehalem/g16/l1.exe "/scratch/Gau-63552.inp" -scrdir="/scratch/"
 Entering Link 1 = /n/sw/g16_nehalem/g16/l1.exe PID=     63569.
  
 Copyright (c) 1988,1990,1992,1993,1995,1998,2003,2009,2016,
            Gaussian, Inc.  All Rights Reserved.
  
 This is part of the Gaussian(R) 16 program.  It is based on
 the Gaussian(R) 09 system (copyright 2009, Gaussian, Inc.),
 the Gaussian(R) 03 system (copyright 2003, Gaussian, Inc.),
 the Gaussian(R) 98 system (copyright 1998, Gaussian, Inc.),
 the Gaussian(R) 94 system (copyright 1995, Gaussian, Inc.),
 the Gaussian 92(TM) system (copyright 1992, Gaussian, Inc.),
 the Gaussian 90(TM) system (copyright 1990, Gaussian, Inc.),
 the Gaussian 88(TM) system (copyright 1988, Gaussian, Inc.),
 the Gaussian 86(TM) system (copyright 1986, Carnegie Mellon
 University), and the Gaussian 82(TM) system (copyright 1983,
 Carnegie Mellon University). Gaussian is a federally registered
 trademark of Gaussian, Inc.
  
 This software contains proprietary and confidential information,
 including trade secrets, belonging to Gaussian, Inc.
  
 This software is provided under written license and may be
 used, copied, transmitted, or stored only in accord with that
 written license.
  
 The following legend is applicable only to US Government
 contracts under FAR:
  
                    RESTRICTED RIGHTS LEGEND
  
 Use, reproduction and disclosure by the US Government is
 subject to restrictions as set forth in subparagraphs (a)
 and (c) of the Commercial Computer Software - Restricted
 Rights clause in FAR 52.227-19.
  
 Gaussian, Inc.
 340 Quinnipiac St., Bldg. 40, Wallingford CT 06492
  
  
 ---------------------------------------------------------------
 Warning -- This program may not be used in any manner that
 competes with the business of Gaussian, Inc. or will provide
 assistance to any competitor of Gaussian, Inc.  The licensee
 of this program is prohibited from giving any competitor of
 Gaussian, Inc. access to this program.  By using this program,
 the user acknowledges that Gaussian, Inc. is engaged in the
 business of creating and licensing software in the field of
 computational chemistry and represents and warrants to the
 licensee that it is not a competitor of Gaussian, Inc. and that
 it will not use this program in any manner prohibited above.
 ---------------------------------------------------------------
  

 Cite this work as:
 Gaussian 16, Revision A.03,
 M. J. Frisch, G. W. Trucks, H. B. Schlegel, G. E. Scuseria, 
 M. A. Robb, J. R. Cheeseman, G. Scalmani, V. Barone, 
 G. A. Petersson, H. Nakatsuji, X. Li, M. Caricato, A. V. Marenich, 
 J. Bloino, B. G. Janesko, R. Gomperts, B. Mennucci, H. P. Hratchian, 
 J. V. Ortiz, A. F. Izmaylov, J. L. Sonnenberg, D. Williams-Young, 
 F. Ding, F. Lipparini, F. Egidi, J. Goings, B. Peng, A. Petrone, 
 T. Henderson, D. Ranasinghe, V. G. Zakrzewski, J. Gao, N. Rega, 
 G. Zheng, W. Liang, M. Hada, M. Ehara, K. Toyota, R. Fukuda, 
 J. Hasegawa, M. Ishida, T. Nakajima, Y. Honda, O. Kitao, H. Nakai, 
 T. Vreven, K. Throssell, J. A. Montgomery, Jr., J. E. Peralta, 
 F. Ogliaro, M. J. Bearpark, J. J. Heyd, E. N. Brothers, K. N. Kudin, 
 V. N. Staroverov, T. A. Keith, R. Kobayashi, J. Normand, 
 K. Raghavachari, A. P. Rendell, J. C. Burant, S. S. Iyengar, 
 J. Tomasi, M. Cossi, J. M. Millam, M. Klene, C. Adamo, R. Cammi, 
 J. W. Ochterski, R. L. Martin, K. Morokuma, O. Farkas, 
 J. B. Foresman, and D. J. Fox, Gaussian, Inc., Wallingford CT, 2016.
 
 ******************************************
 Gaussian 16:  ES64L-G16RevA.03 25-Dec-2016
                24-May-2019 
 ******************************************
 %nprocshared=4
 Will use up to    4 processors via shared memory.
 %mem=3GB
 -------------------------------------------------------------------
 #p b3lyp 6-31g* opt freq=noraman scrf=(pcm,solvent=tetrahydrofuran)
 -------------------------------------------------------------------
 1/18=20,19=15,26=3,38=1/1,3;
 2/9=110,12=2,17=6,18=5,40=1/2;
 3/5=1,6=6,7=1,11=2,25=1,30=1,70=2201,71=1,72=20,74=-5/1,2,3;
 4//1;
 5/5=2,38=5,53=20/2;
 6/7=2,8=2,9=2,10=2,28=1/1;
 7//1,2,3,16;
 1/18=20,19=15,26=3/3(2);
 2/9=110/2;
 99//99;
 2/9=110/2;
 3/5=1,6=6,7=1,11=2,25=1,30=1,70=2205,71=1,72=20,74=-5/1,2,3;
 4/5=5,16=3,69=1/1;
 5/5=2,38=5,53=20/2;
 7//1,2,3,16;
 1/18=20,19=15,26=3/3(-5);
 2/9=110/2;
 6/7=2,8=2,9=2,10=2,19=2,28=1/1;
 99/9=1/99;
 Leave Link    1 at Fri May 24 08:30:03 2019, MaxMem=   402653184 cpu:               0.3 elap:               0.1
 (Enter /n/sw/g16_nehalem/g16/l101.exe)
 -----
 title
 -----
 Symbolic Z-matrix:
 Charge =  1 Multiplicity = 1
 6                     0.93082   0.31681  -0.62666 
 6                     1.47431  -0.5184    0.59832 
 6                     1.01044   0.02804   1.89144 
 6                    -1.1272    0.58917   0.96336 
 6                    -0.38624   1.08074  -0.27992 
 1                     1.68084   0.06079   2.75114 
 1                     1.01204  -1.52413   0.54922 
 1                     1.69573   1.08087  -0.78017 
 1                    -1.78344   1.38532   1.30955 
 1                    -1.0876    1.00543  -1.12071 
 8                    -0.14888   0.47812   2.09723 
 8                     2.86705  -0.59349   0.64824 
 8                     0.92833  -0.42368  -1.81797 
 8                    -0.07156   2.43277   0.01239 
 6                    -1.91214  -0.72417   0.88591 
 1                    -2.39946  -0.89485   1.85636 
 1                    -1.26314  -1.58937   0.68473 
 8                    -2.84916  -0.53371  -0.14553 
 6                     3.4415   -1.68016  -0.09419 
 1                     3.23406  -1.57747  -1.16334 
 1                     4.51618  -1.62603   0.08195 
 1                     3.0591   -2.64164   0.27099 
 6                    -0.01216  -1.48907  -1.95767 
 1                     0.21022  -2.32519  -1.2792 
 1                     0.09577  -1.84558  -2.98302 
 1                    -1.04327  -1.15427  -1.79867 
 6                     0.09945   3.25914  -1.13999 
 1                     0.94075   2.9285   -1.76266 
 1                    -0.81398   3.27233  -1.74857 
 1                     0.3062    4.26347  -0.76713 
 6                    -3.83351  -1.56676  -0.20213 
 1                    -4.5019   -1.31175  -1.02583 
 1                    -3.37139  -2.54411  -0.39454 
 1                    -4.40474  -1.61448   0.73411 
 
 ITRead=  0  0  0  0  0  0  0  0  0  0  0  0  0  0  0  0  0  0  0  0
 ITRead=  0  0  0  0  0  0  0  0  0  0  0  0  0  0
 MicOpt= -1 -1 -1 -1 -1 -1 -1 -1 -1 -1 -1 -1 -1 -1 -1 -1 -1 -1 -1 -1
 MicOpt= -1 -1 -1 -1 -1 -1 -1 -1 -1 -1 -1 -1 -1 -1
 NAtoms=     34 NQM=       34 NQMF=       0 NMMI=      0 NMMIF=      0
                NMic=       0 NMicF=      0.
                    Isotopes and Nuclear Properties:
 (Nuclear quadrupole moments (NQMom) in fm**2, nuclear magnetic moments (NMagM)
  in nuclear magnetons)

  Atom         1           2           3           4           5           6           7           8           9          10
 IAtWgt=          12          12          12          12          12           1           1           1           1           1
 AtmWgt=  12.0000000  12.0000000  12.0000000  12.0000000  12.0000000   1.0078250   1.0078250   1.0078250   1.0078250   1.0078250
 NucSpn=           0           0           0           0           0           1           1           1           1           1
 AtZEff=   0.0000000   0.0000000   0.0000000   0.0000000   0.0000000   0.0000000   0.0000000   0.0000000   0.0000000   0.0000000
 NQMom=    0.0000000   0.0000000   0.0000000   0.0000000   0.0000000   0.0000000   0.0000000   0.0000000   0.0000000   0.0000000
 NMagM=    0.0000000   0.0000000   0.0000000   0.0000000   0.0000000   2.7928460   2.7928460   2.7928460   2.7928460   2.7928460
 AtZNuc=   6.0000000   6.0000000   6.0000000   6.0000000   6.0000000   1.0000000   1.0000000   1.0000000   1.0000000   1.0000000

  Atom        11          12          13          14          15          16          17          18          19          20
 IAtWgt=          16          16          16          16          12           1           1          16          12           1
 AtmWgt=  15.9949146  15.9949146  15.9949146  15.9949146  12.0000000   1.0078250   1.0078250  15.9949146  12.0000000   1.0078250
 NucSpn=           0           0           0           0           0           1           1           0           0           1
 AtZEff=   0.0000000   0.0000000   0.0000000   0.0000000   0.0000000   0.0000000   0.0000000   0.0000000   0.0000000   0.0000000
 NQMom=    0.0000000   0.0000000   0.0000000   0.0000000   0.0000000   0.0000000   0.0000000   0.0000000   0.0000000   0.0000000
 NMagM=    0.0000000   0.0000000   0.0000000   0.0000000   0.0000000   2.7928460   2.7928460   0.0000000   0.0000000   2.7928460
 AtZNuc=   8.0000000   8.0000000   8.0000000   8.0000000   6.0000000   1.0000000   1.0000000   8.0000000   6.0000000   1.0000000

  Atom        21          22          23          24          25          26          27          28          29          30
 IAtWgt=           1           1          12           1           1           1          12           1           1           1
 AtmWgt=   1.0078250   1.0078250  12.0000000   1.0078250   1.0078250   1.0078250  12.0000000   1.0078250   1.0078250   1.0078250
 NucSpn=           1           1           0           1           1           1           0           1           1           1
 AtZEff=   0.0000000   0.0000000   0.0000000   0.0000000   0.0000000   0.0000000   0.0000000   0.0000000   0.0000000   0.0000000
 NQMom=    0.0000000   0.0000000   0.0000000   0.0000000   0.0000000   0.0000000   0.0000000   0.0000000   0.0000000   0.0000000
 NMagM=    2.7928460   2.7928460   0.0000000   2.7928460   2.7928460   2.7928460   0.0000000   2.7928460   2.7928460   2.7928460
 AtZNuc=   1.0000000   1.0000000   6.0000000   1.0000000   1.0000000   1.0000000   6.0000000   1.0000000   1.0000000   1.0000000

  Atom        31          32          33          34
 IAtWgt=          12           1           1           1
 AtmWgt=  12.0000000   1.0078250   1.0078250   1.0078250
 NucSpn=           0           1           1           1
 AtZEff=   0.0000000   0.0000000   0.0000000   0.0000000
 NQMom=    0.0000000   0.0000000   0.0000000   0.0000000
 NMagM=    0.0000000   2.7928460   2.7928460   2.7928460
 AtZNuc=   6.0000000   1.0000000   1.0000000   1.0000000
 Leave Link  101 at Fri May 24 08:30:03 2019, MaxMem=   402653184 cpu:               0.6 elap:               0.2
 (Enter /n/sw/g16_nehalem/g16/l103.exe)

 GradGradGradGradGradGradGradGradGradGradGradGradGradGradGradGradGradGrad
 Berny optimization.
 Initialization pass.
                           ----------------------------
                           !    Initial Parameters    !
                           ! (Angstroms and Degrees)  !
 --------------------------                            --------------------------
 ! Name  Definition              Value          Derivative Info.                !
 --------------------------------------------------------------------------------
 ! R1    R(1,2)                  1.5791         estimate D2E/DX2                !
 ! R2    R(1,5)                  1.5616         estimate D2E/DX2                !
 ! R3    R(1,8)                  1.092          estimate D2E/DX2                !
 ! R4    R(1,13)                 1.4027         estimate D2E/DX2                !
 ! R5    R(2,3)                  1.4785         estimate D2E/DX2                !
 ! R6    R(2,7)                  1.108          estimate D2E/DX2                !
 ! R7    R(2,12)                 1.3957         estimate D2E/DX2                !
 ! R8    R(3,6)                  1.0907         estimate D2E/DX2                !
 ! R9    R(3,11)                 1.2605         estimate D2E/DX2                !
 ! R10   R(4,5)                  1.5285         estimate D2E/DX2                !
 ! R11   R(4,9)                  1.0883         estimate D2E/DX2                !
 ! R12   R(4,11)                 1.5017         estimate D2E/DX2                !
 ! R13   R(4,15)                 1.532          estimate D2E/DX2                !
 ! R14   R(5,10)                 1.0975         estimate D2E/DX2                !
 ! R15   R(5,14)                 1.4186         estimate D2E/DX2                !
 ! R16   R(12,19)                1.436          estimate D2E/DX2                !
 ! R17   R(13,23)                1.428          estimate D2E/DX2                !
 ! R18   R(14,27)                1.4283         estimate D2E/DX2                !
 ! R19   R(15,16)                1.0993         estimate D2E/DX2                !
 ! R20   R(15,17)                1.1001         estimate D2E/DX2                !
 ! R21   R(15,18)                1.4065         estimate D2E/DX2                !
 ! R22   R(18,31)                1.4281         estimate D2E/DX2                !
 ! R23   R(19,20)                1.0939         estimate D2E/DX2                !
 ! R24   R(19,21)                1.0904         estimate D2E/DX2                !
 ! R25   R(19,22)                1.0973         estimate D2E/DX2                !
 ! R26   R(23,24)                1.0995         estimate D2E/DX2                !
 ! R27   R(23,25)                1.0909         estimate D2E/DX2                !
 ! R28   R(23,26)                1.0957         estimate D2E/DX2                !
 ! R29   R(27,28)                1.0976         estimate D2E/DX2                !
 ! R30   R(27,29)                1.0977         estimate D2E/DX2                !
 ! R31   R(27,30)                1.0911         estimate D2E/DX2                !
 ! R32   R(31,32)                1.091          estimate D2E/DX2                !
 ! R33   R(31,33)                1.0981         estimate D2E/DX2                !
 ! R34   R(31,34)                1.0978         estimate D2E/DX2                !
 ! A1    A(2,1,5)              112.1349         estimate D2E/DX2                !
 ! A2    A(2,1,8)              103.7713         estimate D2E/DX2                !
 ! A3    A(2,1,13)             112.3483         estimate D2E/DX2                !
 ! A4    A(5,1,8)              106.2433         estimate D2E/DX2                !
 ! A5    A(5,1,13)             116.4455         estimate D2E/DX2                !
 ! A6    A(8,1,13)             104.5498         estimate D2E/DX2                !
 ! A7    A(1,2,3)              112.0252         estimate D2E/DX2                !
 ! A8    A(1,2,7)              107.5854         estimate D2E/DX2                !
 ! A9    A(1,2,12)             113.5569         estimate D2E/DX2                !
 ! A10   A(3,2,7)              104.0843         estimate D2E/DX2                !
 ! A11   A(3,2,12)             107.5598         estimate D2E/DX2                !
 ! A12   A(7,2,12)             111.6602         estimate D2E/DX2                !
 ! A13   A(2,3,6)              120.5069         estimate D2E/DX2                !
 ! A14   A(2,3,11)             124.2853         estimate D2E/DX2                !
 ! A15   A(6,3,11)             115.2077         estimate D2E/DX2                !
 ! A16   A(5,4,9)              108.408          estimate D2E/DX2                !
 ! A17   A(5,4,11)             108.7919         estimate D2E/DX2                !
 ! A18   A(5,4,15)             118.8781         estimate D2E/DX2                !
 ! A19   A(9,4,11)             101.9323         estimate D2E/DX2                !
 ! A20   A(9,4,15)             109.5287         estimate D2E/DX2                !
 ! A21   A(11,4,15)            107.9727         estimate D2E/DX2                !
 ! A22   A(1,5,4)              115.603          estimate D2E/DX2                !
 ! A23   A(1,5,10)             109.5914         estimate D2E/DX2                !
 ! A24   A(1,5,14)             108.9601         estimate D2E/DX2                !
 ! A25   A(4,5,10)             106.9346         estimate D2E/DX2                !
 ! A26   A(4,5,14)             104.2666         estimate D2E/DX2                !
 ! A27   A(10,5,14)            111.4088         estimate D2E/DX2                !
 ! A28   A(3,11,4)             120.1522         estimate D2E/DX2                !
 ! A29   A(2,12,19)            114.925          estimate D2E/DX2                !
 ! A30   A(1,13,23)            118.5629         estimate D2E/DX2                !
 ! A31   A(5,14,27)            114.3128         estimate D2E/DX2                !
 ! A32   A(4,15,16)            108.3982         estimate D2E/DX2                !
 ! A33   A(4,15,17)            112.4084         estimate D2E/DX2                !
 ! A34   A(4,15,18)            105.2085         estimate D2E/DX2                !
 ! A35   A(16,15,17)           107.5091         estimate D2E/DX2                !
 ! A36   A(16,15,18)           111.9069         estimate D2E/DX2                !
 ! A37   A(17,15,18)           111.4331         estimate D2E/DX2                !
 ! A38   A(15,18,31)           112.9748         estimate D2E/DX2                !
 ! A39   A(12,19,20)           111.0028         estimate D2E/DX2                !
 ! A40   A(12,19,21)           105.8548         estimate D2E/DX2                !
 ! A41   A(12,19,22)           110.5856         estimate D2E/DX2                !
 ! A42   A(20,19,21)           109.8853         estimate D2E/DX2                !
 ! A43   A(20,19,22)           109.9635         estimate D2E/DX2                !
 ! A44   A(21,19,22)           109.4648         estimate D2E/DX2                !
 ! A45   A(13,23,24)           111.95           estimate D2E/DX2                !
 ! A46   A(13,23,25)           105.7011         estimate D2E/DX2                !
 ! A47   A(13,23,26)           112.1869         estimate D2E/DX2                !
 ! A48   A(24,23,25)           108.1475         estimate D2E/DX2                !
 ! A49   A(24,23,26)           109.4597         estimate D2E/DX2                !
 ! A50   A(25,23,26)           109.2289         estimate D2E/DX2                !
 ! A51   A(14,27,28)           112.0349         estimate D2E/DX2                !
 ! A52   A(14,27,29)           110.7707         estimate D2E/DX2                !
 ! A53   A(14,27,30)           106.2324         estimate D2E/DX2                !
 ! A54   A(28,27,29)           109.0815         estimate D2E/DX2                !
 ! A55   A(28,27,30)           109.0207         estimate D2E/DX2                !
 ! A56   A(29,27,30)           109.6386         estimate D2E/DX2                !
 ! A57   A(18,31,32)           106.4468         estimate D2E/DX2                !
 ! A58   A(18,31,33)           111.1446         estimate D2E/DX2                !
 ! A59   A(18,31,34)           110.8741         estimate D2E/DX2                !
 ! A60   A(32,31,33)           109.4864         estimate D2E/DX2                !
 ! A61   A(32,31,34)           109.5887         estimate D2E/DX2                !
 ! A62   A(33,31,34)           109.2528         estimate D2E/DX2                !
 ! D1    D(5,1,2,3)            -24.5703         estimate D2E/DX2                !
 ! D2    D(5,1,2,7)             89.2325         estimate D2E/DX2                !
 ! D3    D(5,1,2,12)          -146.6716         estimate D2E/DX2                !
 ! D4    D(8,1,2,3)             89.6725         estimate D2E/DX2                !
 ! D5    D(8,1,2,7)           -156.5246         estimate D2E/DX2                !
 ! D6    D(8,1,2,12)           -32.4288         estimate D2E/DX2                !
 ! D7    D(13,1,2,3)          -157.9675         estimate D2E/DX2                !
 ! D8    D(13,1,2,7)           -44.1647         estimate D2E/DX2                !
 ! D9    D(13,1,2,12)           79.9312         estimate D2E/DX2                !
 ! D10   D(2,1,5,4)            -17.4138         estimate D2E/DX2                !
 ! D11   D(2,1,5,10)          -138.3037         estimate D2E/DX2                !
 ! D12   D(2,1,5,14)            99.5589         estimate D2E/DX2                !
 ! D13   D(8,1,5,4)           -130.1309         estimate D2E/DX2                !
 ! D14   D(8,1,5,10)           108.9791         estimate D2E/DX2                !
 ! D15   D(8,1,5,14)           -13.1583         estimate D2E/DX2                !
 ! D16   D(13,1,5,4)           113.9462         estimate D2E/DX2                !
 ! D17   D(13,1,5,10)           -6.9438         estimate D2E/DX2                !
 ! D18   D(13,1,5,14)         -129.0812         estimate D2E/DX2                !
 ! D19   D(2,1,13,23)           70.2991         estimate D2E/DX2                !
 ! D20   D(5,1,13,23)          -60.9615         estimate D2E/DX2                !
 ! D21   D(8,1,13,23)         -177.8242         estimate D2E/DX2                !
 ! D22   D(1,2,3,6)           -140.5532         estimate D2E/DX2                !
 ! D23   D(1,2,3,11)            39.6204         estimate D2E/DX2                !
 ! D24   D(7,2,3,6)            103.5017         estimate D2E/DX2                !
 ! D25   D(7,2,3,11)           -76.3246         estimate D2E/DX2                !
 ! D26   D(12,2,3,6)           -15.0879         estimate D2E/DX2                !
 ! D27   D(12,2,3,11)          165.0857         estimate D2E/DX2                !
 ! D28   D(1,2,12,19)          -87.8239         estimate D2E/DX2                !
 ! D29   D(3,2,12,19)          147.6297         estimate D2E/DX2                !
 ! D30   D(7,2,12,19)           34.0321         estimate D2E/DX2                !
 ! D31   D(2,3,11,4)            -5.1105         estimate D2E/DX2                !
 ! D32   D(6,3,11,4)           175.0549         estimate D2E/DX2                !
 ! D33   D(9,4,5,1)            159.3436         estimate D2E/DX2                !
 ! D34   D(9,4,5,10)           -78.3412         estimate D2E/DX2                !
 ! D35   D(9,4,5,14)            39.7665         estimate D2E/DX2                !
 ! D36   D(11,4,5,1)            49.2581         estimate D2E/DX2                !
 ! D37   D(11,4,5,10)          171.5733         estimate D2E/DX2                !
 ! D38   D(11,4,5,14)          -70.319          estimate D2E/DX2                !
 ! D39   D(15,4,5,1)           -74.7904         estimate D2E/DX2                !
 ! D40   D(15,4,5,10)           47.5248         estimate D2E/DX2                !
 ! D41   D(15,4,5,14)          165.6325         estimate D2E/DX2                !
 ! D42   D(5,4,11,3)           -40.1611         estimate D2E/DX2                !
 ! D43   D(9,4,11,3)          -154.5442         estimate D2E/DX2                !
 ! D44   D(15,4,11,3)           90.1316         estimate D2E/DX2                !
 ! D45   D(5,4,15,16)         -178.1784         estimate D2E/DX2                !
 ! D46   D(5,4,15,17)           63.1287         estimate D2E/DX2                !
 ! D47   D(5,4,15,18)          -58.3178         estimate D2E/DX2                !
 ! D48   D(9,4,15,16)          -52.8505         estimate D2E/DX2                !
 ! D49   D(9,4,15,17)         -171.5434         estimate D2E/DX2                !
 ! D50   D(9,4,15,18)           67.0101         estimate D2E/DX2                !
 ! D51   D(11,4,15,16)          57.3732         estimate D2E/DX2                !
 ! D52   D(11,4,15,17)         -61.3197         estimate D2E/DX2                !
 ! D53   D(11,4,15,18)         177.2338         estimate D2E/DX2                !
 ! D54   D(1,5,14,27)           81.2666         estimate D2E/DX2                !
 ! D55   D(4,5,14,27)         -154.7593         estimate D2E/DX2                !
 ! D56   D(10,5,14,27)         -39.7656         estimate D2E/DX2                !
 ! D57   D(2,12,19,20)          63.3082         estimate D2E/DX2                !
 ! D58   D(2,12,19,21)        -177.4966         estimate D2E/DX2                !
 ! D59   D(2,12,19,22)         -59.0263         estimate D2E/DX2                !
 ! D60   D(1,13,23,24)         -68.2615         estimate D2E/DX2                !
 ! D61   D(1,13,23,25)         174.215          estimate D2E/DX2                !
 ! D62   D(1,13,23,26)          55.2608         estimate D2E/DX2                !
 ! D63   D(5,14,27,28)         -62.6247         estimate D2E/DX2                !
 ! D64   D(5,14,27,29)          59.4277         estimate D2E/DX2                !
 ! D65   D(5,14,27,30)         178.4268         estimate D2E/DX2                !
 ! D66   D(4,15,18,31)        -169.2814         estimate D2E/DX2                !
 ! D67   D(16,15,18,31)        -51.7747         estimate D2E/DX2                !
 ! D68   D(17,15,18,31)         68.6382         estimate D2E/DX2                !
 ! D69   D(15,18,31,32)        179.614          estimate D2E/DX2                !
 ! D70   D(15,18,31,33)        -61.2361         estimate D2E/DX2                !
 ! D71   D(15,18,31,34)         60.4902         estimate D2E/DX2                !
 --------------------------------------------------------------------------------
 Trust Radius=3.00D-01 FncErr=1.00D-07 GrdErr=1.00D-06 EigMax=2.50D+02 EigMin=1.00D-04
 Number of steps in this run=    177 maximum allowed number of steps=    204.
 GradGradGradGradGradGradGradGradGradGradGradGradGradGradGradGradGradGrad

 Leave Link  103 at Fri May 24 08:30:03 2019, MaxMem=   402653184 cpu:               0.1 elap:               0.1
 (Enter /n/sw/g16_nehalem/g16/l202.exe)
                          Input orientation:                          
 ---------------------------------------------------------------------
 Center     Atomic      Atomic             Coordinates (Angstroms)
 Number     Number       Type             X           Y           Z
 ---------------------------------------------------------------------
      1          6           0        0.930820    0.316811   -0.626659
      2          6           0        1.474311   -0.518399    0.598324
      3          6           0        1.010436    0.028043    1.891438
      4          6           0       -1.127198    0.589173    0.963361
      5          6           0       -0.386242    1.080744   -0.279918
      6          1           0        1.680840    0.060792    2.751143
      7          1           0        1.012035   -1.524133    0.549218
      8          1           0        1.695729    1.080867   -0.780172
      9          1           0       -1.783435    1.385318    1.309549
     10          1           0       -1.087600    1.005428   -1.120709
     11          8           0       -0.148879    0.478115    2.097233
     12          8           0        2.867052   -0.593489    0.648235
     13          8           0        0.928330   -0.423682   -1.817968
     14          8           0       -0.071556    2.432771    0.012391
     15          6           0       -1.912137   -0.724170    0.885912
     16          1           0       -2.399455   -0.894854    1.856356
     17          1           0       -1.263144   -1.589372    0.684726
     18          8           0       -2.849155   -0.533709   -0.145530
     19          6           0        3.441504   -1.680156   -0.094189
     20          1           0        3.234055   -1.577473   -1.163344
     21          1           0        4.516175   -1.626029    0.081953
     22          1           0        3.059095   -2.641636    0.270985
     23          6           0       -0.012155   -1.489069   -1.957669
     24          1           0        0.210215   -2.325188   -1.279196
     25          1           0        0.095769   -1.845582   -2.983016
     26          1           0       -1.043270   -1.154273   -1.798671
     27          6           0        0.099453    3.259140   -1.139989
     28          1           0        0.940746    2.928496   -1.762662
     29          1           0       -0.813983    3.272328   -1.748565
     30          1           0        0.306197    4.263473   -0.767130
     31          6           0       -3.833506   -1.566763   -0.202130
     32          1           0       -4.501900   -1.311746   -1.025831
     33          1           0       -3.371390   -2.544107   -0.394535
     34          1           0       -4.404742   -1.614477    0.734112
 ---------------------------------------------------------------------
                    Distance matrix (angstroms):
                    1          2          3          4          5
     1  C    0.000000
     2  C    1.579095   0.000000
     3  C    2.535851   1.478487   0.000000
     4  C    2.614915   2.850933   2.397013   0.000000
     5  C    1.561562   2.605806   2.788131   1.528529   0.000000
     6  H    3.469528   2.238916   1.090691   3.370523   3.807947
     7  H    2.185945   1.107976   2.052025   3.035440   3.070510
     8  H    1.091986   2.122953   2.952214   3.354189   2.141228
     9  H    3.501113   3.839647   3.160143   1.088274   2.138064
    10  H    2.189132   3.441004   3.798693   2.125602   1.097499
    11  O    2.934511   2.423740   1.260527   1.501702   2.463808
    12  O    2.490581   1.395657   2.319241   4.177562   3.774711
    13  O    1.402695   2.479019   3.737712   3.603729   2.521308
    14  O    2.427021   3.382666   3.237938   2.327569   1.418608
    15  C    3.384364   3.404861   3.180934   1.531991   2.635380
    16  H    4.327150   4.090284   3.532751   2.149050   3.538316
    17  H    3.188533   2.940767   3.039959   2.200495   2.971366
    18  O    3.904239   4.387016   4.400142   2.335731   2.947958
    19  C    3.251913   2.387279   3.573619   5.209732   4.723209
    20  H    3.030055   2.705884   4.105345   5.313921   4.577457
    21  H    4.139025   3.278173   4.277896   6.126309   5.611708
    22  H    3.753362   2.669612   3.734978   5.333157   5.101956
    23  C    2.433514   3.112054   4.261801   3.754308   3.091719
    24  H    2.815179   2.896119   4.028768   3.912957   3.599262
    25  H    3.305400   4.060516   5.301640   4.795578   4.012787
    26  H    2.726670   3.533856   4.385486   3.267334   2.780935
    27  C    3.100319   4.379699   4.523210   3.613513   2.391868
    28  H    2.848070   4.211892   4.665826   4.144879   2.715440
    29  H    3.610830   5.011366   5.206103   3.827789   2.672625
    30  H    3.998253   5.108351   5.050030   4.306936   3.293419
    31  C    5.140708   5.469252   5.512731   3.651100   4.347295
    32  H    5.685594   6.243587   6.378976   4.354192   4.818613
    33  H    5.171822   5.345099   5.571537   4.086285   4.697211
    34  H    5.835220   5.981897   5.775935   3.956125   4.943765
                    6          7          8          9         10
     6  H    0.000000
     7  H    2.794237   0.000000
     8  H    3.675726   3.003455   0.000000
     9  H    3.979166   4.105808   4.069915   0.000000
    10  H    4.852611   3.687249   2.805098   2.556297   0.000000
    11  O    1.987367   2.784433   3.470641   2.028605   3.393288
    12  O    2.501480   2.077737   2.493153   5.097062   4.617897
    13  O    4.655938   2.611813   1.982319   4.517468   2.567586
    14  O    4.024666   4.137565   2.362011   2.389625   2.086521
    15  C    4.123680   3.050260   4.364710   2.155452   2.774509
    16  H    4.285173   3.707137   5.255976   2.424389   3.767619
    17  H    3.957292   2.280144   4.246296   3.083810   3.165975
    18  O    5.409714   4.046283   4.864730   2.633568   2.534362
    19  C    3.771837   2.518062   3.337896   6.218328   5.364596
    20  H    4.518805   2.805902   3.095164   6.329971   5.034868
    21  H    4.243709   3.536625   4.003181   7.089449   6.306604
    22  H    3.918404   2.348762   4.101308   6.383187   5.694995
    23  C    5.238436   2.708261   3.302717   4.698324   2.842464
    24  H    4.909101   2.151209   3.749265   4.944097   3.578050
    25  H    6.247183   3.663270   3.997061   5.691769   3.605109
    26  H    5.440401   3.142238   3.679036   4.081470   2.264046
    27  C    5.279311   5.154214   2.724415   3.613407   2.547290
    28  H    5.398694   5.017547   2.224639   4.386461   2.867836
    29  H    6.065103   5.623183   3.469718   3.721922   2.368102
    30  H    5.650700   5.977237   3.472744   4.118608   3.561256
    31  C    6.463650   4.903632   6.157639   3.899070   3.872977
    32  H    7.373986   5.738412   6.647973   4.485332   4.127438
    33  H    6.496600   4.598416   6.242183   4.567919   4.282782
    34  H    6.626405   5.420685   6.839129   4.025065   4.616026
                   11         12         13         14         15
    11  O    0.000000
    12  O    3.513370   0.000000
    13  O    4.159617   3.141597   0.000000
    14  O    2.858885   4.265907   3.536850   0.000000
    15  C    2.453949   4.786880   3.933130   3.757267   0.000000
    16  H    2.647293   5.411698   4.979640   4.460091   1.099260
    17  H    2.740669   4.248721   3.524893   4.248476   1.100110
    18  O    3.653117   5.771365   4.132620   4.066940   1.406467
    19  C    4.727718   1.435978   3.296390   5.410094   5.525937
    20  H    5.128455   2.093976   2.660100   5.328365   5.604540
    21  H    5.500137   2.026431   4.234143   6.125845   6.540863
    22  H    4.833128   2.091436   3.717957   5.968036   5.363577
    23  C    4.508962   3.985302   1.427963   4.389248   3.504419
    24  H    4.403150   3.711139   2.102781   4.938195   3.428605
    25  H    5.591811   4.736426   2.017993   5.225396   4.500873
    26  H    4.317719   4.646767   2.102699   4.134133   2.854278
    27  C    4.274971   5.069527   3.835345   1.428324   4.900768
    28  H    4.700047   4.682676   3.352657   2.102692   5.338151
    29  H    4.800016   5.851428   4.086681   2.087348   4.911050
    30  H    4.768711   5.670213   4.843628   2.025295   5.703520
    31  C    4.800528   6.824065   5.156806   5.494958   2.363357
    32  H    5.648533   7.590774   5.559095   5.892984   3.272137
    33  H    5.072210   6.618945   5.000995   5.985299   2.661040
    34  H    4.934512   7.343622   6.030984   5.973073   2.651183
                   16         17         18         19         20
    16  H    0.000000
    17  H    1.773774   0.000000
    18  O    2.083315   2.078264   0.000000
    19  C    6.207908   4.769556   6.394479   0.000000
    20  H    6.428141   4.862129   6.255464   1.093925   0.000000
    21  H    7.176981   5.810784   7.449362   1.090355   1.788003
    22  H    5.946463   4.467683   6.286832   1.097284   1.794534
    23  C    4.538621   2.925284   3.499304   3.928973   3.343149
    24  H    4.322953   2.563045   3.722142   3.501648   3.117067
    25  H    5.527165   3.919773   4.294754   4.423418   3.637572
    26  H    3.907142   2.530794   2.525707   4.826490   4.344911
    27  C    5.698973   5.356708   4.906011   6.054721   5.763601
    28  H    6.234761   5.590883   5.381945   5.502478   5.091385
    29  H    5.733636   5.455161   4.604081   6.735965   6.344262
    30  H    6.388393   6.231092   5.775430   6.753497   6.545685
    31  C    2.597177   2.719152   1.428058   7.276694   7.132634
    32  H    3.591807   3.673230   2.027767   8.006332   7.741739
    33  H    2.954861   2.553630   2.091993   6.874019   6.719922
    34  H    2.408000   3.142086   2.088464   7.890119   7.871018
                   21         22         23         24         25
    21  H    0.000000
    22  H    1.786133   0.000000
    23  C    4.968359   3.965840   0.000000
    24  H    4.569775   3.258729   1.099486   0.000000
    25  H    5.383514   4.472530   1.090910   1.773731   0.000000
    26  H    5.887846   4.829609   1.095704   1.792239   1.782692
    27  C    6.698168   6.750517   4.819393   5.587161   5.427241
    28  H    6.077005   6.296784   4.523376   5.326219   4.999507
    29  H    7.466946   7.352162   4.832965   5.709770   5.342707
    30  H    7.289108   7.505775   5.883066   6.609227   6.501922
    31  C    8.354723   6.991934   4.206029   4.252877   4.821853
    32  H    9.091295   7.785819   4.588853   4.826519   5.025347
    33  H    7.955098   6.465568   3.852396   3.695733   4.382849
    34  H    8.944731   7.548404   5.153274   5.084914   5.841665
                   26         27         28         29         30
    26  H    0.000000
    27  C    4.606288   0.000000
    28  H    4.539451   1.097643   0.000000
    29  H    4.432818   1.097681   1.788154   0.000000
    30  H    5.677773   1.091078   1.782105   1.788962   0.000000
    31  C    3.241066   6.295799   6.740630   5.909804   7.172727
    32  H    3.547422   6.486793   6.938657   5.927631   7.366667
    33  H    3.053421   6.802950   7.100399   6.496510   7.746394
    34  H    4.233943   6.895808   7.446256   6.552717   7.680949
                   31         32         33         34
    31  C    0.000000
    32  H    1.090994   0.000000
    33  H    1.098077   1.787541   0.000000
    34  H    1.097787   1.788431   1.790495   0.000000
 Stoichiometry    C10H19O5(1+)
 Framework group  C1[X(C10H19O5)]
 Deg. of freedom    96
 Full point group                 C1      NOp   1
 Largest Abelian subgroup         C1      NOp   1
 Largest concise Abelian subgroup C1      NOp   1
                         Standard orientation:                         
 ---------------------------------------------------------------------
 Center     Atomic      Atomic             Coordinates (Angstroms)
 Number     Number       Type             X           Y           Z
 ---------------------------------------------------------------------
      1          6           0        0.930820    0.316811   -0.626659
      2          6           0        1.474311   -0.518399    0.598324
      3          6           0        1.010436    0.028043    1.891438
      4          6           0       -1.127198    0.589173    0.963361
      5          6           0       -0.386242    1.080744   -0.279918
      6          1           0        1.680840    0.060792    2.751143
      7          1           0        1.012035   -1.524133    0.549218
      8          1           0        1.695729    1.080867   -0.780172
      9          1           0       -1.783435    1.385318    1.309549
     10          1           0       -1.087600    1.005428   -1.120709
     11          8           0       -0.148879    0.478115    2.097233
     12          8           0        2.867052   -0.593489    0.648235
     13          8           0        0.928330   -0.423682   -1.817968
     14          8           0       -0.071556    2.432771    0.012391
     15          6           0       -1.912137   -0.724170    0.885912
     16          1           0       -2.399455   -0.894854    1.856356
     17          1           0       -1.263144   -1.589372    0.684726
     18          8           0       -2.849155   -0.533709   -0.145530
     19          6           0        3.441504   -1.680156   -0.094189
     20          1           0        3.234055   -1.577473   -1.163344
     21          1           0        4.516175   -1.626029    0.081953
     22          1           0        3.059095   -2.641636    0.270985
     23          6           0       -0.012155   -1.489069   -1.957669
     24          1           0        0.210215   -2.325188   -1.279196
     25          1           0        0.095769   -1.845582   -2.983016
     26          1           0       -1.043270   -1.154273   -1.798671
     27          6           0        0.099453    3.259140   -1.139989
     28          1           0        0.940746    2.928496   -1.762662
     29          1           0       -0.813983    3.272328   -1.748565
     30          1           0        0.306197    4.263473   -0.767130
     31          6           0       -3.833506   -1.566763   -0.202130
     32          1           0       -4.501900   -1.311746   -1.025831
     33          1           0       -3.371390   -2.544107   -0.394535
     34          1           0       -4.404742   -1.614477    0.734112
 ---------------------------------------------------------------------
 Rotational constants (GHZ):           0.6798015           0.4504233           0.4024876
 Leave Link  202 at Fri May 24 08:30:03 2019, MaxMem=   402653184 cpu:               0.2 elap:               0.1
 (Enter /n/sw/g16_nehalem/g16/l301.exe)
 Standard basis: 6-31G(d) (6D, 7F)
 Ernie: Thresh=  0.10000D-02 Tol=  0.10000D-05 Strict=F.
 There are   263 symmetry adapted cartesian basis functions of A   symmetry.
 There are   263 symmetry adapted basis functions of A   symmetry.
   263 basis functions,   496 primitive gaussians,   263 cartesian basis functions
    59 alpha electrons       59 beta electrons
       nuclear repulsion energy      1169.4829855823 Hartrees.
 IExCor=  402 DFT=T Ex+Corr=B3LYP ExCW=0 ScaHFX=  0.200000
 ScaDFX=  0.800000  0.720000  1.000000  0.810000 ScalE2=  1.000000  1.000000
 IRadAn=      5 IRanWt=     -1 IRanGd=            0 ICorTp=0 IEmpDi=  4
 NAtoms=   34 NActive=   34 NUniq=   34 SFac= 1.00D+00 NAtFMM=   60 NAOKFM=F Big=F
 Integral buffers will be    131072 words long.
 Raffenetti 2 integral format.
 Two-electron integral symmetry is turned on.
 ------------------------------------------------------------------------------
 Polarizable Continuum Model (PCM)
 =================================
 Model                : PCM.
 Atomic radii         : UFF (Universal Force Field).
 Polarization charges : Total charges.
 Charge compensation  : None.
 Solution method      : On-the-fly selection.
 Cavity type          : Scaled VdW (van der Waals Surface) (Alpha=1.100).
 Cavity algorithm     : GePol (No added spheres)
                        Default sphere list used, NSphG=   34.
                        Lebedev-Laikov grids with approx.  5.0 points / Ang**2.
                        Smoothing algorithm: York/Karplus (Gamma=1.0000).
                        Polarization charges: spherical gaussians, with
                                              point-specific exponents (IZeta= 3).
                        Self-potential: point-specific (ISelfS= 7).
                        Self-field    : sphere-specific E.n sum rule (ISelfD= 2).
 1st derivatives      : Analytical E(r).r(x)/FMM algorithm (CHGder, D1EAlg=3).
                        Cavity 1st derivative terms included.
 Solvent              : TetraHydroFuran, Eps=   7.425700 Eps(inf)=   1.974025
 ------------------------------------------------------------------------------
 GePol: Number of generator spheres                  =      34
 GePol: Total number of spheres                      =      34
 GePol: Number of exposed spheres                    =      34 (100.00%)
 GePol: Number of points                             =    2249
 GePol: Average weight of points                     =       0.13
 GePol: Minimum weight of points                     =   0.16D-08
 GePol: Maximum weight of points                     =    0.20577
 GePol: Number of points with low weight             =     154
 GePol: Fraction of low-weight points (<1% of avg)   =       6.85%
 GePol: Cavity surface area                          =    296.009 Ang**2
 GePol: Cavity volume                                =    319.332 Ang**3
 Leave Link  301 at Fri May 24 08:30:04 2019, MaxMem=   402653184 cpu:               0.4 elap:               0.2
 (Enter /n/sw/g16_nehalem/g16/l302.exe)
 NPDir=0 NMtPBC=     1 NCelOv=     1 NCel=       1 NClECP=     1 NCelD=      1
         NCelK=      1 NCelE2=     1 NClLst=     1 CellRange=     0.0.
 One-electron integrals computed using PRISM.
 One-electron integral symmetry used in STVInt
 NBasis=   263 RedAO= T EigKep=  1.41D-03  NBF=   263
 NBsUse=   263 1.00D-06 EigRej= -1.00D+00 NBFU=   263
 Precomputing XC quadrature grid using
 IXCGrd= 4 IRadAn=           5 IRanWt=          -1 IRanGd=           0 AccXCQ= 0.00D+00.
 Generated NRdTot=       0 NPtTot=           0 NUsed=           0 NTot=          32
 NSgBfM=   262   262   262   262   262 MxSgAt=    34 MxSgA2=    34.
 Leave Link  302 at Fri May 24 08:30:04 2019, MaxMem=   402653184 cpu:               2.6 elap:               0.7
 (Enter /n/sw/g16_nehalem/g16/l303.exe)
 DipDrv:  MaxL=1.
 Leave Link  303 at Fri May 24 08:30:05 2019, MaxMem=   402653184 cpu:               0.2 elap:               0.1
 (Enter /n/sw/g16_nehalem/g16/l401.exe)
 ExpMin= 1.61D-01 ExpMax= 5.48D+03 ExpMxC= 8.25D+02 IAcc=3 IRadAn=         5 AccDes= 0.00D+00
 Harris functional with IExCor=  402 and IRadAn=       5 diagonalized for initial guess.
 HarFok:  IExCor=  402 AccDes= 0.00D+00 IRadAn=         5 IDoV= 1 UseB2=F ITyADJ=14
 ICtDFT=  3500011 ScaDFX=  1.000000  1.000000  1.000000  1.000000
 FoFCou: FMM=F IPFlag=           0 FMFlag=      100000 FMFlg1=           0
         NFxFlg=           0 DoJE=T BraDBF=F KetDBF=T FulRan=T
         wScrn=  0.000000 ICntrl=       500 IOpCl=  0 I1Cent=   200000004 NGrid=           0
         NMat0=    1 NMatS0=      1 NMatT0=    0 NMatD0=    1 NMtDS0=    0 NMtDT0=    0
 Petite list used in FoFCou.
 Harris En= -768.253940016165    
 JPrj=0 DoOrth=F DoCkMO=F.
 Leave Link  401 at Fri May 24 08:30:10 2019, MaxMem=   402653184 cpu:              20.6 elap:               5.2
 (Enter /n/sw/g16_nehalem/g16/l502.exe)
 Integral symmetry usage will be decided dynamically.
 Closed shell SCF:
 Using DIIS extrapolation, IDIIS=  1040.
 NGot=   402653184 LenX=   402510103 LenY=   402440493
 Requested convergence on RMS density matrix=1.00D-08 within 128 cycles.
 Requested convergence on MAX density matrix=1.00D-06.
 Requested convergence on             energy=1.00D-06.
 No special actions if energy rises.
 Fock matrices will be formed incrementally for  20 cycles.

 Cycle   1  Pass 1  IDiag  1:
 FoFJK:  IHMeth= 1 ICntrl=       0 DoSepK=F KAlg= 0 I1Cent=           0 FoldK=F
 IRaf= 890000000 NMat=       1 IRICut=       1 DoRegI=T DoRafI=F ISym2E= 0 IDoP0=0 IntGTp=1.
 FoFCou: FMM=F IPFlag=           0 FMFlag=      100000 FMFlg1=           0
         NFxFlg=           0 DoJE=F BraDBF=F KetDBF=F FulRan=T
         wScrn=  0.000000 ICntrl=         0 IOpCl=  0 I1Cent=           0 NGrid=           0
         NMat0=    1 NMatS0=      1 NMatT0=    0 NMatD0=    1 NMtDS0=    0 NMtDT0=    0
 Symmetry not used in FoFCou.
 Inv3:  Mode=1 IEnd=    15174003.
 Iteration    1 A*A^-1 deviation from unit magnitude is 5.00D-15 for   2241.
 Iteration    1 A*A^-1 deviation from orthogonality  is 1.93D-15 for   2116    132.
 Iteration    1 A^-1*A deviation from unit magnitude is 5.00D-15 for   2241.
 Iteration    1 A^-1*A deviation from orthogonality  is 1.30D-14 for   1706   1646.
 E= -768.084709831646    
 DIIS: error= 2.11D-02 at cycle   1 NSaved=   1.
 NSaved= 1 IEnMin= 1 EnMin= -768.084709831646     IErMin= 1 ErrMin= 2.11D-02
 ErrMax= 2.11D-02  0.00D+00 EMaxC= 1.00D-01 BMatC= 2.54D-01 BMatP= 2.54D-01
 IDIUse=3 WtCom= 7.89D-01 WtEn= 2.11D-01
 Coeff-Com:  0.100D+01
 Coeff-En:   0.100D+01
 Coeff:      0.100D+01
 Gap=     0.010 Goal=   None    Shift=    0.000
 GapD=    0.010 DampG=0.250 DampE=0.500 DampFc=0.2500 IDamp=-1.
 Damping current iteration by 2.50D-01
 RMSDP=5.00D-03 MaxDP=1.57D-01              OVMax= 5.51D-01

 Cycle   2  Pass 1  IDiag  1:
 RMSU=  1.24D-03    CP:  9.94D-01
 E= -768.154360422046     Delta-E=       -0.069650590400 Rises=F Damp=T
 DIIS: error= 1.03D-02 at cycle   2 NSaved=   2.
 NSaved= 2 IEnMin= 2 EnMin= -768.154360422046     IErMin= 2 ErrMin= 1.03D-02
 ErrMax= 1.03D-02  0.00D+00 EMaxC= 1.00D-01 BMatC= 6.85D-02 BMatP= 2.54D-01
 IDIUse=3 WtCom= 8.97D-01 WtEn= 1.03D-01
 Coeff-Com: -0.631D+00 0.163D+01
 Coeff-En:   0.000D+00 0.100D+01
 Coeff:     -0.566D+00 0.157D+01
 Gap=     0.077 Goal=   None    Shift=    0.000
 RMSDP=1.53D-03 MaxDP=4.82D-02 DE=-6.97D-02 OVMax= 5.30D-01

 Cycle   3  Pass 1  IDiag  1:
 RMSU=  1.52D-03    CP:  9.86D-01  1.09D+00
 E= -768.274221347769     Delta-E=       -0.119860925723 Rises=F Damp=F
 DIIS: error= 9.12D-03 at cycle   3 NSaved=   3.
 NSaved= 3 IEnMin= 3 EnMin= -768.274221347769     IErMin= 3 ErrMin= 9.12D-03
 ErrMax= 9.12D-03  0.00D+00 EMaxC= 1.00D-01 BMatC= 5.39D-02 BMatP= 6.85D-02
 IDIUse=3 WtCom= 9.09D-01 WtEn= 9.12D-02
 Coeff-Com: -0.501D+00 0.103D+01 0.471D+00
 Coeff-En:   0.000D+00 0.000D+00 0.100D+01
 Coeff:     -0.456D+00 0.936D+00 0.520D+00
 Gap=     0.130 Goal=   None    Shift=    0.000
 RMSDP=9.29D-04 MaxDP=3.14D-02 DE=-1.20D-01 OVMax= 6.39D-02

 Cycle   4  Pass 1  IDiag  1:
 RMSU=  6.58D-04    CP:  9.90D-01  1.31D+00  6.11D-01
 E= -768.319586729875     Delta-E=       -0.045365382106 Rises=F Damp=F
 DIIS: error= 1.85D-03 at cycle   4 NSaved=   4.
 NSaved= 4 IEnMin= 4 EnMin= -768.319586729875     IErMin= 4 ErrMin= 1.85D-03
 ErrMax= 1.85D-03  0.00D+00 EMaxC= 1.00D-01 BMatC= 3.46D-03 BMatP= 5.39D-02
 IDIUse=3 WtCom= 9.81D-01 WtEn= 1.85D-02
 Coeff-Com: -0.231D+00 0.394D+00 0.212D+00 0.625D+00
 Coeff-En:   0.000D+00 0.000D+00 0.000D+00 0.100D+01
 Coeff:     -0.226D+00 0.386D+00 0.208D+00 0.632D+00
 Gap=     0.128 Goal=   None    Shift=    0.000
 RMSDP=2.39D-04 MaxDP=1.35D-02 DE=-4.54D-02 OVMax= 1.31D-02

 Cycle   5  Pass 1  IDiag  1:
 RMSU=  2.07D-04    CP:  9.89D-01  1.34D+00  6.64D-01  8.73D-01
 E= -768.321700241131     Delta-E=       -0.002113511255 Rises=F Damp=F
 DIIS: error= 1.42D-03 at cycle   5 NSaved=   5.
 NSaved= 5 IEnMin= 5 EnMin= -768.321700241131     IErMin= 5 ErrMin= 1.42D-03
 ErrMax= 1.42D-03  0.00D+00 EMaxC= 1.00D-01 BMatC= 1.27D-03 BMatP= 3.46D-03
 IDIUse=3 WtCom= 9.86D-01 WtEn= 1.42D-02
 Coeff-Com: -0.104D+00 0.155D+00 0.393D-01 0.371D+00 0.539D+00
 Coeff-En:   0.000D+00 0.000D+00 0.000D+00 0.182D+00 0.818D+00
 Coeff:     -0.103D+00 0.153D+00 0.388D-01 0.368D+00 0.543D+00
 Gap=     0.128 Goal=   None    Shift=    0.000
 RMSDP=1.10D-04 MaxDP=6.95D-03 DE=-2.11D-03 OVMax= 5.37D-03

 Cycle   6  Pass 1  IDiag  1:
 RMSU=  7.73D-05    CP:  9.89D-01  1.36D+00  6.58D-01  9.60D-01  7.84D-01
 E= -768.322550778420     Delta-E=       -0.000850537290 Rises=F Damp=F
 DIIS: error= 4.36D-04 at cycle   6 NSaved=   6.
 NSaved= 6 IEnMin= 6 EnMin= -768.322550778420     IErMin= 6 ErrMin= 4.36D-04
 ErrMax= 4.36D-04  0.00D+00 EMaxC= 1.00D-01 BMatC= 1.56D-04 BMatP= 1.27D-03
 IDIUse=3 WtCom= 9.96D-01 WtEn= 4.36D-03
 Coeff-Com: -0.387D-01 0.496D-01-0.174D-01 0.136D+00 0.323D+00 0.548D+00
 Coeff-En:   0.000D+00 0.000D+00 0.000D+00 0.000D+00 0.000D+00 0.100D+01
 Coeff:     -0.385D-01 0.494D-01-0.173D-01 0.135D+00 0.321D+00 0.550D+00
 Gap=     0.127 Goal=   None    Shift=    0.000
 RMSDP=4.10D-05 MaxDP=2.22D-03 DE=-8.51D-04 OVMax= 2.09D-03

 Cycle   7  Pass 1  IDiag  1:
 RMSU=  2.91D-05    CP:  9.89D-01  1.37D+00  6.54D-01  9.93D-01  8.49D-01
                    CP:  8.81D-01
 E= -768.322671903751     Delta-E=       -0.000121125330 Rises=F Damp=F
 DIIS: error= 1.39D-04 at cycle   7 NSaved=   7.
 NSaved= 7 IEnMin= 7 EnMin= -768.322671903751     IErMin= 7 ErrMin= 1.39D-04
 ErrMax= 1.39D-04  0.00D+00 EMaxC= 1.00D-01 BMatC= 1.67D-05 BMatP= 1.56D-04
 IDIUse=3 WtCom= 9.99D-01 WtEn= 1.39D-03
 Coeff-Com: -0.103D-01 0.108D-01-0.199D-01 0.246D-01 0.111D+00 0.299D+00
 Coeff-Com:  0.585D+00
 Coeff-En:   0.000D+00 0.000D+00 0.000D+00 0.000D+00 0.000D+00 0.000D+00
 Coeff-En:   0.100D+01
 Coeff:     -0.103D-01 0.108D-01-0.199D-01 0.246D-01 0.111D+00 0.298D+00
 Coeff:      0.586D+00
 Gap=     0.126 Goal=   None    Shift=    0.000
 RMSDP=1.64D-05 MaxDP=7.39D-04 DE=-1.21D-04 OVMax= 7.43D-04

 Cycle   8  Pass 1  IDiag  1:
 RMSU=  9.69D-06    CP:  9.89D-01  1.37D+00  6.53D-01  1.01D+00  8.81D-01
                    CP:  9.40D-01  8.29D-01
 E= -768.322687097686     Delta-E=       -0.000015193935 Rises=F Damp=F
 DIIS: error= 4.72D-05 at cycle   8 NSaved=   8.
 NSaved= 8 IEnMin= 8 EnMin= -768.322687097686     IErMin= 8 ErrMin= 4.72D-05
 ErrMax= 4.72D-05  0.00D+00 EMaxC= 1.00D-01 BMatC= 1.32D-06 BMatP= 1.67D-05
 IDIUse=1 WtCom= 1.00D+00 WtEn= 0.00D+00
 Coeff-Com: -0.526D-03 0.642D-04-0.659D-02-0.834D-02 0.858D-03 0.380D-01
 Coeff-Com:  0.239D+00 0.738D+00
 Coeff:     -0.526D-03 0.642D-04-0.659D-02-0.834D-02 0.858D-03 0.380D-01
 Coeff:      0.239D+00 0.738D+00
 Gap=     0.126 Goal=   None    Shift=    0.000
 RMSDP=6.80D-06 MaxDP=2.36D-04 DE=-1.52D-05 OVMax= 8.47D-04

 Cycle   9  Pass 1  IDiag  1:
 RMSU=  3.77D-06    CP:  9.89D-01  1.37D+00  6.53D-01  1.01D+00  8.92D-01
                    CP:  9.73D-01  9.22D-01  1.00D+00
 E= -768.322688305413     Delta-E=       -0.000001207728 Rises=F Damp=F
 DIIS: error= 1.39D-05 at cycle   9 NSaved=   9.
 NSaved= 9 IEnMin= 9 EnMin= -768.322688305413     IErMin= 9 ErrMin= 1.39D-05
 ErrMax= 1.39D-05  0.00D+00 EMaxC= 1.00D-01 BMatC= 2.00D-07 BMatP= 1.32D-06
 IDIUse=1 WtCom= 1.00D+00 WtEn= 0.00D+00
 Coeff-Com:  0.291D-03-0.413D-03-0.174D-02-0.616D-02-0.934D-02-0.801D-02
 Coeff-Com:  0.691D-01 0.413D+00 0.543D+00
 Coeff:      0.291D-03-0.413D-03-0.174D-02-0.616D-02-0.934D-02-0.801D-02
 Coeff:      0.691D-01 0.413D+00 0.543D+00
 Gap=     0.126 Goal=   None    Shift=    0.000
 RMSDP=2.07D-06 MaxDP=5.76D-05 DE=-1.21D-06 OVMax= 2.34D-04

 Cycle  10  Pass 1  IDiag  1:
 RMSU=  1.19D-06    CP:  9.89D-01  1.37D+00  6.53D-01  1.01D+00  8.94D-01
                    CP:  9.83D-01  9.44D-01  1.06D+00  7.43D-01
 E= -768.322688486675     Delta-E=       -0.000000181261 Rises=F Damp=F
 DIIS: error= 2.75D-06 at cycle  10 NSaved=  10.
 NSaved=10 IEnMin=10 EnMin= -768.322688486675     IErMin=10 ErrMin= 2.75D-06
 ErrMax= 2.75D-06  0.00D+00 EMaxC= 1.00D-01 BMatC= 7.57D-09 BMatP= 2.00D-07
 IDIUse=1 WtCom= 1.00D+00 WtEn= 0.00D+00
 Coeff-Com:  0.234D-03-0.285D-03-0.485D-04-0.143D-02-0.375D-02-0.671D-02
 Coeff-Com: -0.456D-02 0.597D-01 0.157D+00 0.800D+00
 Coeff:      0.234D-03-0.285D-03-0.485D-04-0.143D-02-0.375D-02-0.671D-02
 Coeff:     -0.456D-02 0.597D-01 0.157D+00 0.800D+00
 Gap=     0.126 Goal=   None    Shift=    0.000
 RMSDP=8.07D-07 MaxDP=2.12D-05 DE=-1.81D-07 OVMax= 1.08D-04

 Cycle  11  Pass 1  IDiag  1:
 RMSU=  2.97D-07    CP:  9.89D-01  1.37D+00  6.53D-01  1.01D+00  8.95D-01
                    CP:  9.87D-01  9.53D-01  1.10D+00  7.98D-01  9.95D-01
 E= -768.322688498066     Delta-E=       -0.000000011392 Rises=F Damp=F
 DIIS: error= 7.85D-07 at cycle  11 NSaved=  11.
 NSaved=11 IEnMin=11 EnMin= -768.322688498066     IErMin=11 ErrMin= 7.85D-07
 ErrMax= 7.85D-07  0.00D+00 EMaxC= 1.00D-01 BMatC= 8.40D-10 BMatP= 7.57D-09
 IDIUse=1 WtCom= 1.00D+00 WtEn= 0.00D+00
 Coeff-Com:  0.565D-04-0.644D-04 0.782D-04-0.119D-03-0.871D-03-0.189D-02
 Coeff-Com: -0.690D-02-0.679D-03 0.287D-01 0.347D+00 0.635D+00
 Coeff:      0.565D-04-0.644D-04 0.782D-04-0.119D-03-0.871D-03-0.189D-02
 Coeff:     -0.690D-02-0.679D-03 0.287D-01 0.347D+00 0.635D+00
 Gap=     0.126 Goal=   None    Shift=    0.000
 RMSDP=2.02D-07 MaxDP=5.26D-06 DE=-1.14D-08 OVMax= 2.94D-05

 Cycle  12  Pass 1  IDiag  1:
 RMSU=  1.19D-07    CP:  9.89D-01  1.37D+00  6.54D-01  1.01D+00  8.96D-01
                    CP:  9.88D-01  9.54D-01  1.10D+00  8.12D-01  1.04D+00
                    CP:  8.28D-01
 E= -768.322688498951     Delta-E=       -0.000000000885 Rises=F Damp=F
 DIIS: error= 4.41D-07 at cycle  12 NSaved=  12.
 NSaved=12 IEnMin=12 EnMin= -768.322688498951     IErMin=12 ErrMin= 4.41D-07
 ErrMax= 4.41D-07  0.00D+00 EMaxC= 1.00D-01 BMatC= 1.66D-10 BMatP= 8.40D-10
 IDIUse=1 WtCom= 1.00D+00 WtEn= 0.00D+00
 Coeff-Com:  0.139D-04-0.170D-04 0.514D-04 0.115D-03-0.122D-05-0.887D-04
 Coeff-Com: -0.364D-02-0.976D-02-0.917D-02 0.669D-01 0.341D+00 0.614D+00
 Coeff:      0.139D-04-0.170D-04 0.514D-04 0.115D-03-0.122D-05-0.887D-04
 Coeff:     -0.364D-02-0.976D-02-0.917D-02 0.669D-01 0.341D+00 0.614D+00
 Gap=     0.126 Goal=   None    Shift=    0.000
 RMSDP=7.92D-08 MaxDP=2.72D-06 DE=-8.85D-10 OVMax= 8.77D-06

 Cycle  13  Pass 1  IDiag  1:
 RMSU=  3.34D-08    CP:  9.89D-01  1.37D+00  6.54D-01  1.01D+00  8.96D-01
                    CP:  9.88D-01  9.55D-01  1.11D+00  8.16D-01  1.06D+00
                    CP:  9.03D-01  7.30D-01
 E= -768.322688499123     Delta-E=       -0.000000000171 Rises=F Damp=F
 DIIS: error= 6.18D-08 at cycle  13 NSaved=  13.
 NSaved=13 IEnMin=13 EnMin= -768.322688499123     IErMin=13 ErrMin= 6.18D-08
 ErrMax= 6.18D-08  0.00D+00 EMaxC= 1.00D-01 BMatC= 5.40D-12 BMatP= 1.66D-10
 IDIUse=1 WtCom= 1.00D+00 WtEn= 0.00D+00
 Coeff-Com: -0.574D-06 0.534D-06 0.128D-04 0.568D-04 0.745D-04 0.144D-03
 Coeff-Com: -0.826D-03-0.326D-02-0.580D-02-0.196D-02 0.787D-01 0.218D+00
 Coeff-Com:  0.715D+00
 Coeff:     -0.574D-06 0.534D-06 0.128D-04 0.568D-04 0.745D-04 0.144D-03
 Coeff:     -0.826D-03-0.326D-02-0.580D-02-0.196D-02 0.787D-01 0.218D+00
 Coeff:      0.715D+00
 Gap=     0.126 Goal=   None    Shift=    0.000
 RMSDP=1.61D-08 MaxDP=4.56D-07 DE=-1.71D-10 OVMax= 1.74D-06

 Cycle  14  Pass 1  IDiag  1:
 RMSU=  1.02D-08    CP:  9.89D-01  1.37D+00  6.54D-01  1.01D+00  8.96D-01
                    CP:  9.88D-01  9.55D-01  1.11D+00  8.16D-01  1.06D+00
                    CP:  9.20D-01  7.85D-01  9.20D-01
 E= -768.322688499131     Delta-E=       -0.000000000009 Rises=F Damp=F
 DIIS: error= 3.27D-08 at cycle  14 NSaved=  14.
 NSaved=14 IEnMin=14 EnMin= -768.322688499131     IErMin=14 ErrMin= 3.27D-08
 ErrMax= 3.27D-08  0.00D+00 EMaxC= 1.00D-01 BMatC= 9.66D-13 BMatP= 5.40D-12
 IDIUse=1 WtCom= 1.00D+00 WtEn= 0.00D+00
 Coeff-Com: -0.102D-05 0.114D-05 0.781D-06 0.120D-04 0.277D-04 0.646D-04
 Coeff-Com: -0.333D-04-0.404D-03-0.165D-02-0.658D-02 0.398D-02 0.396D-01
 Coeff-Com:  0.343D+00 0.622D+00
 Coeff:     -0.102D-05 0.114D-05 0.781D-06 0.120D-04 0.277D-04 0.646D-04
 Coeff:     -0.333D-04-0.404D-03-0.165D-02-0.658D-02 0.398D-02 0.396D-01
 Coeff:      0.343D+00 0.622D+00
 Gap=     0.126 Goal=   None    Shift=    0.000
 RMSDP=4.75D-09 MaxDP=1.35D-07 DE=-8.64D-12 OVMax= 2.57D-07

 Error on total polarization charges =  0.01208
 SCF Done:  E(RB3LYP) =  -768.322688499     A.U. after   14 cycles
            NFock= 14  Conv=0.47D-08     -V/T= 2.0091
 KE= 7.614071692199D+02 PE=-4.113608295606D+03 EE= 1.414395452304D+03
 Leave Link  502 at Fri May 24 08:32:28 2019, MaxMem=   402653184 cpu:             552.4 elap:             138.2
 (Enter /n/sw/g16_nehalem/g16/l601.exe)
 Copying SCF densities to generalized density rwf, IOpCl= 0 IROHF=0.

 **********************************************************************

            Population analysis using the SCF density.

 **********************************************************************

 Orbital symmetries:
       Occupied  (A) (A) (A) (A) (A) (A) (A) (A) (A) (A) (A) (A)
                 (A) (A) (A) (A) (A) (A) (A) (A) (A) (A) (A) (A)
                 (A) (A) (A) (A) (A) (A) (A) (A) (A) (A) (A) (A)
                 (A) (A) (A) (A) (A) (A) (A) (A) (A) (A) (A) (A)
                 (A) (A) (A) (A) (A) (A) (A) (A) (A) (A) (A)
       Virtual   (A) (A) (A) (A) (A) (A) (A) (A) (A) (A) (A) (A)
                 (A) (A) (A) (A) (A) (A) (A) (A) (A) (A) (A) (A)
                 (A) (A) (A) (A) (A) (A) (A) (A) (A) (A) (A) (A)
                 (A) (A) (A) (A) (A) (A) (A) (A) (A) (A) (A) (A)
                 (A) (A) (A) (A) (A) (A) (A) (A) (A) (A) (A) (A)
                 (A) (A) (A) (A) (A) (A) (A) (A) (A) (A) (A) (A)
                 (A) (A) (A) (A) (A) (A) (A) (A) (A) (A) (A) (A)
                 (A) (A) (A) (A) (A) (A) (A) (A) (A) (A) (A) (A)
                 (A) (A) (A) (A) (A) (A) (A) (A) (A) (A) (A) (A)
                 (A) (A) (A) (A) (A) (A) (A) (A) (A) (A) (A) (A)
                 (A) (A) (A) (A) (A) (A) (A) (A) (A) (A) (A) (A)
                 (A) (A) (A) (A) (A) (A) (A) (A) (A) (A) (A) (A)
                 (A) (A) (A) (A) (A) (A) (A) (A) (A) (A) (A) (A)
                 (A) (A) (A) (A) (A) (A) (A) (A) (A) (A) (A) (A)
                 (A) (A) (A) (A) (A) (A) (A) (A) (A) (A) (A) (A)
                 (A) (A) (A) (A) (A) (A) (A) (A) (A) (A) (A) (A)
                 (A) (A) (A) (A) (A) (A) (A) (A) (A) (A) (A) (A)
 The electronic state is 1-A.
 Alpha  occ. eigenvalues --  -19.32984 -19.20606 -19.20108 -19.19604 -19.19254
 Alpha  occ. eigenvalues --  -10.39698 -10.32272 -10.32163 -10.30095 -10.29673
 Alpha  occ. eigenvalues --  -10.28903 -10.25858 -10.25717 -10.25258 -10.25181
 Alpha  occ. eigenvalues --   -1.21840  -1.09761  -1.08228  -1.07718  -1.07124
 Alpha  occ. eigenvalues --   -0.87292  -0.85712  -0.78085  -0.75269  -0.74769
 Alpha  occ. eigenvalues --   -0.71103  -0.68931  -0.68373  -0.66947  -0.61948
 Alpha  occ. eigenvalues --   -0.59998  -0.59184  -0.56624  -0.54523  -0.53754
 Alpha  occ. eigenvalues --   -0.52916  -0.52713  -0.51431  -0.50681  -0.49028
 Alpha  occ. eigenvalues --   -0.48426  -0.48209  -0.47084  -0.46541  -0.45964
 Alpha  occ. eigenvalues --   -0.44426  -0.43095  -0.42715  -0.41657  -0.40672
 Alpha  occ. eigenvalues --   -0.39874  -0.37167  -0.36668  -0.36222  -0.35206
 Alpha  occ. eigenvalues --   -0.33349  -0.31098  -0.29895  -0.28010
 Alpha virt. eigenvalues --   -0.15404   0.00365   0.03604   0.03870   0.05165
 Alpha virt. eigenvalues --    0.07325   0.08107   0.08867   0.09254   0.10130
 Alpha virt. eigenvalues --    0.10286   0.11326   0.12131   0.13185   0.13520
 Alpha virt. eigenvalues --    0.13756   0.14162   0.14363   0.15051   0.15536
 Alpha virt. eigenvalues --    0.15753   0.16005   0.16228   0.16776   0.17881
 Alpha virt. eigenvalues --    0.18563   0.19655   0.20669   0.21427   0.22781
 Alpha virt. eigenvalues --    0.24049   0.24727   0.26801   0.27269   0.31043
 Alpha virt. eigenvalues --    0.43367   0.44642   0.46083   0.46787   0.47479
 Alpha virt. eigenvalues --    0.48087   0.48802   0.50409   0.51531   0.52224
 Alpha virt. eigenvalues --    0.52798   0.53548   0.54545   0.55241   0.55504
 Alpha virt. eigenvalues --    0.56998   0.57747   0.59943   0.61262   0.62356
 Alpha virt. eigenvalues --    0.63360   0.66376   0.66747   0.68058   0.70915
 Alpha virt. eigenvalues --    0.72350   0.73661   0.74512   0.75136   0.77311
 Alpha virt. eigenvalues --    0.78178   0.78792   0.80549   0.81495   0.82753
 Alpha virt. eigenvalues --    0.83020   0.83473   0.84026   0.84621   0.84973
 Alpha virt. eigenvalues --    0.86260   0.87301   0.87743   0.89060   0.89844
 Alpha virt. eigenvalues --    0.91766   0.92891   0.93116   0.93601   0.94583
 Alpha virt. eigenvalues --    0.95483   0.96933   0.99139   1.00556   1.02567
 Alpha virt. eigenvalues --    1.04182   1.06297   1.07550   1.10718   1.11141
 Alpha virt. eigenvalues --    1.12667   1.14067   1.16105   1.19007   1.20174
 Alpha virt. eigenvalues --    1.22944   1.25282   1.29394   1.29938   1.32646
 Alpha virt. eigenvalues --    1.34107   1.35418   1.37177   1.39814   1.41792
 Alpha virt. eigenvalues --    1.42575   1.44437   1.45748   1.47480   1.49791
 Alpha virt. eigenvalues --    1.50787   1.53143   1.55779   1.57208   1.57760
 Alpha virt. eigenvalues --    1.59229   1.62368   1.66842   1.68419   1.70552
 Alpha virt. eigenvalues --    1.74056   1.78281   1.78946   1.80081   1.80667
 Alpha virt. eigenvalues --    1.83315   1.84129   1.87862   1.88970   1.90656
 Alpha virt. eigenvalues --    1.91749   1.92998   1.94918   1.97791   1.99162
 Alpha virt. eigenvalues --    1.99908   2.00642   2.02870   2.03202   2.04312
 Alpha virt. eigenvalues --    2.05160   2.06924   2.07199   2.09174   2.09897
 Alpha virt. eigenvalues --    2.11184   2.13004   2.13626   2.14926   2.16832
 Alpha virt. eigenvalues --    2.18074   2.19814   2.23081   2.24441   2.26095
 Alpha virt. eigenvalues --    2.28693   2.30568   2.32878   2.34354   2.35959
 Alpha virt. eigenvalues --    2.37283   2.38437   2.41585   2.43702   2.47371
 Alpha virt. eigenvalues --    2.51330   2.52141   2.53345   2.55691   2.58840
 Alpha virt. eigenvalues --    2.63689   2.66095   2.70922   2.71914   2.75544
 Alpha virt. eigenvalues --    2.77839   2.81647   2.84654   2.86813   2.91541
 Alpha virt. eigenvalues --    2.94672   2.97606   3.01895   3.06719   3.81243
 Alpha virt. eigenvalues --    3.89085   3.94500   4.02321   4.05875   4.15374
 Alpha virt. eigenvalues --    4.21424   4.23148   4.23722   4.25225   4.30164
 Alpha virt. eigenvalues --    4.34079   4.48053   4.56425   4.71410
          Condensed to atoms (all electrons):
               1          2          3          4          5          6
     1  C    5.033829   0.254402  -0.036638  -0.030602   0.235701   0.002100
     2  C    0.254402   5.119571   0.302988  -0.007073  -0.032978  -0.038790
     3  C   -0.036638   0.302988   4.816134  -0.046651  -0.003636   0.356650
     4  C   -0.030602  -0.007073  -0.046651   5.077827   0.313027   0.003214
     5  C    0.235701  -0.032978  -0.003636   0.313027   5.119133  -0.000436
     6  H    0.002100  -0.038790   0.356650   0.003214  -0.000436   0.420047
     7  H   -0.035446   0.331790  -0.035787   0.002413  -0.001699   0.001839
     8  H    0.379210  -0.045988  -0.002172   0.003737  -0.043778  -0.000096
     9  H    0.004043  -0.000109   0.002652   0.365058  -0.037712  -0.000067
    10  H   -0.042791   0.002813   0.000725  -0.034678   0.351671   0.000017
    11  O   -0.005035  -0.027359   0.367777   0.129050  -0.027175  -0.033159
    12  O   -0.041535   0.198801  -0.030021   0.000147   0.002993   0.005796
    13  O    0.237524  -0.034806   0.002815   0.001431  -0.028141  -0.000042
    14  O   -0.039473  -0.000436   0.007812  -0.045899   0.180339   0.000010
    15  C    0.000426  -0.001729  -0.001311   0.316687  -0.038257  -0.000188
    16  H   -0.000225   0.000124   0.000121  -0.026557   0.005477  -0.000014
    17  H    0.002566  -0.001687   0.003032  -0.038039  -0.010461   0.000043
    18  O   -0.000098   0.000059  -0.000031  -0.040877  -0.001244   0.000001
    19  C   -0.001032  -0.029885   0.003611   0.000004  -0.000024  -0.000081
    20  H    0.001725  -0.004347   0.000156  -0.000002  -0.000041   0.000033
    21  H   -0.000061   0.004595  -0.000170   0.000000   0.000006  -0.000033
    22  H   -0.000543  -0.009638   0.000083   0.000002   0.000023  -0.000017
    23  C   -0.043154  -0.007438   0.000096   0.000390  -0.006649  -0.000004
    24  H   -0.005752   0.004048  -0.000749   0.000193  -0.001187   0.000009
    25  H    0.004451  -0.000006   0.000003   0.000012   0.000051   0.000000
    26  H   -0.005519  -0.000660   0.000122  -0.004355   0.009076   0.000000
    27  C   -0.003871   0.000332  -0.000217   0.004327  -0.036656  -0.000002
    28  H    0.006593  -0.000023  -0.000053  -0.000028  -0.005981   0.000000
    29  H   -0.001188  -0.000024   0.000022   0.000334  -0.008051   0.000000
    30  H   -0.000053   0.000006   0.000006  -0.000243   0.005244   0.000000
    31  C   -0.000022   0.000001  -0.000001   0.004279   0.000187   0.000000
    32  H   -0.000001   0.000000   0.000000  -0.000238   0.000015   0.000000
    33  H    0.000010  -0.000004   0.000002   0.000102  -0.000095   0.000000
    34  H   -0.000001   0.000000   0.000000  -0.000048   0.000032   0.000000
               7          8          9         10         11         12
     1  C   -0.035446   0.379210   0.004043  -0.042791  -0.005035  -0.041535
     2  C    0.331790  -0.045988  -0.000109   0.002813  -0.027359   0.198801
     3  C   -0.035787  -0.002172   0.002652   0.000725   0.367777  -0.030021
     4  C    0.002413   0.003737   0.365058  -0.034678   0.129050   0.000147
     5  C   -0.001699  -0.043778  -0.037712   0.351671  -0.027175   0.002993
     6  H    0.001839  -0.000096  -0.000067   0.000017  -0.033159   0.005796
     7  H    0.520527   0.004775  -0.000023  -0.000049  -0.001903  -0.027046
     8  H    0.004775   0.508329  -0.000178   0.001282   0.000551   0.004153
     9  H   -0.000023  -0.000178   0.473197  -0.000949  -0.027798   0.000003
    10  H   -0.000049   0.001282  -0.000949   0.520728   0.002402  -0.000049
    11  O   -0.001903   0.000551  -0.027798   0.002402   7.959123   0.001367
    12  O   -0.027046   0.004153   0.000003  -0.000049   0.001367   8.235979
    13  O   -0.006891  -0.036832  -0.000069   0.003157   0.000021   0.001682
    14  O    0.000034   0.001709   0.005192  -0.027007  -0.001579  -0.000045
    15  C    0.000645   0.000066  -0.028594  -0.004210  -0.024941   0.000024
    16  H   -0.000075   0.000001  -0.008217   0.000224   0.001180  -0.000001
    17  H    0.004386  -0.000021   0.005044   0.000517   0.000494   0.000047
    18  O   -0.000084  -0.000006   0.004103   0.009758   0.000982   0.000000
    19  C   -0.006083  -0.000110   0.000000  -0.000002  -0.000056   0.227119
    20  H   -0.000979  -0.000233   0.000000   0.000005   0.000005  -0.033327
    21  H   -0.000124  -0.000089   0.000000   0.000000   0.000001  -0.030093
    22  H    0.010888   0.000134   0.000000  -0.000001  -0.000009  -0.034105
    23  C    0.004825   0.005331  -0.000008   0.000058   0.000005  -0.000083
    24  H    0.006362  -0.000228  -0.000003   0.000423   0.000023  -0.000006
    25  H   -0.000171  -0.000141   0.000000  -0.000101   0.000000  -0.000002
    26  H   -0.000600  -0.000161   0.000037   0.001648  -0.000007   0.000001
    27  C   -0.000009   0.001755   0.000029  -0.004131   0.000032  -0.000005
    28  H   -0.000002   0.002016   0.000069  -0.001515   0.000000  -0.000001
    29  H    0.000000   0.000359  -0.000117   0.010486  -0.000004   0.000000
    30  H    0.000000  -0.000297  -0.000069  -0.000042   0.000004   0.000000
    31  C    0.000005   0.000000  -0.000054  -0.000209  -0.000045   0.000000
    32  H    0.000000   0.000000  -0.000006  -0.000019   0.000000   0.000000
    33  H    0.000004   0.000000   0.000034   0.000049   0.000004   0.000000
    34  H   -0.000001   0.000000  -0.000061   0.000015  -0.000001   0.000000
              13         14         15         16         17         18
     1  C    0.237524  -0.039473   0.000426  -0.000225   0.002566  -0.000098
     2  C   -0.034806  -0.000436  -0.001729   0.000124  -0.001687   0.000059
     3  C    0.002815   0.007812  -0.001311   0.000121   0.003032  -0.000031
     4  C    0.001431  -0.045899   0.316687  -0.026557  -0.038039  -0.040877
     5  C   -0.028141   0.180339  -0.038257   0.005477  -0.010461  -0.001244
     6  H   -0.000042   0.000010  -0.000188  -0.000014   0.000043   0.000001
     7  H   -0.006891   0.000034   0.000645  -0.000075   0.004386  -0.000084
     8  H   -0.036832   0.001709   0.000066   0.000001  -0.000021  -0.000006
     9  H   -0.000069   0.005192  -0.028594  -0.008217   0.005044   0.004103
    10  H    0.003157  -0.027007  -0.004210   0.000224   0.000517   0.009758
    11  O    0.000021  -0.001579  -0.024941   0.001180   0.000494   0.000982
    12  O    0.001682  -0.000045   0.000024  -0.000001   0.000047   0.000000
    13  O    8.188867   0.001579   0.000288   0.000003  -0.000514   0.000049
    14  O    0.001579   8.271365   0.003160  -0.000055  -0.000028   0.000009
    15  C    0.000288   0.003160   4.924329   0.360126   0.352843   0.224563
    16  H    0.000003  -0.000055   0.360126   0.556647  -0.050903  -0.031432
    17  H   -0.000514  -0.000028   0.352843  -0.050903   0.612147  -0.041155
    18  O    0.000049   0.000009   0.224563  -0.031432  -0.041155   8.204693
    19  C   -0.002914  -0.000002  -0.000001   0.000000  -0.000007   0.000000
    20  H    0.008320  -0.000001  -0.000001   0.000000   0.000003   0.000000
    21  H    0.000090   0.000000   0.000000   0.000000   0.000000   0.000000
    22  H    0.000132   0.000000  -0.000002   0.000000  -0.000005   0.000000
    23  C    0.232927   0.000062   0.000635  -0.000066   0.003015  -0.006097
    24  H   -0.037743  -0.000002  -0.001008   0.000017   0.001449   0.000059
    25  H   -0.030371   0.000001   0.000065  -0.000001  -0.000045   0.000058
    26  H   -0.033543  -0.000028  -0.001175   0.000436  -0.003765   0.017488
    27  C   -0.000026   0.237929  -0.000172   0.000003  -0.000002   0.000012
    28  H   -0.000424  -0.036346   0.000016   0.000000   0.000000   0.000000
    29  H    0.000082  -0.035339   0.000006   0.000000   0.000000  -0.000011
    30  H    0.000006  -0.030819   0.000001   0.000000   0.000000   0.000000
    31  C    0.000000   0.000000  -0.037713  -0.005104  -0.002404   0.233684
    32  H    0.000000   0.000000   0.005443  -0.000046  -0.000165  -0.030739
    33  H   -0.000002   0.000000  -0.007839  -0.002195   0.009748  -0.034803
    34  H    0.000000   0.000000  -0.007402   0.011029  -0.001982  -0.034338
              19         20         21         22         23         24
     1  C   -0.001032   0.001725  -0.000061  -0.000543  -0.043154  -0.005752
     2  C   -0.029885  -0.004347   0.004595  -0.009638  -0.007438   0.004048
     3  C    0.003611   0.000156  -0.000170   0.000083   0.000096  -0.000749
     4  C    0.000004  -0.000002   0.000000   0.000002   0.000390   0.000193
     5  C   -0.000024  -0.000041   0.000006   0.000023  -0.006649  -0.001187
     6  H   -0.000081   0.000033  -0.000033  -0.000017  -0.000004   0.000009
     7  H   -0.006083  -0.000979  -0.000124   0.010888   0.004825   0.006362
     8  H   -0.000110  -0.000233  -0.000089   0.000134   0.005331  -0.000228
     9  H    0.000000   0.000000   0.000000   0.000000  -0.000008  -0.000003
    10  H   -0.000002   0.000005   0.000000  -0.000001   0.000058   0.000423
    11  O   -0.000056   0.000005   0.000001  -0.000009   0.000005   0.000023
    12  O    0.227119  -0.033327  -0.030093  -0.034105  -0.000083  -0.000006
    13  O   -0.002914   0.008320   0.000090   0.000132   0.232927  -0.037743
    14  O   -0.000002  -0.000001   0.000000   0.000000   0.000062  -0.000002
    15  C   -0.000001  -0.000001   0.000000  -0.000002   0.000635  -0.001008
    16  H    0.000000   0.000000   0.000000   0.000000  -0.000066   0.000017
    17  H   -0.000007   0.000003   0.000000  -0.000005   0.003015   0.001449
    18  O    0.000000   0.000000   0.000000   0.000000  -0.006097   0.000059
    19  C    4.921222   0.367611   0.383583   0.369302   0.000191   0.000520
    20  H    0.367611   0.546802  -0.027406  -0.040031  -0.000392  -0.000243
    21  H    0.383583  -0.027406   0.504445  -0.027317   0.000000  -0.000012
    22  H    0.369302  -0.040031  -0.027317   0.563205  -0.000087   0.000054
    23  C    0.000191  -0.000392   0.000000  -0.000087   4.980446   0.360006
    24  H    0.000520  -0.000243  -0.000012   0.000054   0.360006   0.588471
    25  H    0.000011  -0.000075   0.000000   0.000004   0.385102  -0.029800
    26  H   -0.000008   0.000086   0.000000   0.000004   0.350885  -0.044765
    27  C    0.000000   0.000000   0.000000   0.000000  -0.000015   0.000000
    28  H    0.000000   0.000001   0.000000   0.000000  -0.000015   0.000000
    29  H    0.000000   0.000000   0.000000   0.000000   0.000010   0.000000
    30  H    0.000000   0.000000   0.000000   0.000000   0.000000   0.000000
    31  C    0.000000   0.000000   0.000000   0.000000   0.000181  -0.000009
    32  H    0.000000   0.000000   0.000000   0.000000   0.000019   0.000000
    33  H    0.000000   0.000000   0.000000   0.000000   0.000463   0.000070
    34  H    0.000000   0.000000   0.000000   0.000000  -0.000024  -0.000001
              25         26         27         28         29         30
     1  C    0.004451  -0.005519  -0.003871   0.006593  -0.001188  -0.000053
     2  C   -0.000006  -0.000660   0.000332  -0.000023  -0.000024   0.000006
     3  C    0.000003   0.000122  -0.000217  -0.000053   0.000022   0.000006
     4  C    0.000012  -0.004355   0.004327  -0.000028   0.000334  -0.000243
     5  C    0.000051   0.009076  -0.036656  -0.005981  -0.008051   0.005244
     6  H    0.000000   0.000000  -0.000002   0.000000   0.000000   0.000000
     7  H   -0.000171  -0.000600  -0.000009  -0.000002   0.000000   0.000000
     8  H   -0.000141  -0.000161   0.001755   0.002016   0.000359  -0.000297
     9  H    0.000000   0.000037   0.000029   0.000069  -0.000117  -0.000069
    10  H   -0.000101   0.001648  -0.004131  -0.001515   0.010486  -0.000042
    11  O    0.000000  -0.000007   0.000032   0.000000  -0.000004   0.000004
    12  O   -0.000002   0.000001  -0.000005  -0.000001   0.000000   0.000000
    13  O   -0.030371  -0.033543  -0.000026  -0.000424   0.000082   0.000006
    14  O    0.000001  -0.000028   0.237929  -0.036346  -0.035339  -0.030819
    15  C    0.000065  -0.001175  -0.000172   0.000016   0.000006   0.000001
    16  H   -0.000001   0.000436   0.000003   0.000000   0.000000   0.000000
    17  H   -0.000045  -0.003765  -0.000002   0.000000   0.000000   0.000000
    18  O    0.000058   0.017488   0.000012   0.000000  -0.000011   0.000000
    19  C    0.000011  -0.000008   0.000000   0.000000   0.000000   0.000000
    20  H   -0.000075   0.000086   0.000000   0.000001   0.000000   0.000000
    21  H    0.000000   0.000000   0.000000   0.000000   0.000000   0.000000
    22  H    0.000004   0.000004   0.000000   0.000000   0.000000   0.000000
    23  C    0.385102   0.350885  -0.000015  -0.000015   0.000010   0.000000
    24  H   -0.029800  -0.044765   0.000000   0.000000   0.000000   0.000000
    25  H    0.498208  -0.024761   0.000001  -0.000002   0.000001   0.000000
    26  H   -0.024761   0.560126   0.000012   0.000008  -0.000015   0.000000
    27  C    0.000001   0.000012   4.905507   0.363434   0.372103   0.386224
    28  H   -0.000002   0.000008   0.363434   0.582978  -0.043959  -0.030287
    29  H    0.000001  -0.000015   0.372103  -0.043959   0.566748  -0.028377
    30  H    0.000000   0.000000   0.386224  -0.030287  -0.028377   0.511674
    31  C   -0.000003  -0.000357   0.000000   0.000000   0.000000   0.000000
    32  H   -0.000001  -0.000105   0.000000   0.000000   0.000000   0.000000
    33  H   -0.000015  -0.000897   0.000000   0.000000   0.000000   0.000000
    34  H    0.000000   0.000167   0.000000   0.000000   0.000000   0.000000
              31         32         33         34
     1  C   -0.000022  -0.000001   0.000010  -0.000001
     2  C    0.000001   0.000000  -0.000004   0.000000
     3  C   -0.000001   0.000000   0.000002   0.000000
     4  C    0.004279  -0.000238   0.000102  -0.000048
     5  C    0.000187   0.000015  -0.000095   0.000032
     6  H    0.000000   0.000000   0.000000   0.000000
     7  H    0.000005   0.000000   0.000004  -0.000001
     8  H    0.000000   0.000000   0.000000   0.000000
     9  H   -0.000054  -0.000006   0.000034  -0.000061
    10  H   -0.000209  -0.000019   0.000049   0.000015
    11  O   -0.000045   0.000000   0.000004  -0.000001
    12  O    0.000000   0.000000   0.000000   0.000000
    13  O    0.000000   0.000000  -0.000002   0.000000
    14  O    0.000000   0.000000   0.000000   0.000000
    15  C   -0.037713   0.005443  -0.007839  -0.007402
    16  H   -0.005104  -0.000046  -0.002195   0.011029
    17  H   -0.002404  -0.000165   0.009748  -0.001982
    18  O    0.233684  -0.030739  -0.034803  -0.034338
    19  C    0.000000   0.000000   0.000000   0.000000
    20  H    0.000000   0.000000   0.000000   0.000000
    21  H    0.000000   0.000000   0.000000   0.000000
    22  H    0.000000   0.000000   0.000000   0.000000
    23  C    0.000181   0.000019   0.000463  -0.000024
    24  H   -0.000009   0.000000   0.000070  -0.000001
    25  H   -0.000003  -0.000001  -0.000015   0.000000
    26  H   -0.000357  -0.000105  -0.000897   0.000167
    27  C    0.000000   0.000000   0.000000   0.000000
    28  H    0.000000   0.000000   0.000000   0.000000
    29  H    0.000000   0.000000   0.000000   0.000000
    30  H    0.000000   0.000000   0.000000   0.000000
    31  C    4.897291   0.386247   0.368215   0.370776
    32  H    0.386247   0.512323  -0.030027  -0.028528
    33  H    0.368215  -0.030027   0.579606  -0.043260
    34  H    0.370776  -0.028528  -0.043260   0.568583
 Mulliken charges:
               1
     1  C    0.130457
     2  C    0.023449
     3  C    0.292629
     4  C    0.053056
     5  C    0.061228
     6  H    0.283172
     7  H    0.228477
     8  H    0.216921
     9  H    0.244573
    10  H    0.209774
    11  O   -0.313952
    12  O   -0.481793
    13  O   -0.466658
    14  O   -0.492146
    15  C   -0.034782
    16  H    0.189504
    17  H    0.155851
    18  O   -0.474604
    19  C   -0.232970
    20  H    0.182332
    21  H    0.192586
    22  H    0.167924
    23  C   -0.260617
    24  H    0.159802
    25  H    0.197529
    26  H    0.180623
    27  C   -0.226595
    28  H    0.163520
    29  H    0.166934
    30  H    0.187021
    31  C   -0.214944
    32  H    0.185826
    33  H    0.160828
    34  H    0.165045
 Sum of Mulliken charges =   1.00000
 Mulliken charges with hydrogens summed into heavy atoms:
               1
     1  C    0.347379
     2  C    0.251926
[...]
 00002419,-0.00000468,0.00000056,-0.00000743,-0.00000375,0.00000279,-0.
 00000544,-0.00002187,0.00000176,-0.00001713,-0.00001853,0.00003580,0.0
 0001786,-0.00000280,-0.00000286,-0.00000206,0.00000614,-0.00000487,-0.
 00000135,-0.00000012,-0.00000588,-0.00000193,0.00009235,0.00006220,0.0
 0001247,-0.00001224,-0.00000635,0.00000320,-0.00001281,-0.00001286,-0.
 00000726,-0.00001515,-0.00001208,0.00001891,-0.00500770,-0.05416201,-0
 .00642643,0.01070423,0.00159406,0.00480673,0.00196972,0.05244404,0.000
 52974,0.00021401,0.00012086,0.00012237,-0.00009647,-0.00003824,0.00014
 162,-0.00047475,0.00027331,-0.00004876,-0.00009874,0.00029454,-0.00090
 670,-0.00556570,0.00013383,0.00000136,0.00000004,0.00001654,-0.0000212
 6,-0.00002601,0.00006575,0.00002408,0.00002982,-0.00016565,-0.00009914
 ,-0.00002498,0.00004809,0.00046234,0.00106554,0.00091010,0.00010157,0.
 00024632,-0.00006392,-0.00024135,0.00012227,-0.00001466,-0.00012453,0.
 00039040,0.00024866,-0.02045757,0.01476040,-0.03022691,-0.00016208,-0.
 00008711,-0.00020237,0.00006176,0.00006686,0.00000585,0.00001919,0.000
 02490,0.00002255,0.00018571,0.00008393,0.00002543,0.00005775,-0.000111
 78,-0.00007429,0.00001230,0.00000919,0.00001039,-0.00001742,0.00001519
 ,0.00000501,-0.00000314,0.00002126,0.00000984,-0.00008636,-0.00014132,
 0.00001329,0.00000324,0.00001716,-0.00001886,0.00000194,0.00002925,0.0
 0002013,-0.00001207,0.00000158,-0.00002973,-0.11081899,-0.00337698,-0.
 11767311,0.01456885,-0.00045093,0.01200769,0.12647289,-0.00600915,0.13
 854743,0.00009552,-0.00022564,0.,0.00019265,0.00004988,0.00000016,-0.0
 0008177,0.00003875,0.00005889,0.00015688,-0.00021115,-0.00003651,0.000
 17842,0.00020126,0.00093990,0.00001145,0.00000381,-0.00001355,-0.00002
 550,0.00003519,-0.00004619,0.00025999,-0.00024478,0.00019735,0.0000091
 6,-0.00000877,-0.00001878,0.00013977,0.00031779,0.00014171,0.00007361,
 -0.00005793,0.00007939,0.00001159,-0.00003495,0.00002159,0.00001136,-0
 .00002842,-0.00006150,-0.00059297,-0.00580274,-0.00019983,-0.00000360,
 0.00000697,0.00005370,-0.00001744,-0.00002325,0.00000005,-0.00000112,-
 0.00000541,-0.00000116,-0.00003293,-0.00002676,0.00000204,-0.00000108,
 0.00000792,0.00000739,0.00000179,-0.00000257,-0.00000199,-0.00000042,0
 .00000023,-0.00000175,0.00000010,-0.00000229,-0.00000100,-0.00005546,-
 0.00002718,-0.00000354,0.00001114,0.00001008,-0.00000546,0.00000471,0.
 00000467,0.00000122,0.00001334,0.00000654,-0.00000210,-0.06238941,-0.0
 4588803,-0.01941413,0.00639690,0.02415677,0.00907930,-0.00318057,-0.02
 547418,-0.00971573,0.05880052,-0.00059077,0.00017517,0.00020458,-0.000
 15434,-0.00000316,0.00001803,-0.00008122,0.00007693,-0.00016491,-0.000
 10176,-0.00106577,-0.00063986,0.00028829,0.00101684,0.00356664,0.00001
 589,0.00001945,-0.00001495,0.00000678,0.00001165,-0.00002453,-0.000106
 26,0.00011748,-0.00007216,0.00005279,0.00002903,-0.00001265,0.00004374
 ,0.00009841,0.00005263,0.00006476,-0.00008003,0.00019790,0.00025546,-0
 .00011230,0.00003708,0.00011985,-0.00033448,-0.00024301,-0.00546486,-0
 .02467949,0.00066343,0.00003500,0.00011881,0.00046806,-0.00011372,-0.0
 0013379,-0.00002075,0.00000349,-0.00001467,-0.00002624,-0.00017252,-0.
 00010031,-0.00003927,-0.00005399,0.00010998,0.00006738,-0.00001496,-0.
 00000611,-0.00000701,0.00001895,-0.00001656,-0.00000464,0.00000220,-0.
 00002021,-0.00000825,0.00009032,0.00018896,-0.00000090,-0.00000634,-0.
 00002167,0.00002499,-0.00000069,-0.00002713,-0.00002149,0.00000336,-0.
 00000095,0.00003268,-0.04603600,-0.27732717,-0.09216144,-0.00159179,-0
 .00719614,-0.00461462,0.00020106,0.00307150,-0.00059342,0.05321518,0.3
 0604268,0.00063452,0.00015914,-0.00015023,-0.00001759,-0.00003884,-0.0
 0001781,0.00002456,-0.00005572,0.00005865,0.00035460,0.00148591,0.0005
 0862,0.00049217,0.00334879,-0.00399718,-0.00000769,0.00000440,0.000012
 20,0.00000373,-0.00003983,0.00005936,-0.00024703,0.00003403,0.00001179
 ,-0.00000879,-0.00003916,-0.00000066,0.00027046,0.00011221,0.00005166,
 0.00001186,-0.00002826,0.00006314,-0.00012127,0.00005243,-0.00002470,-
 0.00015236,0.00015108,0.00028408,0.00746609,0.03637264,0.00614239,0.00
 005578,-0.00007510,-0.00054840,0.00012404,0.00013816,0.00002706,-0.000
 01144,-0.00000321,0.00001733,0.00008227,0.00004076,0.00004497,0.000020
 91,-0.00004460,-0.00003528,0.00000397,0.00000507,0.00000554,-0.0000073
 4,0.00000753,0.00000353,-0.00000153,0.00000761,0.00000485,-0.00000948,
 -0.00003755,0.00000655,0.00000186,-0.00001045,0.00000150,-0.00000867,0
 .00001146,0.00000972,-0.00000906,0.00000040,-0.00003579,-0.02197770,-0
 .10482014,-0.09010153,-0.00465420,-0.01507108,-0.00450798,-0.00120874,
 -0.01495582,-0.00425804,0.01893535,0.09332664,0.09636928,-0.00035869,0
 .00017484,0.00017560,-0.00057943,-0.00026629,-0.00029877,-0.00106605,0
 .00006816,0.00044448,-0.00425322,0.00001941,-0.00257591,-0.00023331,-0
 .00091473,0.00028793,0.00008418,-0.00016676,-0.00003713,-0.00005999,0.
 00026884,-0.00004008,0.00011210,0.00000428,-0.00002818,0.00007993,-0.0
 0053825,-0.00006199,-0.00045560,-0.00039220,0.00062556,0.00242300,0.00
 008655,0.00039550,0.00083049,-0.00018224,-0.00005330,0.00076744,0.0001
 9753,-0.00015905,0.00049007,0.00119510,-0.00043206,-0.03503217,-0.0222
 1718,-0.01124293,0.00501759,0.00071497,0.00378903,0.00351560,-0.001870
 14,0.00189456,-0.13291048,-0.05925469,-0.01831921,-0.00019455,0.000373
 73,0.00020208,-0.00003731,-0.00003559,-0.00002081,0.00006034,-0.000036
 86,-0.00001072,-0.00001279,-0.00006612,-0.00002891,-0.00118324,0.00010
 470,-0.00021126,0.00002122,0.00007446,0.00011653,0.00038858,-0.0000645
 0,-0.00018166,-0.00058570,-0.00042704,0.00110271,-0.00002785,-0.000412
 04,0.00061386,0.00003738,0.00001023,-0.00011277,-0.00002760,0.00000038
 ,-0.00009367,0.00002159,0.00011400,-0.00006681,0.53336465,-0.00028313,
 0.00020916,0.00058454,-0.00073358,0.00000879,-0.00056015,-0.00171724,0
 .00073040,0.00071550,-0.00002741,-0.00253387,0.00015696,-0.00031893,-0
 .00069004,0.00067061,0.00005180,-0.00031198,-0.00002345,-0.00011316,0.
 00023456,0.00005434,0.00010161,-0.00000608,-0.00007292,-0.00020977,-0.
 00004830,-0.00007485,-0.00018729,-0.00029564,0.00032970,0.00333611,0.0
 0107153,0.00088331,0.00085142,-0.00027756,-0.00006716,0.00034066,-0.00
 022561,-0.00040262,0.00054924,0.00123718,-0.00055449,-0.00190599,0.000
 17518,-0.00581097,0.00253616,0.00043309,0.00327986,0.00554607,0.002013
 52,0.00376243,-0.08634612,-0.15415063,-0.00312631,-0.00019683,0.000455
 08,0.00021520,-0.00002389,-0.00004090,-0.00003110,0.00005803,-0.000046
 13,-0.00001754,-0.00002126,-0.00007091,-0.00001719,-0.00056205,0.00009
 714,-0.00032140,0.00015256,-0.00006479,0.00009229,0.00028001,-0.000048
 28,-0.00013607,-0.00027154,0.00012457,0.00083667,-0.00002401,-0.000375
 97,0.00062471,0.00004579,0.00000533,-0.00011584,-0.00002942,0.00000206
 ,-0.00008926,0.00002086,0.00011798,-0.00007391,-0.07344058,0.51489252,
 -0.00020150,0.00021010,-0.00012097,0.00023926,-0.00007488,0.00029070,0
 .00046280,-0.00046343,-0.00066352,-0.00247610,0.00187654,-0.00378539,0
 .00005200,0.00025702,-0.00056325,-0.00000740,0.00029736,-0.00001452,-0
 .00006549,-0.00001575,-0.00001783,0.00004428,-0.00003956,0.00003171,0.
 00008542,0.00008170,-0.00008359,-0.00008542,-0.00028186,0.00070478,-0.
 00233741,-0.00116003,-0.00027335,-0.00007556,0.00001434,0.00004003,0.0
 0000962,-0.00006842,0.00013236,0.00029363,0.00013488,0.00022354,-0.027
 09854,-0.02410459,-0.01056111,-0.00291304,-0.00223700,0.00182242,0.001
 08193,0.00040219,0.00112434,0.00558743,0.02209553,-0.07589643,0.000016
 76,-0.00005320,-0.00001022,-0.00000550,0.00001358,0.00000409,-0.000008
 23,0.00000410,0.00000340,0.00000583,0.00000636,0.00000380,-0.00010227,
 -0.00003926,-0.00020933,0.00006321,-0.00005006,0.00001059,0.00007610,-
 0.00004037,0.00000200,0.00019758,0.00040890,0.00020470,-0.00003812,-0.
 00009513,0.00010826,0.00000814,0.00000541,-0.00001402,-0.00000297,-0.0
 0001555,-0.00001281,0.00000355,0.00000719,-0.00000762,0.02057893,-0.01
 651897,0.61250021,0.00000470,-0.00003498,-0.00018151,0.00015893,-0.000
 01679,0.00015579,0.00040417,-0.00022449,-0.00024423,-0.00018951,0.0008
 5726,-0.00077721,0.00005007,0.00018200,-0.00016857,-0.00001232,0.00009
 602,0.00000429,0.00000809,-0.00003194,-0.00001918,-0.00001571,-0.00000
 032,0.00002098,-0.00001556,-0.00003245,-0.00000852,0.00001092,0.000000
 78,-0.00002072,-0.00093211,-0.00033462,-0.00015001,-0.00014963,0.00004
 727,0.00001810,0.00000730,0.00005111,0.00013872,-0.00005772,-0.0002214
 2,0.00014535,-0.00144231,-0.00405344,0.00153681,0.00003218,-0.00002803
 ,-0.00034697,-0.00001186,0.00013468,0.00005990,-0.02234700,-0.00083003
 ,-0.02043110,0.00003457,-0.00007576,-0.00004049,0.00000131,0.00000921,
 0.00000707,-0.00001075,0.00000767,0.00000357,0.00000334,0.00001215,0.0
 0000450,-0.00000757,0.00000823,0.00000836,0.00003261,-0.00002952,0.000
 00509,-0.00003589,0.00000316,0.00002635,0.00001487,0.00001145,-0.00011
 036,-0.00001529,0.00006624,-0.00012173,-0.00000726,-0.00000236,0.00002
 080,0.00001145,-0.00000488,0.00001935,-0.00000182,-0.00001978,0.000016
 19,-0.14617235,0.04263559,-0.12035179,0.16457960,-0.00001781,-0.000002
 38,-0.00011421,0.00011671,-0.00004213,0.00012276,0.00028213,-0.0001991
 1,-0.00022336,-0.00055159,0.00097727,-0.00064915,0.00003549,0.00013496
 ,-0.00013525,-0.00000652,0.00010098,-0.00000088,0.00000305,-0.00002151
 ,-0.00001258,-0.00000700,-0.00000351,0.00001457,0.00005428,0.00004660,
 -0.00003123,0.00000224,-0.00001035,0.00003166,-0.00086472,-0.00040373,
 -0.00017008,-0.00009594,0.00003808,0.00001188,0.00000399,0.00003677,0.
 00007381,-0.00001360,-0.00012253,0.00008487,-0.00370041,-0.00338244,-0
 .00029033,0.00010933,-0.00015937,-0.00007502,-0.00055012,0.00010548,-0
 .00014682,-0.02344644,0.00286014,-0.02367485,0.00002110,-0.00005836,-0
 .00002203,0.00000064,0.00000737,0.00000402,-0.00000697,0.00000617,0.00
 000273,0.00000343,0.00000798,0.00000199,0.00000623,-0.00001238,0.00000
 997,-0.00000566,0.00000617,-0.00000399,0.00000183,0.00000276,0.0000048
 2,0.00000151,-0.00000806,-0.00001109,-0.00000979,0.00003145,-0.0000644
 1,-0.00000046,-0.00000030,0.00001043,0.00000490,-0.00000414,0.00001378
 ,-0.00000122,-0.00001204,0.00000887,0.05088162,-0.07048652,0.06110739,
 -0.03865554,0.07409157,0.00002784,-0.00002903,-0.00003550,0.00004949,0
 .00001692,0.00002881,0.00011817,-0.00002028,-0.00004388,-0.00010045,0.
 00022674,0.00031581,0.00000441,-0.00000249,-0.00008032,-0.00000678,0.0
 0000977,0.00000477,-0.00000435,-0.00001821,0.00000164,-0.00000864,0.00
 000151,0.00000384,0.00000168,0.00001924,-0.00000703,0.00001706,0.00002
 274,-0.00004307,-0.00016659,-0.00001440,-0.00001455,-0.00005811,0.0000
 1497,0.00000408,-0.00002622,0.00001128,0.00002357,-0.00005402,-0.00013
 601,0.00007373,0.00110815,-0.00056497,0.00175710,0.00014767,0.00002623
 ,0.00040528,-0.00023365,0.00011420,-0.00007237,-0.00146304,-0.00235816
 ,0.00078954,0.00001374,-0.00002551,-0.00001525,0.00000196,0.00000267,0
 .00000207,-0.00000440,0.00000270,0.00000082,0.00000041,0.00000462,0.00
 000200,0.00004378,-0.00001044,0.00001361,0.00000057,-0.00000272,-0.000
 00700,-0.00001374,0.00000369,0.00000816,0.00003146,-0.00000298,-0.0000
 3801,-0.00000887,0.00003219,-0.00006532,-0.00000159,-0.00000233,0.0000
 1160,0.00000344,0.00000008,0.00001146,-0.00000277,-0.00001194,0.000008
 73,-0.12717712,0.05324746,-0.21378752,0.13915686,-0.05685429,0.2223897
 1,-0.00000301,-0.00004850,-0.00005309,0.00002178,-0.00000164,0.0000396
 2,0.00004313,-0.00005018,-0.00011226,0.00063689,0.00011377,0.00029868,
 0.00000995,0.00008805,0.00005142,-0.00001589,0.00002798,0.00000604,-0.
 00001341,0.00000616,0.00000505,-0.00000896,0.00000457,0.00000540,-0.00
 010285,0.00016496,-0.00004314,0.00005602,0.00003818,-0.00009848,-0.000
 41248,0.00001347,-0.00007437,-0.00002947,0.00001828,-0.00000200,0.0000
 2654,0.00002731,0.00000826,-0.00002638,-0.00007361,0.00000974,0.005190
 55,-0.00303050,0.00195636,-0.00066844,0.00009037,-0.00019673,-0.000311
 29,0.00171857,0.00052014,0.00575371,-0.03348684,-0.00745797,0.00000507
 ,-0.00001337,-0.00000649,0.00000051,0.00000203,0.00000132,-0.00000224,
 0.00000177,0.00000084,-0.00000025,0.00000216,0.00000121,-0.00004160,-0
 .00002475,0.00007352,-0.00001934,-0.00000794,0.00000972,0.00001144,0.0
 0000477,-0.00000070,-0.00028671,-0.00035102,0.00016127,0.00000194,0.00
 002773,-0.00003838,-0.00000069,-0.00000216,0.00000635,0.00000109,0.000
 00099,0.00000732,-0.00000246,-0.00000654,0.00000359,-0.10949323,0.1074
 0318,0.02055017,-0.00695644,0.01607974,0.00521835,0.11219135,0.0000447
 0,-0.00014147,-0.00026921,0.00011147,0.00002870,0.00016826,0.00035738,
 -0.00015258,-0.00022705,0.00034176,0.00062493,0.00034663,0.00006760,0.
 00018048,-0.00002105,-0.00002159,0.00006993,0.00001079,-0.00001304,-0.
 00004804,-0.00002360,-0.00002464,0.00001438,0.00002831,0.00012962,0.00
 026401,0.00006098,0.00012057,0.00007423,-0.00019794,-0.00080434,-0.000
 14447,-0.00009694,-0.00016384,0.00006218,0.00000877,0.00009391,0.00017
 516,0.00013569,-0.00013306,-0.00024237,0.00008567,0.00332232,0.0002824
 5,0.00353914,-0.00022944,0.00001276,-0.00057440,-0.00158488,-0.0001181
 3,-0.00135078,-0.00676291,-0.03276960,-0.00554455,0.00003560,-0.000092
 77,-0.00004567,0.00000066,0.00000804,0.00000863,-0.00000979,0.00000956
 ,0.00000522,0.00000443,0.00001355,0.00000171,-0.00018985,0.00000970,0.
 00014451,-0.00005074,0.00004829,-0.00001642,-0.00001708,0.00000384,0.0
 0001082,-0.00013072,-0.00027546,0.00008260,0.00002173,0.00007724,-0.00
 012614,-0.00001371,-0.00000146,0.00002323,0.00000464,0.00000172,0.0000
 1458,-0.00000485,-0.00002244,0.00001388,0.10295403,-0.24039805,-0.0391
 0669,0.00436404,-0.00444558,-0.00133582,-0.10321627,0.27398444,0.00001
 354,0.00001165,0.00009040,-0.00001946,-0.00001966,-0.00003041,-0.00006
 439,-0.00000042,-0.00000088,-0.00002477,0.00010336,-0.00003093,0.00000
 531,0.00001474,0.00004107,-0.00000244,-0.00000291,-0.00000099,-0.00001
 339,0.00001303,0.00001865,-0.00000015,-0.00000232,-0.00001106,0.000006
 57,0.00006772,-0.00002506,0.00000313,0.00001576,-0.00000703,-0.0000289
 5,-0.00003661,-0.00004438,0.00003137,0.00000804,-0.00000620,-0.0000932
 2,-0.00005161,-0.00005373,0.00001282,0.00003466,-0.00003760,0.00127399
 ,-0.00154369,0.00029276,0.00024155,-0.00011960,-0.00023779,-0.00029532
 ,0.00000245,-0.00016364,-0.00290833,-0.00112892,0.00266229,-0.00000884
 ,0.00000664,0.00001342,0.00000235,-0.00000139,-0.00000313,0.00000159,-
 0.00000042,-0.00000133,-0.00000016,-0.00000168,-0.00000094,0.00018320,
 -0.00002857,0.00002352,-0.00001316,0.00003120,-0.00000931,-0.00000626,
 0.00001469,-0.00000877,0.00010172,0.00027389,-0.00012576,0.00000532,-0
 .00000813,0.00001612,0.00000220,0.00000169,-0.00000382,-0.00000202,0.0
 0000018,-0.00000201,0.00000083,0.00000276,-0.00000278,0.02118530,-0.03
 893217,-0.06360533,-0.01079727,0.02215482,0.00669265,-0.02251806,0.044
 10711,0.05831707,0.00007287,-0.00004314,-0.00000102,0.00006119,-0.0000
 1417,-0.00000337,0.00009942,-0.00002844,0.00000031,0.00045193,0.000185
 86,-0.00004044,0.00012676,0.00018337,0.00018967,-0.00001081,0.00001031
 ,0.00000598,0.00003797,-0.00001441,0.00001071,-0.00002522,0.00000485,-
 0.00000293,-0.00002013,0.00002155,0.00001502,0.00003146,0.00011111,-0.
 00024247,-0.00026057,-0.00007179,-0.00013981,-0.00010650,0.00003641,-0
 .00000153,-0.00010557,-0.00003753,-0.00001179,-0.00012866,-0.00017706,
 -0.00004472,0.00263998,-0.00049567,0.00596940,0.00011583,0.00047086,-0
 .00131754,-0.00045443,0.00028634,-0.00039487,-0.02337582,-0.01434566,0
 .01630033,0.00002362,-0.00004744,-0.00002339,0.00000711,0.00000385,0.0
 0000124,-0.00000787,0.00000491,0.00000095,0.00000124,0.00000921,0.0000
 0440,0.00018943,0.00004729,0.00005788,-0.00002726,-0.00000692,-0.00000
 311,-0.00006672,0.00001965,0.00002189,0.00012609,-0.00004730,-0.000233
 10,0.00001984,0.00007678,-0.00009652,-0.00000462,-0.00000106,0.0000156
 0,0.00000274,0.00000438,0.00001537,-0.00000393,-0.00001558,0.00000777,
 -0.11453062,0.00250312,0.10641269,0.01302698,0.00032557,-0.01661471,-0
 .00555485,0.00139628,0.01372540,0.12764909,0.00006826,-0.00006741,-0.0
 0008994,0.00007699,0.00000387,0.00004909,0.00017672,-0.00005831,-0.000
 04184,0.00038074,0.00025890,0.00035324,0.00007995,0.00009310,0.0001101
 1,-0.00000858,0.00001603,0.00000757,0.00001783,-0.00002335,-0.00000607
 ,-0.00002362,0.00000776,0.00000703,-0.00001634,-0.00000850,0.00002141,
 0.00003407,0.00010778,-0.00023316,-0.00024925,-0.00003767,-0.00010183,
 -0.00011649,0.00004243,0.00000254,-0.00003851,0.00004039,0.00003657,-0
 .00014988,-0.00024842,0.00000590,0.00288566,0.00009888,0.00373805,0.00
 055871,0.00032591,-0.00119761,-0.00042013,-0.00008498,-0.00061068,-0.0
 2660050,-0.00918883,0.02234200,0.00002686,-0.00005462,-0.00003143,0.00
 000467,0.00000365,0.00000442,-0.00000788,0.00000607,0.00000199,0.00000
 101,0.00000951,0.00000267,0.00009647,0.00001427,0.00010898,-0.00004435
 ,0.00001723,-0.00001305,-0.00006728,0.00001700,0.00002248,0.00005477,-
 0.00007916,-0.00018136,0.00001197,0.00008336,-0.00012191,-0.00000614,-
 0.00000338,0.00002057,0.00000446,0.00000414,0.00002015,-0.00000580,-0.
 00002045,0.00001264,0.00304238,-0.05173683,-0.00255786,-0.00389051,0.0
 0092069,0.00763257,0.01447928,0.00290685,-0.02498626,0.00964445,0.0566
 3409,-0.00003525,-0.00000141,0.00000800,-0.00007569,-0.00001641,-0.000
 03099,-0.00013107,0.00005291,0.00006301,-0.00026438,-0.00031451,0.0002
 9407,-0.00011596,-0.00019914,0.00000522,0.00000846,-0.00003150,-0.0000
 0385,-0.00000720,0.00002367,-0.00000718,0.00000862,0.00000294,-0.00000
 083,-0.00000113,-0.00002964,-0.00001945,-0.00004453,-0.00005834,0.0000
 2141,0.00036459,0.00007866,0.00005580,0.00009190,-0.00001961,-0.000005
 66,0.00009309,0.00005094,0.00000267,0.00001808,0.00011993,-0.00002919,
 -0.00220714,-0.00034584,0.00323465,0.00196475,0.00021883,0.00082087,0.
 00026451,-0.00020537,-0.00036177,-0.00000205,0.00457356,0.00650499,-0.
 00002116,0.00003939,0.00001891,-0.00000464,-0.00000477,-0.00000124,0.0
 0000736,-0.00000371,-0.00000098,-0.00000147,-0.00000760,-0.00000406,-0
 .00011337,-0.00001893,0.00000883,0.00000895,0.00001256,0.00000385,0.00
 001803,-0.00000113,-0.00001333,-0.00006210,-0.00001447,0.00010447,-0.0
 0001238,-0.00003929,0.00004371,0.00000056,-0.00000037,-0.00000925,0.00
 000116,-0.00000009,-0.00001013,0.00000360,0.00001205,-0.00000294,0.109
 74027,0.00149277,-0.24758012,0.01242157,-0.00117881,-0.01833916,0.0016
 6728,0.00013973,-0.00375508,-0.12358327,-0.00432700,0.25898475\\0.0000
 1487,-0.00000960,0.00001017,-0.00000773,0.00000419,-0.00001341,-0.0000
 0530,-0.00000182,0.00001041,0.00000452,0.00000493,0.00000227,-0.000005
 49,0.00000128,-0.00000463,-0.00000460,0.00000228,0.00000270,-0.0000042
 7,-0.00000223,0.00000581,0.00000280,-0.00000048,0.00000202,-0.00000275
 ,0.00000376,-0.00000608,0.00000452,-0.00000223,-0.00000436,-0.00000485
 ,-0.00000273,-0.00000449,0.00000142,-0.00000326,0.00000868,-0.00000149
 ,0.00000602,-0.00000392,0.00000079,0.00000664,-0.00000207,-0.00000629,
 -0.00000374,0.00000701,-0.00000211,0.00000453,-0.00000119,-0.00000077,
 0.00000026,-0.00000257,0.00000372,0.00000339,-0.00001164,-0.00000321,-
 0.00000720,0.00000434,0.00000125,-0.00000271,0.00000628,-0.00000077,-0
 .00000241,0.00000763,-0.00000153,-0.00000078,0.00000779,0.00000499,-0.
 00001004,0.00000746,-0.00000018,0.00000103,0.00000203,0.00000139,-0.00
 000059,-0.00000049,-0.00000254,0.00000148,-0.00000321,0.00000517,-0.00
 000236,-0.00000328,0.00000551,-0.00000192,0.00000046,0.00000529,0.0000
 0047,-0.00000268,0.00000497,0.00000030,-0.00000111,-0.00000055,0.00000
 215,-0.00000555,-0.00000088,0.00000517,-0.00000529,-0.00000247,0.00000
 290,-0.00000382,-0.00000342,0.00000335,-0.00000524\\\@


 THE SOLUTION TO A PROBLEM CHANGES THE PROBLEM.

                                 -- JOHN PEERS
           PAUL DICKSON'S "THE OFFICIAL RULES"
 Job cpu time:       0 days  1 hours 17 minutes 13.5 seconds.
 Elapsed time:       0 days  0 hours 19 minutes 20.2 seconds.
 File lengths (MBytes):  RWF=    374 Int=      0 D2E=      0 Chk=     16 Scr=      1
 Normal termination of Gaussian 16 at Fri May 24 08:52:13 2019.
