 Entering Gaussian System, Link 0=g16
 Input=clay-glucose_cation-053-b3lyp_d3bj-631gd-pcm_thf.gjf
 Output=clay-glucose_cation-053-b3lyp_d3bj-631gd-pcm_thf.out
 Initial command:
 /n/sw/g16_nehalem/g16/l1.exe "/scratch/Gau-144224.inp" -scrdir="/scratch/"
 Entering Link 1 = /n/sw/g16_nehalem/g16/l1.exe PID=    144248.
  
 Copyright (c) 1988,1990,1992,1993,1995,1998,2003,2009,2016,
            Gaussian, Inc.  All Rights Reserved.
  
 This is part of the Gaussian(R) 16 program.  It is based on
 the Gaussian(R) 09 system (copyright 2009, Gaussian, Inc.),
 the Gaussian(R) 03 system (copyright 2003, Gaussian, Inc.),
 the Gaussian(R) 98 system (copyright 1998, Gaussian, Inc.),
 the Gaussian(R) 94 system (copyright 1995, Gaussian, Inc.),
 the Gaussian 92(TM) system (copyright 1992, Gaussian, Inc.),
 the Gaussian 90(TM) system (copyright 1990, Gaussian, Inc.),
 the Gaussian 88(TM) system (copyright 1988, Gaussian, Inc.),
 the Gaussian 86(TM) system (copyright 1986, Carnegie Mellon
 University), and the Gaussian 82(TM) system (copyright 1983,
 Carnegie Mellon University). Gaussian is a federally registered
 trademark of Gaussian, Inc.
  
 This software contains proprietary and confidential information,
 including trade secrets, belonging to Gaussian, Inc.
  
 This software is provided under written license and may be
 used, copied, transmitted, or stored only in accord with that
 written license.
  
 The following legend is applicable only to US Government
 contracts under FAR:
  
                    RESTRICTED RIGHTS LEGEND
  
 Use, reproduction and disclosure by the US Government is
 subject to restrictions as set forth in subparagraphs (a)
 and (c) of the Commercial Computer Software - Restricted
 Rights clause in FAR 52.227-19.
  
 Gaussian, Inc.
 340 Quinnipiac St., Bldg. 40, Wallingford CT 06492
  
  
 ---------------------------------------------------------------
 Warning -- This program may not be used in any manner that
 competes with the business of Gaussian, Inc. or will provide
 assistance to any competitor of Gaussian, Inc.  The licensee
 of this program is prohibited from giving any competitor of
 Gaussian, Inc. access to this program.  By using this program,
 the user acknowledges that Gaussian, Inc. is engaged in the
 business of creating and licensing software in the field of
 computational chemistry and represents and warrants to the
 licensee that it is not a competitor of Gaussian, Inc. and that
 it will not use this program in any manner prohibited above.
 ---------------------------------------------------------------
  

 Cite this work as:
 Gaussian 16, Revision A.03,
 M. J. Frisch, G. W. Trucks, H. B. Schlegel, G. E. Scuseria, 
 M. A. Robb, J. R. Cheeseman, G. Scalmani, V. Barone, 
 G. A. Petersson, H. Nakatsuji, X. Li, M. Caricato, A. V. Marenich, 
 J. Bloino, B. G. Janesko, R. Gomperts, B. Mennucci, H. P. Hratchian, 
 J. V. Ortiz, A. F. Izmaylov, J. L. Sonnenberg, D. Williams-Young, 
 F. Ding, F. Lipparini, F. Egidi, J. Goings, B. Peng, A. Petrone, 
 T. Henderson, D. Ranasinghe, V. G. Zakrzewski, J. Gao, N. Rega, 
 G. Zheng, W. Liang, M. Hada, M. Ehara, K. Toyota, R. Fukuda, 
 J. Hasegawa, M. Ishida, T. Nakajima, Y. Honda, O. Kitao, H. Nakai, 
 T. Vreven, K. Throssell, J. A. Montgomery, Jr., J. E. Peralta, 
 F. Ogliaro, M. J. Bearpark, J. J. Heyd, E. N. Brothers, K. N. Kudin, 
 V. N. Staroverov, T. A. Keith, R. Kobayashi, J. Normand, 
 K. Raghavachari, A. P. Rendell, J. C. Burant, S. S. Iyengar, 
 J. Tomasi, M. Cossi, J. M. Millam, M. Klene, C. Adamo, R. Cammi, 
 J. W. Ochterski, R. L. Martin, K. Morokuma, O. Farkas, 
 J. B. Foresman, and D. J. Fox, Gaussian, Inc., Wallingford CT, 2016.
 
 ******************************************
 Gaussian 16:  ES64L-G16RevA.03 25-Dec-2016
                24-May-2019 
 ******************************************
 %nprocshared=4
 Will use up to    4 processors via shared memory.
 %mem=3GB
 -------------------------------------------------------------------
 #p b3lyp 6-31g* opt freq=noraman scrf=(pcm,solvent=tetrahydrofuran)
 -------------------------------------------------------------------
 1/18=20,19=15,26=3,38=1/1,3;
 2/9=110,12=2,17=6,18=5,40=1/2;
 3/5=1,6=6,7=1,11=2,25=1,30=1,70=2201,71=1,72=20,74=-5/1,2,3;
 4//1;
 5/5=2,38=5,53=20/2;
 6/7=2,8=2,9=2,10=2,28=1/1;
 7//1,2,3,16;
 1/18=20,19=15,26=3/3(2);
 2/9=110/2;
 99//99;
 2/9=110/2;
 3/5=1,6=6,7=1,11=2,25=1,30=1,70=2205,71=1,72=20,74=-5/1,2,3;
 4/5=5,16=3,69=1/1;
 5/5=2,38=5,53=20/2;
 7//1,2,3,16;
 1/18=20,19=15,26=3/3(-5);
 2/9=110/2;
 6/7=2,8=2,9=2,10=2,19=2,28=1/1;
 99/9=1/99;
 Leave Link    1 at Fri May 24 08:30:12 2019, MaxMem=   402653184 cpu:               0.3 elap:               0.1
 (Enter /n/sw/g16_nehalem/g16/l101.exe)
 -----
 title
 -----
 Symbolic Z-matrix:
 Charge =  1 Multiplicity = 1
 6                     1.34632   0.29239  -0.12499 
 6                     1.46641  -1.18666  -0.55925 
 6                     0.26994  -2.00744  -0.19966 
 6                    -1.1869   -0.09044   0.17064 
 6                    -0.08456   0.78079  -0.46451 
 1                     0.34967  -3.09651  -0.19136 
 1                     1.42948  -1.17569  -1.66599 
 1                     1.54056   0.38173   0.95255 
 1                    -1.24638   0.02624   1.25397 
 1                    -0.18161   0.72574  -1.55495 
 8                    -0.87603  -1.5673    0.05286 
 8                     2.6442   -1.86799  -0.24142 
 8                     2.31506   0.97377  -0.87846 
 8                    -0.31161   2.14422  -0.16976 
 6                    -2.56031   0.09356  -0.442 
 1                    -2.5663   -0.28815  -1.47565 
 1                    -2.74875   1.17756  -0.48825 
 8                    -3.49331  -0.57262   0.37064 
 6                     2.96342  -1.95704   1.15482 
 1                     2.11711  -2.33998   1.74276 
 1                     3.7915   -2.66293   1.22251 
 1                     3.2799   -0.98989   1.55868 
 6                     2.86653   2.15555  -0.29272 
 1                     3.70931   2.438    -0.92639 
 1                     2.1383    2.97155  -0.27144 
 1                     3.23379   1.95796   0.72306 
 6                    -0.33556   2.55598   1.20427 
 1                    -0.33194   3.6465    1.17773 
 1                    -1.2445    2.2214    1.71784 
 1                     0.54367   2.2139    1.76067 
 6                    -4.8283   -0.4427   -0.10569 
 1                    -5.13749   0.61143  -0.14084 
 1                    -4.93913  -0.88008  -1.10786 
 1                    -5.46562  -0.98319   0.5966 
 
 ITRead=  0  0  0  0  0  0  0  0  0  0  0  0  0  0  0  0  0  0  0  0
 ITRead=  0  0  0  0  0  0  0  0  0  0  0  0  0  0
 MicOpt= -1 -1 -1 -1 -1 -1 -1 -1 -1 -1 -1 -1 -1 -1 -1 -1 -1 -1 -1 -1
 MicOpt= -1 -1 -1 -1 -1 -1 -1 -1 -1 -1 -1 -1 -1 -1
 NAtoms=     34 NQM=       34 NQMF=       0 NMMI=      0 NMMIF=      0
                NMic=       0 NMicF=      0.
                    Isotopes and Nuclear Properties:
 (Nuclear quadrupole moments (NQMom) in fm**2, nuclear magnetic moments (NMagM)
  in nuclear magnetons)

  Atom         1           2           3           4           5           6           7           8           9          10
 IAtWgt=          12          12          12          12          12           1           1           1           1           1
 AtmWgt=  12.0000000  12.0000000  12.0000000  12.0000000  12.0000000   1.0078250   1.0078250   1.0078250   1.0078250   1.0078250
 NucSpn=           0           0           0           0           0           1           1           1           1           1
 AtZEff=   0.0000000   0.0000000   0.0000000   0.0000000   0.0000000   0.0000000   0.0000000   0.0000000   0.0000000   0.0000000
 NQMom=    0.0000000   0.0000000   0.0000000   0.0000000   0.0000000   0.0000000   0.0000000   0.0000000   0.0000000   0.0000000
 NMagM=    0.0000000   0.0000000   0.0000000   0.0000000   0.0000000   2.7928460   2.7928460   2.7928460   2.7928460   2.7928460
 AtZNuc=   6.0000000   6.0000000   6.0000000   6.0000000   6.0000000   1.0000000   1.0000000   1.0000000   1.0000000   1.0000000

  Atom        11          12          13          14          15          16          17          18          19          20
 IAtWgt=          16          16          16          16          12           1           1          16          12           1
 AtmWgt=  15.9949146  15.9949146  15.9949146  15.9949146  12.0000000   1.0078250   1.0078250  15.9949146  12.0000000   1.0078250
 NucSpn=           0           0           0           0           0           1           1           0           0           1
 AtZEff=   0.0000000   0.0000000   0.0000000   0.0000000   0.0000000   0.0000000   0.0000000   0.0000000   0.0000000   0.0000000
 NQMom=    0.0000000   0.0000000   0.0000000   0.0000000   0.0000000   0.0000000   0.0000000   0.0000000   0.0000000   0.0000000
 NMagM=    0.0000000   0.0000000   0.0000000   0.0000000   0.0000000   2.7928460   2.7928460   0.0000000   0.0000000   2.7928460
 AtZNuc=   8.0000000   8.0000000   8.0000000   8.0000000   6.0000000   1.0000000   1.0000000   8.0000000   6.0000000   1.0000000

  Atom        21          22          23          24          25          26          27          28          29          30
 IAtWgt=           1           1          12           1           1           1          12           1           1           1
 AtmWgt=   1.0078250   1.0078250  12.0000000   1.0078250   1.0078250   1.0078250  12.0000000   1.0078250   1.0078250   1.0078250
 NucSpn=           1           1           0           1           1           1           0           1           1           1
 AtZEff=   0.0000000   0.0000000   0.0000000   0.0000000   0.0000000   0.0000000   0.0000000   0.0000000   0.0000000   0.0000000
 NQMom=    0.0000000   0.0000000   0.0000000   0.0000000   0.0000000   0.0000000   0.0000000   0.0000000   0.0000000   0.0000000
 NMagM=    2.7928460   2.7928460   0.0000000   2.7928460   2.7928460   2.7928460   0.0000000   2.7928460   2.7928460   2.7928460
 AtZNuc=   1.0000000   1.0000000   6.0000000   1.0000000   1.0000000   1.0000000   6.0000000   1.0000000   1.0000000   1.0000000

  Atom        31          32          33          34
 IAtWgt=          12           1           1           1
 AtmWgt=  12.0000000   1.0078250   1.0078250   1.0078250
 NucSpn=           0           1           1           1
 AtZEff=   0.0000000   0.0000000   0.0000000   0.0000000
 NQMom=    0.0000000   0.0000000   0.0000000   0.0000000
 NMagM=    0.0000000   2.7928460   2.7928460   2.7928460
 AtZNuc=   6.0000000   1.0000000   1.0000000   1.0000000
 Leave Link  101 at Fri May 24 08:30:12 2019, MaxMem=   402653184 cpu:               0.5 elap:               0.1
 (Enter /n/sw/g16_nehalem/g16/l103.exe)

 GradGradGradGradGradGradGradGradGradGradGradGradGradGradGradGradGradGrad
 Berny optimization.
 Initialization pass.
                           ----------------------------
                           !    Initial Parameters    !
                           ! (Angstroms and Degrees)  !
 --------------------------                            --------------------------
 ! Name  Definition              Value          Derivative Info.                !
 --------------------------------------------------------------------------------
 ! R1    R(1,2)                  1.5462         estimate D2E/DX2                !
 ! R2    R(1,5)                  1.5496         estimate D2E/DX2                !
 ! R3    R(1,8)                  1.0985         estimate D2E/DX2                !
 ! R4    R(1,13)                 1.4037         estimate D2E/DX2                !
 ! R5    R(2,3)                  1.4948         estimate D2E/DX2                !
 ! R6    R(2,7)                  1.1074         estimate D2E/DX2                !
 ! R7    R(2,12)                 1.3973         estimate D2E/DX2                !
 ! R8    R(3,6)                  1.092          estimate D2E/DX2                !
 ! R9    R(3,11)                 1.2533         estimate D2E/DX2                !
 ! R10   R(4,5)                  1.542          estimate D2E/DX2                !
 ! R11   R(4,9)                  1.0912         estimate D2E/DX2                !
 ! R12   R(4,11)                 1.5138         estimate D2E/DX2                !
 ! R13   R(4,15)                 1.5151         estimate D2E/DX2                !
 ! R14   R(5,10)                 1.0961         estimate D2E/DX2                !
 ! R15   R(5,14)                 1.4133         estimate D2E/DX2                !
 ! R16   R(12,19)                1.435          estimate D2E/DX2                !
 ! R17   R(13,23)                1.4296         estimate D2E/DX2                !
 ! R18   R(14,27)                1.4346         estimate D2E/DX2                !
 ! R19   R(15,16)                1.1019         estimate D2E/DX2                !
 ! R20   R(15,17)                1.1012         estimate D2E/DX2                !
 ! R21   R(15,18)                1.4052         estimate D2E/DX2                !
 ! R22   R(18,31)                1.4234         estimate D2E/DX2                !
 ! R23   R(19,20)                1.0993         estimate D2E/DX2                !
 ! R24   R(19,21)                1.0902         estimate D2E/DX2                !
 ! R25   R(19,22)                1.0948         estimate D2E/DX2                !
 ! R26   R(23,24)                1.0916         estimate D2E/DX2                !
 ! R27   R(23,25)                1.0939         estimate D2E/DX2                !
 ! R28   R(23,26)                1.0981         estimate D2E/DX2                !
 ! R29   R(27,28)                1.0908         estimate D2E/DX2                !
 ! R30   R(27,29)                1.0963         estimate D2E/DX2                !
 ! R31   R(27,30)                1.0953         estimate D2E/DX2                !
 ! R32   R(31,32)                1.0991         estimate D2E/DX2                !
 ! R33   R(31,33)                1.0991         estimate D2E/DX2                !
 ! R34   R(31,34)                1.0916         estimate D2E/DX2                !
 ! A1    A(2,1,5)              108.1601         estimate D2E/DX2                !
 ! A2    A(2,1,8)              109.85           estimate D2E/DX2                !
 ! A3    A(2,1,13)             105.0689         estimate D2E/DX2                !
 ! A4    A(5,1,8)              110.6438         estimate D2E/DX2                !
 ! A5    A(5,1,13)             111.5092         estimate D2E/DX2                !
 ! A6    A(8,1,13)             111.408          estimate D2E/DX2                !
 ! A7    A(1,2,3)              113.2985         estimate D2E/DX2                !
 ! A8    A(1,2,7)              105.5825         estimate D2E/DX2                !
 ! A9    A(1,2,12)             117.9058         estimate D2E/DX2                !
 ! A10   A(3,2,7)              102.6598         estimate D2E/DX2                !
 ! A11   A(3,2,12)             110.6233         estimate D2E/DX2                !
 ! A12   A(7,2,12)             105.0857         estimate D2E/DX2                !
 ! A13   A(2,3,6)              119.4051         estimate D2E/DX2                !
 ! A14   A(2,3,11)             125.9799         estimate D2E/DX2                !
 ! A15   A(6,3,11)             114.5493         estimate D2E/DX2                !
 ! A16   A(5,4,9)              112.7984         estimate D2E/DX2                !
 ! A17   A(5,4,11)             111.8616         estimate D2E/DX2                !
 ! A18   A(5,4,15)             114.3854         estimate D2E/DX2                !
 ! A19   A(9,4,11)             101.1135         estimate D2E/DX2                !
 ! A20   A(9,4,15)             109.8189         estimate D2E/DX2                !
 ! A21   A(11,4,15)            105.8532         estimate D2E/DX2                !
 ! A22   A(1,5,4)              113.0665         estimate D2E/DX2                !
 ! A23   A(1,5,10)             106.493          estimate D2E/DX2                !
 ! A24   A(1,5,14)             113.9984         estimate D2E/DX2                !
 ! A25   A(4,5,10)             108.5484         estimate D2E/DX2                !
 ! A26   A(4,5,14)             110.1405         estimate D2E/DX2                !
 ! A27   A(10,5,14)            103.9868         estimate D2E/DX2                !
 ! A28   A(3,11,4)             123.0974         estimate D2E/DX2                !
 ! A29   A(2,12,19)            116.045          estimate D2E/DX2                !
 ! A30   A(1,13,23)            116.5861         estimate D2E/DX2                !
 ! A31   A(5,14,27)            118.6415         estimate D2E/DX2                !
 ! A32   A(4,15,16)            110.0099         estimate D2E/DX2                !
 ! A33   A(4,15,17)            106.9569         estimate D2E/DX2                !
 ! A34   A(4,15,18)            108.0866         estimate D2E/DX2                !
 ! A35   A(16,15,17)           107.4974         estimate D2E/DX2                !
 ! A36   A(16,15,18)           112.0025         estimate D2E/DX2                !
 ! A37   A(17,15,18)           112.1679         estimate D2E/DX2                !
 ! A38   A(15,18,31)           112.7014         estimate D2E/DX2                !
 ! A39   A(12,19,20)           111.7603         estimate D2E/DX2                !
 ! A40   A(12,19,21)           105.6374         estimate D2E/DX2                !
 ! A41   A(12,19,22)           111.6163         estimate D2E/DX2                !
 ! A42   A(20,19,21)           109.0253         estimate D2E/DX2                !
 ! A43   A(20,19,22)           109.4486         estimate D2E/DX2                !
 ! A44   A(21,19,22)           109.239          estimate D2E/DX2                !
 ! A45   A(13,23,24)           105.8949         estimate D2E/DX2                !
 ! A46   A(13,23,25)           111.5804         estimate D2E/DX2                !
 ! A47   A(13,23,26)           111.0556         estimate D2E/DX2                !
 ! A48   A(24,23,25)           109.4054         estimate D2E/DX2                !
 ! A49   A(24,23,26)           108.986          estimate D2E/DX2                !
 ! A50   A(25,23,26)           109.8098         estimate D2E/DX2                !
 ! A51   A(14,27,28)           105.2824         estimate D2E/DX2                !
 ! A52   A(14,27,29)           112.0202         estimate D2E/DX2                !
 ! A53   A(14,27,30)           112.551          estimate D2E/DX2                !
 ! A54   A(28,27,29)           108.617          estimate D2E/DX2                !
 ! A55   A(28,27,30)           108.7789         estimate D2E/DX2                !
 ! A56   A(29,27,30)           109.406          estimate D2E/DX2                !
 ! A57   A(18,31,32)           111.2283         estimate D2E/DX2                !
 ! A58   A(18,31,33)           111.3097         estimate D2E/DX2                !
 ! A59   A(18,31,34)           106.6851         estimate D2E/DX2                !
 ! A60   A(32,31,33)           108.9135         estimate D2E/DX2                !
 ! A61   A(32,31,34)           109.3429         estimate D2E/DX2                !
 ! A62   A(33,31,34)           109.3133         estimate D2E/DX2                !
 ! D1    D(5,1,2,3)            -43.1597         estimate D2E/DX2                !
 ! D2    D(5,1,2,7)             68.4215         estimate D2E/DX2                !
 ! D3    D(5,1,2,12)          -174.6139         estimate D2E/DX2                !
 ! D4    D(8,1,2,3)             77.6969         estimate D2E/DX2                !
 ! D5    D(8,1,2,7)           -170.7219         estimate D2E/DX2                !
 ! D6    D(8,1,2,12)           -53.7573         estimate D2E/DX2                !
 ! D7    D(13,1,2,3)          -162.364          estimate D2E/DX2                !
 ! D8    D(13,1,2,7)           -50.7828         estimate D2E/DX2                !
 ! D9    D(13,1,2,12)           66.1818         estimate D2E/DX2                !
 ! D10   D(2,1,5,4)             55.7997         estimate D2E/DX2                !
 ! D11   D(2,1,5,10)           -63.3222         estimate D2E/DX2                !
 ! D12   D(2,1,5,14)          -177.3848         estimate D2E/DX2                !
 ! D13   D(8,1,5,4)            -64.562          estimate D2E/DX2                !
 ! D14   D(8,1,5,10)           176.3161         estimate D2E/DX2                !
 ! D15   D(8,1,5,14)            62.2535         estimate D2E/DX2                !
 ! D16   D(13,1,5,4)           170.8464         estimate D2E/DX2                !
 ! D17   D(13,1,5,10)           51.7245         estimate D2E/DX2                !
 ! D18   D(13,1,5,14)          -62.3381         estimate D2E/DX2                !
 ! D19   D(2,1,13,23)         -151.5918         estimate D2E/DX2                !
 ! D20   D(5,1,13,23)           91.4695         estimate D2E/DX2                !
 ! D21   D(8,1,13,23)          -32.6928         estimate D2E/DX2                !
 ! D22   D(1,2,3,6)           -162.5622         estimate D2E/DX2                !
 ! D23   D(1,2,3,11)            20.5541         estimate D2E/DX2                !
 ! D24   D(7,2,3,6)             84.0786         estimate D2E/DX2                !
 ! D25   D(7,2,3,11)           -92.8051         estimate D2E/DX2                !
 ! D26   D(12,2,3,6)           -27.6091         estimate D2E/DX2                !
 ! D27   D(12,2,3,11)          155.5072         estimate D2E/DX2                !
 ! D28   D(1,2,12,19)           59.5705         estimate D2E/DX2                !
 ! D29   D(3,2,12,19)          -73.0797         estimate D2E/DX2                !
 ! D30   D(7,2,12,19)          176.8014         estimate D2E/DX2                !
 ! D31   D(2,3,11,4)            -6.6169         estimate D2E/DX2                !
 ! D32   D(6,3,11,4)           176.3676         estimate D2E/DX2                !
 ! D33   D(9,4,5,1)             70.3431         estimate D2E/DX2                !
 ! D34   D(9,4,5,10)          -171.7289         estimate D2E/DX2                !
 ! D35   D(9,4,5,14)           -58.4877         estimate D2E/DX2                !
 ! D36   D(11,4,5,1)           -42.8563         estimate D2E/DX2                !
 ! D37   D(11,4,5,10)           75.0716         estimate D2E/DX2                !
 ! D38   D(11,4,5,14)         -171.6872         estimate D2E/DX2                !
 ! D39   D(15,4,5,1)          -163.191          estimate D2E/DX2                !
 ! D40   D(15,4,5,10)          -45.263          estimate D2E/DX2                !
 ! D41   D(15,4,5,14)           67.9782         estimate D2E/DX2                !
 ! D42   D(5,4,11,3)            17.4822         estimate D2E/DX2                !
 ! D43   D(9,4,11,3)          -102.8032         estimate D2E/DX2                !
 ! D44   D(15,4,11,3)          142.6793         estimate D2E/DX2                !
 ! D45   D(5,4,15,16)           67.459          estimate D2E/DX2                !
 ! D46   D(5,4,15,17)          -49.0            estimate D2E/DX2                !
 ! D47   D(5,4,15,18)         -169.9679         estimate D2E/DX2                !
 ! D48   D(9,4,15,16)         -164.5454         estimate D2E/DX2                !
 ! D49   D(9,4,15,17)           78.9956         estimate D2E/DX2                !
 ! D50   D(9,4,15,18)          -41.9723         estimate D2E/DX2                !
 ! D51   D(11,4,15,16)         -56.1645         estimate D2E/DX2                !
 ! D52   D(11,4,15,17)        -172.6235         estimate D2E/DX2                !
 ! D53   D(11,4,15,18)          66.4086         estimate D2E/DX2                !
 ! D54   D(1,5,14,27)          -68.1095         estimate D2E/DX2                !
 ! D55   D(4,5,14,27)           60.2126         estimate D2E/DX2                !
 ! D56   D(10,5,14,27)         176.3501         estimate D2E/DX2                !
 ! D57   D(2,12,19,20)          51.4354         estimate D2E/DX2                !
 ! D58   D(2,12,19,21)         169.8741         estimate D2E/DX2                !
 ! D59   D(2,12,19,22)         -71.5074         estimate D2E/DX2                !
 ! D60   D(1,13,23,24)         170.1647         estimate D2E/DX2                !
 ! D61   D(1,13,23,25)         -70.8798         estimate D2E/DX2                !
 ! D62   D(1,13,23,26)          51.994          estimate D2E/DX2                !
 ! D63   D(5,14,27,28)         169.5232         estimate D2E/DX2                !
 ! D64   D(5,14,27,29)         -72.6052         estimate D2E/DX2                !
 ! D65   D(5,14,27,30)          51.1761         estimate D2E/DX2                !
 ! D66   D(4,15,18,31)         178.9887         estimate D2E/DX2                !
 ! D67   D(16,15,18,31)        -59.6647         estimate D2E/DX2                !
 ! D68   D(17,15,18,31)         61.3194         estimate D2E/DX2                !
 ! D69   D(15,18,31,32)        -60.2943         estimate D2E/DX2                !
 ! D70   D(15,18,31,33)         61.3591         estimate D2E/DX2                !
 ! D71   D(15,18,31,34)       -179.4627         estimate D2E/DX2                !
 --------------------------------------------------------------------------------
 Trust Radius=3.00D-01 FncErr=1.00D-07 GrdErr=1.00D-06 EigMax=2.50D+02 EigMin=1.00D-04
 Number of steps in this run=    177 maximum allowed number of steps=    204.
 GradGradGradGradGradGradGradGradGradGradGradGradGradGradGradGradGradGrad

 Leave Link  103 at Fri May 24 08:30:12 2019, MaxMem=   402653184 cpu:               0.2 elap:               0.1
 (Enter /n/sw/g16_nehalem/g16/l202.exe)
                          Input orientation:                          
 ---------------------------------------------------------------------
 Center     Atomic      Atomic             Coordinates (Angstroms)
 Number     Number       Type             X           Y           Z
 ---------------------------------------------------------------------
      1          6           0        1.346324    0.292390   -0.124985
      2          6           0        1.466405   -1.186664   -0.559250
      3          6           0        0.269936   -2.007444   -0.199664
      4          6           0       -1.186900   -0.090441    0.170643
      5          6           0       -0.084556    0.780786   -0.464514
      6          1           0        0.349673   -3.096508   -0.191363
      7          1           0        1.429481   -1.175688   -1.665991
      8          1           0        1.540561    0.381727    0.952546
      9          1           0       -1.246376    0.026239    1.253971
     10          1           0       -0.181606    0.725738   -1.554952
     11          8           0       -0.876032   -1.567301    0.052859
     12          8           0        2.644203   -1.867990   -0.241417
     13          8           0        2.315061    0.973765   -0.878460
     14          8           0       -0.311608    2.144218   -0.169764
     15          6           0       -2.560308    0.093560   -0.441997
     16          1           0       -2.566302   -0.288146   -1.475651
     17          1           0       -2.748754    1.177564   -0.488245
     18          8           0       -3.493314   -0.572619    0.370644
     19          6           0        2.963420   -1.957043    1.154819
     20          1           0        2.117109   -2.339980    1.742761
     21          1           0        3.791497   -2.662933    1.222507
     22          1           0        3.279896   -0.989886    1.558679
     23          6           0        2.866533    2.155554   -0.292720
     24          1           0        3.709311    2.438004   -0.926386
     25          1           0        2.138303    2.971553   -0.271443
     26          1           0        3.233787    1.957955    0.723055
     27          6           0       -0.335559    2.555976    1.204266
     28          1           0       -0.331938    3.646497    1.177728
     29          1           0       -1.244500    2.221404    1.717843
     30          1           0        0.543668    2.213901    1.760665
     31          6           0       -4.828301   -0.442702   -0.105685
     32          1           0       -5.137486    0.611426   -0.140839
     33          1           0       -4.939134   -0.880079   -1.107859
     34          1           0       -5.465623   -0.983185    0.596597
 ---------------------------------------------------------------------
                    Distance matrix (angstroms):
                    1          2          3          4          5
     1  C    0.000000
     2  C    1.546159   0.000000
     3  C    2.540359   1.494831   0.000000
     4  C    2.578988   2.962174   2.436062   0.000000
     5  C    1.549590   2.507053   2.823125   1.541954   0.000000
     6  H    3.533037   2.242752   1.092011   3.395371   3.911084
     7  H    2.129992   1.107411   2.046088   3.375861   2.750208
     8  H    1.098536   2.179651   2.941125   2.876345   2.192786
     9  H    2.948635   3.481104   2.923717   1.091215   2.207342
    10  H    2.137093   2.713788   3.083988   2.157416   1.096131
    11  O    2.903265   2.450831   1.253290   1.513812   2.531328
    12  O    2.522952   1.397294   2.378725   4.243445   3.809450
    13  O    1.403726   2.342982   3.678438   3.807477   2.442694
    14  O    2.485963   3.795761   4.192301   2.423987   1.413286
    15  C    3.924513   4.226954   3.533161   1.515069   2.569462
    16  H    4.179708   4.232003   3.553642   2.156878   2.885148
    17  H    4.205372   4.833444   4.397732   2.116922   2.693686
    18  O    4.941253   5.083362   4.067680   2.364750   3.761492
    19  C    3.051696   2.402617   3.015298   4.655960   4.405463
    20  H    3.318427   2.655712   2.701045   4.295167   4.411187
    21  H    4.065531   3.280256   3.854040   5.701629   5.452433
    22  H    2.866646   2.795191   3.631398   4.763183   4.306754
    23  C    2.410508   3.633431   4.907293   4.657201   3.260127
    24  H    3.290837   4.278275   5.667401   5.618664   4.165708
    25  H    2.797605   4.221972   5.318492   4.541830   3.126954
    26  H    2.656275   3.828391   5.035892   4.903423   3.715837
    27  C    3.117605   4.512695   4.812738   2.965920   2.449312
    28  H    3.970347   5.441560   5.850343   3.963570   3.312168
    29  H    3.718801   4.914172   4.884005   2.782404   2.860687
    30  H    2.809295   4.218684   4.662357   3.291357   2.720277
    31  C    6.218258   6.354725   5.333786   3.668821   4.912107
    32  H    6.491674   6.857082   6.008507   4.024521   5.066118
    33  H    6.468980   6.436295   5.406494   4.041949   5.171005
    34  H    6.967811   7.030676   5.880457   4.391571   5.761374
                    6          7          8          9         10
     6  H    0.000000
     7  H    2.651427   0.000000
     8  H    3.850307   3.048707   0.000000
     9  H    3.793140   4.138963   2.825641   0.000000
    10  H    4.092823   2.494665   3.061331   3.084329   0.000000
    11  O    1.974961   2.902274   3.232347   2.029580   2.885362
    12  O    2.603196   1.996057   2.775752   4.578307   4.054380
    13  O    4.571868   2.454507   2.074353   4.257805   2.598558
    14  O    5.282326   4.036318   2.792219   2.717839   1.986890
    15  C    4.325198   4.362060   4.341073   2.146452   2.701211
    16  H    4.247258   4.097590   4.817800   3.048258   2.592494
    17  H    5.287351   4.937867   4.594285   2.572548   2.816427
    18  O    4.631891   5.361482   5.156480   2.487494   4.044881
    19  C    3.153135   3.304611   2.745048   4.654634   4.942809
    20  H    2.727086   3.667151   2.892151   4.141369   5.055455
    21  H    3.746087   4.016770   3.795991   5.710762   5.914636
    22  H    4.010824   3.722507   2.296520   4.648924   4.961861
    23  C    5.824862   3.879196   2.540738   4.882853   3.595658
    24  H    6.515999   4.336290   3.530175   5.927006   4.297230
    25  H    6.326687   4.432471   2.926199   4.738968   3.474631
    26  H    5.890829   4.333910   2.324688   4.907673   4.286325
    27  C    5.862414   5.027828   2.882802   2.689169   3.314628
    28  H    6.914269   5.868799   3.770369   3.734739   4.002621
    29  H    5.870830   5.490058   3.424420   2.243642   3.752059
    30  H    5.661139   4.900607   2.236898   2.871735   3.705937
    31  C    5.819058   6.490890   6.508605   3.859891   5.005737
    32  H    6.622706   6.974591   6.770861   4.174767   5.154952
    33  H    5.807237   6.399856   6.915480   4.476172   5.041092
    34  H    6.237362   7.259395   7.146768   4.387838   5.955705
                   11         12         13         14         15
    11  O    0.000000
    12  O    3.545288   0.000000
    13  O    4.184190   2.930824   0.000000
    14  O    3.760786   4.983951   2.961689   0.000000
    15  C    2.416636   5.565505   4.973377   3.055480   0.000000
    16  H    2.613349   5.582885   5.077082   3.564461   1.101897
    17  H    3.366625   6.198412   5.082915   2.641123   1.101234
    18  O    2.817897   6.302517   6.139119   4.218589   1.405233
    19  C    4.013428   1.435028   3.625497   5.413009   6.104618
    20  H    3.523024   2.106553   4.229762   5.446508   5.707321
    21  H    4.935009   2.022694   4.451909   6.471676   7.121394
    22  H    4.457874   2.101313   3.275130   5.070407   6.267738
    23  C    5.290167   4.030009   1.429629   3.180539   5.807298
    24  H    6.166584   4.488343   2.022431   4.102021   6.711123
    25  H    5.458258   4.866006   2.095440   2.587834   5.512611
    26  H    5.455933   3.989445   2.092257   3.660826   6.197165
    27  C    4.315004   5.526342   3.723832   1.434600   3.704481
    28  H    5.361442   6.425026   4.286958   2.018165   4.495832
    29  H    4.154784   5.973596   4.579068   2.106966   3.305144
    30  H    4.385161   5.008235   3.411855   2.112560   4.356860
    31  C    4.112212   7.608429   7.323331   5.205456   2.354671
    32  H    4.790027   8.167760   7.497722   5.063535   2.645889
    33  H    4.281161   7.696343   7.490842   5.607173   2.655213
    34  H    4.658453   8.200880   8.157481   6.077156   3.267861
                   16         17         18         19         20
    16  H    0.000000
    17  H    1.776672   0.000000
    18  O    2.085445   2.086912   0.000000
    19  C    6.346843   6.719699   6.649885   0.000000
    20  H    6.041733   6.405242   6.040126   1.099345   0.000000
    21  H    7.303511   7.775022   7.626503   1.090217   1.782845
    22  H    6.624019   6.725501   6.889261   1.094830   1.791288
    23  C    6.073441   5.703170   6.952024   4.360987   4.991457
    24  H    6.864175   6.594489   7.913529   4.919777   5.699876
    25  H    5.848851   5.210444   6.684949   5.196739   5.680656
    26  H    6.596993   6.153621   7.195963   3.948003   4.556206
    27  C    4.499689   3.253940   4.522659   5.590443   5.502358
    28  H    5.245400   3.835635   5.333538   6.500736   6.492688
    29  H    4.271230   2.866916   3.831276   5.956761   5.666327
    30  H    5.138667   4.119664   5.098439   4.859941   4.818077
    31  C    2.649025   2.663856   1.423362   8.036978   7.433380
    32  H    3.033470   2.479364   2.089708   8.596537   8.055302
    33  H    2.473052   3.068482   2.090669   8.290351   7.749059
    34  H    3.630889   3.636907   2.027220   8.503457   7.787966
                   21         22         23         24         25
    21  H    0.000000
    22  H    1.781526   0.000000
    23  C    5.135104   3.673192   0.000000
    24  H    5.535707   4.255629   1.091598   0.000000
    25  H    6.059073   4.510608   1.093904   1.783730   0.000000
    26  H    4.681143   3.064337   1.098053   1.782477   1.793458
    27  C    6.653566   5.076442   3.557344   4.573245   2.910398
    28  H    7.537482   5.889526   3.823002   4.713751   2.942403
    29  H    7.033020   5.550484   4.576821   5.619529   3.995415
    30  H    5.884005   4.218056   3.100886   4.158336   2.691906
    31  C    8.999691   8.295323   8.123816   9.047808   7.760038
    32  H    9.607647   8.735267   8.153019   9.067485   7.650122
    33  H    9.210488   8.641466   8.414746   9.264891   8.100912
    34  H    9.429082   8.798281   8.948038   9.909764   8.614705
                   26         27         28         29         30
    26  H    0.000000
    27  C    3.650948   0.000000
    28  H    3.971435   1.090850   0.000000
    29  H    4.595004   1.096300   1.776340   0.000000
    30  H    2.894630   1.095279   1.777311   1.788696   0.000000
    31  C    8.452646   5.558127   6.211761   4.823520   6.276851
    32  H    8.522773   5.352484   5.834686   4.604570   6.201545
    33  H    8.843264   6.192358   6.851281   5.590537   6.918256
    34  H    9.184009   6.261987   6.937319   5.417053   6.905649
                   31         32         33         34
    31  C    0.000000
    32  H    1.099098   0.000000
    33  H    1.099061   1.788591   0.000000
    34  H    1.091559   1.787252   1.786894   0.000000
 Stoichiometry    C10H19O5(1+)
 Framework group  C1[X(C10H19O5)]
 Deg. of freedom    96
 Full point group                 C1      NOp   1
 Largest Abelian subgroup         C1      NOp   1
 Largest concise Abelian subgroup C1      NOp   1
                         Standard orientation:                         
 ---------------------------------------------------------------------
 Center     Atomic      Atomic             Coordinates (Angstroms)
 Number     Number       Type             X           Y           Z
 ---------------------------------------------------------------------
      1          6           0        1.346324    0.292390   -0.124985
      2          6           0        1.466405   -1.186664   -0.559250
      3          6           0        0.269936   -2.007444   -0.199664
      4          6           0       -1.186900   -0.090441    0.170643
      5          6           0       -0.084556    0.780786   -0.464514
      6          1           0        0.349673   -3.096508   -0.191363
      7          1           0        1.429481   -1.175688   -1.665991
      8          1           0        1.540561    0.381727    0.952546
      9          1           0       -1.246376    0.026239    1.253971
     10          1           0       -0.181606    0.725738   -1.554952
     11          8           0       -0.876032   -1.567301    0.052859
     12          8           0        2.644203   -1.867990   -0.241417
     13          8           0        2.315061    0.973765   -0.878460
     14          8           0       -0.311608    2.144218   -0.169764
     15          6           0       -2.560308    0.093560   -0.441997
     16          1           0       -2.566302   -0.288146   -1.475651
     17          1           0       -2.748754    1.177564   -0.488245
     18          8           0       -3.493314   -0.572619    0.370644
     19          6           0        2.963420   -1.957043    1.154819
     20          1           0        2.117109   -2.339980    1.742761
     21          1           0        3.791497   -2.662933    1.222507
     22          1           0        3.279896   -0.989886    1.558679
     23          6           0        2.866533    2.155554   -0.292720
     24          1           0        3.709311    2.438004   -0.926386
     25          1           0        2.138303    2.971553   -0.271443
     26          1           0        3.233787    1.957955    0.723055
     27          6           0       -0.335559    2.555976    1.204266
     28          1           0       -0.331938    3.646497    1.177728
     29          1           0       -1.244500    2.221404    1.717843
     30          1           0        0.543668    2.213901    1.760665
     31          6           0       -4.828301   -0.442702   -0.105685
     32          1           0       -5.137486    0.611426   -0.140839
     33          1           0       -4.939134   -0.880079   -1.107859
     34          1           0       -5.465623   -0.983185    0.596597
 ---------------------------------------------------------------------
 Rotational constants (GHZ):           0.8368096           0.3929240           0.2947221
 Leave Link  202 at Fri May 24 08:30:12 2019, MaxMem=   402653184 cpu:               0.0 elap:               0.0
 (Enter /n/sw/g16_nehalem/g16/l301.exe)
 Standard basis: 6-31G(d) (6D, 7F)
 Ernie: Thresh=  0.10000D-02 Tol=  0.10000D-05 Strict=F.
 There are   263 symmetry adapted cartesian basis functions of A   symmetry.
 There are   263 symmetry adapted basis functions of A   symmetry.
   263 basis functions,   496 primitive gaussians,   263 cartesian basis functions
    59 alpha electrons       59 beta electrons
       nuclear repulsion energy      1144.8469919065 Hartrees.
 IExCor=  402 DFT=T Ex+Corr=B3LYP ExCW=0 ScaHFX=  0.200000
 ScaDFX=  0.800000  0.720000  1.000000  0.810000 ScalE2=  1.000000  1.000000
 IRadAn=      5 IRanWt=     -1 IRanGd=            0 ICorTp=0 IEmpDi=  4
 NAtoms=   34 NActive=   34 NUniq=   34 SFac= 1.00D+00 NAtFMM=   60 NAOKFM=F Big=F
 Integral buffers will be    131072 words long.
 Raffenetti 2 integral format.
 Two-electron integral symmetry is turned on.
 ------------------------------------------------------------------------------
 Polarizable Continuum Model (PCM)
 =================================
 Model                : PCM.
 Atomic radii         : UFF (Universal Force Field).
 Polarization charges : Total charges.
 Charge compensation  : None.
 Solution method      : On-the-fly selection.
 Cavity type          : Scaled VdW (van der Waals Surface) (Alpha=1.100).
 Cavity algorithm     : GePol (No added spheres)
                        Default sphere list used, NSphG=   34.
                        Lebedev-Laikov grids with approx.  5.0 points / Ang**2.
                        Smoothing algorithm: York/Karplus (Gamma=1.0000).
                        Polarization charges: spherical gaussians, with
                                              point-specific exponents (IZeta= 3).
                        Self-potential: point-specific (ISelfS= 7).
                        Self-field    : sphere-specific E.n sum rule (ISelfD= 2).
 1st derivatives      : Analytical E(r).r(x)/FMM algorithm (CHGder, D1EAlg=3).
                        Cavity 1st derivative terms included.
 Solvent              : TetraHydroFuran, Eps=   7.425700 Eps(inf)=   1.974025
 ------------------------------------------------------------------------------
 GePol: Number of generator spheres                  =      34
 GePol: Total number of spheres                      =      34
 GePol: Number of exposed spheres                    =      34 (100.00%)
 GePol: Number of points                             =    2324
 GePol: Average weight of points                     =       0.13
 GePol: Minimum weight of points                     =   0.10D-10
 GePol: Maximum weight of points                     =    0.20577
 GePol: Number of points with low weight             =     155
 GePol: Fraction of low-weight points (<1% of avg)   =       6.67%
 GePol: Cavity surface area                          =    302.882 Ang**2
 GePol: Cavity volume                                =    322.217 Ang**3
 Leave Link  301 at Fri May 24 08:30:13 2019, MaxMem=   402653184 cpu:               0.4 elap:               0.1
 (Enter /n/sw/g16_nehalem/g16/l302.exe)
 NPDir=0 NMtPBC=     1 NCelOv=     1 NCel=       1 NClECP=     1 NCelD=      1
         NCelK=      1 NCelE2=     1 NClLst=     1 CellRange=     0.0.
 One-electron integrals computed using PRISM.
 One-electron integral symmetry used in STVInt
 NBasis=   263 RedAO= T EigKep=  1.58D-03  NBF=   263
 NBsUse=   263 1.00D-06 EigRej= -1.00D+00 NBFU=   263
 Precomputing XC quadrature grid using
 IXCGrd= 4 IRadAn=           5 IRanWt=          -1 IRanGd=           0 AccXCQ= 0.00D+00.
 Generated NRdTot=       0 NPtTot=           0 NUsed=           0 NTot=          32
 NSgBfM=   262   262   262   262   262 MxSgAt=    34 MxSgA2=    34.
 Leave Link  302 at Fri May 24 08:30:13 2019, MaxMem=   402653184 cpu:               2.4 elap:               0.6
 (Enter /n/sw/g16_nehalem/g16/l303.exe)
 DipDrv:  MaxL=1.
 Leave Link  303 at Fri May 24 08:30:13 2019, MaxMem=   402653184 cpu:               0.2 elap:               0.1
 (Enter /n/sw/g16_nehalem/g16/l401.exe)
 ExpMin= 1.61D-01 ExpMax= 5.48D+03 ExpMxC= 8.25D+02 IAcc=3 IRadAn=         5 AccDes= 0.00D+00
 Harris functional with IExCor=  402 and IRadAn=       5 diagonalized for initial guess.
 HarFok:  IExCor=  402 AccDes= 0.00D+00 IRadAn=         5 IDoV= 1 UseB2=F ITyADJ=14
 ICtDFT=  3500011 ScaDFX=  1.000000  1.000000  1.000000  1.000000
 FoFCou: FMM=F IPFlag=           0 FMFlag=      100000 FMFlg1=           0
         NFxFlg=           0 DoJE=T BraDBF=F KetDBF=T FulRan=T
         wScrn=  0.000000 ICntrl=       500 IOpCl=  0 I1Cent=   200000004 NGrid=           0
         NMat0=    1 NMatS0=      1 NMatT0=    0 NMatD0=    1 NMtDS0=    0 NMtDT0=    0
 Petite list used in FoFCou.
 Harris En= -768.258617107588    
 JPrj=0 DoOrth=F DoCkMO=F.
 Leave Link  401 at Fri May 24 08:30:18 2019, MaxMem=   402653184 cpu:              19.9 elap:               5.0
 (Enter /n/sw/g16_nehalem/g16/l502.exe)
 Integral symmetry usage will be decided dynamically.
 Closed shell SCF:
 Using DIIS extrapolation, IDIIS=  1040.
 NGot=   402653184 LenX=   402510103 LenY=   402440493
 Requested convergence on RMS density matrix=1.00D-08 within 128 cycles.
 Requested convergence on MAX density matrix=1.00D-06.
 Requested convergence on             energy=1.00D-06.
 No special actions if energy rises.
 Fock matrices will be formed incrementally for  20 cycles.

 Cycle   1  Pass 1  IDiag  1:
 FoFJK:  IHMeth= 1 ICntrl=       0 DoSepK=F KAlg= 0 I1Cent=           0 FoldK=F
 IRaf= 860000000 NMat=       1 IRICut=       1 DoRegI=T DoRafI=F ISym2E= 0 IDoP0=0 IntGTp=1.
 FoFCou: FMM=F IPFlag=           0 FMFlag=      100000 FMFlg1=           0
         NFxFlg=           0 DoJE=F BraDBF=F KetDBF=F FulRan=T
         wScrn=  0.000000 ICntrl=         0 IOpCl=  0 I1Cent=           0 NGrid=           0
         NMat0=    1 NMatS0=      1 NMatT0=    0 NMatD0=    1 NMtDS0=    0 NMtDT0=    0
 Symmetry not used in FoFCou.
 Inv3:  Mode=1 IEnd=    16202928.
 Iteration    1 A*A^-1 deviation from unit magnitude is 8.44D-15 for    561.
 Iteration    1 A*A^-1 deviation from orthogonality  is 2.66D-15 for   2294    955.
 Iteration    1 A^-1*A deviation from unit magnitude is 7.99D-15 for    561.
 Iteration    1 A^-1*A deviation from orthogonality  is 2.13D-15 for   2158    578.
 E= -768.079670280796    
 DIIS: error= 2.35D-02 at cycle   1 NSaved=   1.
 NSaved= 1 IEnMin= 1 EnMin= -768.079670280796     IErMin= 1 ErrMin= 2.35D-02
 ErrMax= 2.35D-02  0.00D+00 EMaxC= 1.00D-01 BMatC= 2.58D-01 BMatP= 2.58D-01
 IDIUse=3 WtCom= 7.65D-01 WtEn= 2.35D-01
 Coeff-Com:  0.100D+01
 Coeff-En:   0.100D+01
 Coeff:      0.100D+01
 Gap=     0.004 Goal=   None    Shift=    0.000
 GapD=    0.004 DampG=0.250 DampE=0.500 DampFc=0.2500 IDamp=-1.
 Damping current iteration by 2.50D-01
 RMSDP=5.21D-03 MaxDP=1.57D-01              OVMax= 5.21D-01

 Cycle   2  Pass 1  IDiag  1:
 RMSU=  1.30D-03    CP:  9.94D-01
 E= -768.147428990677     Delta-E=       -0.067758709880 Rises=F Damp=T
 DIIS: error= 1.14D-02 at cycle   2 NSaved=   2.
 NSaved= 2 IEnMin= 2 EnMin= -768.147428990677     IErMin= 2 ErrMin= 1.14D-02
 ErrMax= 1.14D-02  0.00D+00 EMaxC= 1.00D-01 BMatC= 6.93D-02 BMatP= 2.58D-01
 IDIUse=3 WtCom= 8.86D-01 WtEn= 1.14D-01
 Coeff-Com: -0.615D+00 0.161D+01
 Coeff-En:   0.000D+00 0.100D+01
 Coeff:     -0.545D+00 0.154D+01
 Gap=     0.088 Goal=   None    Shift=    0.000
 RMSDP=1.59D-03 MaxDP=4.84D-02 DE=-6.78D-02 OVMax= 4.64D-01

 Cycle   3  Pass 1  IDiag  1:
 RMSU=  1.58D-03    CP:  9.85D-01  1.05D+00
 E= -768.267601737049     Delta-E=       -0.120172746372 Rises=F Damp=F
 DIIS: error= 8.46D-03 at cycle   3 NSaved=   3.
 NSaved= 3 IEnMin= 3 EnMin= -768.267601737049     IErMin= 3 ErrMin= 8.46D-03
 ErrMax= 8.46D-03  0.00D+00 EMaxC= 1.00D-01 BMatC= 6.18D-02 BMatP= 6.93D-02
 IDIUse=3 WtCom= 9.15D-01 WtEn= 8.46D-02
 Coeff-Com: -0.499D+00 0.104D+01 0.455D+00
 Coeff-En:   0.000D+00 0.000D+00 0.100D+01
 Coeff:     -0.457D+00 0.955D+00 0.501D+00
 Gap=     0.144 Goal=   None    Shift=    0.000
 RMSDP=9.77D-04 MaxDP=3.54D-02 DE=-1.20D-01 OVMax= 4.38D-02

 Cycle   4  Pass 1  IDiag  1:
 RMSU=  7.38D-04    CP:  9.89D-01  1.23D+00  6.25D-01
 E= -768.318491595158     Delta-E=       -0.050889858109 Rises=F Damp=F
 DIIS: error= 2.13D-03 at cycle   4 NSaved=   4.
 NSaved= 4 IEnMin= 4 EnMin= -768.318491595158     IErMin= 4 ErrMin= 2.13D-03
 ErrMax= 2.13D-03  0.00D+00 EMaxC= 1.00D-01 BMatC= 3.53D-03 BMatP= 6.18D-02
 IDIUse=3 WtCom= 9.79D-01 WtEn= 2.13D-02
 Coeff-Com: -0.238D+00 0.406D+00 0.185D+00 0.648D+00
 Coeff-En:   0.000D+00 0.000D+00 0.000D+00 0.100D+01
 Coeff:     -0.233D+00 0.397D+00 0.181D+00 0.656D+00
 Gap=     0.130 Goal=   None    Shift=    0.000
 RMSDP=2.48D-04 MaxDP=1.12D-02 DE=-5.09D-02 OVMax= 1.02D-02

 Cycle   5  Pass 1  IDiag  1:
 RMSU=  2.27D-04    CP:  9.89D-01  1.27D+00  6.71D-01  9.39D-01
 E= -768.320799557483     Delta-E=       -0.002307962325 Rises=F Damp=F
 DIIS: error= 1.43D-03 at cycle   5 NSaved=   5.
 NSaved= 5 IEnMin= 5 EnMin= -768.320799557483     IErMin= 5 ErrMin= 1.43D-03
 ErrMax= 1.43D-03  0.00D+00 EMaxC= 1.00D-01 BMatC= 1.39D-03 BMatP= 3.53D-03
 IDIUse=3 WtCom= 9.86D-01 WtEn= 1.43D-02
 Coeff-Com: -0.108D+00 0.159D+00 0.180D-01 0.370D+00 0.561D+00
 Coeff-En:   0.000D+00 0.000D+00 0.000D+00 0.135D+00 0.865D+00
 Coeff:     -0.106D+00 0.156D+00 0.178D-01 0.367D+00 0.566D+00
 Gap=     0.130 Goal=   None    Shift=    0.000
 RMSDP=1.23D-04 MaxDP=6.94D-03 DE=-2.31D-03 OVMax= 5.06D-03

 Cycle   6  Pass 1  IDiag  1:
 RMSU=  8.32D-05    CP:  9.89D-01  1.29D+00  6.63D-01  1.04D+00  8.14D-01
 E= -768.321715926586     Delta-E=       -0.000916369103 Rises=F Damp=F
 DIIS: error= 5.02D-04 at cycle   6 NSaved=   6.
 NSaved= 6 IEnMin= 6 EnMin= -768.321715926586     IErMin= 6 ErrMin= 5.02D-04
 ErrMax= 5.02D-04  0.00D+00 EMaxC= 1.00D-01 BMatC= 1.96D-04 BMatP= 1.39D-03
 IDIUse=3 WtCom= 9.95D-01 WtEn= 5.02D-03
 Coeff-Com: -0.422D-01 0.534D-01-0.260D-01 0.138D+00 0.349D+00 0.528D+00
 Coeff-En:   0.000D+00 0.000D+00 0.000D+00 0.000D+00 0.000D+00 0.100D+01
 Coeff:     -0.420D-01 0.531D-01-0.258D-01 0.137D+00 0.347D+00 0.530D+00
 Gap=     0.128 Goal=   None    Shift=    0.000
 RMSDP=4.79D-05 MaxDP=2.92D-03 DE=-9.16D-04 OVMax= 2.64D-03

 Cycle   7  Pass 1  IDiag  1:
 RMSU=  3.32D-05    CP:  9.89D-01  1.29D+00  6.59D-01  1.08D+00  8.86D-01
                    CP:  8.58D-01
 E= -768.321869877734     Delta-E=       -0.000153951148 Rises=F Damp=F
 DIIS: error= 1.97D-04 at cycle   7 NSaved=   7.
 NSaved= 7 IEnMin= 7 EnMin= -768.321869877734     IErMin= 7 ErrMin= 1.97D-04
 ErrMax= 1.97D-04  0.00D+00 EMaxC= 1.00D-01 BMatC= 2.06D-05 BMatP= 1.96D-04
 IDIUse=3 WtCom= 9.98D-01 WtEn= 1.97D-03
 Coeff-Com: -0.853D-02 0.792D-02-0.223D-01 0.131D-01 0.102D+00 0.284D+00
 Coeff-Com:  0.624D+00
 Coeff-En:   0.000D+00 0.000D+00 0.000D+00 0.000D+00 0.000D+00 0.000D+00
 Coeff-En:   0.100D+01
 Coeff:     -0.852D-02 0.790D-02-0.223D-01 0.131D-01 0.101D+00 0.284D+00
 Coeff:      0.625D+00
 Gap=     0.127 Goal=   None    Shift=    0.000
 RMSDP=2.10D-05 MaxDP=9.86D-04 DE=-1.54D-04 OVMax= 1.54D-03

 Cycle   8  Pass 1  IDiag  1:
 RMSU=  1.11D-05    CP:  9.89D-01  1.30D+00  6.58D-01  1.09D+00  9.26D-01
                    CP:  9.39D-01  8.42D-01
 E= -768.321889259634     Delta-E=       -0.000019381901 Rises=F Damp=F
 DIIS: error= 3.92D-05 at cycle   8 NSaved=   8.
 NSaved= 8 IEnMin= 8 EnMin= -768.321889259634     IErMin= 8 ErrMin= 3.92D-05
 ErrMax= 3.92D-05  0.00D+00 EMaxC= 1.00D-01 BMatC= 1.47D-06 BMatP= 2.06D-05
 IDIUse=1 WtCom= 1.00D+00 WtEn= 0.00D+00
 Coeff-Com:  0.363D-03-0.124D-02-0.648D-02-0.118D-01-0.194D-02 0.468D-01
 Coeff-Com:  0.281D+00 0.693D+00
 Coeff:      0.363D-03-0.124D-02-0.648D-02-0.118D-01-0.194D-02 0.468D-01
 Coeff:      0.281D+00 0.693D+00
 Gap=     0.127 Goal=   None    Shift=    0.000
 RMSDP=6.75D-06 MaxDP=1.66D-04 DE=-1.94D-05 OVMax= 8.63D-04

 Cycle   9  Pass 1  IDiag  1:
 RMSU=  3.95D-06    CP:  9.89D-01  1.29D+00  6.58D-01  1.10D+00  9.36D-01
                    CP:  9.69D-01  9.16D-01  9.53D-01
 E= -768.321890575432     Delta-E=       -0.000001315798 Rises=F Damp=F
 DIIS: error= 1.42D-05 at cycle   9 NSaved=   9.
 NSaved= 9 IEnMin= 9 EnMin= -768.321890575432     IErMin= 9 ErrMin= 1.42D-05
 ErrMax= 1.42D-05  0.00D+00 EMaxC= 1.00D-01 BMatC= 1.66D-07 BMatP= 1.47D-06
 IDIUse=1 WtCom= 1.00D+00 WtEn= 0.00D+00
 Coeff-Com:  0.477D-03-0.663D-03-0.131D-02-0.606D-02-0.834D-02 0.381D-03
 Coeff-Com:  0.907D-01 0.357D+00 0.568D+00
 Coeff:      0.477D-03-0.663D-03-0.131D-02-0.606D-02-0.834D-02 0.381D-03
 Coeff:      0.907D-01 0.357D+00 0.568D+00
 Gap=     0.127 Goal=   None    Shift=    0.000
 RMSDP=1.99D-06 MaxDP=5.79D-05 DE=-1.32D-06 OVMax= 2.31D-04

 Cycle  10  Pass 1  IDiag  1:
 RMSU=  1.27D-06    CP:  9.89D-01  1.29D+00  6.58D-01  1.10D+00  9.38D-01
                    CP:  9.75D-01  9.36D-01  1.01D+00  8.17D-01
 E= -768.321890733427     Delta-E=       -0.000000157996 Rises=F Damp=F
 DIIS: error= 2.92D-06 at cycle  10 NSaved=  10.
 NSaved=10 IEnMin=10 EnMin= -768.321890733427     IErMin=10 ErrMin= 2.92D-06
 ErrMax= 2.92D-06  0.00D+00 EMaxC= 1.00D-01 BMatC= 6.14D-09 BMatP= 1.66D-07
 IDIUse=1 WtCom= 1.00D+00 WtEn= 0.00D+00
 Coeff-Com:  0.270D-03-0.339D-03 0.520D-04-0.127D-02-0.315D-02-0.391D-02
 Coeff-Com:  0.589D-02 0.588D-01 0.188D+00 0.755D+00
 Coeff:      0.270D-03-0.339D-03 0.520D-04-0.127D-02-0.315D-02-0.391D-02
 Coeff:      0.589D-02 0.588D-01 0.188D+00 0.755D+00
 Gap=     0.127 Goal=   None    Shift=    0.000
 RMSDP=7.32D-07 MaxDP=1.99D-05 DE=-1.58D-07 OVMax= 1.08D-04

 Cycle  11  Pass 1  IDiag  1:
 RMSU=  3.16D-07    CP:  9.89D-01  1.29D+00  6.58D-01  1.10D+00  9.39D-01
                    CP:  9.78D-01  9.44D-01  1.03D+00  8.58D-01  9.61D-01
 E= -768.321890742396     Delta-E=       -0.000000008969 Rises=F Damp=F
 DIIS: error= 9.77D-07 at cycle  11 NSaved=  11.
 NSaved=11 IEnMin=11 EnMin= -768.321890742396     IErMin=11 ErrMin= 9.77D-07
 ErrMax= 9.77D-07  0.00D+00 EMaxC= 1.00D-01 BMatC= 1.04D-09 BMatP= 6.14D-09
 IDIUse=1 WtCom= 1.00D+00 WtEn= 0.00D+00
 Coeff-Com:  0.742D-04-0.886D-04 0.131D-03-0.347D-04-0.695D-03-0.148D-02
 Coeff-Com: -0.467D-02-0.193D-02 0.380D-01 0.342D+00 0.629D+00
 Coeff:      0.742D-04-0.886D-04 0.131D-03-0.347D-04-0.695D-03-0.148D-02
 Coeff:     -0.467D-02-0.193D-02 0.380D-01 0.342D+00 0.629D+00
 Gap=     0.127 Goal=   None    Shift=    0.000
 RMSDP=2.33D-07 MaxDP=5.98D-06 DE=-8.97D-09 OVMax= 3.10D-05

 Cycle  12  Pass 1  IDiag  1:
 RMSU=  1.19D-07    CP:  9.89D-01  1.29D+00  6.58D-01  1.10D+00  9.39D-01
                    CP:  9.79D-01  9.44D-01  1.04D+00  8.80D-01  1.01D+00
                    CP:  7.81D-01
 E= -768.321890743581     Delta-E=       -0.000000001185 Rises=F Damp=F
 DIIS: error= 3.48D-07 at cycle  12 NSaved=  12.
 NSaved=12 IEnMin=12 EnMin= -768.321890743581     IErMin=12 ErrMin= 3.48D-07
 ErrMax= 3.48D-07  0.00D+00 EMaxC= 1.00D-01 BMatC= 1.42D-10 BMatP= 1.04D-09
 IDIUse=1 WtCom= 1.00D+00 WtEn= 0.00D+00
 Coeff-Com:  0.215D-04-0.277D-04 0.594D-04 0.114D-03-0.136D-05-0.236D-03
 Coeff-Com: -0.325D-02-0.850D-02-0.508D-02 0.680D-01 0.306D+00 0.643D+00
 Coeff:      0.215D-04-0.277D-04 0.594D-04 0.114D-03-0.136D-05-0.236D-03
 Coeff:     -0.325D-02-0.850D-02-0.508D-02 0.680D-01 0.306D+00 0.643D+00
 Gap=     0.127 Goal=   None    Shift=    0.000
 RMSDP=7.97D-08 MaxDP=2.29D-06 DE=-1.19D-09 OVMax= 1.03D-05

 Cycle  13  Pass 1  IDiag  1:
 RMSU=  3.02D-08    CP:  9.89D-01  1.29D+00  6.58D-01  1.10D+00  9.39D-01
                    CP:  9.80D-01  9.45D-01  1.04D+00  8.82D-01  1.03D+00
                    CP:  8.55D-01  7.36D-01
 E= -768.321890743744     Delta-E=       -0.000000000163 Rises=F Damp=F
 DIIS: error= 7.25D-08 at cycle  13 NSaved=  13.
 NSaved=13 IEnMin=13 EnMin= -768.321890743744     IErMin=13 ErrMin= 7.25D-08
 ErrMax= 7.25D-08  0.00D+00 EMaxC= 1.00D-01 BMatC= 6.97D-12 BMatP= 1.42D-10
 IDIUse=1 WtCom= 1.00D+00 WtEn= 0.00D+00
 Coeff-Com:  0.223D-05-0.337D-05 0.135D-04 0.504D-04 0.576D-04 0.527D-04
 Coeff-Com: -0.862D-03-0.293D-02-0.439D-02 0.134D-02 0.716D-01 0.242D+00
 Coeff-Com:  0.693D+00
 Coeff:      0.223D-05-0.337D-05 0.135D-04 0.504D-04 0.576D-04 0.527D-04
 Coeff:     -0.862D-03-0.293D-02-0.439D-02 0.134D-02 0.716D-01 0.242D+00
 Coeff:      0.693D+00
 Gap=     0.127 Goal=   None    Shift=    0.000
 RMSDP=1.67D-08 MaxDP=4.07D-07 DE=-1.63D-10 OVMax= 1.89D-06

 Cycle  14  Pass 1  IDiag  1:
 RMSU=  1.02D-08    CP:  9.89D-01  1.29D+00  6.58D-01  1.10D+00  9.39D-01
                    CP:  9.80D-01  9.45D-01  1.04D+00  8.83D-01  1.03D+00
                    CP:  8.65D-01  7.86D-01  9.00D-01
 E= -768.321890743727     Delta-E=        0.000000000017 Rises=F Damp=F
 DIIS: error= 3.48D-08 at cycle  14 NSaved=  14.
 NSaved=14 IEnMin=13 EnMin= -768.321890743744     IErMin=14 ErrMin= 3.48D-08
 ErrMax= 3.48D-08  0.00D+00 EMaxC= 1.00D-01 BMatC= 1.14D-12 BMatP= 6.97D-12
 IDIUse=1 WtCom= 1.00D+00 WtEn= 0.00D+00
 Coeff-Com: -0.695D-06 0.682D-06 0.793D-06 0.112D-04 0.239D-04 0.453D-04
 Coeff-Com: -0.807D-04-0.459D-03-0.145D-02-0.596D-02 0.273D-02 0.487D-01
 Coeff-Com:  0.348D+00 0.608D+00
 Coeff:     -0.695D-06 0.682D-06 0.793D-06 0.112D-04 0.239D-04 0.453D-04
 Coeff:     -0.807D-04-0.459D-03-0.145D-02-0.596D-02 0.273D-02 0.487D-01
 Coeff:      0.348D+00 0.608D+00
 Gap=     0.127 Goal=   None    Shift=    0.000
 RMSDP=5.20D-09 MaxDP=1.52D-07 DE= 1.68D-11 OVMax= 4.28D-07

 Error on total polarization charges =  0.01349
 SCF Done:  E(RB3LYP) =  -768.321890744     A.U. after   14 cycles
            NFock= 14  Conv=0.52D-08     -V/T= 2.0091
 KE= 7.613918399944D+02 PE=-4.064284312805D+03 EE= 1.389723590160D+03
 Leave Link  502 at Fri May 24 08:32:32 2019, MaxMem=   402653184 cpu:             535.4 elap:             134.0
 (Enter /n/sw/g16_nehalem/g16/l601.exe)
 Copying SCF densities to generalized density rwf, IOpCl= 0 IROHF=0.

 **********************************************************************

            Population analysis using the SCF density.

 **********************************************************************

 Orbital symmetries:
       Occupied  (A) (A) (A) (A) (A) (A) (A) (A) (A) (A) (A) (A)
                 (A) (A) (A) (A) (A) (A) (A) (A) (A) (A) (A) (A)
                 (A) (A) (A) (A) (A) (A) (A) (A) (A) (A) (A) (A)
                 (A) (A) (A) (A) (A) (A) (A) (A) (A) (A) (A) (A)
                 (A) (A) (A) (A) (A) (A) (A) (A) (A) (A) (A)
       Virtual   (A) (A) (A) (A) (A) (A) (A) (A) (A) (A) (A) (A)
                 (A) (A) (A) (A) (A) (A) (A) (A) (A) (A) (A) (A)
                 (A) (A) (A) (A) (A) (A) (A) (A) (A) (A) (A) (A)
                 (A) (A) (A) (A) (A) (A) (A) (A) (A) (A) (A) (A)
                 (A) (A) (A) (A) (A) (A) (A) (A) (A) (A) (A) (A)
                 (A) (A) (A) (A) (A) (A) (A) (A) (A) (A) (A) (A)
                 (A) (A) (A) (A) (A) (A) (A) (A) (A) (A) (A) (A)
                 (A) (A) (A) (A) (A) (A) (A) (A) (A) (A) (A) (A)
                 (A) (A) (A) (A) (A) (A) (A) (A) (A) (A) (A) (A)
                 (A) (A) (A) (A) (A) (A) (A) (A) (A) (A) (A) (A)
                 (A) (A) (A) (A) (A) (A) (A) (A) (A) (A) (A) (A)
                 (A) (A) (A) (A) (A) (A) (A) (A) (A) (A) (A) (A)
                 (A) (A) (A) (A) (A) (A) (A) (A) (A) (A) (A) (A)
                 (A) (A) (A) (A) (A) (A) (A) (A) (A) (A) (A) (A)
                 (A) (A) (A) (A) (A) (A) (A) (A) (A) (A) (A) (A)
                 (A) (A) (A) (A) (A) (A) (A) (A) (A) (A) (A) (A)
                 (A) (A) (A) (A) (A) (A) (A) (A) (A) (A) (A) (A)
 The electronic state is 1-A.
 Alpha  occ. eigenvalues --  -19.33478 -19.20975 -19.20080 -19.19065 -19.18307
 Alpha  occ. eigenvalues --  -10.40110 -10.32401 -10.32148 -10.30054 -10.29852
 Alpha  occ. eigenvalues --  -10.27897 -10.26386 -10.25841 -10.24904 -10.24625
 Alpha  occ. eigenvalues --   -1.22124  -1.09876  -1.08408  -1.06779  -1.06516
 Alpha  occ. eigenvalues --   -0.87577  -0.86101  -0.77823  -0.75583  -0.73876
 Alpha  occ. eigenvalues --   -0.72354  -0.68779  -0.68163  -0.65625  -0.63115
 Alpha  occ. eigenvalues --   -0.60800  -0.58759  -0.55943  -0.55293  -0.53911
 Alpha  occ. eigenvalues --   -0.52546  -0.51967  -0.51231  -0.50171  -0.49457
 Alpha  occ. eigenvalues --   -0.48812  -0.48054  -0.46536  -0.45892  -0.45506
 Alpha  occ. eigenvalues --   -0.44482  -0.43073  -0.42259  -0.42211  -0.41474
 Alpha  occ. eigenvalues --   -0.40287  -0.37319  -0.35636  -0.35350  -0.35107
 Alpha  occ. eigenvalues --   -0.32152  -0.31711  -0.28993  -0.28342
 Alpha virt. eigenvalues --   -0.15634  -0.00502   0.04204   0.04719   0.06713
 Alpha virt. eigenvalues --    0.06958   0.07331   0.08229   0.08916   0.10989
 Alpha virt. eigenvalues --    0.11168   0.11366   0.11719   0.12071   0.12981
 Alpha virt. eigenvalues --    0.13485   0.13676   0.14054   0.14542   0.15241
 Alpha virt. eigenvalues --    0.15829   0.16441   0.16659   0.17104   0.17612
 Alpha virt. eigenvalues --    0.18387   0.19472   0.19774   0.20795   0.21734
 Alpha virt. eigenvalues --    0.23776   0.25274   0.25939   0.28074   0.30247
 Alpha virt. eigenvalues --    0.42990   0.45556   0.46386   0.47361   0.47858
 Alpha virt. eigenvalues --    0.49019   0.49223   0.50511   0.51130   0.51777
 Alpha virt. eigenvalues --    0.52626   0.53095   0.54999   0.55104   0.55482
 Alpha virt. eigenvalues --    0.56548   0.58585   0.60175   0.61189   0.62417
 Alpha virt. eigenvalues --    0.63432   0.64544   0.67496   0.69063   0.71028
 Alpha virt. eigenvalues --    0.72709   0.75171   0.75424   0.76125   0.78154
 Alpha virt. eigenvalues --    0.78488   0.79462   0.79958   0.81475   0.81747
 Alpha virt. eigenvalues --    0.83430   0.83992   0.84064   0.84327   0.85289
 Alpha virt. eigenvalues --    0.86628   0.87207   0.88869   0.89185   0.89448
 Alpha virt. eigenvalues --    0.91481   0.92655   0.93475   0.94091   0.95748
 Alpha virt. eigenvalues --    0.96643   0.98543   0.99405   1.01275   1.01791
 Alpha virt. eigenvalues --    1.02759   1.06236   1.07707   1.11762   1.12456
 Alpha virt. eigenvalues --    1.14772   1.15853   1.19099   1.20028   1.21510
 Alpha virt. eigenvalues --    1.23399   1.25522   1.27048   1.29799   1.31519
 Alpha virt. eigenvalues --    1.32933   1.34954   1.37136   1.40491   1.41346
 Alpha virt. eigenvalues --    1.43529   1.44270   1.45148   1.47178   1.48378
 Alpha virt. eigenvalues --    1.49376   1.53594   1.55258   1.56635   1.60673
 Alpha virt. eigenvalues --    1.64193   1.65649   1.65976   1.68001   1.72197
 Alpha virt. eigenvalues --    1.72755   1.75130   1.75862   1.79762   1.80251
 Alpha virt. eigenvalues --    1.83602   1.84958   1.85567   1.86635   1.91377
 Alpha virt. eigenvalues --    1.91757   1.93705   1.96107   1.97244   1.98810
 Alpha virt. eigenvalues --    1.99811   2.01233   2.01553   2.02693   2.03716
 Alpha virt. eigenvalues --    2.05304   2.06053   2.07000   2.07828   2.09618
 Alpha virt. eigenvalues --    2.12337   2.13849   2.14422   2.15838   2.16816
 Alpha virt. eigenvalues --    2.18143   2.19930   2.21321   2.23133   2.24729
 Alpha virt. eigenvalues --    2.26109   2.28488   2.31008   2.31541   2.35018
 Alpha virt. eigenvalues --    2.37149   2.38879   2.41116   2.43169   2.46025
 Alpha virt. eigenvalues --    2.49957   2.51550   2.53247   2.55732   2.58964
 Alpha virt. eigenvalues --    2.61940   2.64701   2.68076   2.73525   2.77107
 Alpha virt. eigenvalues --    2.78099   2.81929   2.83454   2.88340   2.94054
 Alpha virt. eigenvalues --    2.95750   2.98247   3.04054   3.06223   3.83949
 Alpha virt. eigenvalues --    3.91743   3.98119   4.00790   4.05534   4.14291
 Alpha virt. eigenvalues --    4.21984   4.22407   4.23489   4.24529   4.28968
 Alpha virt. eigenvalues --    4.35738   4.43324   4.53254   4.63575
          Condensed to atoms (all electrons):
               1          2          3          4          5          6
     1  C    5.044969   0.279751  -0.043818  -0.041931   0.285326   0.003578
     2  C    0.279751   5.054315   0.242537  -0.001156  -0.042557  -0.042297
     3  C   -0.043818   0.242537   4.891504  -0.040831   0.006188   0.357312
     4  C   -0.041931  -0.001156  -0.040831   5.189990   0.217783   0.002963
     5  C    0.285326  -0.042557   0.006188   0.217783   5.024652  -0.000171
     6  H    0.003578  -0.042297   0.357312   0.002963  -0.000171   0.424960
     7  H   -0.034249   0.360848  -0.040240   0.001528  -0.006693  -0.000333
     8  H    0.353046  -0.037808  -0.001205   0.000854  -0.052729  -0.000094
     9  H   -0.005662   0.000916  -0.000710   0.363692  -0.030547  -0.000186
    10  H   -0.047509  -0.004925   0.001028  -0.044466   0.376757  -0.000052
    11  O   -0.000796  -0.021284   0.375035   0.113092  -0.015457  -0.034170
    12  O   -0.032949   0.260524  -0.035237   0.000012   0.002042   0.004649
    13  O    0.217784  -0.040492   0.003398   0.003346  -0.040677  -0.000038
    14  O   -0.033992   0.001870  -0.000104  -0.038002   0.252857   0.000002
    15  C    0.003607  -0.000297   0.002255   0.348222  -0.027299  -0.000163
    16  H   -0.000181  -0.000001   0.000585  -0.029730  -0.002346  -0.000034
    17  H    0.000452  -0.000042   0.000036  -0.043787   0.003127   0.000005
    18  O   -0.000030  -0.000009   0.000209  -0.041124   0.001737   0.000018
    19  C   -0.005577  -0.048190  -0.006140   0.000004   0.000143  -0.000232
    20  H   -0.001434  -0.005728   0.009190  -0.000050   0.000022  -0.000128
    21  H   -0.000003   0.004980  -0.000068   0.000001  -0.000004  -0.000103
    22  H    0.004255  -0.006057  -0.000520   0.000005  -0.000089   0.000154
    23  C   -0.030484   0.004413  -0.000174   0.000025  -0.002873   0.000002
    24  H    0.004658  -0.000160   0.000000   0.000005  -0.000117   0.000000
    25  H   -0.003342  -0.000245   0.000023  -0.000104   0.001873   0.000000
    26  H   -0.012149   0.000361   0.000003   0.000071  -0.000636   0.000000
    27  C   -0.007514   0.000324  -0.000020  -0.005865  -0.043320   0.000000
    28  H   -0.000018  -0.000004   0.000000   0.000068   0.004762   0.000000
    29  H   -0.000543   0.000013   0.000010   0.002019  -0.005594   0.000000
    30  H    0.005229  -0.000286   0.000011  -0.001406  -0.004667   0.000000
    31  C    0.000002   0.000000  -0.000001   0.005067  -0.000113  -0.000001
    32  H    0.000000   0.000000   0.000001  -0.000157   0.000025   0.000000
    33  H    0.000000   0.000000  -0.000002   0.000216   0.000009   0.000000
    34  H    0.000000   0.000000   0.000000  -0.000263   0.000000   0.000000
               7          8          9         10         11         12
     1  C   -0.034249   0.353046  -0.005662  -0.047509  -0.000796  -0.032949
     2  C    0.360848  -0.037808   0.000916  -0.004925  -0.021284   0.260524
     3  C   -0.040240  -0.001205  -0.000710   0.001028   0.375035  -0.035237
     4  C    0.001528   0.000854   0.363692  -0.044466   0.113092   0.000012
     5  C   -0.006693  -0.052729  -0.030547   0.376757  -0.015457   0.002042
     6  H   -0.000333  -0.000094  -0.000186  -0.000052  -0.034170   0.004649
     7  H    0.472713   0.005012  -0.000007   0.005100  -0.000012  -0.031929
     8  H    0.005012   0.578875   0.002380   0.005584   0.000230  -0.004150
     9  H   -0.000007   0.002380   0.484568   0.004326  -0.029705  -0.000003
    10  H    0.005100   0.005584   0.004326   0.544040  -0.000010  -0.000049
    11  O   -0.000012   0.000230  -0.029705  -0.000010   7.942623   0.001629
    12  O   -0.031929  -0.004150  -0.000003  -0.000049   0.001629   8.165110
    13  O    0.002063  -0.035929  -0.000005   0.001990   0.000010   0.002029
    14  O   -0.000052  -0.002426  -0.003403  -0.038538   0.001012  -0.000006
    15  C    0.000005  -0.000116  -0.039129  -0.005829  -0.033524   0.000000
    16  H   -0.000006   0.000004   0.005628   0.004482  -0.004224   0.000000
    17  H   -0.000007  -0.000013  -0.003363  -0.001119   0.002835   0.000000
    18  O    0.000000   0.000001   0.005512   0.000023   0.002475   0.000000
    19  C    0.005197   0.004595   0.000005   0.000007  -0.000057   0.233050
    20  H   -0.000128   0.000230   0.000025   0.000000  -0.000781  -0.036430
    21  H   -0.000115  -0.000016   0.000000   0.000000   0.000002  -0.029675
    22  H   -0.000219   0.000756  -0.000004  -0.000005   0.000035  -0.034289
    23  C   -0.000120  -0.006465  -0.000007  -0.000152   0.000000  -0.000060
    24  H   -0.000013  -0.000014   0.000000  -0.000012   0.000000   0.000005
    25  H   -0.000020  -0.001311  -0.000003  -0.000135  -0.000001   0.000001
    26  H    0.000073   0.012030   0.000001   0.000060   0.000000  -0.000033
    27  C   -0.000002   0.002073   0.005803   0.005621   0.000019  -0.000001
    28  H    0.000000  -0.000041  -0.000088  -0.000114   0.000000   0.000000
    29  H    0.000000  -0.000159   0.003012  -0.000156  -0.000075   0.000000
    30  H   -0.000005   0.002618  -0.000617  -0.000250   0.000013   0.000007
    31  C    0.000000   0.000000  -0.000052  -0.000006  -0.000026   0.000000
    32  H    0.000000   0.000000  -0.000050  -0.000001   0.000004   0.000000
    33  H    0.000000   0.000000   0.000061   0.000002  -0.000021   0.000000
    34  H    0.000000   0.000000  -0.000014   0.000000   0.000004   0.000000
              13         14         15         16         17         18
     1  C    0.217784  -0.033992   0.003607  -0.000181   0.000452  -0.000030
     2  C   -0.040492   0.001870  -0.000297  -0.000001  -0.000042  -0.000009
     3  C    0.003398  -0.000104   0.002255   0.000585   0.000036   0.000209
     4  C    0.003346  -0.038002   0.348222  -0.029730  -0.043787  -0.041124
     5  C   -0.040677   0.252857  -0.027299  -0.002346   0.003127   0.001737
     6  H   -0.000038   0.000002  -0.000163  -0.000034   0.000005   0.000018
     7  H    0.002063  -0.000052   0.000005  -0.000006  -0.000007   0.000000
     8  H   -0.035929  -0.002426  -0.000116   0.000004  -0.000013   0.000001
     9  H   -0.000005  -0.003403  -0.039129   0.005628  -0.003363   0.005512
    10  H    0.001990  -0.038538  -0.005829   0.004482  -0.001119   0.000023
    11  O    0.000010   0.001012  -0.033524  -0.004224   0.002835   0.002475
    12  O    0.002029  -0.000006   0.000000   0.000000   0.000000   0.000000
    13  O    8.232146   0.001296  -0.000041   0.000001  -0.000001   0.000000
    14  O    0.001296   8.202920  -0.001630   0.000199   0.008021   0.000022
    15  C   -0.000041  -0.001630   4.878957   0.348233   0.361175   0.235629
    16  H    0.000001   0.000199   0.348233   0.585920  -0.044746  -0.039566
    17  H   -0.000001   0.008021   0.361175  -0.044746   0.562316  -0.036246
    18  O    0.000000   0.000022   0.235629  -0.039566  -0.036246   8.213964
    19  C   -0.000278   0.000000   0.000000   0.000000   0.000000   0.000000
    20  H    0.000041   0.000000   0.000000   0.000000   0.000000   0.000000
    21  H   -0.000022   0.000000   0.000000   0.000000   0.000000   0.000000
    22  H    0.000497   0.000004   0.000000   0.000000   0.000000   0.000000
    23  C    0.235296  -0.001934  -0.000001   0.000000   0.000000   0.000000
    24  H   -0.032460   0.000119   0.000000   0.000000   0.000000   0.000000
    25  H   -0.035049   0.006776   0.000003   0.000000   0.000000   0.000000
    26  H   -0.033356   0.000144   0.000000   0.000000   0.000000   0.000000
    27  C   -0.000006   0.225336  -0.001028   0.000011   0.000094  -0.000037
    28  H   -0.000015  -0.031417  -0.000032   0.000001  -0.000052   0.000000
    29  H    0.000002  -0.035047   0.000763  -0.000015  -0.000462   0.000048
    30  H   -0.000086  -0.034776   0.000137  -0.000002   0.000139   0.000000
    31  C    0.000000   0.000008  -0.040767  -0.004041  -0.003517   0.243596
    32  H    0.000000  -0.000005  -0.006778  -0.002270   0.010512  -0.036258
    33  H    0.000000   0.000000  -0.008085   0.011387  -0.002080  -0.035642
    34  H    0.000000   0.000000   0.005524  -0.000145  -0.000103  -0.031530
              19         20         21         22         23         24
     1  C   -0.005577  -0.001434  -0.000003   0.004255  -0.030484   0.004658
     2  C   -0.048190  -0.005728   0.004980  -0.006057   0.004413  -0.000160
     3  C   -0.006140   0.009190  -0.000068  -0.000520  -0.000174   0.000000
     4  C    0.000004  -0.000050   0.000001   0.000005   0.000025   0.000005
     5  C    0.000143   0.000022  -0.000004  -0.000089  -0.002873  -0.000117
     6  H   -0.000232  -0.000128  -0.000103   0.000154   0.000002   0.000000
     7  H    0.005197  -0.000128  -0.000115  -0.000219  -0.000120  -0.000013
     8  H    0.004595   0.000230  -0.000016   0.000756  -0.006465  -0.000014
     9  H    0.000005   0.000025   0.000000  -0.000004  -0.000007   0.000000
    10  H    0.000007   0.000000   0.000000  -0.000005  -0.000152  -0.000012
    11  O   -0.000057  -0.000781   0.000002   0.000035   0.000000   0.000000
    12  O    0.233050  -0.036430  -0.029675  -0.034289  -0.000060   0.000005
    13  O   -0.000278   0.000041  -0.000022   0.000497   0.235296  -0.032460
    14  O    0.000000   0.000000   0.000000   0.000004  -0.001934   0.000119
    15  C    0.000000   0.000000   0.000000   0.000000  -0.000001   0.000000
    16  H    0.000000   0.000000   0.000000   0.000000   0.000000   0.000000
    17  H    0.000000   0.000000   0.000000   0.000000   0.000000   0.000000
    18  O    0.000000   0.000000   0.000000   0.000000   0.000000   0.000000
    19  C    4.941529   0.361050   0.387728   0.370741  -0.000140   0.000006
    20  H    0.361050   0.582336  -0.026723  -0.042958   0.000000   0.000000
    21  H    0.387728  -0.026723   0.490453  -0.028754  -0.000001   0.000000
    22  H    0.370741  -0.042958  -0.028754   0.554163   0.000330  -0.000018
    23  C   -0.000140   0.000000  -0.000001   0.000330   4.908971   0.384411
    24  H    0.000006   0.000000   0.000000  -0.000018   0.384411   0.518441
    25  H    0.000003   0.000000   0.000000   0.000007   0.367593  -0.030967
    26  H   -0.000041  -0.000003   0.000005   0.000395   0.367328  -0.027381
    27  C   -0.000002   0.000000   0.000000   0.000001   0.000202   0.000022
    28  H    0.000000   0.000000   0.000000   0.000000   0.000069  -0.000004
    29  H    0.000000   0.000000   0.000000   0.000000   0.000029   0.000000
    30  H   -0.000007   0.000000   0.000000  -0.000029   0.000529  -0.000024
    31  C    0.000000   0.000000   0.000000   0.000000   0.000000   0.000000
    32  H    0.000000   0.000000   0.000000   0.000000   0.000000   0.000000
    33  H    0.000000   0.000000   0.000000   0.000000   0.000000   0.000000
    34  H    0.000000   0.000000   0.000000   0.000000   0.000000   0.000000
              25         26         27         28         29         30
     1  C   -0.003342  -0.012149  -0.007514  -0.000018  -0.000543   0.005229
     2  C   -0.000245   0.000361   0.000324  -0.000004   0.000013  -0.000286
     3  C    0.000023   0.000003  -0.000020   0.000000   0.000010   0.000011
     4  C   -0.000104   0.000071  -0.005865   0.000068   0.002019  -0.001406
     5  C    0.001873  -0.000636  -0.043320   0.004762  -0.005594  -0.004667
     6  H    0.000000   0.000000   0.000000   0.000000   0.000000   0.000000
     7  H   -0.000020   0.000073  -0.000002   0.000000   0.000000  -0.000005
     8  H   -0.001311   0.012030   0.002073  -0.000041  -0.000159   0.002618
     9  H   -0.000003   0.000001   0.005803  -0.000088   0.003012  -0.000617
    10  H   -0.000135   0.000060   0.005621  -0.000114  -0.000156  -0.000250
    11  O   -0.000001   0.000000   0.000019   0.000000  -0.000075   0.000013
    12  O    0.000001  -0.000033  -0.000001   0.000000   0.000000   0.000007
    13  O   -0.035049  -0.033356  -0.000006  -0.000015   0.000002  -0.000086
    14  O    0.006776   0.000144   0.225336  -0.031417  -0.035047  -0.034776
    15  C    0.000003   0.000000  -0.001028  -0.000032   0.000763   0.000137
    16  H    0.000000   0.000000   0.000011   0.000001  -0.000015  -0.000002
    17  H    0.000000   0.000000   0.000094  -0.000052  -0.000462   0.000139
    18  O    0.000000   0.000000  -0.000037   0.000000   0.000048   0.000000
    19  C    0.000003  -0.000041  -0.000002   0.000000   0.000000  -0.000007
    20  H    0.000000  -0.000003   0.000000   0.000000   0.000000   0.000000
    21  H    0.000000   0.000005   0.000000   0.000000   0.000000   0.000000
    22  H    0.000007   0.000395   0.000001   0.000000   0.000000  -0.000029
    23  C    0.367593   0.367328   0.000202   0.000069   0.000029   0.000529
    24  H   -0.030967  -0.027381   0.000022  -0.000004   0.000000  -0.000024
    25  H    0.565083  -0.042335  -0.000937  -0.000096   0.000207  -0.000438
    26  H   -0.042335   0.575743  -0.000306   0.000003   0.000006   0.000516
    27  C   -0.000937  -0.000306   4.946571   0.387958   0.370249   0.361638
    28  H   -0.000096   0.000003   0.387958   0.499900  -0.029751  -0.027760
    29  H    0.000207   0.000006   0.370249  -0.029751   0.566749  -0.043236
    30  H   -0.000438   0.000516   0.361638  -0.027760  -0.043236   0.576316
    31  C    0.000000   0.000000   0.000000   0.000000  -0.000015   0.000000
    32  H    0.000000   0.000000   0.000001   0.000000   0.000004   0.000000
    33  H    0.000000   0.000000   0.000000   0.000000   0.000000   0.000000
    34  H    0.000000   0.000000   0.000000   0.000000   0.000000   0.000000
              31         32         33         34
     1  C    0.000002   0.000000   0.000000   0.000000
     2  C    0.000000   0.000000   0.000000   0.000000
     3  C   -0.000001   0.000001  -0.000002   0.000000
     4  C    0.005067  -0.000157   0.000216  -0.000263
     5  C   -0.000113   0.000025   0.000009   0.000000
     6  H   -0.000001   0.000000   0.000000   0.000000
     7  H    0.000000   0.000000   0.000000   0.000000
     8  H    0.000000   0.000000   0.000000   0.000000
     9  H   -0.000052  -0.000050   0.000061  -0.000014
    10  H   -0.000006  -0.000001   0.000002   0.000000
    11  O   -0.000026   0.000004  -0.000021   0.000004
    12  O    0.000000   0.000000   0.000000   0.000000
    13  O    0.000000   0.000000   0.000000   0.000000
    14  O    0.000008  -0.000005   0.000000   0.000000
    15  C   -0.040767  -0.006778  -0.008085   0.005524
    16  H   -0.004041  -0.002270   0.011387  -0.000145
    17  H   -0.003517   0.010512  -0.002080  -0.000103
    18  O    0.243596  -0.036258  -0.035642  -0.031530
    19  C    0.000000   0.000000   0.000000   0.000000
    20  H    0.000000   0.000000   0.000000   0.000000
    21  H    0.000000   0.000000   0.000000   0.000000
    22  H    0.000000   0.000000   0.000000   0.000000
    23  C    0.000000   0.000000   0.000000   0.000000
    24  H    0.000000   0.000000   0.000000   0.000000
    25  H    0.000000   0.000000   0.000000   0.000000
    26  H    0.000000   0.000000   0.000000   0.000000
    27  C    0.000000   0.000001   0.000000   0.000000
    28  H    0.000000   0.000000   0.000000   0.000000
    29  H   -0.000015   0.000004   0.000000   0.000000
    30  H    0.000000   0.000000   0.000000   0.000000
    31  C    4.890906   0.368074   0.367241   0.386136
    32  H    0.368074   0.585746  -0.044998  -0.030293
    33  H    0.367241  -0.044998   0.586761  -0.030582
    34  H    0.386136  -0.030293  -0.030582   0.522515
 Mulliken charges:
               1
     1  C    0.099523
     2  C    0.040684
     3  C    0.279745
     4  C    0.039911
     5  C    0.098586
     6  H    0.284358
     7  H    0.261611
     8  H    0.174188
     9  H    0.237626
    10  H    0.194309
    11  O   -0.298875
    12  O   -0.464246
    13  O   -0.481445
    14  O   -0.479254
    15  C   -0.019794
    16  H    0.170857
    17  H    0.186827
    18  O   -0.482791
    19  C   -0.243391
    20  H    0.161469
    21  H    0.202316
    22  H    0.181598
    23  C   -0.226787
    24  H    0.183502
    25  H    0.173413
    26  H    0.159502
    27  C   -0.246887
    28  H    0.196628
    29  H    0.171942
    30  H    0.166435
    31  C   -0.212490
    32  H    0.156444
    33  H    0.155733
    34  H    0.178752
 Sum of Mulliken charges =   1.00000
 Mulliken charges with hydrogens summed into heavy atoms:
               1
     1  C    0.273711
     2  C    0.302295
[...]
 .00013721,0.00000025,0.00000071,0.00001632,0.00000547,-0.00000778,0.00
 001869,-0.00000279,0.00001226,0.00000916,-0.00027142,-0.00027246,-0.00
 008915,0.00002196,0.00006689,0.00005158,-0.00021775,-0.00001345,-0.000
 13631,0.00012513,-0.00006368,0.00005688,0.08939391,0.03460614,-0.09513
 633,0.00155983,0.00168572,0.00127852,-0.10531390,-0.03550433,0.1172013
 8,-0.00051696,0.00056413,-0.00071412,0.00033102,-0.00034266,0.00003925
 ,0.00000890,0.00001221,0.00001533,-0.00011614,0.00016972,-0.00021275,0
 .00044546,0.00151020,0.00002994,0.00001907,0.00000543,-0.00002018,-0.0
 0000095,0.00010491,0.00006221,-0.00074283,0.00093716,0.00135694,-0.000
 36927,0.00002312,0.00006333,-0.00001446,-0.00021859,-0.00005412,-0.000
 00216,-0.00013266,0.00003262,0.00009204,-0.00013293,0.00004438,-0.0000
 8551,-0.00036600,0.00035117,0.00797862,-0.00519419,-0.00249047,0.00004
 675,0.00021213,0.00015716,0.00003792,-0.00005713,0.00000635,0.00008878
 ,-0.00000161,0.00011632,-0.00010713,-0.00008224,0.00000129,-0.00002390
 ,-0.00002691,-0.00009486,-0.00000849,-0.00001440,0.00000930,-0.0000019
 0,0.00000689,0.00001630,0.00001751,0.00002968,0.00000733,0.00008073,0.
 00036126,0.00025098,-0.00002793,0.00000699,-0.00007697,-0.00011075,-0.
 00013311,0.00009575,-0.00090006,-0.00000989,0.00011969,-0.22918102,0.0
 7104790,-0.09966420,0.00164887,-0.00047944,0.00163387,-0.02077521,0.01
 038134,-0.01253155,0.24215307,0.00093748,-0.00010054,-0.00009799,-0.00
 018158,0.00011993,0.00019807,-0.00010405,-0.00008144,0.00001477,-0.000
 04908,-0.00006316,-0.00019785,-0.00221570,0.00184998,-0.00021100,-0.00
 000825,-0.00000346,-0.00003372,0.00000794,0.00002057,-0.00002116,0.000
 74174,-0.00142319,-0.00112785,-0.00011482,0.00011667,0.00012626,0.0001
 7652,-0.00010355,0.00010893,0.00002143,-0.00009069,0.00009384,-0.00009
 945,0.00015551,-0.00004198,-0.00037118,-0.00022711,0.00004444,-0.00980
 522,0.00498703,-0.00990361,-0.00010307,0.00008612,0.00003668,0.0000432
 2,-0.00000499,0.00001323,0.00006250,0.00001009,0.00002529,0.00006391,-
 0.00001129,0.00000494,0.00001769,-0.00000707,0.00004641,-0.00001045,-0
 .00001001,-0.00000503,-0.00000527,0.00000642,-0.00000376,0.00000671,-0
 .00000438,-0.00001779,0.00026666,0.00059500,0.00000214,0.00005315,-0.0
 0014244,-0.00004544,0.00002824,-0.00019649,0.00018036,0.00006977,-0.00
 006246,-0.00016618,0.07142522,-0.08387592,0.04256492,0.02752843,-0.007
 65562,0.01510968,-0.01018887,0.00462878,-0.00513684,-0.07818820,0.0814
 8339,-0.00005679,-0.00090565,-0.00032800,0.00025911,0.00004417,0.00044
 486,-0.00034731,0.00012570,0.00011751,0.00041763,0.00001109,-0.0004969
 2,-0.00173210,0.00542839,0.00213784,0.00004118,0.00000577,-0.00004076,
 -0.00002879,0.00016330,0.00005775,0.00095347,-0.00108245,-0.00038930,-
 0.00004705,-0.00012894,-0.00002405,0.00031282,-0.00040196,-0.00007120,
 0.00002086,-0.00063265,0.00012011,0.00012381,-0.00013962,-0.00000902,0
 .00036040,0.00032466,0.00021147,-0.02581935,0.00364867,-0.03336652,0.0
 0008443,0.00018879,-0.00000654,0.00000550,-0.00000512,-0.00000069,0.00
 016680,-0.00002765,-0.00003424,-0.00018638,-0.00010782,0.00005544,-0.0
 0004085,-0.00005844,-0.00008448,0.00000755,0.00000877,0.00000363,0.000
 00647,0.00000404,0.00000836,0.00000144,0.00001295,0.00001175,-0.000214
 66,-0.00036428,-0.00046116,-0.00003539,0.00016069,0.00018320,-0.000083
 05,0.00019165,-0.00020921,0.00052219,-0.00015830,0.00015595,-0.0959723
 5,0.03835856,-0.10718790,-0.00113957,0.00145301,0.00111031,0.01093143,
 -0.00455599,0.00997520,0.11142996,-0.04155484,0.12809886,-0.00059769,-
 0.00001128,-0.00004688,-0.00034827,0.00045052,-0.00031417,-0.00192778,
 0.00041838,0.00045330,-0.00247217,0.00020472,0.00031690,-0.00009674,-0
 .00101637,0.00010951,0.00015794,0.00000005,-0.00018565,0.00011226,0.00
 003489,0.00013936,0.00004411,0.00001947,0.00001995,-0.00055268,-0.0001
 1593,-0.00006179,-0.00015503,0.00002432,0.00007043,0.00195415,-0.00112
 356,0.00023200,0.00055504,-0.00022193,0.00029347,0.00084823,0.00046836
 ,-0.00012718,0.00087167,0.00070536,0.00052139,-0.04884706,-0.00471678,
 -0.00087931,0.00557856,0.00219577,-0.00428234,0.00585228,0.00331771,-0
 .00301308,-0.19991352,0.00185628,-0.03225626,-0.00011031,-0.00000050,-
 0.00030923,0.00000885,0.00002472,0.00001494,0.00003460,-0.00002323,0.0
 0002946,-0.00000844,0.00002589,0.00003478,-0.00018877,-0.00036100,-0.0
 0021539,0.00006236,0.00005179,0.00000016,-0.00003811,0.00001653,0.0000
 4729,0.00000599,0.00002734,0.00005921,-0.00025360,-0.00031576,-0.00060
 594,0.00006057,0.00010072,0.00003384,0.00000444,-0.00011479,-0.0000891
 9,0.00005380,-0.00001771,0.00009282,0.48659040,0.00017611,-0.00031185,
 0.00014686,0.00012426,-0.00014171,0.00005557,0.00024291,0.00017946,0.0
 0001115,-0.00296532,-0.00278117,0.00221003,-0.00086322,0.00096857,-0.0
 0038368,-0.00003166,0.00000202,-0.00001982,-0.00000371,-0.00000304,-0.
 00000948,-0.00001877,0.00001212,-0.00001870,0.00006412,0.00000320,0.00
 010355,0.00004152,0.00000781,-0.00000098,-0.00011768,0.00021945,-0.000
 08282,-0.00004485,0.00006030,-0.00004808,-0.00036923,-0.00012068,0.000
 04399,0.00006933,-0.00017355,-0.00012529,-0.02134697,-0.00341823,-0.00
 679646,0.00106133,0.00078566,0.00073514,-0.00404848,0.00163583,-0.0001
 9499,0.02633974,-0.07241996,0.02067527,0.00001361,-0.00000090,0.000041
 40,-0.00000430,-0.00000185,-0.00000382,-0.00000299,0.00000548,-0.00000
 392,0.00000247,-0.00000548,-0.00000269,0.00004424,0.00014514,0.0000722
 0,-0.00001503,-0.00001999,-0.00000434,0.00001233,-0.00001670,-0.000014
 55,-0.00000484,-0.00001096,-0.00001796,-0.00001342,0.00004225,0.000182
 87,-0.00001927,-0.00003181,-0.00002282,0.00000593,0.00005211,-0.000047
 20,0.00002031,0.00000510,-0.00002386,0.02680712,0.58720907,-0.00032169
 ,0.00037965,-0.00017825,-0.00019019,0.00027116,-0.00006909,-0.00074700
 ,0.00012542,0.00020132,0.00253287,0.00301543,-0.00368482,0.00119111,-0
 .00106000,0.00132786,0.00008124,-0.00001043,-0.00009301,0.00004456,0.0
 0002187,0.00005762,0.00002712,-0.00001568,0.00002795,-0.00013214,0.000
 01903,0.00040012,-0.00016329,-0.00009727,0.00005239,0.00072680,-0.0004
 7206,0.00006996,0.00024885,-0.00015247,0.00011545,0.00068304,0.0002541
 1,-0.00013337,0.00029257,0.00044670,0.00020569,0.02326046,-0.00266015,
 0.00456640,0.00457657,0.00152177,0.00069386,0.00122139,0.00083439,-0.0
 0022128,-0.06749373,0.01505660,-0.10035507,-0.00004445,0.00000882,-0.0
 0013376,0.00000681,0.00001207,0.00000785,0.00001556,-0.00001306,0.0000
 1313,-0.00000781,0.00000907,0.00001218,-0.00011042,-0.00024245,-0.0001
 3621,0.00003962,0.00003770,0.00000444,-0.00002115,0.00001572,0.0000331
 8,0.00000640,0.00001984,0.00003602,-0.00010490,-0.00015772,-0.00034563
 ,0.00001685,0.00004835,0.00002899,0.00000631,-0.00002781,-0.00003224,0
 .00003166,-0.00001143,0.00004210,-0.05792263,-0.01733448,0.58652215,0.
 00008710,-0.00003229,0.00002980,0.00004257,-0.00003804,0.00005113,0.00
 023683,-0.00018195,-0.00006432,0.00017200,-0.00019100,0.00002227,-0.00
 009671,0.00032840,-0.00011325,-0.00001069,-0.00000347,0.00000187,-0.00
 001828,-0.00000583,-0.00001903,-0.00000721,0.00000027,-0.00000552,0.00
 013250,0.00002085,0.00006206,0.00000615,-0.00000496,-0.00000366,-0.000
 10335,-0.00005145,0.00010950,-0.00008467,0.00002523,-0.00004083,-0.000
 13139,-0.00006837,0.00001962,-0.00000709,-0.00011864,-0.00006402,0.004
 61098,0.00582176,-0.00333203,-0.00058421,-0.00038996,0.00052844,0.0003
 5298,-0.00159616,0.00037972,-0.02936681,0.03312961,-0.00660100,0.00001
 562,0.00000028,0.00004421,-0.00000080,-0.00000317,-0.00000236,-0.00000
 473,0.00000301,-0.00000416,0.00000090,-0.00000370,-0.00000508,0.000024
 93,0.00005644,0.00003073,-0.00000810,-0.00000860,-0.00000102,0.0000036
 1,-0.00000588,-0.00000655,-0.00000165,-0.00000463,-0.00000838,0.000026
 94,0.00002588,0.00006058,-0.00000782,-0.00001232,-0.00000507,-0.000000
 96,0.00001136,0.00000014,-0.00000130,0.00000405,-0.00000614,-0.0648655
 0,0.05256349,0.00201216,0.07924946,-0.00007326,0.00002409,-0.00002570,
 -0.00004323,0.00005371,-0.00002661,-0.00023168,0.00006136,0.00005380,0
 .00016319,0.00045445,-0.00031884,0.00005227,-0.00023963,0.00009779,0.0
 0000516,0.00000018,-0.00002406,0.00001056,-0.00000020,0.00001472,0.000
 00655,0.00000030,0.00000460,-0.00007970,-0.00002879,-0.00003127,-0.000
 01663,0.00000333,0.00000501,0.00000610,-0.00001921,0.00002160,0.000062
 83,-0.00001901,0.00003382,0.00011816,0.00006596,-0.00001660,0.00007291
 ,0.00012676,0.00007695,-0.00212469,0.00238769,0.00099558,0.00006671,-0
 .00036072,-0.00039818,0.00216073,0.00004354,-0.00072571,0.00878764,0.0
 0361991,0.00400601,-0.00001494,-0.00000261,-0.00003524,0.00000207,0.00
 000210,0.00000139,0.00000327,-0.00000293,0.00000325,-0.00000015,0.0000
 0445,0.00000400,-0.00002242,-0.00005438,-0.00002908,0.00000758,0.00000
 751,0.00000115,-0.00000456,0.00000552,0.00000629,0.00000161,0.00000422
 ,0.00000721,-0.00000529,-0.00003374,-0.00009604,0.00000877,0.00001462,
 0.00000811,-0.00000408,-0.00001983,0.00000994,-0.00000414,-0.00000137,
 0.00001531,0.05656660,-0.29091888,0.00283739,-0.07052889,0.31017865,0.
 00005683,-0.00001406,0.00001759,0.00002934,-0.00003804,0.00002023,0.00
 015804,-0.00005702,-0.00004322,0.00015314,-0.00013076,0.00005425,0.000
 02263,0.00013773,-0.00005892,-0.00001485,0.00000158,0.00001903,-0.0000
 0990,-0.00000441,-0.00001176,-0.00000522,-0.00000039,-0.00000409,0.000
 01692,0.00002025,0.00000884,0.00001037,-0.00000779,-0.00000168,-0.0001
 5262,0.00010435,-0.00002543,-0.00005174,0.00002274,-0.00002694,-0.0000
 8315,-0.00004062,0.00000872,-0.00009386,-0.00008455,-0.00007572,0.0019
 0855,-0.00024540,-0.00067143,-0.00030697,-0.00033249,0.00000615,-0.000
 41090,-0.00045912,0.00015119,-0.01056703,0.01423384,0.00074273,0.00000
 923,-0.00000068,0.00002995,0.00000005,-0.00000178,-0.00000175,-0.00000
 304,0.00000199,-0.00000279,0.00000070,-0.00000236,-0.00000302,0.000018
 54,0.00003312,0.00002164,-0.00000532,-0.00000503,-0.00000038,0.0000030
 3,-0.00000132,-0.00000336,-0.00000141,-0.00000169,-0.00000635,0.000005
 10,0.00003330,0.00009891,-0.00000332,-0.00000860,-0.00000400,0.0000091
 2,0.00001334,-0.00000216,-0.00000134,0.00000295,-0.00001411,0.00111854
 ,0.00110714,-0.05430887,0.00635802,-0.00570261,0.05097714,0.00008302,-
 0.00003530,0.00003069,0.00003600,-0.00004638,0.00002566,0.00016834,-0.
 00003034,-0.00005034,-0.00014326,-0.00008897,0.00021956,-0.00005455,0.
 00030419,0.00003277,-0.00002014,0.00000089,0.00001062,-0.00001143,-0.0
 0000437,-0.00001317,-0.00000458,0.00000085,-0.00000434,0.00020246,-0.0
 0001694,0.00027799,-0.00003681,-0.00003403,0.00001823,-0.00015849,0.00
 007718,0.00000072,-0.00005360,0.00002601,-0.00002655,-0.00011233,-0.00
 005113,0.00001144,-0.00004329,-0.00006368,-0.00005588,0.00502949,0.001
 38470,-0.00672663,0.00017919,0.00056894,0.00185453,-0.00059775,-0.0002
 6490,0.00057092,-0.02134464,-0.01393343,-0.03680883,0.00000979,-0.0000
 0083,0.00002984,-0.00000065,-0.00000241,-0.00000151,-0.00000334,0.0000
 0228,-0.00000275,0.00000115,-0.00000226,-0.00000311,0.00002000,0.00004
 442,0.00002526,-0.00000693,-0.00000643,-0.00000066,0.00000462,-0.00000
 269,-0.00000545,-0.00000117,-0.00000359,-0.00000690,0.00003694,0.00003
 252,0.00005194,-0.00000934,-0.00001174,-0.00000147,-0.00000238,0.00001
 832,0.00000746,-0.00000484,0.00000221,-0.00000897,-0.05218890,-0.00517
 211,-0.00600719,0.00310344,0.00189930,0.00748685,0.06242590,-0.0000054
 9,0.00000153,0.00000166,-0.00000826,0.00000478,-0.00000280,-0.00001240
 ,-0.00000411,-0.00000575,-0.00005585,0.00005868,0.00025644,-0.00004218
 ,-0.00003148,-0.00004041,0.00000404,0.00000083,-0.00000208,-0.00000121
 ,0.00000040,-0.00000010,0.00000234,-0.00000034,0.00000114,0.00007395,-
 0.00002883,0.00002229,-0.00000609,0.00000679,0.00000421,-0.00000710,-0
 .00000620,-0.00000929,0.00000418,-0.00000388,0.00000790,0.00000709,0.0
 0000386,0.00000392,-0.00000581,0.00002220,0.00003081,0.00008038,0.0001
 9691,-0.00067286,-0.00028480,-0.00020983,-0.00000493,0.00025684,-0.000
 30446,-0.00019611,-0.00138135,0.00628964,0.00599330,0.00000019,0.00000
 083,-0.00000743,-0.00000153,-0.00000012,0.00000063,0.00000037,-0.00000
 010,0.00000054,-0.00000009,0.00000033,0.00000066,-0.00000325,-0.000005
 64,-0.00000419,-0.00000042,0.00000070,0.00000010,-0.00000010,0.0000007
 7,-0.00000086,0.00000074,-0.00000055,0.00000170,0.00001396,-0.00000190
 ,-0.00003256,0.00000168,0.00000257,0.00000188,-0.00000572,-0.00000822,
 0.00001177,-0.00000539,-0.00000061,0.00000542,-0.00580152,-0.09770419,
 -0.09462546,-0.00118518,-0.01200494,-0.02954896,0.00653577,0.09536618,
 0.00010464,-0.00004593,0.00002321,0.00004878,-0.00006819,0.00003347,0.
 00024983,-0.00006165,-0.00006797,0.00005617,-0.00031325,0.00069879,-0.
 00008470,0.00027562,-0.00011148,-0.00002955,0.00000118,0.00001765,-0.0
 0001504,-0.00000767,-0.00001869,-0.00000784,0.00000151,-0.00000371,0.0
 0035757,0.00001334,0.00002059,0.00000760,-0.00000436,-0.00001246,-0.00
 025111,0.00017100,-0.00002302,-0.00007303,0.00004108,-0.00003103,-0.00
 015087,-0.00006607,0.00002744,-0.00010197,-0.00009926,-0.00005191,0.00
 259950,0.00247648,0.00087786,-0.00177139,-0.00092438,0.00042471,-0.000
 15430,-0.00044430,-0.00001955,-0.01484955,-0.00163220,-0.00945682,0.00
 001348,-0.00000174,0.00003478,-0.00000290,-0.00000480,-0.00000171,-0.0
 0000530,0.00000341,-0.00000356,0.00000241,-0.00000184,-0.00000373,0.00
 002856,0.00005658,0.00003199,-0.00001063,-0.00000852,-0.00000021,0.000
 00599,-0.00000197,-0.00000854,-0.00000065,-0.00000518,-0.00000895,0.00
 005306,0.00004078,0.00006159,-0.00000776,-0.00001369,-0.00000446,-0.00
 000812,0.00001059,0.00001825,-0.00001160,0.00000392,-0.00000938,-0.010
 20400,-0.09359590,-0.25989768,0.00154593,0.00035536,0.00187966,0.02322
 273,0.10324209,0.28238078,0.00017653,-0.00018878,0.00010798,0.00009680
 ,-0.00011798,0.00004435,0.00031559,-0.00002886,-0.00005583,-0.00087115
 ,-0.00150921,0.00151047,-0.00049065,0.00064791,-0.00045783,-0.00004246
 ,0.00000322,0.00002619,-0.00001810,-0.00000948,-0.00002256,-0.00001450
 ,0.00000573,-0.00001689,0.00009719,0.00004303,-0.00001767,0.00004258,0
 .00001420,-0.00000936,-0.00031534,0.00020847,-0.00002417,-0.00010924,0
 .00007153,-0.00006647,-0.00030887,-0.00011068,0.00004377,-0.00006900,-
 0.00019622,-0.00012273,-0.00380866,0.00201401,-0.00406735,-0.00013194,
 0.00011466,0.00033088,-0.00006462,-0.00031394,-0.00001314,-0.03259374,
 -0.01763362,0.02025174,0.00001567,-0.00000723,0.00007382,0.00000175,-0
 .00000372,-0.00000529,-0.00000642,0.00000551,-0.00000669,0.00000345,-0
 .00000449,-0.00000654,0.00005065,0.00011261,0.00006522,-0.00001631,-0.
 00001705,-0.00000260,0.00000931,-0.00000837,-0.00001356,-0.00000424,-0
 .00000828,-0.00001799,0.00003951,0.00006748,0.00016621,-0.00000752,-0.
 00002114,-0.00001337,0.00000142,0.00001798,0.00000178,-0.00001174,0.00
 000602,-0.00001911,-0.13023068,-0.07254697,0.09624470,0.00723525,0.003
 15166,-0.00565434,0.00349809,0.00183223,-0.00055594,0.15753139,0.00001
 837,0.00002325,-0.00000020,0.00001205,-0.00001420,0.00001272,0.0000652
 7,0.00001943,-0.00001730,0.00017858,0.00033363,0.00010731,0.00007187,-
 0.00000146,0.00001368,-0.00000682,0.00000125,0.00001231,-0.00000442,-0
 .00000090,-0.00000498,-0.00000081,-0.00000189,-0.00000054,0.00001602,0
 .00001121,0.00001178,-0.00000101,-0.00000869,0.00000295,-0.00019430,0.
 00008185,-0.00004936,-0.00001967,0.00000508,-0.00001301,-0.00001311,-0
 .00001294,0.00000015,-0.00003123,-0.00003536,-0.00002400,0.00133756,0.
 00099026,-0.00061584,-0.00014553,-0.00006039,0.00020912,0.00030857,0.0
 0031988,-0.00007540,0.00214321,0.00315244,-0.00393589,0.00000481,0.000
 00085,0.00001287,0.00000005,-0.00000013,-0.00000072,-0.00000094,0.0000
 0077,-0.00000115,-0.00000026,-0.00000169,-0.00000141,0.00000728,0.0000
 0652,0.00000610,-0.00000133,-0.00000093,0.00000014,0.00000049,-0.00000
 009,-0.00000039,-0.00000059,0.00000015,-0.00000204,0.00000527,0.000011
 02,0.00002741,0.00000058,-0.00000144,0.00000019,0.00000255,0.00000311,
 0.00000466,-0.00000388,0.00000120,-0.00000340,-0.07947618,-0.12325264,
 0.09194541,-0.01755613,-0.01335209,0.02097535,0.00887396,0.00835839,-0
 .00939203,0.08440974,0.12342455,0.00000357,-0.00005118,0.00001392,0.00
 000233,-0.00000663,-0.00000862,-0.00002468,0.00001526,0.00000801,-0.00
 051330,-0.00016837,0.00063607,-0.00017658,0.00009218,-0.00010952,0.000
 00290,0.00000190,-0.00000059,0.00000141,0.00000036,0.00000092,-0.00000
 451,0.00000397,-0.00000308,0.00008640,-0.00002303,-0.00000132,0.000005
 35,0.00001444,-0.00001041,0.00003018,-0.00002838,-0.00001692,0.0000039
 0,0.00000197,0.00000283,-0.00003660,-0.00000720,0.00000698,0.00001742,
 -0.00001223,-0.00000317,-0.00283473,-0.00042149,0.00043815,-0.00037281
 ,0.00001047,0.00031107,-0.00001196,0.00003376,-0.00011131,-0.01027619,
 -0.00806318,0.01064097,-0.00000089,-0.00000027,-0.00000180,-0.00000041
 ,0.00000063,-0.00000003,0.00000066,0.00000021,0.00000011,0.00000005,-0
 .00000015,0.00000066,0.00000093,0.00001093,0.00000466,-0.00000116,-0.0
 0000167,-0.00000077,0.00000073,-0.00000156,-0.00000152,-0.00000054,-0.
 00000112,-0.00000066,-0.00000474,0.00000077,0.00001352,-0.00000033,-0.
 00000158,-0.00000283,0.00000177,0.00000134,-0.00000323,0.00000102,-0.0
 0000033,-0.00000089,0.10692570,0.09336666,-0.17482936,-0.00097373,-0.0
 0112934,0.00122993,0.01584654,0.01556734,-0.01679591,-0.10769768,-0.09
 920448,0.17859413\\-0.00001337,0.00001129,0.00000604,-0.00001049,0.000
 00196,-0.00001423,0.00000471,0.00000485,0.00001041,-0.00000032,0.00000
 612,0.00000426,-0.00000412,-0.00001663,-0.00000390,0.00000660,-0.00000
 034,-0.00000435,-0.00000787,0.00000276,-0.00000817,-0.00000023,0.00000
 292,-0.00000946,0.00000781,-0.00000237,0.00001021,-0.00001090,-0.00000
 181,-0.00000090,0.00000129,-0.00000561,-0.00000088,0.00000650,-0.00000
 138,-0.00000975,0.00000590,0.00000096,-0.00002624,-0.00000489,0.000014
 62,0.00000407,0.00000355,-0.00000041,0.00001985,-0.00000746,-0.0000056
 2,0.00001165,-0.00000663,-0.00000677,0.00001199,0.00000116,-0.00001293
 ,0.00001893,0.00000650,0.00000810,-0.00001974,0.00001287,0.00000288,-0
 .00001117,0.00001074,0.00000615,-0.00002080,0.00001129,0.00000522,-0.0
 0001714,-0.00000843,-0.00000178,-0.00000986,-0.00001380,0.00000993,-0.
 00002444,-0.00000619,0.00000603,-0.00001402,0.00000213,0.00000621,-0.0
 0001925,0.00000225,-0.00000757,-0.00000150,-0.00000145,0.00000061,-0.0
 0000052,0.00000567,-0.00000012,0.00000769,0.00000668,0.00000315,-0.000
 00366,0.00000374,-0.00000546,0.00003047,-0.00000198,-0.00000720,0.0000
 2720,-0.00000555,-0.00000858,0.00002692,0.00000431,-0.00000916,0.00003
 031\\\@


 NOBODY LOSES ALL THE TIME
 I HAD AN UNCLE NAMED
 SOL WHO WAS A BORN FAILURE AND
 NEARLY EVERYBODY SAID HE SHOULD HAVE GONE
 INTO VAUDEVILLE PERHAPS BECAUSE MY UNCLE SOL COULD
 SING MCCANN HE WAS A DIVER ON XMAS EVE LIKE HELL ITSELF WHICH
 MAY OR MAY NOT ACCOUNT FOR THE FACT THAT MY UNCLE
 SOL INDULGED IN THAT POSSIBLY MOST INEXCUSABLE
 OF ALL TO USE A HIGHFALOOTIN PHRASE
 LUXURIES THAT IS OR TO
 WIT FARMING AND BE
 IT NEEDLESSLY
 ADDED
 MY UNCLE SOL'S FARM     
 FAILED BECAUSE THE CHICKENS
 ATE THE VEGETABLES SO
 MY UNCLE SOL HAD A
 CHICKEN FARM TILL THE
 SKUNKS ATE THE CHICKENS WHEN 
 MY UNCLE SOL
 HAD A SKUNK FARM BUT
 THE SKUNKS CAUGHT COLD AND
 DIED AND SO
 MY UNCLE SOL IMITATED THE
 SKUNKS IN A SUBTLE MANNER
 OR BY DROWNING HIMSELF IN THE WATERTANK
 BUT SOMEBODY WHO'D GIVEN MY UNCLE SOL A VICTOR     
 VICTROLA AND RECORDS WHILE HE LIVED PRESENTED TO
 HIM UPON THE AUSPICIOUS OCCASION OF HIS DECEASE A
 SCRUMPTIOUS NOT TO MENTION SPLENDIFEROUS FUNERAL WITH
 TALL BOYS IN BLACK GLOVES AND FLOWERS AND EVERYTHING AND
 I REMEMBER WE ALL CRIED LIKE THE MISSOURI
 WHEN MY UNCLE SOL'S COFFIN LURCHED BECAUSE     
 SOMEBODY PRESSED A BUTTON
 (AND DOWN WENT
 MY UNCLE
 SOL
 AND STARTED A WORM FARM)
           E. E. CUMMINGS
 Job cpu time:       0 days  1 hours 15 minutes 58.5 seconds.
 Elapsed time:       0 days  0 hours 19 minutes 30.7 seconds.
 File lengths (MBytes):  RWF=    380 Int=      0 D2E=      0 Chk=     17 Scr=      1
 Normal termination of Gaussian 16 at Fri May 24 08:52:46 2019.
