 Entering Gaussian System, Link 0=g16
 Input=clay-glucose_cation-080-b3lyp_d3bj-631gd-pcm_thf.gjf
 Output=clay-glucose_cation-080-b3lyp_d3bj-631gd-pcm_thf.out
 Initial command:
 /n/sw/g16_nehalem/g16/l1.exe "/scratch/Gau-60963.inp" -scrdir="/scratch/"
 Entering Link 1 = /n/sw/g16_nehalem/g16/l1.exe PID=     60976.
  
 Copyright (c) 1988,1990,1992,1993,1995,1998,2003,2009,2016,
            Gaussian, Inc.  All Rights Reserved.
  
 This is part of the Gaussian(R) 16 program.  It is based on
 the Gaussian(R) 09 system (copyright 2009, Gaussian, Inc.),
 the Gaussian(R) 03 system (copyright 2003, Gaussian, Inc.),
 the Gaussian(R) 98 system (copyright 1998, Gaussian, Inc.),
 the Gaussian(R) 94 system (copyright 1995, Gaussian, Inc.),
 the Gaussian 92(TM) system (copyright 1992, Gaussian, Inc.),
 the Gaussian 90(TM) system (copyright 1990, Gaussian, Inc.),
 the Gaussian 88(TM) system (copyright 1988, Gaussian, Inc.),
 the Gaussian 86(TM) system (copyright 1986, Carnegie Mellon
 University), and the Gaussian 82(TM) system (copyright 1983,
 Carnegie Mellon University). Gaussian is a federally registered
 trademark of Gaussian, Inc.
  
 This software contains proprietary and confidential information,
 including trade secrets, belonging to Gaussian, Inc.
  
 This software is provided under written license and may be
 used, copied, transmitted, or stored only in accord with that
 written license.
  
 The following legend is applicable only to US Government
 contracts under FAR:
  
                    RESTRICTED RIGHTS LEGEND
  
 Use, reproduction and disclosure by the US Government is
 subject to restrictions as set forth in subparagraphs (a)
 and (c) of the Commercial Computer Software - Restricted
 Rights clause in FAR 52.227-19.
  
 Gaussian, Inc.
 340 Quinnipiac St., Bldg. 40, Wallingford CT 06492
  
  
 ---------------------------------------------------------------
 Warning -- This program may not be used in any manner that
 competes with the business of Gaussian, Inc. or will provide
 assistance to any competitor of Gaussian, Inc.  The licensee
 of this program is prohibited from giving any competitor of
 Gaussian, Inc. access to this program.  By using this program,
 the user acknowledges that Gaussian, Inc. is engaged in the
 business of creating and licensing software in the field of
 computational chemistry and represents and warrants to the
 licensee that it is not a competitor of Gaussian, Inc. and that
 it will not use this program in any manner prohibited above.
 ---------------------------------------------------------------
  

 Cite this work as:
 Gaussian 16, Revision A.03,
 M. J. Frisch, G. W. Trucks, H. B. Schlegel, G. E. Scuseria, 
 M. A. Robb, J. R. Cheeseman, G. Scalmani, V. Barone, 
 G. A. Petersson, H. Nakatsuji, X. Li, M. Caricato, A. V. Marenich, 
 J. Bloino, B. G. Janesko, R. Gomperts, B. Mennucci, H. P. Hratchian, 
 J. V. Ortiz, A. F. Izmaylov, J. L. Sonnenberg, D. Williams-Young, 
 F. Ding, F. Lipparini, F. Egidi, J. Goings, B. Peng, A. Petrone, 
 T. Henderson, D. Ranasinghe, V. G. Zakrzewski, J. Gao, N. Rega, 
 G. Zheng, W. Liang, M. Hada, M. Ehara, K. Toyota, R. Fukuda, 
 J. Hasegawa, M. Ishida, T. Nakajima, Y. Honda, O. Kitao, H. Nakai, 
 T. Vreven, K. Throssell, J. A. Montgomery, Jr., J. E. Peralta, 
 F. Ogliaro, M. J. Bearpark, J. J. Heyd, E. N. Brothers, K. N. Kudin, 
 V. N. Staroverov, T. A. Keith, R. Kobayashi, J. Normand, 
 K. Raghavachari, A. P. Rendell, J. C. Burant, S. S. Iyengar, 
 J. Tomasi, M. Cossi, J. M. Millam, M. Klene, C. Adamo, R. Cammi, 
 J. W. Ochterski, R. L. Martin, K. Morokuma, O. Farkas, 
 J. B. Foresman, and D. J. Fox, Gaussian, Inc., Wallingford CT, 2016.
 
 ******************************************
 Gaussian 16:  ES64L-G16RevA.03 25-Dec-2016
                24-May-2019 
 ******************************************
 %nprocshared=4
 Will use up to    4 processors via shared memory.
 %mem=3GB
 -------------------------------------------------------------------
 #p b3lyp 6-31g* opt freq=noraman scrf=(pcm,solvent=tetrahydrofuran)
 -------------------------------------------------------------------
 1/18=20,19=15,26=3,38=1/1,3;
 2/9=110,12=2,17=6,18=5,40=1/2;
 3/5=1,6=6,7=1,11=2,25=1,30=1,70=2201,71=1,72=20,74=-5/1,2,3;
 4//1;
 5/5=2,38=5,53=20/2;
 6/7=2,8=2,9=2,10=2,28=1/1;
 7//1,2,3,16;
 1/18=20,19=15,26=3/3(2);
 2/9=110/2;
 99//99;
 2/9=110/2;
 3/5=1,6=6,7=1,11=2,25=1,30=1,70=2205,71=1,72=20,74=-5/1,2,3;
 4/5=5,16=3,69=1/1;
 5/5=2,38=5,53=20/2;
 7//1,2,3,16;
 1/18=20,19=15,26=3/3(-5);
 2/9=110/2;
 6/7=2,8=2,9=2,10=2,19=2,28=1/1;
 99/9=1/99;
 Leave Link    1 at Fri May 24 08:30:51 2019, MaxMem=   402653184 cpu:               0.3 elap:               0.2
 (Enter /n/sw/g16_nehalem/g16/l101.exe)
 -----
 title
 -----
 Symbolic Z-matrix:
 Charge =  1 Multiplicity = 1
 6                    -0.94798   0.26457   0.56743 
 6                    -1.2896   -0.98861  -0.32228 
 6                    -0.99671  -0.71029  -1.74839 
 6                     1.04852   0.36726  -1.12931 
 6                     0.2981    1.03951   0.02246 
 1                    -1.67838  -1.01069  -2.54577 
 1                    -0.55571  -1.76931  -0.0572 
 1                    -1.78399   0.9575    0.4609 
 1                     1.56686   1.13879  -1.69525 
 1                     1.02564   1.16637   0.83417 
 8                     0.06652  -0.15452  -2.14005 
 8                    -2.53547  -1.58641  -0.14004 
 8                    -0.92311  -0.05508   1.92925 
 8                    -0.11354   2.29463  -0.49268 
 6                     2.02926  -0.76372  -0.78754 
 1                     2.53974  -1.07304  -1.71053 
 1                     1.52796  -1.65171  -0.37467 
 8                     2.92167  -0.20596   0.14549 
 6                    -3.67669  -0.72194  -0.03314 
 1                    -3.72585  -0.00158  -0.8598 
 1                    -4.54331  -1.38148  -0.08488 
 1                    -3.68242  -0.19116   0.92387 
 6                     0.05242  -0.99829   2.37306 
 1                     0.00064  -0.98983   3.46265 
 1                     1.06736  -0.72411   2.06004 
 1                    -0.18028  -2.01344   2.02335 
 6                    -0.32716   3.29275   0.50663 
 1                     0.59035   3.4702    1.08272 
 1                    -0.60688   4.20307  -0.02598 
 1                    -1.13553   3.01856   1.19697 
 6                     4.02638  -1.06146   0.43835 
 1                     4.65106  -0.5255    1.15443 
 1                     3.68758  -2.00632   0.88371 
 1                     4.60721  -1.2763   -0.46802 
 
 ITRead=  0  0  0  0  0  0  0  0  0  0  0  0  0  0  0  0  0  0  0  0
 ITRead=  0  0  0  0  0  0  0  0  0  0  0  0  0  0
 MicOpt= -1 -1 -1 -1 -1 -1 -1 -1 -1 -1 -1 -1 -1 -1 -1 -1 -1 -1 -1 -1
 MicOpt= -1 -1 -1 -1 -1 -1 -1 -1 -1 -1 -1 -1 -1 -1
 NAtoms=     34 NQM=       34 NQMF=       0 NMMI=      0 NMMIF=      0
                NMic=       0 NMicF=      0.
                    Isotopes and Nuclear Properties:
 (Nuclear quadrupole moments (NQMom) in fm**2, nuclear magnetic moments (NMagM)
  in nuclear magnetons)

  Atom         1           2           3           4           5           6           7           8           9          10
 IAtWgt=          12          12          12          12          12           1           1           1           1           1
 AtmWgt=  12.0000000  12.0000000  12.0000000  12.0000000  12.0000000   1.0078250   1.0078250   1.0078250   1.0078250   1.0078250
 NucSpn=           0           0           0           0           0           1           1           1           1           1
 AtZEff=   0.0000000   0.0000000   0.0000000   0.0000000   0.0000000   0.0000000   0.0000000   0.0000000   0.0000000   0.0000000
 NQMom=    0.0000000   0.0000000   0.0000000   0.0000000   0.0000000   0.0000000   0.0000000   0.0000000   0.0000000   0.0000000
 NMagM=    0.0000000   0.0000000   0.0000000   0.0000000   0.0000000   2.7928460   2.7928460   2.7928460   2.7928460   2.7928460
 AtZNuc=   6.0000000   6.0000000   6.0000000   6.0000000   6.0000000   1.0000000   1.0000000   1.0000000   1.0000000   1.0000000

  Atom        11          12          13          14          15          16          17          18          19          20
 IAtWgt=          16          16          16          16          12           1           1          16          12           1
 AtmWgt=  15.9949146  15.9949146  15.9949146  15.9949146  12.0000000   1.0078250   1.0078250  15.9949146  12.0000000   1.0078250
 NucSpn=           0           0           0           0           0           1           1           0           0           1
 AtZEff=   0.0000000   0.0000000   0.0000000   0.0000000   0.0000000   0.0000000   0.0000000   0.0000000   0.0000000   0.0000000
 NQMom=    0.0000000   0.0000000   0.0000000   0.0000000   0.0000000   0.0000000   0.0000000   0.0000000   0.0000000   0.0000000
 NMagM=    0.0000000   0.0000000   0.0000000   0.0000000   0.0000000   2.7928460   2.7928460   0.0000000   0.0000000   2.7928460
 AtZNuc=   8.0000000   8.0000000   8.0000000   8.0000000   6.0000000   1.0000000   1.0000000   8.0000000   6.0000000   1.0000000

  Atom        21          22          23          24          25          26          27          28          29          30
 IAtWgt=           1           1          12           1           1           1          12           1           1           1
 AtmWgt=   1.0078250   1.0078250  12.0000000   1.0078250   1.0078250   1.0078250  12.0000000   1.0078250   1.0078250   1.0078250
 NucSpn=           1           1           0           1           1           1           0           1           1           1
 AtZEff=   0.0000000   0.0000000   0.0000000   0.0000000   0.0000000   0.0000000   0.0000000   0.0000000   0.0000000   0.0000000
 NQMom=    0.0000000   0.0000000   0.0000000   0.0000000   0.0000000   0.0000000   0.0000000   0.0000000   0.0000000   0.0000000
 NMagM=    2.7928460   2.7928460   0.0000000   2.7928460   2.7928460   2.7928460   0.0000000   2.7928460   2.7928460   2.7928460
 AtZNuc=   1.0000000   1.0000000   6.0000000   1.0000000   1.0000000   1.0000000   6.0000000   1.0000000   1.0000000   1.0000000

  Atom        31          32          33          34
 IAtWgt=          12           1           1           1
 AtmWgt=  12.0000000   1.0078250   1.0078250   1.0078250
 NucSpn=           0           1           1           1
 AtZEff=   0.0000000   0.0000000   0.0000000   0.0000000
 NQMom=    0.0000000   0.0000000   0.0000000   0.0000000
 NMagM=    0.0000000   2.7928460   2.7928460   2.7928460
 AtZNuc=   6.0000000   1.0000000   1.0000000   1.0000000
 Leave Link  101 at Fri May 24 08:30:51 2019, MaxMem=   402653184 cpu:               1.0 elap:               0.5
 (Enter /n/sw/g16_nehalem/g16/l103.exe)

 GradGradGradGradGradGradGradGradGradGradGradGradGradGradGradGradGradGrad
 Berny optimization.
 Initialization pass.
                           ----------------------------
                           !    Initial Parameters    !
                           ! (Angstroms and Degrees)  !
 --------------------------                            --------------------------
 ! Name  Definition              Value          Derivative Info.                !
 --------------------------------------------------------------------------------
 ! R1    R(1,2)                  1.5744         estimate D2E/DX2                !
 ! R2    R(1,5)                  1.5653         estimate D2E/DX2                !
 ! R3    R(1,8)                  1.0911         estimate D2E/DX2                !
 ! R4    R(1,13)                 1.3991         estimate D2E/DX2                !
 ! R5    R(2,3)                  1.4822         estimate D2E/DX2                !
 ! R6    R(2,7)                  1.1038         estimate D2E/DX2                !
 ! R7    R(2,12)                 1.3938         estimate D2E/DX2                !
 ! R8    R(3,6)                  1.0912         estimate D2E/DX2                !
 ! R9    R(3,11)                 1.262          estimate D2E/DX2                !
 ! R10   R(4,5)                  1.5302         estimate D2E/DX2                !
 ! R11   R(4,9)                  1.0882         estimate D2E/DX2                !
 ! R12   R(4,11)                 1.5027         estimate D2E/DX2                !
 ! R13   R(4,15)                 1.5355         estimate D2E/DX2                !
 ! R14   R(5,10)                 1.0974         estimate D2E/DX2                !
 ! R15   R(5,14)                 1.4178         estimate D2E/DX2                !
 ! R16   R(12,19)                1.4357         estimate D2E/DX2                !
 ! R17   R(13,23)                1.4277         estimate D2E/DX2                !
 ! R18   R(14,27)                1.4285         estimate D2E/DX2                !
 ! R19   R(15,16)                1.0992         estimate D2E/DX2                !
 ! R20   R(15,17)                1.1001         estimate D2E/DX2                !
 ! R21   R(15,18)                1.4064         estimate D2E/DX2                !
 ! R22   R(18,31)                1.4276         estimate D2E/DX2                !
 ! R23   R(19,20)                1.0976         estimate D2E/DX2                !
 ! R24   R(19,21)                1.0903         estimate D2E/DX2                !
 ! R25   R(19,22)                1.0944         estimate D2E/DX2                !
 ! R26   R(23,24)                1.0909         estimate D2E/DX2                !
 ! R27   R(23,25)                1.0969         estimate D2E/DX2                !
 ! R28   R(23,26)                1.0986         estimate D2E/DX2                !
 ! R29   R(27,28)                1.0978         estimate D2E/DX2                !
 ! R30   R(27,29)                1.0912         estimate D2E/DX2                !
 ! R31   R(27,30)                1.0978         estimate D2E/DX2                !
 ! R32   R(31,32)                1.091          estimate D2E/DX2                !
 ! R33   R(31,33)                1.0981         estimate D2E/DX2                !
 ! R34   R(31,34)                1.0977         estimate D2E/DX2                !
 ! A1    A(2,1,5)              111.7187         estimate D2E/DX2                !
 ! A2    A(2,1,8)              106.5044         estimate D2E/DX2                !
 ! A3    A(2,1,13)             111.8433         estimate D2E/DX2                !
 ! A4    A(5,1,8)              105.1625         estimate D2E/DX2                !
 ! A5    A(5,1,13)             115.966          estimate D2E/DX2                !
 ! A6    A(8,1,13)             104.7001         estimate D2E/DX2                !
 ! A7    A(1,2,3)              110.571          estimate D2E/DX2                !
 ! A8    A(1,2,7)              106.4394         estimate D2E/DX2                !
 ! A9    A(1,2,12)             117.4805         estimate D2E/DX2                !
 ! A10   A(3,2,7)              103.4435         estimate D2E/DX2                !
 ! A11   A(3,2,12)             112.5168         estimate D2E/DX2                !
 ! A12   A(7,2,12)             105.0438         estimate D2E/DX2                !
 ! A13   A(2,3,6)              121.8657         estimate D2E/DX2                !
 ! A14   A(2,3,11)             123.2128         estimate D2E/DX2                !
 ! A15   A(6,3,11)             114.8814         estimate D2E/DX2                !
 ! A16   A(5,4,9)              108.2736         estimate D2E/DX2                !
 ! A17   A(5,4,11)             109.775          estimate D2E/DX2                !
 ! A18   A(5,4,15)             117.9867         estimate D2E/DX2                !
 ! A19   A(9,4,11)             101.9842         estimate D2E/DX2                !
 ! A20   A(9,4,15)             109.4954         estimate D2E/DX2                !
 ! A21   A(11,4,15)            108.1404         estimate D2E/DX2                !
 ! A22   A(1,5,4)              115.7812         estimate D2E/DX2                !
 ! A23   A(1,5,10)             109.1153         estimate D2E/DX2                !
 ! A24   A(1,5,14)             109.4897         estimate D2E/DX2                !
 ! A25   A(4,5,10)             106.4034         estimate D2E/DX2                !
 ! A26   A(4,5,14)             104.9402         estimate D2E/DX2                !
 ! A27   A(10,5,14)            111.0325         estimate D2E/DX2                !
 ! A28   A(3,11,4)             119.6506         estimate D2E/DX2                !
 ! A29   A(2,12,19)            117.5169         estimate D2E/DX2                !
 ! A30   A(1,13,23)            117.7541         estimate D2E/DX2                !
 ! A31   A(5,14,27)            114.0667         estimate D2E/DX2                !
 ! A32   A(4,15,16)            108.4814         estimate D2E/DX2                !
 ! A33   A(4,15,17)            112.7685         estimate D2E/DX2                !
 ! A34   A(4,15,18)            105.1193         estimate D2E/DX2                !
 ! A35   A(16,15,17)           107.4344         estimate D2E/DX2                !
 ! A36   A(16,15,18)           111.9621         estimate D2E/DX2                !
 ! A37   A(17,15,18)           111.1172         estimate D2E/DX2                !
 ! A38   A(15,18,31)           112.9198         estimate D2E/DX2                !
 ! A39   A(12,19,20)           112.007          estimate D2E/DX2                !
 ! A40   A(12,19,21)           105.3111         estimate D2E/DX2                !
 ! A41   A(12,19,22)           111.1815         estimate D2E/DX2                !
 ! A42   A(20,19,21)           109.0066         estimate D2E/DX2                !
 ! A43   A(20,19,22)           109.8814         estimate D2E/DX2                !
 ! A44   A(21,19,22)           109.3134         estimate D2E/DX2                !
 ! A45   A(13,23,24)           105.8393         estimate D2E/DX2                !
 ! A46   A(13,23,25)           112.2337         estimate D2E/DX2                !
 ! A47   A(13,23,26)           111.5171         estimate D2E/DX2                !
 ! A48   A(24,23,25)           109.0873         estimate D2E/DX2                !
 ! A49   A(24,23,26)           108.3641         estimate D2E/DX2                !
 ! A50   A(25,23,26)           109.6402         estimate D2E/DX2                !
 ! A51   A(14,27,28)           110.7973         estimate D2E/DX2                !
 ! A52   A(14,27,29)           106.2481         estimate D2E/DX2                !
 ! A53   A(14,27,30)           112.0562         estimate D2E/DX2                !
 ! A54   A(28,27,29)           109.6056         estimate D2E/DX2                !
 ! A55   A(28,27,30)           109.014          estimate D2E/DX2                !
 ! A56   A(29,27,30)           109.0594         estimate D2E/DX2                !
 ! A57   A(18,31,32)           106.459          estimate D2E/DX2                !
 ! A58   A(18,31,33)           111.1046         estimate D2E/DX2                !
 ! A59   A(18,31,34)           110.9376         estimate D2E/DX2                !
 ! A60   A(32,31,33)           109.4599         estimate D2E/DX2                !
 ! A61   A(32,31,34)           109.5803         estimate D2E/DX2                !
 ! A62   A(33,31,34)           109.2512         estimate D2E/DX2                !
 ! D1    D(5,1,2,3)            -34.6807         estimate D2E/DX2                !
 ! D2    D(5,1,2,7)             77.0127         estimate D2E/DX2                !
 ! D3    D(5,1,2,12)          -165.6961         estimate D2E/DX2                !
 ! D4    D(8,1,2,3)             79.6288         estimate D2E/DX2                !
 ! D5    D(8,1,2,7)           -168.6778         estimate D2E/DX2                !
 ! D6    D(8,1,2,12)           -51.3867         estimate D2E/DX2                !
 ! D7    D(13,1,2,3)          -166.5486         estimate D2E/DX2                !
 ! D8    D(13,1,2,7)           -54.8552         estimate D2E/DX2                !
 ! D9    D(13,1,2,12)           62.4359         estimate D2E/DX2                !
 ! D10   D(2,1,5,4)             -7.4066         estimate D2E/DX2                !
 ! D11   D(2,1,5,10)          -127.3615         estimate D2E/DX2                !
 ! D12   D(2,1,5,14)           110.9306         estimate D2E/DX2                !
 ! D13   D(8,1,5,4)           -122.5426         estimate D2E/DX2                !
 ! D14   D(8,1,5,10)           117.5025         estimate D2E/DX2                !
 ! D15   D(8,1,5,14)            -4.2054         estimate D2E/DX2                !
 ! D16   D(13,1,5,4)           122.3444         estimate D2E/DX2                !
 ! D17   D(13,1,5,10)            2.3895         estimate D2E/DX2                !
 ! D18   D(13,1,5,14)         -119.3185         estimate D2E/DX2                !
 ! D19   D(2,1,13,23)           62.8212         estimate D2E/DX2                !
 ! D20   D(5,1,13,23)          -66.8699         estimate D2E/DX2                !
 ! D21   D(8,1,13,23)          177.7556         estimate D2E/DX2                !
 ! D22   D(1,2,3,6)           -137.0626         estimate D2E/DX2                !
 ! D23   D(1,2,3,11)            45.3568         estimate D2E/DX2                !
 ! D24   D(7,2,3,6)            109.328          estimate D2E/DX2                !
 ! D25   D(7,2,3,11)           -68.2526         estimate D2E/DX2                !
 ! D26   D(12,2,3,6)            -3.5013         estimate D2E/DX2                !
 ! D27   D(12,2,3,11)          178.9181         estimate D2E/DX2                !
 ! D28   D(1,2,12,19)           44.4078         estimate D2E/DX2                !
 ! D29   D(3,2,12,19)          -85.7102         estimate D2E/DX2                !
 ! D30   D(7,2,12,19)          162.4493         estimate D2E/DX2                !
 ! D31   D(2,3,11,4)            -5.4639         estimate D2E/DX2                !
 ! D32   D(6,3,11,4)           176.801          estimate D2E/DX2                !
 ! D33   D(9,4,5,1)            154.9859         estimate D2E/DX2                !
 ! D34   D(9,4,5,10)           -83.5953         estimate D2E/DX2                !
 ! D35   D(9,4,5,14)            34.1644         estimate D2E/DX2                !
 ! D36   D(11,4,5,1)            44.4318         estimate D2E/DX2                !
 ! D37   D(11,4,5,10)          165.8506         estimate D2E/DX2                !
 ! D38   D(11,4,5,14)          -76.3897         estimate D2E/DX2                !
 ! D39   D(15,4,5,1)           -80.0212         estimate D2E/DX2                !
 ! D40   D(15,4,5,10)           41.3975         estimate D2E/DX2                !
 ! D41   D(15,4,5,14)          159.1573         estimate D2E/DX2                !
 ! D42   D(5,4,11,3)           -40.6318         estimate D2E/DX2                !
 ! D43   D(9,4,11,3)          -155.2736         estimate D2E/DX2                !
 ! D44   D(15,4,11,3)           89.3504         estimate D2E/DX2                !
 ! D45   D(5,4,15,16)         -175.2617         estimate D2E/DX2                !
 ! D46   D(5,4,15,17)           65.8642         estimate D2E/DX2                !
 ! D47   D(5,4,15,18)          -55.3428         estimate D2E/DX2                !
 ! D48   D(9,4,15,16)          -50.8726         estimate D2E/DX2                !
 ! D49   D(9,4,15,17)         -169.7467         estimate D2E/DX2                !
 ! D50   D(9,4,15,18)           69.0462         estimate D2E/DX2                !
 ! D51   D(11,4,15,16)          59.479          estimate D2E/DX2                !
 ! D52   D(11,4,15,17)         -59.3951         estimate D2E/DX2                !
 ! D53   D(11,4,15,18)         179.3979         estimate D2E/DX2                !
 ! D54   D(1,5,14,27)           79.7785         estimate D2E/DX2                !
 ! D55   D(4,5,14,27)         -155.3352         estimate D2E/DX2                !
 ! D56   D(10,5,14,27)         -40.7692         estimate D2E/DX2                !
 ! D57   D(2,12,19,20)          51.395          estimate D2E/DX2                !
 ! D58   D(2,12,19,21)         169.7445         estimate D2E/DX2                !
 ! D59   D(2,12,19,22)         -71.9715         estimate D2E/DX2                !
 ! D60   D(1,13,23,24)         171.7503         estimate D2E/DX2                !
 ! D61   D(1,13,23,25)          52.8561         estimate D2E/DX2                !
 ! D62   D(1,13,23,26)         -70.6121         estimate D2E/DX2                !
 ! D63   D(5,14,27,28)          59.3602         estimate D2E/DX2                !
 ! D64   D(5,14,27,29)         178.3435         estimate D2E/DX2                !
 ! D65   D(5,14,27,30)         -62.6393         estimate D2E/DX2                !
 ! D66   D(4,15,18,31)        -171.6384         estimate D2E/DX2                !
 ! D67   D(16,15,18,31)        -54.0569         estimate D2E/DX2                !
 ! D68   D(17,15,18,31)         66.0793         estimate D2E/DX2                !
 ! D69   D(15,18,31,32)        179.2572         estimate D2E/DX2                !
 ! D70   D(15,18,31,33)        -61.6395         estimate D2E/DX2                !
 ! D71   D(15,18,31,34)         60.1012         estimate D2E/DX2                !
 --------------------------------------------------------------------------------
 Trust Radius=3.00D-01 FncErr=1.00D-07 GrdErr=1.00D-06 EigMax=2.50D+02 EigMin=1.00D-04
 Number of steps in this run=    177 maximum allowed number of steps=    204.
 GradGradGradGradGradGradGradGradGradGradGradGradGradGradGradGradGradGrad

 Leave Link  103 at Fri May 24 08:30:51 2019, MaxMem=   402653184 cpu:               0.2 elap:               0.1
 (Enter /n/sw/g16_nehalem/g16/l202.exe)
                          Input orientation:                          
 ---------------------------------------------------------------------
 Center     Atomic      Atomic             Coordinates (Angstroms)
 Number     Number       Type             X           Y           Z
 ---------------------------------------------------------------------
      1          6           0       -0.947982    0.264568    0.567425
      2          6           0       -1.289602   -0.988614   -0.322280
      3          6           0       -0.996712   -0.710288   -1.748391
      4          6           0        1.048524    0.367256   -1.129309
      5          6           0        0.298101    1.039508    0.022459
      6          1           0       -1.678384   -1.010687   -2.545774
      7          1           0       -0.555708   -1.769311   -0.057203
      8          1           0       -1.783989    0.957498    0.460902
      9          1           0        1.566861    1.138785   -1.695249
     10          1           0        1.025635    1.166365    0.834168
     11          8           0        0.066522   -0.154522   -2.140053
     12          8           0       -2.535469   -1.586411   -0.140040
     13          8           0       -0.923106   -0.055075    1.929248
     14          8           0       -0.113536    2.294635   -0.492682
     15          6           0        2.029262   -0.763722   -0.787537
     16          1           0        2.539735   -1.073044   -1.710532
     17          1           0        1.527961   -1.651706   -0.374670
     18          8           0        2.921674   -0.205955    0.145493
     19          6           0       -3.676688   -0.721943   -0.033142
     20          1           0       -3.725853   -0.001580   -0.859803
     21          1           0       -4.543309   -1.381482   -0.084880
     22          1           0       -3.682418   -0.191158    0.923873
     23          6           0        0.052424   -0.998287    2.373056
     24          1           0        0.000640   -0.989828    3.462652
     25          1           0        1.067358   -0.724109    2.060044
     26          1           0       -0.180282   -2.013439    2.023350
     27          6           0       -0.327162    3.292746    0.506633
     28          1           0        0.590354    3.470197    1.082722
     29          1           0       -0.606882    4.203069   -0.025981
     30          1           0       -1.135529    3.018557    1.196965
     31          6           0        4.026383   -1.061455    0.438346
     32          1           0        4.651055   -0.525501    1.154426
     33          1           0        3.687582   -2.006322    0.883714
     34          1           0        4.607208   -1.276296   -0.468017
 ---------------------------------------------------------------------
                    Distance matrix (angstroms):
                    1          2          3          4          5
     1  C    0.000000
     2  C    1.574403   0.000000
     3  C    2.513110   1.482242   0.000000
     4  C    2.622115   2.820729   2.393189   0.000000
     5  C    1.565325   2.598639   2.806107   1.530238   0.000000
     6  H    3.442640   2.257336   1.091208   3.367659   3.834790
     7  H    2.163493   1.103791   2.043558   2.878870   2.936801
     8  H    1.091058   2.155260   2.877897   3.301558   2.129332
     9  H    3.494050   3.817100   3.161297   1.088218   2.137786
    10  H    2.186219   3.367733   3.779064   2.119986   1.097392
    11  O    2.921522   2.416419   1.262039   1.502725   2.481087
    12  O    2.539044   1.393828   2.392103   4.200056   3.866649
    13  O    1.399054   2.464791   3.736275   3.663394   2.515015
    14  O    2.437478   3.491689   3.374369   2.338903   1.417801
    15  C    3.428890   3.358854   3.175313   1.535502   2.627670
    16  H    4.375210   4.074088   3.555205   2.153136   3.534269
    17  H    3.269548   2.895012   3.024459   2.208064   2.985448
    18  O    3.920925   4.308853   4.381198   2.337174   2.906794
    19  C    2.963059   2.419275   3.181900   4.971475   4.347959
    20  H    3.134387   2.682999   2.956360   4.796181   4.249054
    21  H    4.007662   3.285927   3.974433   5.951261   5.414053
    22  H    2.794974   2.813255   3.824070   5.187407   4.262818
    23  C    2.419900   3.010974   4.262623   3.888892   3.120620
    24  H    3.294804   3.998804   5.312986   4.901616   4.005199
    25  H    2.695735   3.361650   4.331830   3.370965   2.802473
    26  H    2.810409   2.789774   4.073179   4.137261   3.681426
    27  C    3.091759   4.465807   4.643028   3.623163   2.387982
    28  H    3.592780   5.038776   5.292488   3.838130   2.667924
    29  H    3.997533   5.244757   5.221086   4.321014   3.290814
    30  H    2.831245   4.288270   4.753807   4.148618   2.711345
    31  C    5.149690   5.370620   5.489683   3.656009   4.299662
    32  H    5.684892   6.138936   6.352776   4.357831   4.762228
    33  H    5.171599   5.221352   5.527232   4.080534   4.637610
    34  H    5.857178   5.905622   5.776127   3.975274   4.916494
                    6          7          8          9         10
     6  H    0.000000
     7  H    2.833531   0.000000
     8  H    3.595136   3.035226   0.000000
     9  H    3.984374   3.955441   3.988740   0.000000
    10  H    4.845130   3.451577   2.841996   2.586820   0.000000
    11  O    1.985529   2.707947   3.380229   2.030150   3.392732
    12  O    2.617940   1.989917   2.719803   5.164734   4.605249
    13  O    4.637829   2.649448   1.980521   4.556557   2.547294
    14  O    4.193935   4.111060   2.342578   2.367676   2.081162
    15  C    4.110843   2.868217   4.366014   2.158075   2.713380
    16  H    4.300470   3.577716   5.247172   2.416383   3.712540
    17  H    3.924952   2.110993   4.298272   3.087439   3.107273
    18  O    5.389902   3.818030   4.857609   2.651825   2.439774
    19  C    3.223339   3.292123   2.578160   5.806868   5.140990
    20  H    2.837768   3.717373   2.536716   5.478250   5.177864
    21  H    3.794902   4.006512   3.658217   6.802883   6.192682
    22  H    4.089771   3.637223   2.266668   6.015270   4.900681
    23  C    5.214474   2.621156   3.294517   4.838564   2.828610
    24  H    6.238649   3.647807   3.998435   5.795514   3.550875
    25  H    5.369803   2.865227   3.676308   4.221623   2.253532
    26  H    4.911895   2.128202   3.720159   5.178514   3.602713
    27  C    5.446331   5.098487   2.752784   3.615958   2.541424
    28  H    6.196086   5.483186   3.512523   3.755818   2.357730
    29  H    5.889034   5.972681   3.486598   4.111137   3.553384
    30  H    5.526083   4.983253   2.282598   4.381935   2.869297
    31  C    6.438316   4.662852   6.151187   3.929699   3.758237
    32  H    7.347699   5.488669   6.640034   4.516940   4.013558
    33  H    6.445639   4.352816   6.237074   4.586960   4.141782
    34  H    6.625427   5.202647   6.833749   4.072152   4.526582
                   11         12         13         14         15
    11  O    0.000000
    12  O    3.580603   0.000000
    13  O    4.189089   3.037541   0.000000
    14  O    2.957131   4.588315   3.470200   0.000000
    15  C    2.460238   4.683251   4.074258   3.745941   0.000000
    16  H    2.673005   5.337386   5.125966   4.456935   1.099174
    17  H    2.737506   4.070722   3.723573   4.275751   1.100126
    18  O    3.657630   5.636275   4.241094   3.984058   1.406431
    19  C    4.332743   1.435658   3.446433   4.691159   5.755756
    20  H    4.005564   2.108735   3.954372   4.296070   5.805810
    21  H    5.194200   2.019025   4.349935   5.770878   6.638828
    22  H    4.841853   2.096219   2.939915   4.574135   5.989995
    23  C    4.591328   3.654960   1.427681   4.368447   3.735272
    24  H    5.665014   4.446026   2.019504   5.142509   4.714927
    25  H    4.355102   4.308630   2.103963   4.125983   3.005919
    26  H    4.566225   3.226378   2.096624   4.989426   3.787474
    27  C    4.363896   5.394532   3.686040   1.428458   4.866471
    28  H    4.878449   6.069201   3.928703   2.087895   4.847102
    29  H    4.889926   6.103322   4.696244   2.025665   5.674349
    30  H    4.759101   4.995312   3.166793   2.103198   5.315993
    31  C    4.811566   6.608178   5.266216   5.410091   2.362187
    32  H    5.657664   7.378841   5.647382   5.776457   3.271356
    33  H    5.067978   6.320661   5.114582   5.902643   2.662172
    34  H    4.967083   7.156925   6.150011   5.919255   2.647760
                   16         17         18         19         20
    16  H    0.000000
    17  H    1.772869   0.000000
    18  O    2.083878   2.074416   0.000000
    19  C    6.448319   5.298063   6.620916   0.000000
    20  H    6.413218   5.528185   6.726218   1.097592   0.000000
    21  H    7.273747   6.084186   7.560483   1.090275   1.781255
    22  H    6.814176   5.564842   6.649821   1.094369   1.794248
    23  C    4.782049   3.186560   3.717852   4.446620   5.071507
    24  H    5.763312   4.182802   4.488924   5.080854   5.791977
    25  H    4.062868   2.645831   2.715231   5.185307   5.658836
    26  H    4.714309   2.966386   4.051602   4.256991   4.993117
    27  C    5.674067   5.354044   4.788138   5.256273   4.926544
    28  H    5.678327   5.407124   4.452813   6.084968   5.869947
    29  H    6.369951   6.241597   5.649744   5.803404   5.301161
    30  H    6.221118   5.601390   5.288097   4.686362   4.478984
    31  C    2.613031   2.692862   1.427594   7.724951   7.931311
    32  H    3.600758   3.655159   2.027514   8.414286   8.631582
    33  H    2.986415   2.524529   2.091150   7.531449   7.875142
    34  H    2.420661   3.103451   2.088791   8.313805   8.439094
                   21         22         23         24         25
    21  H    0.000000
    22  H    1.782018   0.000000
    23  C    5.225806   4.086641   0.000000
    24  H    5.778049   4.544028   1.090859   0.000000
    25  H    6.042551   4.912768   1.096923   1.782078   0.000000
    26  H    4.886718   4.098111   1.098626   1.775416   1.794526
    27  C    6.322515   4.854835   4.694740   5.214014   4.526908
    28  H    7.159370   5.629150   4.682059   5.089563   4.333001
    29  H    6.832725   5.447052   5.765776   6.285366   5.606395
    30  H    5.711080   4.106518   4.350800   4.742506   4.427772
    31  C    8.591612   7.772951   4.420344   5.035689   3.391097
    32  H    9.316915   8.343363   4.780794   5.212472   3.701685
    33  H    8.311207   7.590345   4.055693   4.612778   3.145377
    34  H    9.159139   8.475422   5.375411   6.062400   4.384808
                   26         27         28         29         30
    26  H    0.000000
    27  C    5.520652   0.000000
    28  H    5.616843   1.097817   0.000000
    29  H    6.559475   1.091150   1.788770   0.000000
    30  H    5.188101   1.097814   1.787653   1.782732   0.000000
    31  C    4.595056   6.157685   5.723407   7.028368   6.623242
    32  H    5.129406   6.307241   5.697371   7.169284   6.785773
    33  H    4.032269   6.658865   6.294814   7.604374   6.972083
    34  H    5.447050   6.795152   6.408518   7.576646   7.361858
                   31         32         33         34
    31  C    0.000000
    32  H    1.090978   0.000000
    33  H    1.098140   1.787287   0.000000
    34  H    1.097729   1.788278   1.790482   0.000000
 Stoichiometry    C10H19O5(1+)
 Framework group  C1[X(C10H19O5)]
 Deg. of freedom    96
 Full point group                 C1      NOp   1
 Largest Abelian subgroup         C1      NOp   1
 Largest concise Abelian subgroup C1      NOp   1
                         Standard orientation:                         
 ---------------------------------------------------------------------
 Center     Atomic      Atomic             Coordinates (Angstroms)
 Number     Number       Type             X           Y           Z
 ---------------------------------------------------------------------
      1          6           0       -0.947982    0.264568    0.567425
      2          6           0       -1.289602   -0.988614   -0.322280
      3          6           0       -0.996712   -0.710288   -1.748391
      4          6           0        1.048524    0.367256   -1.129309
      5          6           0        0.298101    1.039508    0.022459
      6          1           0       -1.678384   -1.010687   -2.545774
      7          1           0       -0.555708   -1.769311   -0.057203
      8          1           0       -1.783989    0.957498    0.460902
      9          1           0        1.566861    1.138785   -1.695249
     10          1           0        1.025635    1.166365    0.834168
     11          8           0        0.066522   -0.154522   -2.140053
     12          8           0       -2.535469   -1.586411   -0.140040
     13          8           0       -0.923106   -0.055075    1.929248
     14          8           0       -0.113536    2.294635   -0.492682
     15          6           0        2.029262   -0.763722   -0.787537
     16          1           0        2.539735   -1.073044   -1.710532
     17          1           0        1.527961   -1.651706   -0.374670
     18          8           0        2.921674   -0.205955    0.145493
     19          6           0       -3.676688   -0.721943   -0.033142
     20          1           0       -3.725853   -0.001580   -0.859803
     21          1           0       -4.543309   -1.381482   -0.084880
     22          1           0       -3.682418   -0.191158    0.923873
     23          6           0        0.052424   -0.998287    2.373056
     24          1           0        0.000640   -0.989828    3.462652
     25          1           0        1.067358   -0.724109    2.060044
     26          1           0       -0.180282   -2.013439    2.023350
     27          6           0       -0.327162    3.292746    0.506633
     28          1           0        0.590354    3.470197    1.082722
     29          1           0       -0.606882    4.203069   -0.025981
     30          1           0       -1.135529    3.018557    1.196965
     31          6           0        4.026383   -1.061455    0.438346
     32          1           0        4.651055   -0.525501    1.154426
     33          1           0        3.687582   -2.006322    0.883714
     34          1           0        4.607208   -1.276296   -0.468017
 ---------------------------------------------------------------------
 Rotational constants (GHZ):           0.7151487           0.4354639           0.4085619
 Leave Link  202 at Fri May 24 08:30:52 2019, MaxMem=   402653184 cpu:               0.7 elap:               0.4
 (Enter /n/sw/g16_nehalem/g16/l301.exe)
 Standard basis: 6-31G(d) (6D, 7F)
 Ernie: Thresh=  0.10000D-02 Tol=  0.10000D-05 Strict=F.
 There are   263 symmetry adapted cartesian basis functions of A   symmetry.
 There are   263 symmetry adapted basis functions of A   symmetry.
   263 basis functions,   496 primitive gaussians,   263 cartesian basis functions
    59 alpha electrons       59 beta electrons
       nuclear repulsion energy      1170.4400320394 Hartrees.
 IExCor=  402 DFT=T Ex+Corr=B3LYP ExCW=0 ScaHFX=  0.200000
 ScaDFX=  0.800000  0.720000  1.000000  0.810000 ScalE2=  1.000000  1.000000
 IRadAn=      5 IRanWt=     -1 IRanGd=            0 ICorTp=0 IEmpDi=  4
 NAtoms=   34 NActive=   34 NUniq=   34 SFac= 1.00D+00 NAtFMM=   60 NAOKFM=F Big=F
 Integral buffers will be    131072 words long.
 Raffenetti 2 integral format.
 Two-electron integral symmetry is turned on.
 ------------------------------------------------------------------------------
 Polarizable Continuum Model (PCM)
 =================================
 Model                : PCM.
 Atomic radii         : UFF (Universal Force Field).
 Polarization charges : Total charges.
 Charge compensation  : None.
 Solution method      : On-the-fly selection.
 Cavity type          : Scaled VdW (van der Waals Surface) (Alpha=1.100).
 Cavity algorithm     : GePol (No added spheres)
                        Default sphere list used, NSphG=   34.
                        Lebedev-Laikov grids with approx.  5.0 points / Ang**2.
                        Smoothing algorithm: York/Karplus (Gamma=1.0000).
                        Polarization charges: spherical gaussians, with
                                              point-specific exponents (IZeta= 3).
                        Self-potential: point-specific (ISelfS= 7).
                        Self-field    : sphere-specific E.n sum rule (ISelfD= 2).
 1st derivatives      : Analytical E(r).r(x)/FMM algorithm (CHGder, D1EAlg=3).
                        Cavity 1st derivative terms included.
 Solvent              : TetraHydroFuran, Eps=   7.425700 Eps(inf)=   1.974025
 ------------------------------------------------------------------------------
 GePol: Number of generator spheres                  =      34
 GePol: Total number of spheres                      =      34
 GePol: Number of exposed spheres                    =      34 (100.00%)
 GePol: Number of points                             =    2266
 GePol: Average weight of points                     =       0.13
 GePol: Minimum weight of points                     =   0.15D-10
 GePol: Maximum weight of points                     =    0.20577
 GePol: Number of points with low weight             =     157
 GePol: Fraction of low-weight points (<1% of avg)   =       6.93%
 GePol: Cavity surface area                          =    296.952 Ang**2
 GePol: Cavity volume                                =    319.514 Ang**3
 Leave Link  301 at Fri May 24 08:30:52 2019, MaxMem=   402653184 cpu:               0.4 elap:               0.1
 (Enter /n/sw/g16_nehalem/g16/l302.exe)
 NPDir=0 NMtPBC=     1 NCelOv=     1 NCel=       1 NClECP=     1 NCelD=      1
         NCelK=      1 NCelE2=     1 NClLst=     1 CellRange=     0.0.
 One-electron integrals computed using PRISM.
 One-electron integral symmetry used in STVInt
 NBasis=   263 RedAO= T EigKep=  1.39D-03  NBF=   263
 NBsUse=   263 1.00D-06 EigRej= -1.00D+00 NBFU=   263
 Precomputing XC quadrature grid using
 IXCGrd= 4 IRadAn=           5 IRanWt=          -1 IRanGd=           0 AccXCQ= 0.00D+00.
 Generated NRdTot=       0 NPtTot=           0 NUsed=           0 NTot=          32
 NSgBfM=   262   261   262   262   262 MxSgAt=    34 MxSgA2=    34.
 Leave Link  302 at Fri May 24 08:30:53 2019, MaxMem=   402653184 cpu:               5.3 elap:               1.4
 (Enter /n/sw/g16_nehalem/g16/l303.exe)
 DipDrv:  MaxL=1.
 Leave Link  303 at Fri May 24 08:30:54 2019, MaxMem=   402653184 cpu:               0.5 elap:               0.2
 (Enter /n/sw/g16_nehalem/g16/l401.exe)
 ExpMin= 1.61D-01 ExpMax= 5.48D+03 ExpMxC= 8.25D+02 IAcc=3 IRadAn=         5 AccDes= 0.00D+00
 Harris functional with IExCor=  402 and IRadAn=       5 diagonalized for initial guess.
 HarFok:  IExCor=  402 AccDes= 0.00D+00 IRadAn=         5 IDoV= 1 UseB2=F ITyADJ=14
 ICtDFT=  3500011 ScaDFX=  1.000000  1.000000  1.000000  1.000000
 FoFCou: FMM=F IPFlag=           0 FMFlag=      100000 FMFlg1=           0
         NFxFlg=           0 DoJE=T BraDBF=F KetDBF=T FulRan=T
         wScrn=  0.000000 ICntrl=       500 IOpCl=  0 I1Cent=   200000004 NGrid=           0
         NMat0=    1 NMatS0=      1 NMatT0=    0 NMatD0=    1 NMtDS0=    0 NMtDT0=    0
 Petite list used in FoFCou.
 Harris En= -768.251546207481    
 JPrj=0 DoOrth=F DoCkMO=F.
 Leave Link  401 at Fri May 24 08:31:07 2019, MaxMem=   402653184 cpu:              52.1 elap:              13.6
 (Enter /n/sw/g16_nehalem/g16/l502.exe)
 Integral symmetry usage will be decided dynamically.
 Closed shell SCF:
 Using DIIS extrapolation, IDIIS=  1040.
 NGot=   402653184 LenX=   402510103 LenY=   402440493
 Requested convergence on RMS density matrix=1.00D-08 within 128 cycles.
 Requested convergence on MAX density matrix=1.00D-06.
 Requested convergence on             energy=1.00D-06.
 No special actions if energy rises.
 Fock matrices will be formed incrementally for  20 cycles.

 Cycle   1  Pass 1  IDiag  1:
 FoFJK:  IHMeth= 1 ICntrl=       0 DoSepK=F KAlg= 0 I1Cent=           0 FoldK=F
 IRaf= 890000000 NMat=       1 IRICut=       1 DoRegI=T DoRafI=F ISym2E= 0 IDoP0=0 IntGTp=1.
 FoFCou: FMM=F IPFlag=           0 FMFlag=      100000 FMFlg1=           0
         NFxFlg=           0 DoJE=F BraDBF=F KetDBF=F FulRan=T
         wScrn=  0.000000 ICntrl=         0 IOpCl=  0 I1Cent=           0 NGrid=           0
         NMat0=    1 NMatS0=      1 NMatT0=    0 NMatD0=    1 NMtDS0=    0 NMtDT0=    0
 Symmetry not used in FoFCou.
 Inv3:  Mode=1 IEnd=    15404268.
 Iteration    1 A*A^-1 deviation from unit magnitude is 6.88D-15 for    555.
 Iteration    1 A*A^-1 deviation from orthogonality  is 2.24D-15 for   2244   1463.
 Iteration    1 A^-1*A deviation from unit magnitude is 7.77D-15 for    555.
 Iteration    1 A^-1*A deviation from orthogonality  is 2.61D-15 for   1874   1814.
 E= -768.080148688196    
 DIIS: error= 1.83D-02 at cycle   1 NSaved=   1.
 NSaved= 1 IEnMin= 1 EnMin= -768.080148688196     IErMin= 1 ErrMin= 1.83D-02
 ErrMax= 1.83D-02  0.00D+00 EMaxC= 1.00D-01 BMatC= 2.56D-01 BMatP= 2.56D-01
 IDIUse=3 WtCom= 8.17D-01 WtEn= 1.83D-01
 Coeff-Com:  0.100D+01
 Coeff-En:   0.100D+01
 Coeff:      0.100D+01
 Gap=     0.012 Goal=   None    Shift=    0.000
 GapD=    0.012 DampG=0.250 DampE=0.500 DampFc=0.2500 IDamp=-1.
 Damping current iteration by 2.50D-01
 RMSDP=4.94D-03 MaxDP=1.25D-01              OVMax= 4.72D-01

 Cycle   2  Pass 1  IDiag  1:
 RMSU=  1.23D-03    CP:  9.95D-01
 E= -768.152508320664     Delta-E=       -0.072359632468 Rises=F Damp=T
 DIIS: error= 9.10D-03 at cycle   2 NSaved=   2.
 NSaved= 2 IEnMin= 2 EnMin= -768.152508320664     IErMin= 2 ErrMin= 9.10D-03
 ErrMax= 9.10D-03  0.00D+00 EMaxC= 1.00D-01 BMatC= 6.91D-02 BMatP= 2.56D-01
 IDIUse=3 WtCom= 9.09D-01 WtEn= 9.10D-02
 Coeff-Com: -0.663D+00 0.166D+01
 Coeff-En:   0.000D+00 0.100D+01
 Coeff:     -0.603D+00 0.160D+01
 Gap=     0.100 Goal=   None    Shift=    0.000
 RMSDP=1.49D-03 MaxDP=3.96D-02 DE=-7.24D-02 OVMax= 3.83D-01

 Cycle   3  Pass 1  IDiag  1:
 RMSU=  1.46D-03    CP:  9.86D-01  1.19D+00
 E= -768.275279158585     Delta-E=       -0.122770837921 Rises=F Damp=F
 DIIS: error= 8.67D-03 at cycle   3 NSaved=   3.
 NSaved= 3 IEnMin= 3 EnMin= -768.275279158585     IErMin= 3 ErrMin= 8.67D-03
 ErrMax= 8.67D-03  0.00D+00 EMaxC= 1.00D-01 BMatC= 4.97D-02 BMatP= 6.91D-02
 IDIUse=3 WtCom= 9.13D-01 WtEn= 8.67D-02
 Coeff-Com: -0.511D+00 0.104D+01 0.474D+00
 Coeff-En:   0.000D+00 0.000D+00 0.100D+01
 Coeff:     -0.467D+00 0.947D+00 0.519D+00
 Gap=     0.148 Goal=   None    Shift=    0.000
 RMSDP=8.97D-04 MaxDP=3.55D-02 DE=-1.23D-01 OVMax= 5.46D-02

 Cycle   4  Pass 1  IDiag  1:
 RMSU=  6.33D-04    CP:  9.90D-01  1.40D+00  6.05D-01
 E= -768.316288150902     Delta-E=       -0.041008992318 Rises=F Damp=F
 DIIS: error= 1.74D-03 at cycle   4 NSaved=   4.
 NSaved= 4 IEnMin= 4 EnMin= -768.316288150902     IErMin= 4 ErrMin= 1.74D-03
 ErrMax= 1.74D-03  0.00D+00 EMaxC= 1.00D-01 BMatC= 3.18D-03 BMatP= 4.97D-02
 IDIUse=3 WtCom= 9.83D-01 WtEn= 1.74D-02
 Coeff-Com: -0.220D+00 0.372D+00 0.215D+00 0.633D+00
 Coeff-En:   0.000D+00 0.000D+00 0.000D+00 0.100D+01
 Coeff:     -0.216D+00 0.366D+00 0.211D+00 0.639D+00
 Gap=     0.131 Goal=   None    Shift=    0.000
 RMSDP=2.30D-04 MaxDP=1.13D-02 DE=-4.10D-02 OVMax= 1.31D-02

 Cycle   5  Pass 1  IDiag  1:
 RMSU=  1.96D-04    CP:  9.89D-01  1.43D+00  6.60D-01  8.72D-01
 E= -768.318402452473     Delta-E=       -0.002114301570 Rises=F Damp=F
 DIIS: error= 1.06D-03 at cycle   5 NSaved=   5.
 NSaved= 5 IEnMin= 5 EnMin= -768.318402452473     IErMin= 5 ErrMin= 1.06D-03
 ErrMax= 1.06D-03  0.00D+00 EMaxC= 1.00D-01 BMatC= 9.14D-04 BMatP= 3.18D-03
 IDIUse=3 WtCom= 9.89D-01 WtEn= 1.06D-02
 Coeff-Com: -0.912D-01 0.136D+00 0.417D-01 0.354D+00 0.560D+00
 Coeff-En:   0.000D+00 0.000D+00 0.000D+00 0.132D+00 0.868D+00
 Coeff:     -0.902D-01 0.134D+00 0.413D-01 0.352D+00 0.563D+00
 Gap=     0.131 Goal=   None    Shift=    0.000
 RMSDP=9.69D-05 MaxDP=5.36D-03 DE=-2.11D-03 OVMax= 4.44D-03

 Cycle   6  Pass 1  IDiag  1:
 RMSU=  6.96D-05    CP:  9.89D-01  1.45D+00  6.55D-01  9.52D-01  8.01D-01
 E= -768.319004694179     Delta-E=       -0.000602241706 Rises=F Damp=F
 DIIS: error= 4.02D-04 at cycle   6 NSaved=   6.
 NSaved= 6 IEnMin= 6 EnMin= -768.319004694179     IErMin= 6 ErrMin= 4.02D-04
 ErrMax= 4.02D-04  0.00D+00 EMaxC= 1.00D-01 BMatC= 1.18D-04 BMatP= 9.14D-04
 IDIUse=3 WtCom= 9.96D-01 WtEn= 4.02D-03
 Coeff-Com: -0.323D-01 0.411D-01-0.121D-01 0.133D+00 0.336D+00 0.535D+00
 Coeff-En:   0.000D+00 0.000D+00 0.000D+00 0.000D+00 0.000D+00 0.100D+01
 Coeff:     -0.321D-01 0.409D-01-0.121D-01 0.132D+00 0.335D+00 0.536D+00
 Gap=     0.130 Goal=   None    Shift=    0.000
 RMSDP=3.67D-05 MaxDP=2.11D-03 DE=-6.02D-04 OVMax= 2.13D-03

 Cycle   7  Pass 1  IDiag  1:
 RMSU=  2.62D-05    CP:  9.89D-01  1.45D+00  6.51D-01  9.81D-01  8.64D-01
                    CP:  8.54D-01
 E= -768.319096617322     Delta-E=       -0.000091923143 Rises=F Damp=F
 DIIS: error= 1.37D-04 at cycle   7 NSaved=   7.
 NSaved= 7 IEnMin= 7 EnMin= -768.319096617322     IErMin= 7 ErrMin= 1.37D-04
 ErrMax= 1.37D-04  0.00D+00 EMaxC= 1.00D-01 BMatC= 1.24D-05 BMatP= 1.18D-04
 IDIUse=3 WtCom= 9.99D-01 WtEn= 1.37D-03
 Coeff-Com: -0.808D-02 0.811D-02-0.161D-01 0.277D-01 0.118D+00 0.299D+00
 Coeff-Com:  0.571D+00
 Coeff-En:   0.000D+00 0.000D+00 0.000D+00 0.000D+00 0.000D+00 0.000D+00
 Coeff-En:   0.100D+01
 Coeff:     -0.807D-02 0.810D-02-0.160D-01 0.277D-01 0.118D+00 0.299D+00
 Coeff:      0.571D+00
 Gap=     0.129 Goal=   None    Shift=    0.000
 RMSDP=1.45D-05 MaxDP=6.92D-04 DE=-9.19D-05 OVMax= 8.81D-04

 Cycle   8  Pass 1  IDiag  1:
 RMSU=  8.89D-06    CP:  9.89D-01  1.45D+00  6.50D-01  9.93D-01  8.93D-01
                    CP:  9.10D-01  8.17D-01
 E= -768.319107570568     Delta-E=       -0.000010953246 Rises=F Damp=F
 DIIS: error= 4.26D-05 at cycle   8 NSaved=   8.
 NSaved= 8 IEnMin= 8 EnMin= -768.319107570568     IErMin= 8 ErrMin= 4.26D-05
 ErrMax= 4.26D-05  0.00D+00 EMaxC= 1.00D-01 BMatC= 9.33D-07 BMatP= 1.24D-05
 IDIUse=1 WtCom= 1.00D+00 WtEn= 0.00D+00
 Coeff-Com:  0.117D-03-0.742D-03-0.552D-02-0.751D-02-0.248D-03 0.418D-01
 Coeff-Com:  0.244D+00 0.728D+00
 Coeff:      0.117D-03-0.742D-03-0.552D-02-0.751D-02-0.248D-03 0.418D-01
 Coeff:      0.244D+00 0.728D+00
 Gap=     0.129 Goal=   None    Shift=    0.000
 RMSDP=5.86D-06 MaxDP=2.04D-04 DE=-1.10D-05 OVMax= 8.01D-04

 Cycle   9  Pass 1  IDiag  1:
 RMSU=  3.25D-06    CP:  9.89D-01  1.45D+00  6.51D-01  9.98D-01  9.04D-01
                    CP:  9.40D-01  9.04D-01  9.83D-01
 E= -768.319108435949     Delta-E=       -0.000000865381 Rises=F Damp=F
 DIIS: error= 1.03D-05 at cycle   9 NSaved=   9.
 NSaved= 9 IEnMin= 9 EnMin= -768.319108435949     IErMin= 9 ErrMin= 1.03D-05
 ErrMax= 1.03D-05  0.00D+00 EMaxC= 1.00D-01 BMatC= 1.47D-07 BMatP= 9.33D-07
 IDIUse=1 WtCom= 1.00D+00 WtEn= 0.00D+00
 Coeff-Com:  0.368D-03-0.520D-03-0.152D-02-0.554D-02-0.937D-02-0.290D-02
 Coeff-Com:  0.786D-01 0.401D+00 0.540D+00
 Coeff:      0.368D-03-0.520D-03-0.152D-02-0.554D-02-0.937D-02-0.290D-02
 Coeff:      0.786D-01 0.401D+00 0.540D+00
 Gap=     0.129 Goal=   None    Shift=    0.000
 RMSDP=1.76D-06 MaxDP=4.63D-05 DE=-8.65D-07 OVMax= 2.08D-04

 Cycle  10  Pass 1  IDiag  1:
 RMSU=  1.10D-06    CP:  9.89D-01  1.45D+00  6.51D-01  9.98D-01  9.06D-01
                    CP:  9.50D-01  9.23D-01  1.04D+00  7.60D-01
 E= -768.319108568123     Delta-E=       -0.000000132174 Rises=F Damp=F
 DIIS: error= 2.16D-06 at cycle  10 NSaved=  10.
 NSaved=10 IEnMin=10 EnMin= -768.319108568123     IErMin=10 ErrMin= 2.16D-06
 ErrMax= 2.16D-06  0.00D+00 EMaxC= 1.00D-01 BMatC= 5.32D-09 BMatP= 1.47D-07
 IDIUse=1 WtCom= 1.00D+00 WtEn= 0.00D+00
 Coeff-Com:  0.196D-03-0.237D-03-0.362D-04-0.123D-02-0.358D-02-0.547D-02
 Coeff-Com: -0.296D-02 0.486D-01 0.157D+00 0.808D+00
 Coeff:      0.196D-03-0.237D-03-0.362D-04-0.123D-02-0.358D-02-0.547D-02
 Coeff:     -0.296D-02 0.486D-01 0.157D+00 0.808D+00
 Gap=     0.129 Goal=   None    Shift=    0.000
 RMSDP=7.07D-07 MaxDP=2.15D-05 DE=-1.32D-07 OVMax= 1.02D-04

 Cycle  11  Pass 1  IDiag  1:
 RMSU=  2.57D-07    CP:  9.89D-01  1.45D+00  6.51D-01  9.98D-01  9.07D-01
                    CP:  9.53D-01  9.32D-01  1.07D+00  8.18D-01  9.96D-01
 E= -768.319108576339     Delta-E=       -0.000000008215 Rises=F Damp=F
 DIIS: error= 7.97D-07 at cycle  11 NSaved=  11.
 NSaved=11 IEnMin=11 EnMin= -768.319108576339     IErMin=11 ErrMin= 7.97D-07
 ErrMax= 7.97D-07  0.00D+00 EMaxC= 1.00D-01 BMatC= 7.14D-10 BMatP= 5.32D-09
 IDIUse=1 WtCom= 1.00D+00 WtEn= 0.00D+00
 Coeff-Com:  0.537D-04-0.598D-04 0.678D-04-0.173D-03-0.102D-02-0.200D-02
 Coeff-Com: -0.636D-02-0.101D-02 0.378D-01 0.367D+00 0.606D+00
 Coeff:      0.537D-04-0.598D-04 0.678D-04-0.173D-03-0.102D-02-0.200D-02
 Coeff:     -0.636D-02-0.101D-02 0.378D-01 0.367D+00 0.606D+00
 Gap=     0.129 Goal=   None    Shift=    0.000
 RMSDP=1.73D-07 MaxDP=5.79D-06 DE=-8.22D-09 OVMax= 2.38D-05

 Cycle  12  Pass 1  IDiag  1:
 RMSU=  1.09D-07    CP:  9.89D-01  1.45D+00  6.51D-01  9.98D-01  9.07D-01
                    CP:  9.54D-01  9.33D-01  1.07D+00  8.33D-01  1.03D+00
                    CP:  7.85D-01
 E= -768.319108577085     Delta-E=       -0.000000000746 Rises=F Damp=F
 DIIS: error= 3.23D-07 at cycle  12 NSaved=  12.
 NSaved=12 IEnMin=12 EnMin= -768.319108577085     IErMin=12 ErrMin= 3.23D-07
 ErrMax= 3.23D-07  0.00D+00 EMaxC= 1.00D-01 BMatC= 1.15D-10 BMatP= 7.14D-10
 IDIUse=1 WtCom= 1.00D+00 WtEn= 0.00D+00
 Coeff-Com:  0.966D-05-0.114D-04 0.395D-04 0.860D-04-0.129D-04-0.141D-03
 Coeff-Com: -0.326D-02-0.887D-02-0.706D-02 0.533D-01 0.308D+00 0.658D+00
 Coeff:      0.966D-05-0.114D-04 0.395D-04 0.860D-04-0.129D-04-0.141D-03
 Coeff:     -0.326D-02-0.887D-02-0.706D-02 0.533D-01 0.308D+00 0.658D+00
 Gap=     0.129 Goal=   None    Shift=    0.000
 RMSDP=6.91D-08 MaxDP=2.61D-06 DE=-7.46D-10 OVMax= 8.57D-06

 Cycle  13  Pass 1  IDiag  1:
 RMSU=  2.59D-08    CP:  9.89D-01  1.45D+00  6.51D-01  9.98D-01  9.07D-01
                    CP:  9.54D-01  9.34D-01  1.07D+00  8.37D-01  1.05D+00
                    CP:  8.88D-01  7.87D-01
 E= -768.319108577181     Delta-E=       -0.000000000096 Rises=F Damp=F
 DIIS: error= 6.32D-08 at cycle  13 NSaved=  13.
 NSaved=13 IEnMin=13 EnMin= -768.319108577181     IErMin=13 ErrMin= 6.32D-08
 ErrMax= 6.32D-08  0.00D+00 EMaxC= 1.00D-01 BMatC= 4.13D-12 BMatP= 1.15D-10
 IDIUse=1 WtCom= 1.00D+00 WtEn= 0.00D+00
 Coeff-Com: -0.606D-06 0.683D-06 0.114D-04 0.501D-04 0.705D-04 0.108D-03
 Coeff-Com: -0.853D-03-0.323D-02-0.532D-02-0.285D-02 0.792D-01 0.241D+00
 Coeff-Com:  0.692D+00
 Coeff:     -0.606D-06 0.683D-06 0.114D-04 0.501D-04 0.705D-04 0.108D-03
 Coeff:     -0.853D-03-0.323D-02-0.532D-02-0.285D-02 0.792D-01 0.241D+00
 Coeff:      0.692D+00
 Gap=     0.129 Goal=   None    Shift=    0.000
 RMSDP=1.22D-08 MaxDP=3.27D-07 DE=-9.62D-11 OVMax= 1.17D-06

 Cycle  14  Pass 1  IDiag  1:
 RMSU=  9.39D-09    CP:  9.89D-01  1.45D+00  6.51D-01  9.98D-01  9.07D-01
                    CP:  9.54D-01  9.34D-01  1.07D+00  8.37D-01  1.06D+00
                    CP:  8.99D-01  8.26D-01  9.62D-01
 E= -768.319108577183     Delta-E=       -0.000000000002 Rises=F Damp=F
 DIIS: error= 2.48D-08 at cycle  14 NSaved=  14.
 NSaved=14 IEnMin=14 EnMin= -768.319108577183     IErMin=14 ErrMin= 2.48D-08
 ErrMax= 2.48D-08  0.00D+00 EMaxC= 1.00D-01 BMatC= 7.99D-13 BMatP= 4.13D-12
 IDIUse=1 WtCom= 1.00D+00 WtEn= 0.00D+00
 Coeff-Com: -0.102D-05 0.123D-05 0.269D-06 0.892D-05 0.247D-04 0.570D-04
 Coeff-Com:  0.226D-04-0.172D-03-0.124D-02-0.604D-02-0.414D-03 0.285D-01
 Coeff-Com:  0.337D+00 0.642D+00
 Coeff:     -0.102D-05 0.123D-05 0.269D-06 0.892D-05 0.247D-04 0.570D-04
 Coeff:      0.226D-04-0.172D-03-0.124D-02-0.604D-02-0.414D-03 0.285D-01
 Coeff:      0.337D+00 0.642D+00
 Gap=     0.129 Goal=   None    Shift=    0.000
 RMSDP=4.57D-09 MaxDP=1.26D-07 DE=-1.82D-12 OVMax= 3.67D-07

 Error on total polarization charges =  0.01235
 SCF Done:  E(RB3LYP) =  -768.319108577     A.U. after   14 cycles
            NFock= 14  Conv=0.46D-08     -V/T= 2.0091
 KE= 7.614014242743D+02 PE=-4.115421297428D+03 EE= 1.415260732537D+03
 Leave Link  502 at Fri May 24 08:37:49 2019, MaxMem=   402653184 cpu:            1583.0 elap:             401.3
 (Enter /n/sw/g16_nehalem/g16/l601.exe)
 Copying SCF densities to generalized density rwf, IOpCl= 0 IROHF=0.

 **********************************************************************

            Population analysis using the SCF density.

 **********************************************************************

 Orbital symmetries:
       Occupied  (A) (A) (A) (A) (A) (A) (A) (A) (A) (A) (A) (A)
                 (A) (A) (A) (A) (A) (A) (A) (A) (A) (A) (A) (A)
                 (A) (A) (A) (A) (A) (A) (A) (A) (A) (A) (A) (A)
                 (A) (A) (A) (A) (A) (A) (A) (A) (A) (A) (A) (A)
                 (A) (A) (A) (A) (A) (A) (A) (A) (A) (A) (A)
       Virtual   (A) (A) (A) (A) (A) (A) (A) (A) (A) (A) (A) (A)
                 (A) (A) (A) (A) (A) (A) (A) (A) (A) (A) (A) (A)
                 (A) (A) (A) (A) (A) (A) (A) (A) (A) (A) (A) (A)
                 (A) (A) (A) (A) (A) (A) (A) (A) (A) (A) (A) (A)
                 (A) (A) (A) (A) (A) (A) (A) (A) (A) (A) (A) (A)
                 (A) (A) (A) (A) (A) (A) (A) (A) (A) (A) (A) (A)
                 (A) (A) (A) (A) (A) (A) (A) (A) (A) (A) (A) (A)
                 (A) (A) (A) (A) (A) (A) (A) (A) (A) (A) (A) (A)
                 (A) (A) (A) (A) (A) (A) (A) (A) (A) (A) (A) (A)
                 (A) (A) (A) (A) (A) (A) (A) (A) (A) (A) (A) (A)
                 (A) (A) (A) (A) (A) (A) (A) (A) (A) (A) (A) (A)
                 (A) (A) (A) (A) (A) (A) (A) (A) (A) (A) (A) (A)
                 (A) (A) (A) (A) (A) (A) (A) (A) (A) (A) (A) (A)
                 (A) (A) (A) (A) (A) (A) (A) (A) (A) (A) (A) (A)
                 (A) (A) (A) (A) (A) (A) (A) (A) (A) (A) (A) (A)
                 (A) (A) (A) (A) (A) (A) (A) (A) (A) (A) (A) (A)
                 (A) (A) (A) (A) (A) (A) (A) (A) (A) (A) (A) (A)
 The electronic state is 1-A.
 Alpha  occ. eigenvalues --  -19.33042 -19.20866 -19.20125 -19.19567 -19.19169
 Alpha  occ. eigenvalues --  -10.39733 -10.32414 -10.32232 -10.30388 -10.29697
 Alpha  occ. eigenvalues --  -10.28952 -10.26116 -10.25862 -10.25225 -10.25163
 Alpha  occ. eigenvalues --   -1.21856  -1.09917  -1.08279  -1.07726  -1.07091
 Alpha  occ. eigenvalues --   -0.87213  -0.85798  -0.78261  -0.75290  -0.75197
 Alpha  occ. eigenvalues --   -0.71539  -0.69004  -0.68179  -0.66888  -0.62482
 Alpha  occ. eigenvalues --   -0.59714  -0.59196  -0.56586  -0.54628  -0.53620
 Alpha  occ. eigenvalues --   -0.53048  -0.52775  -0.51597  -0.51078  -0.49018
 Alpha  occ. eigenvalues --   -0.48440  -0.48302  -0.47394  -0.46463  -0.45538
 Alpha  occ. eigenvalues --   -0.44637  -0.43399  -0.43123  -0.41508  -0.40686
 Alpha  occ. eigenvalues --   -0.40194  -0.37367  -0.36588  -0.35971  -0.35285
 Alpha  occ. eigenvalues --   -0.32465  -0.31538  -0.29865  -0.28428
 Alpha virt. eigenvalues --   -0.15516   0.00289   0.03774   0.03976   0.05056
 Alpha virt. eigenvalues --    0.07222   0.07519   0.08338   0.09023   0.09671
 Alpha virt. eigenvalues --    0.10384   0.11646   0.12573   0.13206   0.13312
 Alpha virt. eigenvalues --    0.13666   0.14027   0.14384   0.14722   0.15398
 Alpha virt. eigenvalues --    0.15553   0.15894   0.16681   0.16895   0.18166
 Alpha virt. eigenvalues --    0.18745   0.19154   0.20273   0.21809   0.22546
 Alpha virt. eigenvalues --    0.23595   0.25186   0.25992   0.27386   0.31452
 Alpha virt. eigenvalues --    0.43887   0.44820   0.46502   0.47318   0.47651
 Alpha virt. eigenvalues --    0.47854   0.49238   0.50493   0.50953   0.51610
 Alpha virt. eigenvalues --    0.53273   0.53961   0.54574   0.54864   0.55187
 Alpha virt. eigenvalues --    0.56925   0.58273   0.58981   0.61274   0.62887
 Alpha virt. eigenvalues --    0.63520   0.64187   0.67420   0.68358   0.71851
 Alpha virt. eigenvalues --    0.72129   0.73933   0.74374   0.77128   0.77716
 Alpha virt. eigenvalues --    0.79017   0.79841   0.80217   0.81721   0.82907
 Alpha virt. eigenvalues --    0.83130   0.83702   0.84564   0.84787   0.85862
 Alpha virt. eigenvalues --    0.86246   0.86643   0.87028   0.88437   0.90091
 Alpha virt. eigenvalues --    0.92170   0.92570   0.92987   0.93849   0.95244
 Alpha virt. eigenvalues --    0.97051   0.97215   0.99665   1.00396   1.02859
 Alpha virt. eigenvalues --    1.03358   1.06668   1.07105   1.09464   1.10244
 Alpha virt. eigenvalues --    1.12051   1.14429   1.15349   1.18081   1.18839
 Alpha virt. eigenvalues --    1.23931   1.27176   1.28997   1.29226   1.33012
 Alpha virt. eigenvalues --    1.34119   1.35234   1.38353   1.39173   1.42132
 Alpha virt. eigenvalues --    1.43090   1.43709   1.45450   1.47505   1.48185
 Alpha virt. eigenvalues --    1.50445   1.52782   1.54299   1.57162   1.58482
 Alpha virt. eigenvalues --    1.61180   1.63186   1.64470   1.68559   1.69168
 Alpha virt. eigenvalues --    1.74293   1.75980   1.78091   1.79246   1.81823
 Alpha virt. eigenvalues --    1.82722   1.83489   1.86891   1.88349   1.89617
 Alpha virt. eigenvalues --    1.92721   1.93535   1.95734   1.96237   1.97931
 Alpha virt. eigenvalues --    1.99564   2.00826   2.02135   2.03155   2.04388
 Alpha virt. eigenvalues --    2.05098   2.05641   2.07041   2.09266   2.09870
 Alpha virt. eigenvalues --    2.10546   2.14014   2.14186   2.16396   2.16801
 Alpha virt. eigenvalues --    2.17595   2.22298   2.23368   2.24016   2.25094
 Alpha virt. eigenvalues --    2.29144   2.31770   2.33157   2.34762   2.36444
 Alpha virt. eigenvalues --    2.37078   2.39107   2.42874   2.43952   2.49113
 Alpha virt. eigenvalues --    2.50160   2.50398   2.53914   2.56182   2.59444
 Alpha virt. eigenvalues --    2.63313   2.65832   2.68469   2.70903   2.73915
 Alpha virt. eigenvalues --    2.77014   2.83761   2.86024   2.89460   2.92046
 Alpha virt. eigenvalues --    2.95214   2.95862   3.00550   3.05552   3.84038
 Alpha virt. eigenvalues --    3.87725   3.96124   4.00394   4.06244   4.14094
 Alpha virt. eigenvalues --    4.21227   4.22826   4.23775   4.25769   4.30826
 Alpha virt. eigenvalues --    4.34091   4.47304   4.54702   4.73549
          Condensed to atoms (all electrons):
               1          2          3          4          5          6
     1  C    5.045634   0.241800  -0.036965  -0.033304   0.253644   0.002134
     2  C    0.241800   5.104674   0.252109  -0.002075  -0.033934  -0.038184
     3  C   -0.036965   0.252109   4.926992  -0.046955  -0.004386   0.360754
     4  C   -0.033304  -0.002075  -0.046955   5.085846   0.312122   0.003156
     5  C    0.253644  -0.033934  -0.004386   0.312122   5.086327  -0.000342
     6  H    0.002134  -0.038184   0.360754   0.003156  -0.000342   0.415792
     7  H   -0.029097   0.364838  -0.053541   0.002465  -0.005339   0.001823
     8  H    0.382664  -0.042138  -0.003116   0.003258  -0.051952  -0.000012
     9  H    0.004002  -0.000214   0.002912   0.363775  -0.037724  -0.000074
    10  H   -0.045084   0.001838   0.000478  -0.035606   0.353383   0.000015
    11  O   -0.005473  -0.021314   0.348394   0.132085  -0.027250  -0.032896
    12  O   -0.029359   0.254229  -0.037404   0.000111   0.002328   0.002781
    13  O    0.234492  -0.033536   0.003237   0.001762  -0.029301  -0.000038
    14  O   -0.043797   0.000326   0.004825  -0.045016   0.191261   0.000013
    15  C    0.000499  -0.002829  -0.002695   0.316077  -0.037228  -0.000190
    16  H   -0.000186   0.000210   0.000217  -0.027271   0.005376  -0.000006
    17  H    0.002104  -0.003702   0.002712  -0.037204  -0.009631   0.000016
    18  O    0.000027   0.000121  -0.000020  -0.041989  -0.002518   0.000001
    19  C   -0.004031  -0.047077  -0.004944   0.000038   0.000064   0.000526
    20  H   -0.002443  -0.002144   0.005624  -0.000003  -0.000079   0.000362
    21  H    0.000216   0.004997  -0.000102   0.000000  -0.000003  -0.000100
    22  H    0.003342  -0.008574  -0.000389  -0.000003   0.000096   0.000082
    23  C   -0.044236  -0.007594   0.000029   0.000409  -0.006370  -0.000003
    24  H    0.004821   0.000068  -0.000002   0.000009   0.000027   0.000000
    25  H   -0.004547  -0.000812   0.000189  -0.003772   0.008165   0.000000
    26  H   -0.007954   0.002974  -0.000385   0.000112  -0.000815   0.000005
    27  C   -0.003017   0.000351  -0.000144   0.004447  -0.038067  -0.000001
    28  H   -0.001660  -0.000024   0.000014   0.000327  -0.007218   0.000000
    29  H   -0.000084   0.000006   0.000004  -0.000220   0.005219   0.000000
    30  H    0.007627   0.000023  -0.000036  -0.000074  -0.006298   0.000000
    31  C   -0.000026   0.000003  -0.000003   0.004385   0.000286   0.000000
    32  H   -0.000001   0.000000   0.000000  -0.000237   0.000019   0.000000
    33  H    0.000011  -0.000010   0.000002   0.000137  -0.000115   0.000000
    34  H    0.000000   0.000001   0.000000  -0.000095   0.000032   0.000000
               7          8          9         10         11         12
     1  C   -0.029097   0.382664   0.004002  -0.045084  -0.005473  -0.029359
     2  C    0.364838  -0.042138  -0.000214   0.001838  -0.021314   0.254229
     3  C   -0.053541  -0.003116   0.002912   0.000478   0.348394  -0.037404
     4  C    0.002465   0.003258   0.363775  -0.035606   0.132085   0.000111
     5  C   -0.005339  -0.051952  -0.037724   0.353383  -0.027250   0.002328
     6  H    0.001823  -0.000012  -0.000074   0.000015  -0.032896   0.002781
     7  H    0.488594   0.003674  -0.000022   0.000327  -0.000896  -0.033099
     8  H    0.003674   0.516882  -0.000212   0.003058   0.000642  -0.006045
     9  H   -0.000022  -0.000212   0.471141  -0.000415  -0.027381   0.000002
    10  H    0.000327   0.003058  -0.000415   0.518313   0.002387  -0.000045
    11  O   -0.000896   0.000642  -0.027381   0.002387   7.962483   0.001714
    12  O   -0.033099  -0.006045   0.000002  -0.000045   0.001714   8.179683
    13  O   -0.008329  -0.039573  -0.000064   0.002205   0.000009   0.002471
    14  O    0.000020   0.005216   0.006069  -0.028441  -0.000514  -0.000016
    15  C    0.002245   0.000066  -0.028078  -0.004541  -0.023348   0.000031
    16  H   -0.000201   0.000001  -0.008432   0.000354   0.000896  -0.000001
    17  H    0.008175  -0.000019   0.004859   0.000534   0.000273   0.000069
    18  O   -0.000253  -0.000007   0.003935   0.012722   0.000940   0.000000
    19  C    0.005045   0.008284   0.000000  -0.000005   0.000022   0.232211
    20  H   -0.000253   0.000884   0.000000   0.000000  -0.000266  -0.035793
    21  H   -0.000134  -0.000074   0.000000   0.000000   0.000001  -0.030465
    22  H   -0.000105  -0.000947   0.000000   0.000004   0.000013  -0.032444
    23  C    0.007787   0.005716  -0.000011   0.000483   0.000007  -0.000514
    24  H   -0.000191  -0.000145   0.000000  -0.000087   0.000000  -0.000017
    25  H   -0.001454  -0.000312   0.000040   0.002101  -0.000015   0.000048
    26  H    0.005675  -0.000169  -0.000002   0.000275   0.000012   0.001124
    27  C   -0.000009   0.001479  -0.000005  -0.004303  -0.000002  -0.000001
    28  H    0.000001   0.000500  -0.000095   0.010832  -0.000003   0.000000
    29  H    0.000000  -0.000294  -0.000076  -0.000036   0.000003   0.000000
    30  H    0.000000   0.000407   0.000075  -0.001593   0.000001   0.000003
    31  C    0.000005   0.000000  -0.000075  -0.000270  -0.000043   0.000000
    32  H    0.000000   0.000000  -0.000003  -0.000030   0.000000   0.000000
    33  H    0.000015   0.000000   0.000032   0.000055   0.000003   0.000000
    34  H   -0.000002   0.000000  -0.000054   0.000030  -0.000001   0.000000
              13         14         15         16         17         18
     1  C    0.234492  -0.043797   0.000499  -0.000186   0.002104   0.000027
     2  C   -0.033536   0.000326  -0.002829   0.000210  -0.003702   0.000121
     3  C    0.003237   0.004825  -0.002695   0.000217   0.002712  -0.000020
     4  C    0.001762  -0.045016   0.316077  -0.027271  -0.037204  -0.041989
     5  C   -0.029301   0.191261  -0.037228   0.005376  -0.009631  -0.002518
     6  H   -0.000038   0.000013  -0.000190  -0.000006   0.000016   0.000001
     7  H   -0.008329   0.000020   0.002245  -0.000201   0.008175  -0.000253
     8  H   -0.039573   0.005216   0.000066   0.000001  -0.000019  -0.000007
     9  H   -0.000064   0.006069  -0.028078  -0.008432   0.004859   0.003935
    10  H    0.002205  -0.028441  -0.004541   0.000354   0.000534   0.012722
    11  O    0.000009  -0.000514  -0.023348   0.000896   0.000273   0.000940
    12  O    0.002471  -0.000016   0.000031  -0.000001   0.000069   0.000000
    13  O    8.193511   0.001539   0.000171   0.000002  -0.000276   0.000026
    14  O    0.001539   8.265142   0.002964  -0.000052  -0.000035   0.000007
    15  C    0.000171   0.002964   4.923319   0.360343   0.353443   0.226418
    16  H    0.000002  -0.000052   0.360343   0.557304  -0.050412  -0.032148
    17  H   -0.000276  -0.000035   0.353443  -0.050412   0.602047  -0.040696
    18  O    0.000026   0.000007   0.226418  -0.032148  -0.040696   8.204942
    19  C   -0.001957  -0.000042  -0.000001   0.000000   0.000001   0.000000
    20  H    0.000182   0.000027   0.000000   0.000000   0.000000   0.000000
    21  H   -0.000009   0.000000   0.000000   0.000000   0.000000   0.000000
    22  H    0.003356  -0.000009   0.000000   0.000000   0.000000   0.000000
    23  C    0.234768   0.000046   0.000547  -0.000040   0.001661  -0.003513
    24  H   -0.030048   0.000001   0.000017   0.000000  -0.000021   0.000026
    25  H   -0.034913  -0.000016  -0.000139   0.000262  -0.002231   0.012213
    26  H   -0.036174  -0.000002  -0.000241   0.000005   0.000029   0.000023
    27  C   -0.000078   0.238013  -0.000185   0.000004  -0.000002   0.000017
    28  H    0.000114  -0.035483   0.000017   0.000000   0.000000  -0.000020
    29  H    0.000014  -0.030889   0.000001   0.000000   0.000000   0.000000
    30  H    0.000009  -0.036324   0.000014   0.000000   0.000000   0.000000
    31  C    0.000000   0.000000  -0.038412  -0.004823  -0.002646   0.234995
    32  H    0.000000   0.000000   0.005455  -0.000063  -0.000164  -0.030820
    33  H   -0.000001   0.000000  -0.007945  -0.002187   0.010313  -0.035086
    34  H    0.000000   0.000000  -0.007439   0.011019  -0.002085  -0.034443
              19         20         21         22         23         24
     1  C   -0.004031  -0.002443   0.000216   0.003342  -0.044236   0.004821
     2  C   -0.047077  -0.002144   0.004997  -0.008574  -0.007594   0.000068
     3  C   -0.004944   0.005624  -0.000102  -0.000389   0.000029  -0.000002
     4  C    0.000038  -0.000003   0.000000  -0.000003   0.000409   0.000009
     5  C    0.000064  -0.000079  -0.000003   0.000096  -0.006370   0.000027
     6  H    0.000526   0.000362  -0.000100   0.000082  -0.000003   0.000000
     7  H    0.005045  -0.000253  -0.000134  -0.000105   0.007787  -0.000191
     8  H    0.008284   0.000884  -0.000074  -0.000947   0.005716  -0.000145
     9  H    0.000000   0.000000   0.000000   0.000000  -0.000011   0.000000
    10  H   -0.000005   0.000000   0.000000   0.000004   0.000483  -0.000087
    11  O    0.000022  -0.000266   0.000001   0.000013   0.000007   0.000000
    12  O    0.232211  -0.035793  -0.030465  -0.032444  -0.000514  -0.000017
    13  O   -0.001957   0.000182  -0.000009   0.003356   0.234768  -0.030048
    14  O   -0.000042   0.000027   0.000000  -0.000009   0.000046   0.000001
    15  C   -0.000001   0.000000   0.000000   0.000000   0.000547   0.000017
    16  H    0.000000   0.000000   0.000000   0.000000  -0.000040   0.000000
    17  H    0.000001   0.000000   0.000000   0.000000   0.001661  -0.000021
    18  O    0.000000   0.000000   0.000000   0.000000  -0.003513   0.000026
    19  C    4.936367   0.361368   0.386428   0.371792   0.000101   0.000005
    20  H    0.361368   0.574597  -0.027295  -0.041593  -0.000004   0.000000
    21  H    0.386428  -0.027295   0.496821  -0.028824   0.000003   0.000000
    22  H    0.371792  -0.041593  -0.028824   0.548356  -0.000180  -0.000005
    23  C    0.000101  -0.000004   0.000003  -0.000180   4.969609   0.385929
    24  H    0.000005   0.000000   0.000000  -0.000005   0.385929   0.495269
    25  H   -0.000005   0.000000   0.000000   0.000011   0.350161  -0.025365
    26  H   -0.000080   0.000005  -0.000001  -0.000024   0.363618  -0.029122
    27  C   -0.000009   0.000002   0.000000  -0.000003  -0.000019   0.000001
    28  H    0.000000   0.000000   0.000000   0.000000   0.000014   0.000001
    29  H    0.000000   0.000000   0.000000   0.000000   0.000000   0.000000
    30  H   -0.000006  -0.000007   0.000000   0.000028  -0.000031  -0.000006
    31  C    0.000000   0.000000   0.000000   0.000000   0.000060   0.000000
    32  H    0.000000   0.000000   0.000000   0.000000   0.000008   0.000000
    33  H    0.000000   0.000000   0.000000   0.000000   0.000318  -0.000007
    34  H    0.000000   0.000000   0.000000   0.000000  -0.000011   0.000000
              25         26         27         28         29         30
     1  C   -0.004547  -0.007954  -0.003017  -0.001660  -0.000084   0.007627
     2  C   -0.000812   0.002974   0.000351  -0.000024   0.000006   0.000023
     3  C    0.000189  -0.000385  -0.000144   0.000014   0.000004  -0.000036
     4  C   -0.003772   0.000112   0.004447   0.000327  -0.000220  -0.000074
     5  C    0.008165  -0.000815  -0.038067  -0.007218   0.005219  -0.006298
     6  H    0.000000   0.000005  -0.000001   0.000000   0.000000   0.000000
     7  H   -0.001454   0.005675  -0.000009   0.000001   0.000000   0.000000
     8  H   -0.000312  -0.000169   0.001479   0.000500  -0.000294   0.000407
     9  H    0.000040  -0.000002  -0.000005  -0.000095  -0.000076   0.000075
    10  H    0.002101   0.000275  -0.004303   0.010832  -0.000036  -0.001593
    11  O   -0.000015   0.000012  -0.000002  -0.000003   0.000003   0.000001
    12  O    0.000048   0.001124  -0.000001   0.000000   0.000000   0.000003
    13  O   -0.034913  -0.036174  -0.000078   0.000114   0.000014   0.000009
    14  O   -0.000016  -0.000002   0.238013  -0.035483  -0.030889  -0.036324
    15  C   -0.000139  -0.000241  -0.000185   0.000017   0.000001   0.000014
    16  H    0.000262   0.000005   0.000004   0.000000   0.000000   0.000000
    17  H   -0.002231   0.000029  -0.000002   0.000000   0.000000   0.000000
    18  O    0.012213   0.000023   0.000017  -0.000020   0.000000   0.000000
    19  C   -0.000005  -0.000080  -0.000009   0.000000   0.000000  -0.000006
    20  H    0.000000   0.000005   0.000002   0.000000   0.000000  -0.000007
    21  H    0.000000  -0.000001   0.000000   0.000000   0.000000   0.000000
    22  H    0.000011  -0.000024  -0.000003   0.000000   0.000000   0.000028
    23  C    0.350161   0.363618  -0.000019   0.000014   0.000000  -0.000031
    24  H   -0.025365  -0.029122   0.000001   0.000001   0.000000  -0.000006
    25  H    0.572739  -0.043906   0.000009  -0.000019   0.000000   0.000016
    26  H   -0.043906   0.574892   0.000000   0.000000   0.000000   0.000002
    27  C    0.000009   0.000000   4.907849   0.371639   0.385736   0.363598
    28  H   -0.000019   0.000000   0.371639   0.566516  -0.028257  -0.044058
    29  H    0.000000   0.000000   0.385736  -0.028257   0.513374  -0.030492
    30  H    0.000016   0.000002   0.363598  -0.044058  -0.030492   0.583820
    31  C   -0.000072  -0.000006   0.000000   0.000001   0.000000   0.000000
    32  H   -0.000058   0.000000   0.000000   0.000000   0.000000   0.000000
    33  H   -0.000684   0.000019   0.000000   0.000000   0.000000   0.000000
    34  H    0.000102   0.000000   0.000000   0.000000   0.000000   0.000000
              31         32         33         34
     1  C   -0.000026  -0.000001   0.000011   0.000000
     2  C    0.000003   0.000000  -0.000010   0.000001
     3  C   -0.000003   0.000000   0.000002   0.000000
     4  C    0.004385  -0.000237   0.000137  -0.000095
     5  C    0.000286   0.000019  -0.000115   0.000032
     6  H    0.000000   0.000000   0.000000   0.000000
     7  H    0.000005   0.000000   0.000015  -0.000002
     8  H    0.000000   0.000000   0.000000   0.000000
     9  H   -0.000075  -0.000003   0.000032  -0.000054
    10  H   -0.000270  -0.000030   0.000055   0.000030
    11  O   -0.000043   0.000000   0.000003  -0.000001
    12  O    0.000000   0.000000   0.000000   0.000000
    13  O    0.000000   0.000000  -0.000001   0.000000
    14  O    0.000000   0.000000   0.000000   0.000000
    15  C   -0.038412   0.005455  -0.007945  -0.007439
    16  H   -0.004823  -0.000063  -0.002187   0.011019
    17  H   -0.002646  -0.000164   0.010313  -0.002085
    18  O    0.234995  -0.030820  -0.035086  -0.034443
    19  C    0.000000   0.000000   0.000000   0.000000
    20  H    0.000000   0.000000   0.000000   0.000000
    21  H    0.000000   0.000000   0.000000   0.000000
    22  H    0.000000   0.000000   0.000000   0.000000
    23  C    0.000060   0.000008   0.000318  -0.000011
    24  H    0.000000   0.000000  -0.000007   0.000000
    25  H   -0.000072  -0.000058  -0.000684   0.000102
    26  H   -0.000006   0.000000   0.000019   0.000000
    27  C    0.000000   0.000000   0.000000   0.000000
    28  H    0.000001   0.000000   0.000000   0.000000
    29  H    0.000000   0.000000   0.000000   0.000000
    30  H    0.000000   0.000000   0.000000   0.000000
    31  C    4.896389   0.386314   0.368296   0.370171
    32  H    0.386314   0.512691  -0.030001  -0.028720
    33  H    0.368296  -0.030001   0.579205  -0.043326
    34  H    0.370171  -0.028720  -0.043326   0.570474
 Mulliken charges:
               1
     1  C    0.108246
     2  C    0.015596
     3  C    0.282592
     4  C    0.043300
     5  C    0.080223
     6  H    0.284389
     7  H    0.242234
     8  H    0.212284
     9  H    0.246097
    10  H    0.211062
    11  O   -0.310484
    12  O   -0.471603
    13  O   -0.463573
    14  O   -0.494831
    15  C   -0.038356
    16  H    0.189829
    17  H    0.162889
    18  O   -0.474900
    19  C   -0.244093
    20  H    0.166828
    21  H    0.198540
    22  H    0.186019
    23  C   -0.258748
    24  H    0.198844
    25  H    0.172262
    26  H    0.170109
    27  C   -0.227299
    28  H    0.166861
    29  H    0.185991
    30  H    0.163303
    31  C   -0.214527
    32  H    0.185611
    33  H    0.160955
    34  H    0.164348
 Sum of Mulliken charges =   1.00000
 Mulliken charges with hydrogens summed into heavy atoms:
               1
     1  C    0.320530
     2  C    0.257830
[...]
 0002937,0.00020296,-0.00006909,0.00006109,0.00011657,-0.00008927,0.000
 01328,0.00000051,0.00001329,-0.00000440,-0.00002065,0.00000015,-0.0000
 0701,-0.00000183,0.00001416,-0.00000404,-0.00010351,0.00017760,-0.0000
 5370,0.00000168,-0.00002032,0.00002931,-0.00000851,-0.00000990,-0.0000
 3100,0.00001270,-0.00003493,-0.00001176,0.05549134,-0.23228666,0.11454
 179,-0.00110931,0.00694041,-0.00198140,-0.06534796,0.26091006,0.000433
 97,-0.00019348,-0.00017519,-0.00004822,0.00002558,-0.00002632,0.000021
 53,0.00004164,0.00000427,0.00043915,-0.00114480,0.00059867,0.00071752,
 -0.00391391,-0.00272709,-0.00000702,-0.00000170,0.00001260,-0.00000526
 ,0.00005851,0.00004006,-0.00021902,-0.00007358,-0.00001283,-0.00000952
 ,0.00003651,-0.00001338,0.00028554,-0.00009183,0.00007052,0.00000753,0
 .00002837,0.00006021,-0.00009406,-0.00003914,-0.00000165,-0.00008628,0
 .00003045,0.00028287,0.00871642,-0.02984911,0.01144367,0.00003595,-0.0
 0003574,-0.00044141,0.00011274,-0.00008469,0.00004192,-0.00001017,0.00
 000436,0.00001156,0.00006038,-0.00000953,0.00004185,0.00002844,-0.0000
 3300,-0.00001754,-0.00000296,0.00000362,0.00000109,-0.00000732,0.00000
 516,0.00000049,-0.00000510,-0.00000027,0.00000251,0.00003174,-0.000017
 59,0.00002685,-0.00000608,-0.00000637,0.00000662,-0.00001428,-0.000006
 70,-0.00002549,-0.00000554,0.00002215,0.00000161,-0.03936650,0.1269178
 9,-0.12675754,-0.00206920,0.01263655,-0.00630750,0.03732709,-0.1194320
 7,0.13191191,0.00027258,0.00029464,-0.00033672,0.00015971,0.00012948,0
 .00006541,-0.00012902,-0.00018908,0.00012398,-0.00021505,0.00016748,-0
 .00010769,0.00065171,-0.00246036,0.00145238,0.00000580,0.00002074,-0.0
 0002184,-0.00000577,-0.00008907,-0.00002768,-0.00010159,0.00003177,0.0
 0013472,0.00007762,0.00000792,-0.00011241,-0.00040493,-0.00002431,-0.0
 0027301,0.00012456,0.00011394,-0.00001920,0.00001507,0.00000327,-0.000
 03155,0.00003661,-0.00011753,-0.00042015,0.00135723,0.00798577,0.00642
 132,0.00003457,0.00002014,0.00013186,-0.00003216,0.00002999,-0.0000121
 3,-0.00001828,0.00002861,-0.00001241,-0.00003815,0.00004533,-0.0000241
 6,0.00000376,0.00000545,0.00004046,-0.00000022,0.00000028,-0.00000610,
 -0.00000098,-0.00000102,-0.00000402,0.00001406,0.00000072,-0.00001039,
 -0.00016503,0.00014862,-0.00016424,-0.00000309,0.00001472,0.00000271,0
 .00003330,-0.00000475,0.00001683,0.00003272,-0.00006538,-0.00000734,-0
 .19449874,-0.05564029,0.11194723,-0.01956172,-0.00953439,0.01677373,0.
 00792934,0.00165849,-0.00623460,0.20439996,0.00028967,-0.00028030,-0.0
 0060337,-0.00006201,0.00031587,0.00018365,0.00024998,0.00020064,-0.000
 29233,0.00039346,-0.00024133,0.00012849,0.00112149,0.00397124,-0.00121
 662,-0.00000141,-0.00002760,0.00000788,-0.00001451,0.00001115,0.000017
 98,-0.00056306,-0.00109074,-0.00063453,-0.00017046,-0.00003412,0.00021
 242,0.00022242,-0.00047364,-0.00001601,-0.00023099,-0.00008286,0.00019
 750,0.00007194,0.00000486,0.00003916,-0.00029236,-0.00020893,0.0001683
 2,0.02172563,0.00098474,-0.02515755,-0.00011555,-0.00017791,-0.0001020
 1,0.00002882,-0.00002256,0.00000758,0.00003795,-0.00004993,0.00001655,
 0.00001511,0.00000476,0.00000263,-0.00002823,0.00000508,-0.00002768,-0
 .00000075,-0.00000251,0.00000053,0.00000392,0.00000361,0.00000668,0.00
 001286,0.00000454,0.00000677,0.00010196,-0.00002319,0.00004717,-0.0000
 2420,0.00001451,-0.00001430,-0.00002799,0.00000543,-0.00000686,-0.0000
 2232,0.00002030,0.00000234,-0.05699539,-0.07688104,0.04881330,-0.00204
 896,0.00048290,0.00350854,-0.02110124,-0.00516357,0.01510204,0.0574365
 6,0.07872702,0.00082250,-0.00085640,0.00050300,-0.00024300,0.00016816,
 0.00000157,0.00023862,0.00022949,-0.00015252,0.00040692,-0.00038573,0.
 00034276,-0.00139352,0.00409741,-0.00105153,-0.00002102,-0.00000688,0.
 00002280,0.00000842,0.00012825,0.00008986,-0.00032216,-0.00060731,-0.0
 0040894,-0.00026764,0.00007856,0.00027370,-0.00006924,-0.00058618,0.00
 025714,-0.00024877,-0.00020209,-0.00001994,-0.00025028,-0.00012559,-0.
 00002333,-0.00025644,-0.00025215,0.00029169,0.01976368,-0.00761822,-0.
 02324026,-0.00020918,-0.00013098,-0.00027480,0.00008916,-0.00007179,0.
 00002281,0.00005422,-0.00006048,0.00003304,0.00015221,-0.00005101,0.00
 004143,0.00010907,-0.00008935,-0.00001791,-0.00000353,-0.00000145,-0.0
 0001347,-0.00001465,0.00001425,0.00000047,0.00000150,0.00000061,0.0000
 1728,0.00000066,0.00008583,-0.00007258,-0.00001259,0.00000493,0.000014
 50,-0.00002331,-0.00000493,-0.00001980,-0.00000189,-0.00000332,-0.0000
 0286,0.11116209,0.04488506,-0.14265857,-0.01241436,-0.00357347,0.01232
 799,0.01231147,0.00528361,-0.00804328,-0.12930200,-0.04039018,0.161789
 90,-0.00034700,-0.00019399,0.00051489,-0.00068729,-0.00015508,-0.00033
 310,-0.00121059,-0.00021157,0.00061316,-0.00429123,-0.00092395,-0.0025
 1628,-0.00028130,0.00105678,0.00011923,0.00007715,0.00017582,-0.000100
 99,-0.00017128,-0.00036258,0.00015066,0.00012641,-0.00001406,-0.000061
 65,-0.00002995,0.00049838,-0.00020073,-0.00066882,0.00055983,0.0006206
 5,0.00283022,0.00045945,0.00039354,0.00098091,0.00005205,-0.00006981,0
 .00054373,-0.00003193,-0.00033915,0.00064478,-0.00130948,-0.00024225,-
 0.03731667,0.01356409,-0.01595443,0.00524252,0.00090725,0.00415317,0.0
 0391048,0.00280990,0.00204589,-0.15137042,0.05326788,-0.03389887,-0.00
 032879,0.00029702,0.00005252,0.00000670,-0.00005657,0.00001193,0.00008
 088,-0.00000908,0.00000258,0.00001436,-0.00006205,-0.00000600,-0.00106
 259,-0.00017615,-0.00003898,0.00029709,0.00004075,-0.00016522,-0.00059
 304,0.00031429,0.00081644,0.00007815,0.00006660,0.00002467,-0.00007577
 ,0.00054138,0.00058824,-0.00003066,-0.00000392,-0.00009803,0.00003341,
 -0.00013441,-0.00005059,0.00004122,-0.00002660,-0.00011417,0.51566829,
 0.00018984,-0.00008676,-0.00062511,0.00065196,0.00051473,0.00037702,0.
 00134934,0.00074676,-0.00106864,-0.00075397,-0.00319505,-0.00085983,0.
 00028585,-0.00072728,-0.00064467,0.00001889,-0.00036087,0.00011845,0.0
 0016090,0.00025249,-0.00020900,-0.00006538,0.00003263,0.00006624,0.000
 22306,0.00005793,0.00004367,0.00023054,-0.00024003,-0.00006140,-0.0036
 5549,0.00058664,-0.00089049,-0.00076882,-0.00008449,0.00010642,-0.0001
 0018,-0.00014371,0.00057926,-0.00048526,0.00101716,0.00032487,-0.01047
 486,0.00767180,-0.00047682,-0.00262084,-0.00010145,-0.00244183,-0.0048
 5552,0.00064249,-0.00346561,0.08601946,-0.13666394,0.01811433,0.000259
 70,-0.00022932,-0.00005856,-0.00000032,0.00004007,-0.00000427,-0.00006
 575,0.00000809,0.00000051,-0.00001537,0.00005121,0.00000700,0.00028926
 ,0.00019139,0.00001621,-0.00012150,-0.00001047,0.00008873,0.00024569,-
 0.00014260,-0.00044470,-0.00010265,-0.00007534,0.00001681,0.00003815,-
 0.00035569,-0.00043264,0.00002275,0.00000915,0.00006630,-0.00002379,0.
 00010294,0.00004260,-0.00003567,0.00001439,0.00008627,0.07466274,0.548
 01747,-0.00021234,-0.00031443,0.00021322,0.00009809,0.00004769,0.00017
 071,0.00004926,0.00017294,-0.00054786,-0.00188925,-0.00229218,-0.00308
 122,0.00015945,-0.00017815,-0.00044691,0.00003095,-0.00018237,0.000034
 29,-0.00013995,-0.00006699,0.00002432,0.00007101,0.00004864,-0.0000065
 8,0.00004474,-0.00008777,-0.00006570,-0.00025194,0.00054085,0.00080260
 ,-0.00155397,0.00054758,-0.00018930,0.00012712,0.00006388,0.00003336,0
 .00005943,0.00016843,-0.00006410,0.00049199,-0.00042096,0.00017760,-0.
 02898610,0.01615528,-0.01618237,-0.00240203,0.00216104,0.00185213,0.00
 249271,-0.00007468,0.00208971,-0.01471027,-0.00444063,-0.07526609,-0.0
 0002895,0.00002917,-0.00000483,-0.00000011,-0.00000525,-0.00000225,0.0
 0000953,0.00000216,0.00000391,-0.00000204,-0.00000794,0.00000300,-0.00
 019332,-0.00012207,-0.00008129,0.00008216,0.00003343,-0.00003879,0.000
 21432,-0.00021765,0.00017400,0.00008043,0.00005577,-0.00000893,-0.0000
 7365,0.00023702,0.00023593,-0.00001053,0.00001108,-0.00004091,0.000012
 67,-0.00004116,-0.00001815,0.00001979,-0.00001243,-0.00003973,-0.00176
 463,0.03630520,0.59808026,0.00000994,-0.00004121,-0.00019144,0.0001705
 8,0.00013180,0.00012089,0.00036020,0.00022065,-0.00034387,-0.00009434,
 -0.00113358,-0.00064297,0.00006557,-0.00023890,-0.00014892,0.00000420,
 -0.00010406,0.00003453,0.00002406,0.00003962,-0.00004411,-0.00001538,0
 .00000913,0.00002025,-0.00001732,0.00002699,-0.00001481,0.00001769,-0.
 00000770,-0.00002321,-0.00106219,0.00017792,-0.00018199,-0.00017484,-0
 .00001308,0.00003140,0.00001418,-0.00000977,0.00017593,-0.00007189,0.0
 0024563,0.00011063,-0.00250937,0.00434922,0.00041222,0.00003956,-0.000
 02841,-0.00038657,-0.00003776,-0.00011735,0.00010599,-0.02472868,-0.00
 854800,-0.02198580,0.00006509,-0.00005680,-0.00001718,-0.00000052,0.00
 000976,-0.00000158,-0.00001423,0.00000214,0.00000051,-0.00000450,0.000
 01235,0.00000313,-0.00001412,0.00000795,-0.00000268,-0.00002629,-0.000
 00226,0.00002341,0.00001819,-0.00001798,-0.00009899,0.00002919,0.00000
 971,0.00000199,-0.00001528,-0.00009029,-0.00011733,0.00001256,0.000009
 18,0.00002009,-0.00000264,0.00002335,0.00001373,-0.00000656,0.00000581
 ,0.00002033,-0.13140082,-0.07648419,-0.09470997,0.15132596,0.00001703,
 0.00004675,0.00005890,-0.00007284,-0.00008922,-0.00005960,-0.00014691,
 -0.00012961,0.00021943,0.00037369,0.00095140,0.00039946,-0.00004098,0.
 00012418,0.00008270,-0.00001059,0.00008078,-0.00002016,-0.00000523,-0.
 00001605,0.00002211,0.00000203,-0.00000710,-0.00000623,-0.00006432,0.0
 0004360,0.00001428,0.00000109,-0.00001893,-0.00004436,0.00071301,-0.00
 020264,0.00017256,0.00006052,0.00000802,-0.00001555,-0.00001202,0.0000
 0298,-0.00006042,-0.00000527,-0.00005916,-0.00003251,0.00392298,-0.001
 79206,0.00147034,-0.00004441,-0.00012364,0.00015086,0.00047256,0.00017
 129,0.00008456,0.01860382,0.01077176,0.01838435,-0.00002183,0.00001822
 ,0.00000621,-0.00000053,-0.00000291,0.00000052,0.00000525,-0.00000103,
 -0.00000079,0.00000175,-0.00000366,-0.00000099,0.00001539,-0.00001287,
 0.00000878,-0.00000974,0.00000086,0.00000116,0.00000495,0.00000084,-0.
 00001907,0.00000754,0.00000544,-0.00000478,0.00000773,0.00001660,0.000
 02624,-0.00000320,-0.00000409,-0.00000759,0.00000069,-0.00000629,-0.00
 000325,-0.00000180,-0.00000063,-0.00000411,-0.08631871,-0.12762969,-0.
 09936889,0.07951823,0.13074321,0.00002181,0.00000746,-0.00006703,0.000
 07590,0.00003740,0.00004354,0.00016602,0.00006416,-0.00011981,-0.00014
 393,-0.00042985,0.00025406,0.00000594,-0.00005995,-0.00009216,-0.00000
 432,-0.00003167,0.00001378,-0.00000230,0.00002835,-0.00001359,-0.00001
 016,0.00000196,0.00000651,0.00001804,-0.00003163,-0.00000449,0.0000257
 2,-0.00003214,-0.00003654,-0.00039695,0.00003794,-0.00006536,-0.000087
 72,-0.00000694,0.00001006,-0.00002272,-0.00000708,0.00004992,-0.000066
 45,0.00016544,0.00005516,-0.00000481,0.00171799,0.00126676,0.00014759,
 0.00009944,0.00036028,-0.00032188,-0.00022717,-0.00006318,-0.00697992,
 -0.00049510,-0.00487168,0.00003290,-0.00002757,-0.00000548,-0.00000041
 ,0.00000511,-0.00000127,-0.00000694,0.00000064,-0.00000017,-0.00000168
 ,0.00000575,0.00000092,0.00004120,0.00001952,-0.00000388,-0.00000633,-
 0.00000241,0.00000704,0.00001331,0.00000106,-0.00001728,-0.00000234,-0
 .00000575,-0.00000166,-0.00000850,-0.00005128,-0.00006911,0.00000507,0
 .00000169,0.00001470,-0.00000413,0.00001564,0.00000741,-0.00000064,0.0
 0000469,0.00001241,-0.10007673,-0.09245675,-0.17141001,0.11385196,0.09
 900805,0.17907198,-0.00000798,0.00004194,-0.00011193,0.00004117,0.0000
 2625,0.00005226,0.00008064,0.00004948,-0.00015495,0.00070627,0.0000154
 3,0.00036057,0.00002456,-0.00011204,0.00007840,-0.00001721,-0.00002568
 ,0.00001747,-0.00001132,-0.00000310,0.00000193,-0.00001430,-0.00000491
 ,0.00001200,-0.00005517,-0.00020408,0.00001198,0.00008172,-0.00006079,
 -0.00011639,-0.00049411,-0.00011046,-0.00005606,-0.00005046,-0.0000185
 7,0.00000595,0.00004435,-0.00004115,0.00005423,-0.00004305,0.00009372,
 0.00000477,0.00515937,0.00423165,0.00143724,-0.00069692,-0.00026444,-0
 .00022818,0.00036003,-0.00161673,0.00088911,0.00022956,0.03425072,-0.0
 1755363,0.00002042,-0.00001433,-0.00000407,-0.00000045,0.00000288,-0.0
 0000015,-0.00000331,-0.00000019,-0.00000013,-0.00000120,0.00000365,0.0
 0000025,-0.00003730,0.00001957,-0.00000963,0.00001507,-0.00000286,0.00
 000146,0.00003824,-0.00008111,-0.00002760,-0.00000882,0.00000152,0.000
 00429,0.00000788,-0.00004262,-0.00004518,0.00000210,-0.00000107,0.0000
 0859,-0.00000369,0.00000950,0.00000331,-0.00000237,0.00000362,0.000007
 91,-0.08589815,-0.08151981,0.03739335,-0.00438882,-0.01411564,0.008794
 05,0.08850794,-0.00003628,-0.00005086,0.00026995,-0.00012221,-0.000070
 36,-0.00012070,-0.00031753,-0.00012564,0.00023740,-0.00038489,0.000434
 79,-0.00045639,-0.00006176,0.00018490,-0.00000039,0.00001235,0.0000563
 4,-0.00002798,-0.00001572,-0.00005600,0.00005609,0.00002557,0.00000358
 ,-0.00002756,-0.00016302,0.00016224,-0.00010632,-0.00013503,0.00009385
 ,0.00018800,0.00073404,0.00001360,0.00006929,0.00017842,0.00002452,-0.
 00002131,-0.00006589,0.00009270,-0.00018582,0.00015322,-0.00025054,-0.
 00004871,-0.00243367,0.00003397,-0.00339736,0.00019244,0.00014638,0.00
 047141,0.00148593,0.00082097,0.00115951,0.00994907,-0.02404996,0.01161
 343,-0.00005653,0.00005063,0.00001527,0.00000150,-0.00000896,-0.000000
 39,0.00001442,-0.00000183,0.00000053,0.00000369,-0.00001231,-0.0000013
 8,0.00005699,-0.00004390,-0.00002264,0.00001286,0.00000063,-0.00001744
 ,-0.00019924,0.00006743,0.00003961,0.00000903,0.00001900,-0.00000092,-
 0.00002858,0.00009833,0.00011568,-0.00000458,0.00000042,-0.00001415,0.
 00000636,-0.00002504,-0.00001068,0.00001421,-0.00000400,-0.00002204,-0
 .07710953,-0.23073880,0.08480518,-0.00630872,-0.01144341,0.00670237,0.
 07406617,0.25757224,0.00001766,0.00004037,-0.00000813,0.00000122,0.000
 01327,0.00001452,0.00002739,0.00002820,-0.00007374,0.00005856,-0.00022
 087,0.00012672,0.00002723,-0.00003530,0.00004534,-0.00000747,-0.000009
 91,0.00000550,-0.00002711,0.00000063,0.00001149,-0.00000618,-0.0000042
 9,-0.00000148,0.00006759,-0.00012180,0.00001989,0.00004822,-0.00004284
 ,-0.00004985,-0.00023361,0.00001440,-0.00006683,0.00000678,-0.00002090
 ,-0.00000197,-0.00002553,-0.00002026,-0.00000530,-0.00002313,0.0000073
 2,-0.00002209,0.00186029,0.00174439,0.00079369,0.00017650,0.00001826,-
 0.00034714,-0.00042011,-0.00038843,-0.00011271,-0.00571532,0.00787663,
 -0.00069686,-0.00000340,0.00000817,0.00000152,-0.00000013,-0.00000109,
 0.00000126,0.00000042,-0.00000111,-0.00000045,0.00000118,-0.00000097,-
 0.00000118,0.00004317,0.00004223,0.00000275,0.00000194,-0.00000878,-0.
 00000521,-0.00011941,-0.00004450,-0.00006396,-0.00003606,-0.00002569,0
 .00001124,0.00001316,-0.00000708,-0.00000752,-0.00000153,-0.00000163,0
 .00000030,-0.00000052,0.00000145,-0.00000046,-0.00000123,-0.00000122,0
 .00000118,0.03666560,0.08487895,-0.09643570,-0.00669617,-0.01870216,0.
 01107259,-0.03641377,-0.09854012,0.09567586,0.00007199,0.00006565,-0.0
 0009370,0.00006602,0.00006798,-0.00001730,0.00010643,0.00004913,-0.000
 02016,0.00051599,-0.00013249,0.00006602,0.00013138,-0.00013787,0.00026
 256,-0.00000874,-0.00001814,0.00001354,0.00006652,0.00003029,-0.000005
 76,-0.00003193,-0.00000850,0.00000534,-0.00002212,-0.00001393,0.000019
 54,0.00007698,-0.00020094,-0.00029246,-0.00031458,-0.00001018,-0.00013
 474,-0.00013936,-0.00002783,-0.00000091,-0.00008586,-0.00000523,0.0000
 3122,-0.00019218,0.00021619,-0.00008312,0.00294011,0.00234634,0.005849
 59,0.00042666,-0.00052977,-0.00125228,-0.00048077,-0.00043489,-0.00033
 797,-0.02826938,0.01630389,0.01511037,0.00004930,-0.00004249,-0.000002
 24,0.00000044,0.00000825,-0.00000175,-0.00001140,-0.00000008,-0.000000
 59,-0.00000107,0.00000884,-0.00000047,0.00018192,0.00000313,0.00002508
 ,-0.00005142,-0.00001254,0.00002740,0.00005599,0.00003342,-0.00017952,
 -0.00002410,-0.00001093,0.00000378,0.00003292,-0.00011388,-0.00010797,
 0.00000422,-0.00000459,0.00002066,-0.00000717,0.00002181,0.00000665,-0
 .00000618,0.00000485,0.00001896,-0.11481194,0.01750123,0.10549202,0.01
 242861,-0.00285421,-0.01505067,-0.00358469,0.00052693,0.01071378,0.130
 88744,-0.00005666,-0.00004580,0.00013727,-0.00007747,-0.00005307,-0.00
 003448,-0.00016063,-0.00006947,0.00007656,-0.00040455,0.00014494,-0.00
 030262,-0.00006820,0.00009777,-0.00012797,0.00000584,0.00002186,-0.000
 01456,-0.00002748,-0.00003359,0.00002256,0.00002381,0.00000547,-0.0000
 1058,0.00001600,-0.00000371,-0.00002390,-0.00007535,0.00015671,0.00021
 084,0.00029779,0.00002325,0.00007745,0.00012831,0.00002364,-0.00000691
 ,0.00002368,0.00003845,-0.00007416,0.00016281,-0.00024224,0.00003452,-
 0.00285741,-0.00068046,-0.00202319,0.00025585,0.00024550,0.00087211,0.
 00039063,0.00011006,0.00047176,0.02352148,-0.00950832,-0.01568382,-0.0
 0004651,0.00003946,0.00000583,0.00000036,-0.00000729,0.00000108,0.0000
 1012,-0.00000027,0.00000086,0.00000181,-0.00000885,-0.00000051,-0.0000
 8293,-0.00003751,-0.00003250,0.00003620,0.00000761,-0.00002113,-0.0000
 5591,0.00000103,0.00015400,0.00002900,0.00001838,-0.00000263,-0.000022
 20,0.00010101,0.00010413,-0.00000445,0.00000257,-0.00002115,0.00000808
 ,-0.00002264,-0.00000800,0.00000556,-0.00000617,-0.00001880,0.01782547
 ,-0.05917183,-0.03355180,0.00840289,-0.00144292,-0.01405939,-0.0145765
 1,0.00700508,0.02352467,-0.03262943,0.06329135,-0.00002907,0.00000412,
 -0.00000813,-0.00005862,-0.00001228,-0.00001162,-0.00007942,-0.0000358
 0,0.00006371,-0.00019297,0.00026982,0.00028891,-0.00012362,0.00018878,
 0.00002611,0.00000432,0.00002281,-0.00001010,-0.00001058,-0.00002479,0
 .00000051,0.00000322,-0.00000468,0.00000081,-0.00001062,0.00002296,-0.
 00002215,-0.00006087,0.00003385,-0.00004541,0.00030143,-0.00000469,0.0
 0002817,0.00007177,-0.00000062,-0.00000567,0.00007245,-0.00003667,0.00
 001590,-0.00001314,-0.00006343,-0.00002199,-0.00159307,0.00101706,0.00
 383706,0.00217726,-0.00019701,0.00038211,0.00011947,0.00013374,-0.0005
 5996,-0.00589782,-0.00010571,0.01200069,-0.00002645,0.00002241,0.00000
 169,0.,-0.00000472,0.00000196,0.00000618,-0.00000062,-0.00000034,0.000
 00111,-0.00000411,-0.00000016,-0.00009009,0.00001794,0.00001326,0.0000
 0584,-0.00000183,-0.00000494,0.00001238,0.00000771,0.00000744,0.000002
 66,-0.00000054,0.00000162,-0.00001248,0.00001796,0.00001021,0.00000207
 ,0.00000018,-0.00000452,0.00000290,-0.00000715,0.00000116,-0.00000089,
 0.00000084,-0.00000402,0.10925844,-0.03709852,-0.23996434,0.01066060,-
 0.00176005,-0.01540442,0.00558253,-0.00272142,-0.00988327,-0.12008489,
 0.04032447,0.24926973\\-0.00000031,0.00000362,-0.00000501,0.00000172,-
 0.00000055,-0.00000569,0.00000226,0.00000352,-0.00000217,0.00000291,-0
 .00000470,0.00000118,0.00000080,-0.00000012,0.00000130,0.00000702,-0.0
 0000144,-0.00000479,-0.00000229,0.00000080,0.00000144,0.00000106,0.000
 00425,-0.00000673,0.00000778,-0.00000427,0.00000304,-0.00000061,-0.000
 00149,0.00000198,0.00000863,-0.00000171,-0.00000004,-0.00000305,0.0000
 0375,-0.00000735,-0.00000485,0.00000466,-0.00000054,0.00000683,-0.0000
 0059,-0.00000428,0.00000209,-0.00000574,0.00000762,0.00000407,-0.00000
 648,0.00000841,-0.00000108,-0.00000230,0.00000679,0.00000086,-0.000005
 46,0.00000969,0.00000042,0.00000711,-0.00000956,0.00000289,0.00000507,
 -0.00001216,-0.00000137,0.00000737,-0.00001270,-0.00000345,0.00000744,
 -0.00001230,-0.00000849,0.00000319,0.00000048,-0.00001351,0.00000361,0
 .00000124,-0.00000665,0.00000062,0.00000300,-0.00000920,0.00000220,0.0
 0000236,0.00000490,0.,-0.00000554,0.00000328,0.00000016,-0.00000266,0.
 00000802,0.00000107,-0.00000774,0.00000240,0.00000368,-0.00000772,-0.0
 0000271,-0.00000658,0.00001392,-0.00000388,-0.00000667,0.00001530,-0.0
 0000633,-0.00000531,0.00001379,-0.00000016,-0.00000873,0.00001545\\\@


 SIC AS THE CAWSE OF EWERY THING IS, SIC WILBE THE EFFECT.
 -- PROVERBS AND REASONS OF THE YEAR 1585
           AS REPRINTED IN PAISLEY MAGAZINE 1828.
 Job cpu time:       0 days  3 hours 26 minutes 22.9 seconds.
 Elapsed time:       0 days  0 hours 52 minutes 19.5 seconds.
 File lengths (MBytes):  RWF=    375 Int=      0 D2E=      0 Chk=     16 Scr=      1
 Normal termination of Gaussian 16 at Fri May 24 09:31:28 2019.
