 Entering Gaussian System, Link 0=g16
 Input=clay-glucose_cation-148-b3lyp_d3bj-631gd-pcm_thf.gjf
 Output=clay-glucose_cation-148-b3lyp_d3bj-631gd-pcm_thf.out
 Initial command:
 /n/sw/g16_nehalem/g16/l1.exe "/scratch/Gau-25775.inp" -scrdir="/scratch/"
 Entering Link 1 = /n/sw/g16_nehalem/g16/l1.exe PID=     25780.
  
 Copyright (c) 1988,1990,1992,1993,1995,1998,2003,2009,2016,
            Gaussian, Inc.  All Rights Reserved.
  
 This is part of the Gaussian(R) 16 program.  It is based on
 the Gaussian(R) 09 system (copyright 2009, Gaussian, Inc.),
 the Gaussian(R) 03 system (copyright 2003, Gaussian, Inc.),
 the Gaussian(R) 98 system (copyright 1998, Gaussian, Inc.),
 the Gaussian(R) 94 system (copyright 1995, Gaussian, Inc.),
 the Gaussian 92(TM) system (copyright 1992, Gaussian, Inc.),
 the Gaussian 90(TM) system (copyright 1990, Gaussian, Inc.),
 the Gaussian 88(TM) system (copyright 1988, Gaussian, Inc.),
 the Gaussian 86(TM) system (copyright 1986, Carnegie Mellon
 University), and the Gaussian 82(TM) system (copyright 1983,
 Carnegie Mellon University). Gaussian is a federally registered
 trademark of Gaussian, Inc.
  
 This software contains proprietary and confidential information,
 including trade secrets, belonging to Gaussian, Inc.
  
 This software is provided under written license and may be
 used, copied, transmitted, or stored only in accord with that
 written license.
  
 The following legend is applicable only to US Government
 contracts under FAR:
  
                    RESTRICTED RIGHTS LEGEND
  
 Use, reproduction and disclosure by the US Government is
 subject to restrictions as set forth in subparagraphs (a)
 and (c) of the Commercial Computer Software - Restricted
 Rights clause in FAR 52.227-19.
  
 Gaussian, Inc.
 340 Quinnipiac St., Bldg. 40, Wallingford CT 06492
  
  
 ---------------------------------------------------------------
 Warning -- This program may not be used in any manner that
 competes with the business of Gaussian, Inc. or will provide
 assistance to any competitor of Gaussian, Inc.  The licensee
 of this program is prohibited from giving any competitor of
 Gaussian, Inc. access to this program.  By using this program,
 the user acknowledges that Gaussian, Inc. is engaged in the
 business of creating and licensing software in the field of
 computational chemistry and represents and warrants to the
 licensee that it is not a competitor of Gaussian, Inc. and that
 it will not use this program in any manner prohibited above.
 ---------------------------------------------------------------
  

 Cite this work as:
 Gaussian 16, Revision A.03,
 M. J. Frisch, G. W. Trucks, H. B. Schlegel, G. E. Scuseria, 
 M. A. Robb, J. R. Cheeseman, G. Scalmani, V. Barone, 
 G. A. Petersson, H. Nakatsuji, X. Li, M. Caricato, A. V. Marenich, 
 J. Bloino, B. G. Janesko, R. Gomperts, B. Mennucci, H. P. Hratchian, 
 J. V. Ortiz, A. F. Izmaylov, J. L. Sonnenberg, D. Williams-Young, 
 F. Ding, F. Lipparini, F. Egidi, J. Goings, B. Peng, A. Petrone, 
 T. Henderson, D. Ranasinghe, V. G. Zakrzewski, J. Gao, N. Rega, 
 G. Zheng, W. Liang, M. Hada, M. Ehara, K. Toyota, R. Fukuda, 
 J. Hasegawa, M. Ishida, T. Nakajima, Y. Honda, O. Kitao, H. Nakai, 
 T. Vreven, K. Throssell, J. A. Montgomery, Jr., J. E. Peralta, 
 F. Ogliaro, M. J. Bearpark, J. J. Heyd, E. N. Brothers, K. N. Kudin, 
 V. N. Staroverov, T. A. Keith, R. Kobayashi, J. Normand, 
 K. Raghavachari, A. P. Rendell, J. C. Burant, S. S. Iyengar, 
 J. Tomasi, M. Cossi, J. M. Millam, M. Klene, C. Adamo, R. Cammi, 
 J. W. Ochterski, R. L. Martin, K. Morokuma, O. Farkas, 
 J. B. Foresman, and D. J. Fox, Gaussian, Inc., Wallingford CT, 2016.
 
 ******************************************
 Gaussian 16:  ES64L-G16RevA.03 25-Dec-2016
                24-May-2019 
 ******************************************
 %nprocshared=4
 Will use up to    4 processors via shared memory.
 %mem=3GB
 -------------------------------------------------------------------
 #p b3lyp 6-31g* opt freq=noraman scrf=(pcm,solvent=tetrahydrofuran)
 -------------------------------------------------------------------
 1/18=20,19=15,26=3,38=1/1,3;
 2/9=110,12=2,17=6,18=5,40=1/2;
 3/5=1,6=6,7=1,11=2,25=1,30=1,70=2201,71=1,72=20,74=-5/1,2,3;
 4//1;
 5/5=2,38=5,53=20/2;
 6/7=2,8=2,9=2,10=2,28=1/1;
 7//1,2,3,16;
 1/18=20,19=15,26=3/3(2);
 2/9=110/2;
 99//99;
 2/9=110/2;
 3/5=1,6=6,7=1,11=2,25=1,30=1,70=2205,71=1,72=20,74=-5/1,2,3;
 4/5=5,16=3,69=1/1;
 5/5=2,38=5,53=20/2;
 7//1,2,3,16;
 1/18=20,19=15,26=3/3(-5);
 2/9=110/2;
 6/7=2,8=2,9=2,10=2,19=2,28=1/1;
 99/9=1/99;
 Leave Link    1 at Fri May 24 08:31:52 2019, MaxMem=   402653184 cpu:               0.3 elap:               0.1
 (Enter /n/sw/g16_nehalem/g16/l101.exe)
 -----
 title
 -----
 Symbolic Z-matrix:
 Charge =  1 Multiplicity = 1
 6                    -1.08756   0.48967  -0.48123 
 6                    -1.46     -0.93722   0.00363 
 6                    -0.52215  -1.96365  -0.52569 
 6                     1.26459  -0.37996  -1.04187 
 6                     0.43396   0.72916  -0.36963 
 1                    -0.84866  -3.00293  -0.58488 
 1                    -1.33038  -1.00346   1.10161 
 1                    -1.3596    0.5472   -1.53963 
 1                     1.30168  -0.21117  -2.11932 
 1                     0.7399    0.79902   0.68144 
 8                     0.63607  -1.75009  -0.95246 
 8                    -2.73757  -1.35122  -0.3987 
 8                    -1.8737    1.48416   0.13783 
 8                     0.82991   1.87832  -1.09126 
 6                     2.65797  -0.55324  -0.47179 
 1                     3.19258   0.39595  -0.63066 
 1                     3.19132  -1.34166  -1.02245 
 8                     2.52714  -0.87056   0.89435 
 6                    -3.78369  -1.19688   0.57155 
 1                    -3.53665  -1.71826   1.5043 
 1                    -3.97685  -0.1383    0.76898 
 1                    -4.66902  -1.65298   0.12699 
 6                    -1.74415   1.67369   1.54943 
 1                    -2.46603   2.45089   1.80454 
 1                    -1.99221   0.76883   2.11836 
 1                    -0.74335   2.01246   1.83675 
 6                     0.86951   3.10559  -0.35888 
 1                    -0.13761   3.45876  -0.11707 
 1                     1.45762   2.9973    0.56162 
 1                     1.35925   3.82911  -1.01339 
 6                     3.78199  -1.00091   1.55539 
 1                     3.56467  -1.23725   2.59862 
 1                     4.38009  -1.81059   1.11543 
 1                     4.35565  -0.06525   1.50522 
 
 ITRead=  0  0  0  0  0  0  0  0  0  0  0  0  0  0  0  0  0  0  0  0
 ITRead=  0  0  0  0  0  0  0  0  0  0  0  0  0  0
 MicOpt= -1 -1 -1 -1 -1 -1 -1 -1 -1 -1 -1 -1 -1 -1 -1 -1 -1 -1 -1 -1
 MicOpt= -1 -1 -1 -1 -1 -1 -1 -1 -1 -1 -1 -1 -1 -1
 NAtoms=     34 NQM=       34 NQMF=       0 NMMI=      0 NMMIF=      0
                NMic=       0 NMicF=      0.
                    Isotopes and Nuclear Properties:
 (Nuclear quadrupole moments (NQMom) in fm**2, nuclear magnetic moments (NMagM)
  in nuclear magnetons)

  Atom         1           2           3           4           5           6           7           8           9          10
 IAtWgt=          12          12          12          12          12           1           1           1           1           1
 AtmWgt=  12.0000000  12.0000000  12.0000000  12.0000000  12.0000000   1.0078250   1.0078250   1.0078250   1.0078250   1.0078250
 NucSpn=           0           0           0           0           0           1           1           1           1           1
 AtZEff=   0.0000000   0.0000000   0.0000000   0.0000000   0.0000000   0.0000000   0.0000000   0.0000000   0.0000000   0.0000000
 NQMom=    0.0000000   0.0000000   0.0000000   0.0000000   0.0000000   0.0000000   0.0000000   0.0000000   0.0000000   0.0000000
 NMagM=    0.0000000   0.0000000   0.0000000   0.0000000   0.0000000   2.7928460   2.7928460   2.7928460   2.7928460   2.7928460
 AtZNuc=   6.0000000   6.0000000   6.0000000   6.0000000   6.0000000   1.0000000   1.0000000   1.0000000   1.0000000   1.0000000

  Atom        11          12          13          14          15          16          17          18          19          20
 IAtWgt=          16          16          16          16          12           1           1          16          12           1
 AtmWgt=  15.9949146  15.9949146  15.9949146  15.9949146  12.0000000   1.0078250   1.0078250  15.9949146  12.0000000   1.0078250
 NucSpn=           0           0           0           0           0           1           1           0           0           1
 AtZEff=   0.0000000   0.0000000   0.0000000   0.0000000   0.0000000   0.0000000   0.0000000   0.0000000   0.0000000   0.0000000
 NQMom=    0.0000000   0.0000000   0.0000000   0.0000000   0.0000000   0.0000000   0.0000000   0.0000000   0.0000000   0.0000000
 NMagM=    0.0000000   0.0000000   0.0000000   0.0000000   0.0000000   2.7928460   2.7928460   0.0000000   0.0000000   2.7928460
 AtZNuc=   8.0000000   8.0000000   8.0000000   8.0000000   6.0000000   1.0000000   1.0000000   8.0000000   6.0000000   1.0000000

  Atom        21          22          23          24          25          26          27          28          29          30
 IAtWgt=           1           1          12           1           1           1          12           1           1           1
 AtmWgt=   1.0078250   1.0078250  12.0000000   1.0078250   1.0078250   1.0078250  12.0000000   1.0078250   1.0078250   1.0078250
 NucSpn=           1           1           0           1           1           1           0           1           1           1
 AtZEff=   0.0000000   0.0000000   0.0000000   0.0000000   0.0000000   0.0000000   0.0000000   0.0000000   0.0000000   0.0000000
 NQMom=    0.0000000   0.0000000   0.0000000   0.0000000   0.0000000   0.0000000   0.0000000   0.0000000   0.0000000   0.0000000
 NMagM=    2.7928460   2.7928460   0.0000000   2.7928460   2.7928460   2.7928460   0.0000000   2.7928460   2.7928460   2.7928460
 AtZNuc=   1.0000000   1.0000000   6.0000000   1.0000000   1.0000000   1.0000000   6.0000000   1.0000000   1.0000000   1.0000000

  Atom        31          32          33          34
 IAtWgt=          12           1           1           1
 AtmWgt=  12.0000000   1.0078250   1.0078250   1.0078250
 NucSpn=           0           1           1           1
 AtZEff=   0.0000000   0.0000000   0.0000000   0.0000000
 NQMom=    0.0000000   0.0000000   0.0000000   0.0000000
 NMagM=    0.0000000   2.7928460   2.7928460   2.7928460
 AtZNuc=   6.0000000   1.0000000   1.0000000   1.0000000
 Leave Link  101 at Fri May 24 08:31:52 2019, MaxMem=   402653184 cpu:               0.9 elap:               0.3
 (Enter /n/sw/g16_nehalem/g16/l103.exe)

 GradGradGradGradGradGradGradGradGradGradGradGradGradGradGradGradGradGrad
 Berny optimization.
 Initialization pass.
                           ----------------------------
                           !    Initial Parameters    !
                           ! (Angstroms and Degrees)  !
 --------------------------                            --------------------------
 ! Name  Definition              Value          Derivative Info.                !
 --------------------------------------------------------------------------------
 ! R1    R(1,2)                  1.5524         estimate D2E/DX2                !
 ! R2    R(1,5)                  1.5443         estimate D2E/DX2                !
 ! R3    R(1,8)                  1.0943         estimate D2E/DX2                !
 ! R4    R(1,13)                 1.4108         estimate D2E/DX2                !
 ! R5    R(2,3)                  1.4877         estimate D2E/DX2                !
 ! R6    R(2,7)                  1.1076         estimate D2E/DX2                !
 ! R7    R(2,12)                 1.4019         estimate D2E/DX2                !
 ! R8    R(3,6)                  1.091          estimate D2E/DX2                !
 ! R9    R(3,11)                 1.2527         estimate D2E/DX2                !
 ! R10   R(4,5)                  1.5401         estimate D2E/DX2                !
 ! R11   R(4,9)                  1.0912         estimate D2E/DX2                !
 ! R12   R(4,11)                 1.5101         estimate D2E/DX2                !
 ! R13   R(4,15)                 1.5154         estimate D2E/DX2                !
 ! R14   R(5,10)                 1.0969         estimate D2E/DX2                !
 ! R15   R(5,14)                 1.4135         estimate D2E/DX2                !
 ! R16   R(12,19)                1.4351         estimate D2E/DX2                !
 ! R17   R(13,23)                1.4301         estimate D2E/DX2                !
 ! R18   R(14,27)                1.4297         estimate D2E/DX2                !
 ! R19   R(15,16)                1.1009         estimate D2E/DX2                !
 ! R20   R(15,17)                1.0997         estimate D2E/DX2                !
 ! R21   R(15,18)                1.4086         estimate D2E/DX2                !
 ! R22   R(18,31)                1.4243         estimate D2E/DX2                !
 ! R23   R(19,20)                1.0968         estimate D2E/DX2                !
 ! R24   R(19,21)                1.094          estimate D2E/DX2                !
 ! R25   R(19,22)                1.0906         estimate D2E/DX2                !
 ! R26   R(23,24)                1.091          estimate D2E/DX2                !
 ! R27   R(23,25)                1.0973         estimate D2E/DX2                !
 ! R28   R(23,26)                1.095          estimate D2E/DX2                !
 ! R29   R(27,28)                1.0943         estimate D2E/DX2                !
 ! R30   R(27,29)                1.0977         estimate D2E/DX2                !
 ! R31   R(27,30)                1.0917         estimate D2E/DX2                !
 ! R32   R(31,32)                1.0915         estimate D2E/DX2                !
 ! R33   R(31,33)                1.0986         estimate D2E/DX2                !
 ! R34   R(31,34)                1.0987         estimate D2E/DX2                !
 ! A1    A(2,1,5)              110.8766         estimate D2E/DX2                !
 ! A2    A(2,1,8)              106.9032         estimate D2E/DX2                !
 ! A3    A(2,1,13)             112.1603         estimate D2E/DX2                !
 ! A4    A(5,1,8)              107.8589         estimate D2E/DX2                !
 ! A5    A(5,1,13)             114.0794         estimate D2E/DX2                !
 ! A6    A(8,1,13)             104.408          estimate D2E/DX2                !
 ! A7    A(1,2,3)              111.827          estimate D2E/DX2                !
 ! A8    A(1,2,7)              109.665          estimate D2E/DX2                !
 ! A9    A(1,2,12)             113.606          estimate D2E/DX2                !
 ! A10   A(3,2,7)              103.7487         estimate D2E/DX2                !
 ! A11   A(3,2,12)             105.582          estimate D2E/DX2                !
 ! A12   A(7,2,12)             111.9302         estimate D2E/DX2                !
 ! A13   A(2,3,6)              119.2017         estimate D2E/DX2                !
 ! A14   A(2,3,11)             125.9052         estimate D2E/DX2                !
 ! A15   A(6,3,11)             114.875          estimate D2E/DX2                !
 ! A16   A(5,4,9)              109.7497         estimate D2E/DX2                !
 ! A17   A(5,4,11)             113.7714         estimate D2E/DX2                !
 ! A18   A(5,4,15)             114.4584         estimate D2E/DX2                !
 ! A19   A(9,4,11)             102.2962         estimate D2E/DX2                !
 ! A20   A(9,4,15)             110.9695         estimate D2E/DX2                !
 ! A21   A(11,4,15)            104.873          estimate D2E/DX2                !
 ! A22   A(1,5,4)              112.8394         estimate D2E/DX2                !
 ! A23   A(1,5,10)             110.7274         estimate D2E/DX2                !
 ! A24   A(1,5,14)             111.4175         estimate D2E/DX2                !
 ! A25   A(4,5,10)             108.2815         estimate D2E/DX2                !
 ! A26   A(4,5,14)             102.2134         estimate D2E/DX2                !
 ! A27   A(10,5,14)            111.0554         estimate D2E/DX2                !
 ! A28   A(3,11,4)             124.0346         estimate D2E/DX2                !
 ! A29   A(2,12,19)            116.0078         estimate D2E/DX2                !
 ! A30   A(1,13,23)            118.4284         estimate D2E/DX2                !
 ! A31   A(5,14,27)            116.3654         estimate D2E/DX2                !
 ! A32   A(4,15,16)            107.0753         estimate D2E/DX2                !
 ! A33   A(4,15,17)            109.8499         estimate D2E/DX2                !
 ! A34   A(4,15,18)            107.7703         estimate D2E/DX2                !
 ! A35   A(16,15,17)           108.0813         estimate D2E/DX2                !
 ! A36   A(16,15,18)           112.2893         estimate D2E/DX2                !
 ! A37   A(17,15,18)           111.6655         estimate D2E/DX2                !
 ! A38   A(15,18,31)           112.8866         estimate D2E/DX2                !
 ! A39   A(12,19,20)           111.079          estimate D2E/DX2                !
 ! A40   A(12,19,21)           110.7797         estimate D2E/DX2                !
 ! A41   A(12,19,22)           105.7339         estimate D2E/DX2                !
 ! A42   A(20,19,21)           110.2593         estimate D2E/DX2                !
 ! A43   A(20,19,22)           109.3112         estimate D2E/DX2                !
 ! A44   A(21,19,22)           109.5661         estimate D2E/DX2                !
 ! A45   A(13,23,24)           105.3835         estimate D2E/DX2                !
 ! A46   A(13,23,25)           112.4584         estimate D2E/DX2                !
 ! A47   A(13,23,26)           112.5071         estimate D2E/DX2                !
 ! A48   A(24,23,25)           108.4601         estimate D2E/DX2                !
 ! A49   A(24,23,26)           108.8446         estimate D2E/DX2                !
 ! A50   A(25,23,26)           109.0095         estimate D2E/DX2                !
 ! A51   A(14,27,28)           111.3911         estimate D2E/DX2                !
 ! A52   A(14,27,29)           111.0829         estimate D2E/DX2                !
 ! A53   A(14,27,30)           105.9158         estimate D2E/DX2                !
 ! A54   A(28,27,29)           109.8538         estimate D2E/DX2                !
 ! A55   A(28,27,30)           109.3579         estimate D2E/DX2                !
 ! A56   A(29,27,30)           109.1356         estimate D2E/DX2                !
 ! A57   A(18,31,32)           106.7374         estimate D2E/DX2                !
 ! A58   A(18,31,33)           111.1767         estimate D2E/DX2                !
 ! A59   A(18,31,34)           111.1552         estimate D2E/DX2                !
 ! A60   A(32,31,33)           109.3643         estimate D2E/DX2                !
 ! A61   A(32,31,34)           109.3896         estimate D2E/DX2                !
 ! A62   A(33,31,34)           108.9733         estimate D2E/DX2                !
 ! D1    D(5,1,2,3)            -44.2887         estimate D2E/DX2                !
 ! D2    D(5,1,2,7)             70.2308         estimate D2E/DX2                !
 ! D3    D(5,1,2,12)          -163.6831         estimate D2E/DX2                !
 ! D4    D(8,1,2,3)             73.0301         estimate D2E/DX2                !
 ! D5    D(8,1,2,7)           -172.4503         estimate D2E/DX2                !
 ! D6    D(8,1,2,12)           -46.3643         estimate D2E/DX2                !
 ! D7    D(13,1,2,3)          -173.1057         estimate D2E/DX2                !
 ! D8    D(13,1,2,7)           -58.5861         estimate D2E/DX2                !
 ! D9    D(13,1,2,12)           67.5            estimate D2E/DX2                !
 ! D10   D(2,1,5,4)             51.6281         estimate D2E/DX2                !
 ! D11   D(2,1,5,10)           -69.9261         estimate D2E/DX2                !
 ! D12   D(2,1,5,14)           165.9449         estimate D2E/DX2                !
 ! D13   D(8,1,5,4)            -65.1043         estimate D2E/DX2                !
 ! D14   D(8,1,5,10)           173.3416         estimate D2E/DX2                !
 ! D15   D(8,1,5,14)            49.2125         estimate D2E/DX2                !
 ! D16   D(13,1,5,4)           179.4074         estimate D2E/DX2                !
 ! D17   D(13,1,5,10)           57.8533         estimate D2E/DX2                !
 ! D18   D(13,1,5,14)          -66.2757         estimate D2E/DX2                !
 ! D19   D(2,1,13,23)           64.9919         estimate D2E/DX2                !
 ! D20   D(5,1,13,23)          -62.1266         estimate D2E/DX2                !
 ! D21   D(8,1,13,23)         -179.6183         estimate D2E/DX2                !
 ! D22   D(1,2,3,6)           -157.5818         estimate D2E/DX2                !
 ! D23   D(1,2,3,11)            20.7854         estimate D2E/DX2                !
 ! D24   D(7,2,3,6)             84.3061         estimate D2E/DX2                !
 ! D25   D(7,2,3,11)           -97.3267         estimate D2E/DX2                !
 ! D26   D(12,2,3,6)           -33.5592         estimate D2E/DX2                !
 ! D27   D(12,2,3,11)          144.808          estimate D2E/DX2                !
 ! D28   D(1,2,12,19)          -97.7884         estimate D2E/DX2                !
 ! D29   D(3,2,12,19)          139.316          estimate D2E/DX2                !
 ! D30   D(7,2,12,19)           27.0906         estimate D2E/DX2                !
 ! D31   D(2,3,11,4)            -2.1068         estimate D2E/DX2                !
 ! D32   D(6,3,11,4)           176.3222         estimate D2E/DX2                !
 ! D33   D(9,4,5,1)             80.3742         estimate D2E/DX2                !
 ! D34   D(9,4,5,10)          -156.698          estimate D2E/DX2                !
 ! D35   D(9,4,5,14)           -39.3988         estimate D2E/DX2                !
 ! D36   D(11,4,5,1)           -33.5414         estimate D2E/DX2                !
 ! D37   D(11,4,5,10)           89.3865         estimate D2E/DX2                !
 ! D38   D(11,4,5,14)         -153.3144         estimate D2E/DX2                !
 ! D39   D(15,4,5,1)          -154.103          estimate D2E/DX2                !
 ! D40   D(15,4,5,10)          -31.1752         estimate D2E/DX2                !
 ! D41   D(15,4,5,14)           86.124          estimate D2E/DX2                !
 ! D42   D(5,4,11,3)             8.435          estimate D2E/DX2                !
 ! D43   D(9,4,11,3)          -109.8534         estimate D2E/DX2                !
 ! D44   D(15,4,11,3)          134.2432         estimate D2E/DX2                !
 ! D45   D(5,4,15,16)          -61.3206         estimate D2E/DX2                !
 ! D46   D(5,4,15,17)         -178.4548         estimate D2E/DX2                !
 ! D47   D(5,4,15,18)           59.6833         estimate D2E/DX2                !
 ! D48   D(9,4,15,16)           63.5605         estimate D2E/DX2                !
 ! D49   D(9,4,15,17)          -53.5737         estimate D2E/DX2                !
 ! D50   D(9,4,15,18)         -175.4355         estimate D2E/DX2                !
 ! D51   D(11,4,15,16)         173.3009         estimate D2E/DX2                !
 ! D52   D(11,4,15,17)          56.1667         estimate D2E/DX2                !
 ! D53   D(11,4,15,18)         -65.6951         estimate D2E/DX2                !
 ! D54   D(1,5,14,27)           92.4228         estimate D2E/DX2                !
 ! D55   D(4,5,14,27)         -146.8134         estimate D2E/DX2                !
 ! D56   D(10,5,14,27)         -31.5209         estimate D2E/DX2                !
 ! D57   D(2,12,19,20)         -56.1884         estimate D2E/DX2                !
 ! D58   D(2,12,19,21)          66.7121         estimate D2E/DX2                !
 ! D59   D(2,12,19,22)        -174.6651         estimate D2E/DX2                !
 ! D60   D(1,13,23,24)        -177.7049         estimate D2E/DX2                !
 ! D61   D(1,13,23,25)         -59.7295         estimate D2E/DX2                !
 ! D62   D(1,13,23,26)          63.8295         estimate D2E/DX2                !
 ! D63   D(5,14,27,28)         -71.1016         estimate D2E/DX2                !
 ! D64   D(5,14,27,29)          51.7136         estimate D2E/DX2                !
 ! D65   D(5,14,27,30)         170.09           estimate D2E/DX2                !
 ! D66   D(4,15,18,31)        -177.4331         estimate D2E/DX2                !
 ! D67   D(16,15,18,31)        -59.7479         estimate D2E/DX2                !
 ! D68   D(17,15,18,31)         61.8372         estimate D2E/DX2                !
 ! D69   D(15,18,31,32)        179.5705         estimate D2E/DX2                !
 ! D70   D(15,18,31,33)        -61.232          estimate D2E/DX2                !
 ! D71   D(15,18,31,34)         60.3545         estimate D2E/DX2                !
 --------------------------------------------------------------------------------
 Trust Radius=3.00D-01 FncErr=1.00D-07 GrdErr=1.00D-06 EigMax=2.50D+02 EigMin=1.00D-04
 Number of steps in this run=    177 maximum allowed number of steps=    204.
 GradGradGradGradGradGradGradGradGradGradGradGradGradGradGradGradGradGrad

 Leave Link  103 at Fri May 24 08:31:52 2019, MaxMem=   402653184 cpu:               0.1 elap:               0.1
 (Enter /n/sw/g16_nehalem/g16/l202.exe)
                          Input orientation:                          
 ---------------------------------------------------------------------
 Center     Atomic      Atomic             Coordinates (Angstroms)
 Number     Number       Type             X           Y           Z
 ---------------------------------------------------------------------
      1          6           0       -1.087556    0.489673   -0.481227
      2          6           0       -1.460000   -0.937215    0.003626
      3          6           0       -0.522149   -1.963654   -0.525693
      4          6           0        1.264591   -0.379964   -1.041871
      5          6           0        0.433960    0.729157   -0.369625
      6          1           0       -0.848658   -3.002931   -0.584877
      7          1           0       -1.330375   -1.003458    1.101607
      8          1           0       -1.359597    0.547195   -1.539628
      9          1           0        1.301682   -0.211166   -2.119323
     10          1           0        0.739901    0.799020    0.681444
     11          8           0        0.636071   -1.750093   -0.952455
     12          8           0       -2.737571   -1.351224   -0.398702
     13          8           0       -1.873702    1.484157    0.137830
     14          8           0        0.829910    1.878324   -1.091257
     15          6           0        2.657968   -0.553242   -0.471793
     16          1           0        3.192577    0.395947   -0.630658
     17          1           0        3.191321   -1.341660   -1.022445
     18          8           0        2.527135   -0.870559    0.894351
     19          6           0       -3.783691   -1.196878    0.571547
     20          1           0       -3.536648   -1.718257    1.504302
     21          1           0       -3.976852   -0.138299    0.768980
     22          1           0       -4.669016   -1.652984    0.126992
     23          6           0       -1.744152    1.673685    1.549430
     24          1           0       -2.466026    2.450894    1.804544
     25          1           0       -1.992213    0.768830    2.118359
     26          1           0       -0.743351    2.012464    1.836749
     27          6           0        0.869511    3.105591   -0.358883
     28          1           0       -0.137605    3.458756   -0.117074
     29          1           0        1.457618    2.997301    0.561619
     30          1           0        1.359249    3.829110   -1.013391
     31          6           0        3.781992   -1.000909    1.555385
     32          1           0        3.564674   -1.237247    2.598621
     33          1           0        4.380085   -1.810588    1.115430
     34          1           0        4.355650   -0.065250    1.505224
 ---------------------------------------------------------------------
                    Distance matrix (angstroms):
                    1          2          3          4          5
     1  C    0.000000
     2  C    1.552355   0.000000
     3  C    2.518030   1.487723   0.000000
     4  C    2.569666   2.971025   2.442735   0.000000
     5  C    1.544286   2.550137   2.861771   1.540134   0.000000
     6  H    3.502299   2.233217   1.090966   3.399209   3.952205
     7  H    2.189467   1.107589   2.055070   3.423024   2.877387
     8  H    1.094316   2.143639   2.834386   2.827322   2.149154
     9  H    2.980435   3.558222   2.989520   1.091225   2.167624
    10  H    2.187944   2.883316   3.268381   2.152932   1.096917
    11  O    2.865222   2.443026   1.252680   1.510062   2.554843
    12  O    2.473512   1.401948   2.302019   4.168251   3.793078
    13  O    1.410764   2.460122   3.762228   3.836082   2.480492
    14  O    2.444824   3.790741   4.112022   2.300272   1.413547
    15  C    3.888021   4.163066   3.479269   1.515425   2.569279
    16  H    4.283766   4.881200   4.402036   2.118552   2.790902
    17  H    4.685668   4.780291   3.797828   2.153491   3.509629
    18  O    4.099809   4.085961   3.536879   2.362976   2.922004
    19  C    3.349915   2.406138   3.525555   5.362426   4.731173
    20  H    3.849069   2.678530   3.642568   5.596956   5.026646
    21  H    3.210202   2.749287   4.116196   5.550703   4.637258
    22  H    4.217554   3.290187   4.209397   6.180171   5.653458
    23  C    2.440609   3.047466   4.362300   4.470442   3.052716
    24  H    3.312298   3.966696   5.356948   5.480268   4.012644
    25  H    2.766619   2.768743   4.076588   4.681191   3.475335
    26  H    2.794706   3.546059   4.630289   4.247587   2.810876
    27  C    3.269267   4.679991   5.259447   3.573745   2.416042
    28  H    3.138546   4.592152   5.451364   4.190128   2.800211
    29  H    3.722047   4.929936   5.450945   3.743576   2.656985
    30  H    4.173954   5.630306   6.110125   4.210235   3.298530
    31  C    5.484717   5.467220   4.876822   3.669962   4.231798
    32  H    5.840459   5.663159   5.195299   4.390729   4.741160
    33  H    6.142932   6.008784   5.171906   4.050548   4.922154
    34  H    5.820861   6.069341   5.614400   4.017634   4.418800
                    6          7          8          9         10
     6  H    0.000000
     7  H    2.659732   0.000000
     8  H    3.711604   3.062924   0.000000
     9  H    3.843493   4.234364   2.827289   0.000000
    10  H    4.310675   2.776960   3.066671   3.029912   0.000000
    11  O    1.977154   2.939991   3.099193   2.042771   3.029585
    12  O    2.516106   2.086161   2.608547   4.536059   4.228839
    13  O    4.659075   2.722554   1.988986   4.248755   2.756057
    14  O    5.186585   4.216652   2.601323   2.376017   2.077370
    15  C    4.279041   4.311051   4.300240   2.161223   2.614871
    16  H    5.280724   5.041445   4.644501   2.481974   2.810640
    17  H    4.390070   5.007166   4.954403   2.460060   3.673583
    18  O    4.258063   3.865359   4.800101   3.319453   2.455001
    19  C    3.635046   2.517367   3.657196   5.837245   4.945561
    20  H    3.638729   2.353878   4.374624   6.229881   5.030174
    21  H    4.452487   2.804101   3.556627   6.017518   4.809780
    22  H    4.113909   3.538118   4.309369   6.540184   5.964572
    23  C    5.218037   2.745697   3.310459   5.127330   2.772897
    24  H    6.170042   3.703562   4.003966   6.056312   3.777302
    25  H    4.779266   2.147747   3.718897   5.456014   3.087083
    26  H    5.570417   3.159243   3.731849   4.977670   2.237680
    27  C    6.349584   4.884344   3.592836   3.779788   2.533643
    28  H    6.517502   4.776949   3.463252   4.421411   2.912360
    29  H    6.529636   4.906176   4.284269   4.184020   2.315581
    30  H    7.192723   5.921234   4.294184   4.189299   3.526684
    31  C    5.480122   5.132467   6.197715   4.503233   3.641131
    32  H    5.720996   5.124179   6.675162   5.332258   3.975084
    33  H    5.626054   5.767235   6.749254   4.743242   4.499926
    34  H    6.331138   5.777025   6.504634   4.741872   3.807784
                   11         12         13         14         15
    11  O    0.000000
    12  O    3.441976   0.000000
    13  O    4.236514   3.012229   0.000000
    14  O    3.636241   4.861742   2.995921   0.000000
    15  C    2.398240   5.454719   5.005863   3.104520   0.000000
    16  H    3.353321   6.186523   5.238507   2.826975   1.100911
    17  H    2.588633   5.961620   5.914891   3.993657   1.099675
    18  O    2.785749   5.442440   5.048205   3.792040   1.408601
    19  C    4.707752   1.435121   3.320259   5.788532   6.557270
    20  H    4.842340   2.096345   3.858509   6.224078   6.605716
    21  H    5.180760   2.090571   2.730193   5.534637   6.762583
    22  H    5.414664   2.024325   4.201851   6.647741   7.433214
    23  C    4.862833   3.732583   1.430146   3.693359   5.331342
    24  H    5.905281   4.402741   2.015779   4.424556   6.360964
    25  H    4.762641   3.374283   2.109083   4.415540   5.484610
    26  H    4.882550   4.504281   2.107873   3.326614   4.845739
    27  C    4.897396   5.733745   3.225057   1.429729   4.074112
    28  H    5.331842   5.474947   2.641600   2.093534   4.902773
    29  H    5.050258   6.118129   3.683327   2.092397   3.887819
    30  H    5.626207   6.633071   4.156451   2.022827   4.602718
    31  C    4.092353   6.815121   6.338130   4.899947   2.360781
    32  H    4.631400   6.979630   6.560295   5.549857   3.273747
    33  H    4.277552   7.291409   7.135888   5.575059   2.658173
    34  H    4.765936   7.456034   6.563174   4.790620   2.651199
                   16         17         18         19         20
    16  H    0.000000
    17  H    1.781229   0.000000
    18  O    2.091053   2.082591   0.000000
    19  C    7.256080   7.156295   6.327496   0.000000
    20  H    7.369558   7.196655   6.153056   1.096767   0.000000
    21  H    7.324283   7.485986   6.546279   1.094020   1.797427
    22  H    8.159461   7.950033   7.279122   1.090625   1.784237
    23  C    5.545872   6.329750   5.014599   3.654601   3.836711
    24  H    6.494059   7.374341   6.065654   4.069737   4.314881
    25  H    5.880322   6.417776   4.960877   3.076691   2.991312
    26  H    4.918613   5.908196   4.460495   4.598291   4.672399
    27  C    3.579479   5.060549   4.486433   6.405406   6.793762
    28  H    4.553535   5.911467   5.183318   5.953408   6.401860
    29  H    3.346438   4.933717   4.026775   6.712865   6.933097
    30  H    3.910778   5.485748   5.204837   7.363587   7.815489
    31  C    2.660338   2.666498   1.424297   7.631900   7.353889
    32  H    3.637859   3.641760   2.028665   7.622934   7.201228
    33  H    3.054144   2.490695   2.089487   8.204858   7.926816
    34  H    2.475365   3.061698   2.089295   8.270502   8.063548
                   21         22         23         24         25
    21  H    0.000000
    22  H    1.784800   0.000000
    23  C    2.979486   4.652406   0.000000
    24  H    3.171578   4.950673   1.090981   0.000000
    25  H    2.565638   4.122621   1.097259   1.775477   0.000000
    26  H    4.027585   5.636455   1.094955   1.777883   1.784821
    27  C    5.939876   7.318155   3.538820   4.029250   4.448218
    28  H    5.335140   6.835433   2.923133   3.182758   3.958842
    29  H    6.277615   7.703875   3.602646   4.151916   4.392136
    30  H    6.884123   8.227625   4.565633   4.947016   5.514115
    31  C    7.846158   8.595641   6.139361   7.142461   6.065506
    32  H    7.837722   8.606709   6.144751   7.113528   5.927393
    33  H    8.529653   9.104289   7.059376   8.093475   6.947334
    34  H    8.365284   9.266338   6.342983   7.277076   6.431717
                   26         27         28         29         30
    26  H    0.000000
    27  C    2.935481   0.000000
    28  H    2.505217   1.094294   0.000000
    29  H    2.727659   1.097689   1.793962   0.000000
    30  H    3.980506   1.091652   1.783569   1.783883   0.000000
    31  C    5.444108   5.386122   6.168385   4.730324   5.983091
    32  H    5.449784   5.905165   6.567672   5.149802   6.601402
    33  H    6.433166   6.218243   7.049438   5.653611   6.742664
    34  H    5.516033   5.067770   5.936313   4.320671   5.521583
                   31         32         33         34
    31  C    0.000000
    32  H    1.091524   0.000000
    33  H    1.098570   1.787028   0.000000
    34  H    1.098662   1.787383   1.788502   0.000000
 Stoichiometry    C10H19O5(1+)
 Framework group  C1[X(C10H19O5)]
 Deg. of freedom    96
 Full point group                 C1      NOp   1
 Largest Abelian subgroup         C1      NOp   1
 Largest concise Abelian subgroup C1      NOp   1
                         Standard orientation:                         
 ---------------------------------------------------------------------
 Center     Atomic      Atomic             Coordinates (Angstroms)
 Number     Number       Type             X           Y           Z
 ---------------------------------------------------------------------
      1          6           0       -1.087556    0.489673   -0.481227
      2          6           0       -1.460000   -0.937215    0.003626
      3          6           0       -0.522149   -1.963654   -0.525693
      4          6           0        1.264591   -0.379964   -1.041871
      5          6           0        0.433960    0.729157   -0.369625
      6          1           0       -0.848658   -3.002931   -0.584877
      7          1           0       -1.330375   -1.003458    1.101607
      8          1           0       -1.359597    0.547195   -1.539628
      9          1           0        1.301682   -0.211166   -2.119323
     10          1           0        0.739901    0.799020    0.681444
     11          8           0        0.636071   -1.750093   -0.952455
     12          8           0       -2.737571   -1.351224   -0.398702
     13          8           0       -1.873702    1.484157    0.137830
     14          8           0        0.829910    1.878324   -1.091257
     15          6           0        2.657968   -0.553242   -0.471793
     16          1           0        3.192577    0.395947   -0.630658
     17          1           0        3.191321   -1.341660   -1.022445
     18          8           0        2.527135   -0.870559    0.894351
     19          6           0       -3.783691   -1.196878    0.571547
     20          1           0       -3.536648   -1.718257    1.504302
     21          1           0       -3.976852   -0.138299    0.768980
     22          1           0       -4.669016   -1.652984    0.126992
     23          6           0       -1.744152    1.673685    1.549430
     24          1           0       -2.466026    2.450894    1.804544
     25          1           0       -1.992213    0.768830    2.118359
     26          1           0       -0.743351    2.012464    1.836749
     27          6           0        0.869511    3.105591   -0.358883
     28          1           0       -0.137605    3.458756   -0.117074
     29          1           0        1.457618    2.997301    0.561619
     30          1           0        1.359249    3.829110   -1.013391
     31          6           0        3.781992   -1.000909    1.555385
     32          1           0        3.564674   -1.237247    2.598621
     33          1           0        4.380085   -1.810588    1.115430
     34          1           0        4.355650   -0.065250    1.505224
 ---------------------------------------------------------------------
 Rotational constants (GHZ):           0.7498758           0.4396929           0.3415195
 Leave Link  202 at Fri May 24 08:31:52 2019, MaxMem=   402653184 cpu:               0.2 elap:               0.1
 (Enter /n/sw/g16_nehalem/g16/l301.exe)
 Standard basis: 6-31G(d) (6D, 7F)
 Ernie: Thresh=  0.10000D-02 Tol=  0.10000D-05 Strict=F.
 There are   263 symmetry adapted cartesian basis functions of A   symmetry.
 There are   263 symmetry adapted basis functions of A   symmetry.
   263 basis functions,   496 primitive gaussians,   263 cartesian basis functions
    59 alpha electrons       59 beta electrons
       nuclear repulsion energy      1158.6966134004 Hartrees.
 IExCor=  402 DFT=T Ex+Corr=B3LYP ExCW=0 ScaHFX=  0.200000
 ScaDFX=  0.800000  0.720000  1.000000  0.810000 ScalE2=  1.000000  1.000000
 IRadAn=      5 IRanWt=     -1 IRanGd=            0 ICorTp=0 IEmpDi=  4
 NAtoms=   34 NActive=   34 NUniq=   34 SFac= 1.00D+00 NAtFMM=   60 NAOKFM=F Big=F
 Integral buffers will be    131072 words long.
 Raffenetti 2 integral format.
 Two-electron integral symmetry is turned on.
 ------------------------------------------------------------------------------
 Polarizable Continuum Model (PCM)
 =================================
 Model                : PCM.
 Atomic radii         : UFF (Universal Force Field).
 Polarization charges : Total charges.
 Charge compensation  : None.
 Solution method      : On-the-fly selection.
 Cavity type          : Scaled VdW (van der Waals Surface) (Alpha=1.100).
 Cavity algorithm     : GePol (No added spheres)
                        Default sphere list used, NSphG=   34.
                        Lebedev-Laikov grids with approx.  5.0 points / Ang**2.
                        Smoothing algorithm: York/Karplus (Gamma=1.0000).
                        Polarization charges: spherical gaussians, with
                                              point-specific exponents (IZeta= 3).
                        Self-potential: point-specific (ISelfS= 7).
                        Self-field    : sphere-specific E.n sum rule (ISelfD= 2).
 1st derivatives      : Analytical E(r).r(x)/FMM algorithm (CHGder, D1EAlg=3).
                        Cavity 1st derivative terms included.
 Solvent              : TetraHydroFuran, Eps=   7.425700 Eps(inf)=   1.974025
 ------------------------------------------------------------------------------
 GePol: Number of generator spheres                  =      34
 GePol: Total number of spheres                      =      34
 GePol: Number of exposed spheres                    =      34 (100.00%)
 GePol: Number of points                             =    2294
 GePol: Average weight of points                     =       0.13
 GePol: Minimum weight of points                     =   0.44D-11
 GePol: Maximum weight of points                     =    0.20577
 GePol: Number of points with low weight             =     141
 GePol: Fraction of low-weight points (<1% of avg)   =       6.15%
 GePol: Cavity surface area                          =    301.932 Ang**2
 GePol: Cavity volume                                =    321.466 Ang**3
 Leave Link  301 at Fri May 24 08:31:53 2019, MaxMem=   402653184 cpu:               0.4 elap:               0.2
 (Enter /n/sw/g16_nehalem/g16/l302.exe)
 NPDir=0 NMtPBC=     1 NCelOv=     1 NCel=       1 NClECP=     1 NCelD=      1
         NCelK=      1 NCelE2=     1 NClLst=     1 CellRange=     0.0.
 One-electron integrals computed using PRISM.
 One-electron integral symmetry used in STVInt
 NBasis=   263 RedAO= T EigKep=  1.59D-03  NBF=   263
 NBsUse=   263 1.00D-06 EigRej= -1.00D+00 NBFU=   263
 Precomputing XC quadrature grid using
 IXCGrd= 4 IRadAn=           5 IRanWt=          -1 IRanGd=           0 AccXCQ= 0.00D+00.
 Generated NRdTot=       0 NPtTot=           0 NUsed=           0 NTot=          32
 NSgBfM=   262   262   262   262   262 MxSgAt=    34 MxSgA2=    34.
 Leave Link  302 at Fri May 24 08:31:54 2019, MaxMem=   402653184 cpu:               3.1 elap:               0.8
 (Enter /n/sw/g16_nehalem/g16/l303.exe)
 DipDrv:  MaxL=1.
 Leave Link  303 at Fri May 24 08:31:54 2019, MaxMem=   402653184 cpu:               0.3 elap:               0.1
 (Enter /n/sw/g16_nehalem/g16/l401.exe)
 ExpMin= 1.61D-01 ExpMax= 5.48D+03 ExpMxC= 8.25D+02 IAcc=3 IRadAn=         5 AccDes= 0.00D+00
 Harris functional with IExCor=  402 and IRadAn=       5 diagonalized for initial guess.
 HarFok:  IExCor=  402 AccDes= 0.00D+00 IRadAn=         5 IDoV= 1 UseB2=F ITyADJ=14
 ICtDFT=  3500011 ScaDFX=  1.000000  1.000000  1.000000  1.000000
 FoFCou: FMM=F IPFlag=           0 FMFlag=      100000 FMFlg1=           0
         NFxFlg=           0 DoJE=T BraDBF=F KetDBF=T FulRan=T
         wScrn=  0.000000 ICntrl=       500 IOpCl=  0 I1Cent=   200000004 NGrid=           0
         NMat0=    1 NMatS0=      1 NMatT0=    0 NMatD0=    1 NMtDS0=    0 NMtDT0=    0
 Petite list used in FoFCou.
 Harris En= -768.259993212541    
 JPrj=0 DoOrth=F DoCkMO=F.
 Leave Link  401 at Fri May 24 08:31:59 2019, MaxMem=   402653184 cpu:              21.2 elap:               5.4
 (Enter /n/sw/g16_nehalem/g16/l502.exe)
 Integral symmetry usage will be decided dynamically.
 Closed shell SCF:
 Using DIIS extrapolation, IDIIS=  1040.
 NGot=   402653184 LenX=   402510103 LenY=   402440493
 Requested convergence on RMS density matrix=1.00D-08 within 128 cycles.
 Requested convergence on MAX density matrix=1.00D-06.
 Requested convergence on             energy=1.00D-06.
 No special actions if energy rises.
 Fock matrices will be formed incrementally for  20 cycles.

 Cycle   1  Pass 1  IDiag  1:
 FoFJK:  IHMeth= 1 ICntrl=       0 DoSepK=F KAlg= 0 I1Cent=           0 FoldK=F
 IRaf= 880000000 NMat=       1 IRICut=       1 DoRegI=T DoRafI=F ISym2E= 0 IDoP0=0 IntGTp=1.
 FoFCou: FMM=F IPFlag=           0 FMFlag=      100000 FMFlg1=           0
         NFxFlg=           0 DoJE=F BraDBF=F KetDBF=F FulRan=T
         wScrn=  0.000000 ICntrl=         0 IOpCl=  0 I1Cent=           0 NGrid=           0
         NMat0=    1 NMatS0=      1 NMatT0=    0 NMatD0=    1 NMtDS0=    0 NMtDT0=    0
 Symmetry not used in FoFCou.
 Inv3:  Mode=1 IEnd=    15787308.
 Iteration    1 A*A^-1 deviation from unit magnitude is 4.66D-15 for   2292.
 Iteration    1 A*A^-1 deviation from orthogonality  is 3.05D-15 for   2280    469.
 Iteration    1 A^-1*A deviation from unit magnitude is 4.66D-15 for   2292.
 Iteration    1 A^-1*A deviation from orthogonality  is 1.50D-15 for   1855    710.
 E= -768.088952421213    
 DIIS: error= 2.44D-02 at cycle   1 NSaved=   1.
 NSaved= 1 IEnMin= 1 EnMin= -768.088952421213     IErMin= 1 ErrMin= 2.44D-02
 ErrMax= 2.44D-02  0.00D+00 EMaxC= 1.00D-01 BMatC= 2.54D-01 BMatP= 2.54D-01
 IDIUse=3 WtCom= 7.56D-01 WtEn= 2.44D-01
 Coeff-Com:  0.100D+01
 Coeff-En:   0.100D+01
 Coeff:      0.100D+01
 Gap=     0.011 Goal=   None    Shift=    0.000
 GapD=    0.011 DampG=0.250 DampE=0.500 DampFc=0.2500 IDamp=-1.
 Damping current iteration by 2.50D-01
 RMSDP=4.97D-03 MaxDP=1.46D-01              OVMax= 5.26D-01

 Cycle   2  Pass 1  IDiag  1:
 RMSU=  1.23D-03    CP:  9.94D-01
 E= -768.160269525084     Delta-E=       -0.071317103871 Rises=F Damp=T
 DIIS: error= 1.23D-02 at cycle   2 NSaved=   2.
 NSaved= 2 IEnMin= 2 EnMin= -768.160269525084     IErMin= 2 ErrMin= 1.23D-02
 ErrMax= 1.23D-02  0.00D+00 EMaxC= 1.00D-01 BMatC= 6.83D-02 BMatP= 2.54D-01
 IDIUse=3 WtCom= 8.77D-01 WtEn= 1.23D-01
 Coeff-Com: -0.652D+00 0.165D+01
 Coeff-En:   0.000D+00 0.100D+01
 Coeff:     -0.572D+00 0.157D+01
 Gap=     0.092 Goal=   None    Shift=    0.000
 RMSDP=1.47D-03 MaxDP=4.38D-02 DE=-7.13D-02 OVMax= 4.52D-01

 Cycle   3  Pass 1  IDiag  1:
 RMSU=  1.46D-03    CP:  9.85D-01  1.10D+00
 E= -768.286650787142     Delta-E=       -0.126381262057 Rises=F Damp=F
 DIIS: error= 8.54D-03 at cycle   3 NSaved=   3.
 NSaved= 3 IEnMin= 3 EnMin= -768.286650787142     IErMin= 3 ErrMin= 8.54D-03
 ErrMax= 8.54D-03  0.00D+00 EMaxC= 1.00D-01 BMatC= 4.61D-02 BMatP= 6.83D-02
 IDIUse=3 WtCom= 9.15D-01 WtEn= 8.54D-02
 Coeff-Com: -0.492D+00 0.101D+01 0.485D+00
 Coeff-En:   0.000D+00 0.000D+00 0.100D+01
 Coeff:     -0.450D+00 0.921D+00 0.529D+00
 Gap=     0.145 Goal=   None    Shift=    0.000
 RMSDP=8.69D-04 MaxDP=3.03D-02 DE=-1.26D-01 OVMax= 4.75D-02

 Cycle   4  Pass 1  IDiag  1:
 RMSU=  6.37D-04    CP:  9.89D-01  1.32D+00  6.44D-01
 E= -768.324931502580     Delta-E=       -0.038280715438 Rises=F Damp=F
 DIIS: error= 2.49D-03 at cycle   4 NSaved=   4.
 NSaved= 4 IEnMin= 4 EnMin= -768.324931502580     IErMin= 4 ErrMin= 2.49D-03
 ErrMax= 2.49D-03  0.00D+00 EMaxC= 1.00D-01 BMatC= 3.25D-03 BMatP= 4.61D-02
 IDIUse=3 WtCom= 9.75D-01 WtEn= 2.49D-02
 Coeff-Com: -0.220D+00 0.378D+00 0.220D+00 0.622D+00
 Coeff-En:   0.000D+00 0.000D+00 0.000D+00 0.100D+01
 Coeff:     -0.215D+00 0.369D+00 0.215D+00 0.631D+00
 Gap=     0.129 Goal=   None    Shift=    0.000
 RMSDP=2.30D-04 MaxDP=1.33D-02 DE=-3.83D-02 OVMax= 1.08D-02

 Cycle   5  Pass 1  IDiag  1:
 RMSU=  2.02D-04    CP:  9.89D-01  1.34D+00  6.98D-01  8.84D-01
 E= -768.326962771426     Delta-E=       -0.002031268846 Rises=F Damp=F
 DIIS: error= 1.33D-03 at cycle   5 NSaved=   5.
 NSaved= 5 IEnMin= 5 EnMin= -768.326962771426     IErMin= 5 ErrMin= 1.33D-03
 ErrMax= 1.33D-03  0.00D+00 EMaxC= 1.00D-01 BMatC= 1.16D-03 BMatP= 3.25D-03
 IDIUse=3 WtCom= 9.87D-01 WtEn= 1.33D-02
 Coeff-Com: -0.969D-01 0.144D+00 0.453D-01 0.373D+00 0.534D+00
 Coeff-En:   0.000D+00 0.000D+00 0.000D+00 0.185D+00 0.815D+00
 Coeff:     -0.956D-01 0.142D+00 0.447D-01 0.371D+00 0.538D+00
 Gap=     0.130 Goal=   None    Shift=    0.000
 RMSDP=1.07D-04 MaxDP=7.07D-03 DE=-2.03D-03 OVMax= 5.72D-03

 Cycle   6  Pass 1  IDiag  1:
 RMSU=  7.40D-05    CP:  9.89D-01  1.36D+00  6.97D-01  9.69D-01  7.56D-01
 E= -768.327735867843     Delta-E=       -0.000773096417 Rises=F Damp=F
 DIIS: error= 4.37D-04 at cycle   6 NSaved=   6.
 NSaved= 6 IEnMin= 6 EnMin= -768.327735867843     IErMin= 6 ErrMin= 4.37D-04
 ErrMax= 4.37D-04  0.00D+00 EMaxC= 1.00D-01 BMatC= 1.40D-04 BMatP= 1.16D-03
 IDIUse=3 WtCom= 9.96D-01 WtEn= 4.37D-03
 Coeff-Com: -0.373D-01 0.478D-01-0.111D-01 0.145D+00 0.327D+00 0.529D+00
 Coeff-En:   0.000D+00 0.000D+00 0.000D+00 0.000D+00 0.000D+00 0.100D+01
 Coeff:     -0.372D-01 0.476D-01-0.111D-01 0.144D+00 0.326D+00 0.531D+00
 Gap=     0.129 Goal=   None    Shift=    0.000
 RMSDP=3.72D-05 MaxDP=2.31D-03 DE=-7.73D-04 OVMax= 2.17D-03

 Cycle   7  Pass 1  IDiag  1:
 RMSU=  2.77D-05    CP:  9.89D-01  1.36D+00  6.94D-01  9.97D-01  8.20D-01
                    CP:  8.54D-01
 E= -768.327843458937     Delta-E=       -0.000107591093 Rises=F Damp=F
 DIIS: error= 1.68D-04 at cycle   7 NSaved=   7.
 NSaved= 7 IEnMin= 7 EnMin= -768.327843458937     IErMin= 7 ErrMin= 1.68D-04
 ErrMax= 1.68D-04  0.00D+00 EMaxC= 1.00D-01 BMatC= 1.35D-05 BMatP= 1.40D-04
 IDIUse=3 WtCom= 9.98D-01 WtEn= 1.68D-03
 Coeff-Com: -0.869D-02 0.860D-02-0.177D-01 0.235D-01 0.107D+00 0.278D+00
 Coeff-Com:  0.609D+00
 Coeff-En:   0.000D+00 0.000D+00 0.000D+00 0.000D+00 0.000D+00 0.000D+00
 Coeff-En:   0.100D+01
 Coeff:     -0.868D-02 0.859D-02-0.176D-01 0.235D-01 0.107D+00 0.278D+00
 Coeff:      0.610D+00
 Gap=     0.128 Goal=   None    Shift=    0.000
 RMSDP=1.58D-05 MaxDP=7.10D-04 DE=-1.08D-04 OVMax= 9.71D-04

 Cycle   8  Pass 1  IDiag  1:
 RMSU=  8.78D-06    CP:  9.89D-01  1.37D+00  6.94D-01  1.01D+00  8.51D-01
                    CP:  9.25D-01  8.40D-01
 E= -768.327856253381     Delta-E=       -0.000012794444 Rises=F Damp=F
 DIIS: error= 4.65D-05 at cycle   8 NSaved=   8.
 NSaved= 8 IEnMin= 8 EnMin= -768.327856253381     IErMin= 8 ErrMin= 4.65D-05
 ErrMax= 4.65D-05  0.00D+00 EMaxC= 1.00D-01 BMatC= 9.87D-07 BMatP= 1.35D-05
 IDIUse=1 WtCom= 1.00D+00 WtEn= 0.00D+00
 Coeff-Com: -0.495D-03 0.729D-04-0.595D-02-0.820D-02 0.154D-02 0.336D-01
 Coeff-Com:  0.239D+00 0.741D+00
 Coeff:     -0.495D-03 0.729D-04-0.595D-02-0.820D-02 0.154D-02 0.336D-01
 Coeff:      0.239D+00 0.741D+00
 Gap=     0.128 Goal=   None    Shift=    0.000
 RMSDP=6.02D-06 MaxDP=1.47D-04 DE=-1.28D-05 OVMax= 8.19D-04

 Cycle   9  Pass 1  IDiag  1:
 RMSU=  3.43D-06    CP:  9.89D-01  1.37D+00  6.94D-01  1.02D+00  8.61D-01
                    CP:  9.54D-01  9.26D-01  9.87D-01
 E= -768.327857172704     Delta-E=       -0.000000919323 Rises=F Damp=F
 DIIS: error= 1.56D-05 at cycle   9 NSaved=   9.
 NSaved= 9 IEnMin= 9 EnMin= -768.327857172704     IErMin= 9 ErrMin= 1.56D-05
 ErrMax= 1.56D-05  0.00D+00 EMaxC= 1.00D-01 BMatC= 1.63D-07 BMatP= 9.87D-07
 IDIUse=1 WtCom= 1.00D+00 WtEn= 0.00D+00
 Coeff-Com:  0.355D-03-0.492D-03-0.165D-02-0.649D-02-0.932D-02-0.934D-02
 Coeff-Com:  0.673D-01 0.413D+00 0.546D+00
 Coeff:      0.355D-03-0.492D-03-0.165D-02-0.649D-02-0.932D-02-0.934D-02
 Coeff:      0.673D-01 0.413D+00 0.546D+00
 Gap=     0.128 Goal=   None    Shift=    0.000
 RMSDP=1.91D-06 MaxDP=5.59D-05 DE=-9.19D-07 OVMax= 2.10D-04

 Cycle  10  Pass 1  IDiag  1:
 RMSU=  1.07D-06    CP:  9.89D-01  1.37D+00  6.95D-01  1.02D+00  8.64D-01
                    CP:  9.64D-01  9.49D-01  1.05D+00  7.48D-01
 E= -768.327857325161     Delta-E=       -0.000000152457 Rises=F Damp=F
 DIIS: error= 2.79D-06 at cycle  10 NSaved=  10.
 NSaved=10 IEnMin=10 EnMin= -768.327857325161     IErMin=10 ErrMin= 2.79D-06
 ErrMax= 2.79D-06  0.00D+00 EMaxC= 1.00D-01 BMatC= 5.49D-09 BMatP= 1.63D-07
 IDIUse=1 WtCom= 1.00D+00 WtEn= 0.00D+00
 Coeff-Com:  0.240D-03-0.295D-03-0.106D-03-0.165D-02-0.388D-02-0.647D-02
 Coeff-Com: -0.215D-02 0.679D-01 0.167D+00 0.780D+00
 Coeff:      0.240D-03-0.295D-03-0.106D-03-0.165D-02-0.388D-02-0.647D-02
 Coeff:     -0.215D-02 0.679D-01 0.167D+00 0.780D+00
 Gap=     0.128 Goal=   None    Shift=    0.000
 RMSDP=6.73D-07 MaxDP=1.58D-05 DE=-1.52D-07 OVMax= 8.94D-05

 Cycle  11  Pass 1  IDiag  1:
 RMSU=  2.77D-07    CP:  9.89D-01  1.37D+00  6.95D-01  1.02D+00  8.64D-01
                    CP:  9.67D-01  9.57D-01  1.08D+00  7.90D-01  9.70D-01
 E= -768.327857332921     Delta-E=       -0.000000007760 Rises=F Damp=F
 DIIS: error= 1.34D-06 at cycle  11 NSaved=  11.
 NSaved=11 IEnMin=11 EnMin= -768.327857332921     IErMin=11 ErrMin= 1.34D-06
 ErrMax= 1.34D-06  0.00D+00 EMaxC= 1.00D-01 BMatC= 8.59D-10 BMatP= 5.49D-09
 IDIUse=1 WtCom= 1.00D+00 WtEn= 0.00D+00
 Coeff-Com:  0.541D-04-0.593D-04 0.664D-04-0.187D-03-0.967D-03-0.184D-02
 Coeff-Com: -0.603D-02 0.214D-02 0.340D-01 0.365D+00 0.607D+00
 Coeff:      0.541D-04-0.593D-04 0.664D-04-0.187D-03-0.967D-03-0.184D-02
 Coeff:     -0.603D-02 0.214D-02 0.340D-01 0.365D+00 0.607D+00
 Gap=     0.128 Goal=   None    Shift=    0.000
 RMSDP=1.83D-07 MaxDP=4.49D-06 DE=-7.76D-09 OVMax= 2.25D-05

 Cycle  12  Pass 1  IDiag  1:
 RMSU=  1.06D-07    CP:  9.89D-01  1.37D+00  6.95D-01  1.02D+00  8.65D-01
                    CP:  9.68D-01  9.58D-01  1.08D+00  8.09D-01  1.02D+00
                    CP:  7.79D-01
 E= -768.327857333779     Delta-E=       -0.000000000859 Rises=F Damp=F
 DIIS: error= 3.50D-07 at cycle  12 NSaved=  12.
 NSaved=12 IEnMin=12 EnMin= -768.327857333779     IErMin=12 ErrMin= 3.50D-07
 ErrMax= 3.50D-07  0.00D+00 EMaxC= 1.00D-01 BMatC= 1.06D-10 BMatP= 8.59D-10
 IDIUse=1 WtCom= 1.00D+00 WtEn= 0.00D+00
 Coeff-Com:  0.837D-05-0.908D-05 0.448D-04 0.102D-03-0.755D-05-0.716D-05
 Coeff-Com: -0.301D-02-0.854D-02-0.837D-02 0.614D-01 0.288D+00 0.670D+00
 Coeff:      0.837D-05-0.908D-05 0.448D-04 0.102D-03-0.755D-05-0.716D-05
 Coeff:     -0.301D-02-0.854D-02-0.837D-02 0.614D-01 0.288D+00 0.670D+00
 Gap=     0.128 Goal=   None    Shift=    0.000
 RMSDP=6.47D-08 MaxDP=1.70D-06 DE=-8.59D-10 OVMax= 7.42D-06

 Cycle  13  Pass 1  IDiag  1:
 RMSU=  2.94D-08    CP:  9.89D-01  1.37D+00  6.95D-01  1.02D+00  8.65D-01
                    CP:  9.68D-01  9.58D-01  1.09D+00  8.10D-01  1.04D+00
                    CP:  8.64D-01  8.08D-01
 E= -768.327857333920     Delta-E=       -0.000000000141 Rises=F Damp=F
 DIIS: error= 1.21D-07 at cycle  13 NSaved=  13.
 NSaved=13 IEnMin=13 EnMin= -768.327857333920     IErMin=13 ErrMin= 1.21D-07
 ErrMax= 1.21D-07  0.00D+00 EMaxC= 1.00D-01 BMatC= 3.86D-12 BMatP= 1.06D-10
 IDIUse=1 WtCom= 1.00D+00 WtEn= 0.00D+00
 Coeff-Com: -0.151D-05 0.202D-05 0.114D-04 0.506D-04 0.590D-04 0.135D-03
 Coeff-Com: -0.687D-03-0.292D-02-0.522D-02-0.176D-02 0.644D-01 0.236D+00
 Coeff-Com:  0.710D+00
 Coeff:     -0.151D-05 0.202D-05 0.114D-04 0.506D-04 0.590D-04 0.135D-03
 Coeff:     -0.687D-03-0.292D-02-0.522D-02-0.176D-02 0.644D-01 0.236D+00
 Coeff:      0.710D+00
 Gap=     0.128 Goal=   None    Shift=    0.000
 RMSDP=1.34D-08 MaxDP=3.48D-07 DE=-1.41D-10 OVMax= 9.99D-07

 Cycle  14  Pass 1  IDiag  1:
 RMSU=  8.61D-09    CP:  9.89D-01  1.37D+00  6.95D-01  1.02D+00  8.65D-01
                    CP:  9.68D-01  9.58D-01  1.09D+00  8.11D-01  1.04D+00
                    CP:  8.82D-01  8.59D-01  9.26D-01
 E= -768.327857333904     Delta-E=        0.000000000016 Rises=F Damp=F
 DIIS: error= 4.64D-08 at cycle  14 NSaved=  14.
 NSaved=14 IEnMin=13 EnMin= -768.327857333920     IErMin=14 ErrMin= 4.64D-08
 ErrMax= 4.64D-08  0.00D+00 EMaxC= 1.00D-01 BMatC= 6.06D-13 BMatP= 3.86D-12
 IDIUse=1 WtCom= 1.00D+00 WtEn= 0.00D+00
 Coeff-Com: -0.938D-06 0.998D-06-0.169D-06 0.838D-05 0.206D-04 0.535D-04
 Coeff-Com:  0.204D-04-0.263D-03-0.134D-02-0.713D-02-0.206D-02 0.337D-01
 Coeff-Com:  0.319D+00 0.658D+00
 Coeff:     -0.938D-06 0.998D-06-0.169D-06 0.838D-05 0.206D-04 0.535D-04
 Coeff:      0.204D-04-0.263D-03-0.134D-02-0.713D-02-0.206D-02 0.337D-01
 Coeff:      0.319D+00 0.658D+00
 Gap=     0.128 Goal=   None    Shift=    0.000
 RMSDP=4.07D-09 MaxDP=1.04D-07 DE= 1.61D-11 OVMax= 3.36D-07

 Error on total polarization charges =  0.01241
 SCF Done:  E(RB3LYP) =  -768.327857334     A.U. after   14 cycles
            NFock= 14  Conv=0.41D-08     -V/T= 2.0091
 KE= 7.614034186204D+02 PE=-4.092403479064D+03 EE= 1.403975589710D+03
 Leave Link  502 at Fri May 24 08:34:18 2019, MaxMem=   402653184 cpu:             551.3 elap:             138.0
 (Enter /n/sw/g16_nehalem/g16/l601.exe)
 Copying SCF densities to generalized density rwf, IOpCl= 0 IROHF=0.

 **********************************************************************

            Population analysis using the SCF density.

 **********************************************************************

 Orbital symmetries:
       Occupied  (A) (A) (A) (A) (A) (A) (A) (A) (A) (A) (A) (A)
                 (A) (A) (A) (A) (A) (A) (A) (A) (A) (A) (A) (A)
                 (A) (A) (A) (A) (A) (A) (A) (A) (A) (A) (A) (A)
                 (A) (A) (A) (A) (A) (A) (A) (A) (A) (A) (A) (A)
                 (A) (A) (A) (A) (A) (A) (A) (A) (A) (A) (A)
       Virtual   (A) (A) (A) (A) (A) (A) (A) (A) (A) (A) (A) (A)
                 (A) (A) (A) (A) (A) (A) (A) (A) (A) (A) (A) (A)
                 (A) (A) (A) (A) (A) (A) (A) (A) (A) (A) (A) (A)
                 (A) (A) (A) (A) (A) (A) (A) (A) (A) (A) (A) (A)
                 (A) (A) (A) (A) (A) (A) (A) (A) (A) (A) (A) (A)
                 (A) (A) (A) (A) (A) (A) (A) (A) (A) (A) (A) (A)
                 (A) (A) (A) (A) (A) (A) (A) (A) (A) (A) (A) (A)
                 (A) (A) (A) (A) (A) (A) (A) (A) (A) (A) (A) (A)
                 (A) (A) (A) (A) (A) (A) (A) (A) (A) (A) (A) (A)
                 (A) (A) (A) (A) (A) (A) (A) (A) (A) (A) (A) (A)
                 (A) (A) (A) (A) (A) (A) (A) (A) (A) (A) (A) (A)
                 (A) (A) (A) (A) (A) (A) (A) (A) (A) (A) (A) (A)
                 (A) (A) (A) (A) (A) (A) (A) (A) (A) (A) (A) (A)
                 (A) (A) (A) (A) (A) (A) (A) (A) (A) (A) (A) (A)
                 (A) (A) (A) (A) (A) (A) (A) (A) (A) (A) (A) (A)
                 (A) (A) (A) (A) (A) (A) (A) (A) (A) (A) (A) (A)
                 (A) (A) (A) (A) (A) (A) (A) (A) (A) (A) (A) (A)
 The electronic state is 1-A.
 Alpha  occ. eigenvalues --  -19.33015 -19.20720 -19.19706 -19.19239 -19.18760
 Alpha  occ. eigenvalues --  -10.39616 -10.32134 -10.31836 -10.29404 -10.29338
 Alpha  occ. eigenvalues --  -10.27820 -10.25790 -10.25676 -10.24986 -10.24906
 Alpha  occ. eigenvalues --   -1.21707  -1.09583  -1.08089  -1.07025  -1.06423
 Alpha  occ. eigenvalues --   -0.87415  -0.85825  -0.77692  -0.75100  -0.73998
 Alpha  occ. eigenvalues --   -0.71331  -0.69306  -0.67613  -0.65680  -0.62036
 Alpha  occ. eigenvalues --   -0.60682  -0.58707  -0.55929  -0.55095  -0.53644
 Alpha  occ. eigenvalues --   -0.52799  -0.51595  -0.50737  -0.50254  -0.49231
 Alpha  occ. eigenvalues --   -0.48331  -0.47690  -0.46724  -0.45703  -0.45426
 Alpha  occ. eigenvalues --   -0.44471  -0.42999  -0.42586  -0.41662  -0.40572
 Alpha  occ. eigenvalues --   -0.39913  -0.37033  -0.36276  -0.35290  -0.35117
 Alpha  occ. eigenvalues --   -0.32655  -0.31296  -0.29288  -0.27874
 Alpha virt. eigenvalues --   -0.15056   0.00174   0.04474   0.05479   0.05740
 Alpha virt. eigenvalues --    0.07303   0.07944   0.09811   0.09848   0.10625
 Alpha virt. eigenvalues --    0.11285   0.11520   0.11899   0.12905   0.13270
 Alpha virt. eigenvalues --    0.13460   0.13709   0.14346   0.14874   0.15409
 Alpha virt. eigenvalues --    0.15660   0.16105   0.16522   0.16768   0.17620
 Alpha virt. eigenvalues --    0.18542   0.19116   0.20343   0.21057   0.21662
 Alpha virt. eigenvalues --    0.24287   0.24914   0.26761   0.27897   0.28196
 Alpha virt. eigenvalues --    0.44153   0.45504   0.47133   0.47505   0.48058
 Alpha virt. eigenvalues --    0.48747   0.49279   0.49836   0.51420   0.52509
 Alpha virt. eigenvalues --    0.53059   0.53606   0.54455   0.54652   0.55926
 Alpha virt. eigenvalues --    0.57560   0.58074   0.59832   0.60619   0.62238
 Alpha virt. eigenvalues --    0.63652   0.64837   0.66262   0.68159   0.71258
 Alpha virt. eigenvalues --    0.73251   0.74033   0.75490   0.75842   0.78789
 Alpha virt. eigenvalues --    0.79765   0.80052   0.80876   0.81815   0.82448
 Alpha virt. eigenvalues --    0.83132   0.83249   0.84015   0.85565   0.86251
 Alpha virt. eigenvalues --    0.86567   0.87185   0.88446   0.88926   0.89891
 Alpha virt. eigenvalues --    0.91525   0.92573   0.93033   0.94076   0.95366
 Alpha virt. eigenvalues --    0.96682   0.97754   0.97963   0.99092   1.01401
 Alpha virt. eigenvalues --    1.02574   1.06288   1.07792   1.10254   1.11452
 Alpha virt. eigenvalues --    1.14160   1.14327   1.15775   1.19074   1.21627
 Alpha virt. eigenvalues --    1.24452   1.27912   1.28121   1.30255   1.31071
 Alpha virt. eigenvalues --    1.32397   1.36509   1.37568   1.38000   1.41416
 Alpha virt. eigenvalues --    1.43290   1.45295   1.46467   1.48018   1.48667
 Alpha virt. eigenvalues --    1.51206   1.54182   1.56327   1.59630   1.61584
 Alpha virt. eigenvalues --    1.62348   1.63867   1.66041   1.67955   1.71483
 Alpha virt. eigenvalues --    1.74559   1.77839   1.78250   1.79461   1.82278
 Alpha virt. eigenvalues --    1.83165   1.83700   1.87153   1.88637   1.90752
 Alpha virt. eigenvalues --    1.91739   1.93257   1.95791   1.97908   1.99425
 Alpha virt. eigenvalues --    2.00742   2.01669   2.03311   2.03401   2.05143
 Alpha virt. eigenvalues --    2.06049   2.07235   2.07514   2.09204   2.11083
 Alpha virt. eigenvalues --    2.11972   2.13562   2.14594   2.15267   2.16414
 Alpha virt. eigenvalues --    2.17726   2.21435   2.21940   2.23089   2.24276
 Alpha virt. eigenvalues --    2.26433   2.27628   2.30008   2.32179   2.34193
 Alpha virt. eigenvalues --    2.37997   2.39403   2.40577   2.43269   2.47925
 Alpha virt. eigenvalues --    2.51780   2.52392   2.53489   2.57280   2.59825
 Alpha virt. eigenvalues --    2.61047   2.65154   2.70218   2.75176   2.77746
 Alpha virt. eigenvalues --    2.79627   2.80926   2.81390   2.88821   2.90861
 Alpha virt. eigenvalues --    2.94527   2.97912   3.01468   3.08401   3.81547
 Alpha virt. eigenvalues --    3.88983   3.97386   3.98547   4.05547   4.16312
 Alpha virt. eigenvalues --    4.21869   4.22678   4.24164   4.26264   4.30191
 Alpha virt. eigenvalues --    4.38731   4.46357   4.53493   4.66383
          Condensed to atoms (all electrons):
               1          2          3          4          5          6
     1  C    4.989386   0.235005  -0.033861  -0.039524   0.259716   0.002816
     2  C    0.235005   5.172322   0.298548  -0.003741  -0.044477  -0.041203
     3  C   -0.033861   0.298548   4.768571  -0.035513   0.002246   0.356509
     4  C   -0.039524  -0.003741  -0.035513   5.075202   0.297149   0.003082
     5  C    0.259716  -0.044477   0.002246   0.297149   5.097335  -0.000336
     6  H    0.002816  -0.041203   0.356509   0.003082  -0.000336   0.428433
     7  H   -0.034876   0.335058  -0.033971   0.000857  -0.002043   0.000655
     8  H    0.375518  -0.043747  -0.003495  -0.002525  -0.042274  -0.000134
     9  H   -0.004244   0.000834  -0.000506   0.361848  -0.036316  -0.000119
    10  H   -0.047889  -0.000739   0.000512  -0.044862   0.349628  -0.000007
    11  O    0.003715  -0.030601   0.394693   0.115238  -0.027949  -0.034226
    12  O   -0.034119   0.181382  -0.030461  -0.000057   0.003193   0.006077
    13  O    0.272781  -0.039324   0.002503   0.002276  -0.038099  -0.000040
    14  O   -0.033854   0.003250  -0.000066  -0.038024   0.188618   0.000003
    15  C    0.002829   0.000021   0.001139   0.352425  -0.025524  -0.000198
    16  H    0.000248  -0.000037   0.000071  -0.033319  -0.008555   0.000004
    17  H   -0.000093   0.000017   0.000089  -0.027557   0.004941  -0.000009
    18  O    0.000089  -0.000414   0.002980  -0.052693  -0.007717   0.000036
    19  C   -0.000876  -0.027115   0.002894  -0.000009  -0.000046   0.000092
    20  H   -0.000111  -0.009832   0.000080  -0.000002   0.000044  -0.000087
    21  H    0.001097  -0.004012   0.000143  -0.000001  -0.000033   0.000035
    22  H   -0.000125   0.004630  -0.000151   0.000000   0.000003  -0.000044
    23  C   -0.044560  -0.007245   0.000302   0.000243  -0.006267  -0.000004
    24  H    0.004981   0.000006  -0.000002  -0.000001   0.000027   0.000000
    25  H   -0.006976   0.005076  -0.000510   0.000035  -0.001178   0.000015
    26  H   -0.005323  -0.001125   0.000069  -0.000252   0.005073   0.000000
    27  C   -0.001772  -0.000013  -0.000001   0.004104  -0.030686   0.000000
    28  H    0.001773  -0.000072  -0.000002  -0.000063  -0.004181   0.000000
    29  H   -0.000472   0.000060  -0.000003   0.000267  -0.010172   0.000000
    30  H   -0.000111   0.000005   0.000000  -0.000166   0.004714   0.000000
    31  C   -0.000004   0.000006  -0.000065   0.005673   0.000285  -0.000001
    32  H    0.000000   0.000000   0.000000  -0.000281   0.000010   0.000000
    33  H    0.000000   0.000000   0.000002   0.000097   0.000014   0.000000
    34  H   -0.000001   0.000000   0.000003   0.000018  -0.000099   0.000000
               7          8          9         10         11         12
     1  C   -0.034876   0.375518  -0.004244  -0.047889   0.003715  -0.034119
     2  C    0.335058  -0.043747   0.000834  -0.000739  -0.030601   0.181382
     3  C   -0.033971  -0.003495  -0.000506   0.000512   0.394693  -0.030461
     4  C    0.000857  -0.002525   0.361848  -0.044862   0.115238  -0.000057
     5  C   -0.002043  -0.042274  -0.036316   0.349628  -0.027949   0.003193
     6  H    0.000655  -0.000134  -0.000119  -0.000007  -0.034226   0.006077
     7  H    0.515731   0.004853  -0.000011   0.002390  -0.000344  -0.026362
     8  H    0.004853   0.541071   0.002393   0.005073   0.001044   0.000963
     9  H   -0.000011   0.002393   0.472627   0.005307  -0.024147  -0.000002
    10  H    0.002390   0.005073   0.005307   0.564245   0.000758  -0.000051
    11  O   -0.000344   0.001044  -0.024147   0.000758   7.940609   0.001285
    12  O   -0.026362   0.000963  -0.000002  -0.000051   0.001285   8.242398
    13  O   -0.005237  -0.039588  -0.000032  -0.003258   0.000017   0.002353
    14  O   -0.000039   0.001505   0.005269  -0.031850   0.001165  -0.000010
    15  C    0.000012  -0.000052  -0.031122  -0.010949  -0.036792  -0.000001
    16  H   -0.000001  -0.000006   0.001427  -0.000864   0.003156   0.000000
    17  H    0.000002   0.000001  -0.001272   0.000696  -0.002878   0.000000
    18  O    0.000196  -0.000004   0.002309   0.018877   0.001520   0.000000
    19  C   -0.007146  -0.000190   0.000000  -0.000005  -0.000045   0.226815
    20  H    0.009155   0.000036   0.000000  -0.000001  -0.000010  -0.032543
    21  H   -0.000317  -0.000003   0.000000   0.000002   0.000004  -0.034474
    22  H   -0.000060  -0.000020   0.000000   0.000000   0.000001  -0.030385
    23  C    0.003592   0.005616  -0.000001   0.002921   0.000001  -0.000017
    24  H   -0.000118  -0.000113   0.000000  -0.000045   0.000000  -0.000010
    25  H    0.005293  -0.000199   0.000000  -0.000231   0.000003  -0.000180
    26  H   -0.000475  -0.000188  -0.000004   0.002092  -0.000002   0.000016
    27  C   -0.000011  -0.000103  -0.000134  -0.006223  -0.000043   0.000000
    28  H    0.000001  -0.000131  -0.000003  -0.001226   0.000003   0.000001
    29  H    0.000001   0.000066   0.000097   0.011166  -0.000002   0.000000
    30  H    0.000000  -0.000018  -0.000020   0.000015   0.000000   0.000000
    31  C   -0.000002   0.000000  -0.000139  -0.000452   0.000035   0.000000
    32  H   -0.000001   0.000000   0.000003  -0.000030   0.000002   0.000000
    33  H    0.000000   0.000000   0.000007   0.000074  -0.000030   0.000000
    34  H    0.000000   0.000000   0.000009  -0.000048   0.000006   0.000000
              13         14         15         16         17         18
     1  C    0.272781  -0.033854   0.002829   0.000248  -0.000093   0.000089
     2  C   -0.039324   0.003250   0.000021  -0.000037   0.000017  -0.000414
     3  C    0.002503  -0.000066   0.001139   0.000071   0.000089   0.002980
     4  C    0.002276  -0.038024   0.352425  -0.033319  -0.027557  -0.052693
     5  C   -0.038099   0.188618  -0.025524  -0.008555   0.004941  -0.007717
     6  H   -0.000040   0.000003  -0.000198   0.000004  -0.000009   0.000036
     7  H   -0.005237  -0.000039   0.000012  -0.000001   0.000002   0.000196
     8  H   -0.039588   0.001505  -0.000052  -0.000006   0.000001  -0.000004
     9  H   -0.000032   0.005269  -0.031122   0.001427  -0.001272   0.002309
    10  H   -0.003258  -0.031850  -0.010949  -0.000864   0.000696   0.018877
    11  O    0.000017   0.001165  -0.036792   0.003156  -0.002878   0.001520
    12  O    0.002353  -0.000010  -0.000001   0.000000   0.000000   0.000000
    13  O    8.187007   0.001704  -0.000033  -0.000001   0.000000   0.000000
    14  O    0.001704   8.252775  -0.000783   0.005970   0.000007   0.000144
    15  C   -0.000033  -0.000783   4.878512   0.355752   0.355803   0.239760
    16  H   -0.000001   0.005970   0.355752   0.567576  -0.044138  -0.036020
    17  H    0.000000   0.000007   0.355803  -0.044138   0.569817  -0.039220
    18  O    0.000000   0.000144   0.239760  -0.036020  -0.039220   8.215134
    19  C   -0.001893   0.000000   0.000000   0.000000   0.000000   0.000000
    20  H    0.000129   0.000000   0.000000   0.000000   0.000000   0.000000
    21  H    0.006083   0.000000   0.000000   0.000000   0.000000   0.000000
    22  H    0.000050   0.000000   0.000000   0.000000   0.000000   0.000000
    23  C    0.229546  -0.000039   0.000003  -0.000001   0.000000  -0.000008
    24  H   -0.031156  -0.000009   0.000000   0.000000   0.000000   0.000000
    25  H   -0.036147   0.000018  -0.000002   0.000000   0.000000   0.000000
    26  H   -0.035820  -0.000170   0.000028   0.000001   0.000000  -0.000031
    27  C   -0.001456   0.233260  -0.000030   0.000037   0.000005  -0.000009
    28  H    0.006517  -0.034692  -0.000005   0.000041   0.000000   0.000001
    29  H    0.000132  -0.033756   0.000002   0.000015  -0.000005  -0.000061
    30  H    0.000091  -0.032413   0.000012  -0.000049   0.000000   0.000000
    31  C    0.000000  -0.000008  -0.041281  -0.003985  -0.003828   0.244537
    32  H    0.000000   0.000000   0.005544  -0.000095  -0.000137  -0.031457
    33  H    0.000000   0.000000  -0.007406  -0.002083   0.010345  -0.035490
    34  H    0.000000  -0.000005  -0.007025   0.010679  -0.002049  -0.036304
              19         20         21         22         23         24
     1  C   -0.000876  -0.000111   0.001097  -0.000125  -0.044560   0.004981
     2  C   -0.027115  -0.009832  -0.004012   0.004630  -0.007245   0.000006
     3  C    0.002894   0.000080   0.000143  -0.000151   0.000302  -0.000002
     4  C   -0.000009  -0.000002  -0.000001   0.000000   0.000243  -0.000001
     5  C   -0.000046   0.000044  -0.000033   0.000003  -0.006267   0.000027
     6  H    0.000092  -0.000087   0.000035  -0.000044  -0.000004   0.000000
     7  H   -0.007146   0.009155  -0.000317  -0.000060   0.003592  -0.000118
     8  H   -0.000190   0.000036  -0.000003  -0.000020   0.005616  -0.000113
     9  H    0.000000   0.000000   0.000000   0.000000  -0.000001   0.000000
    10  H   -0.000005  -0.000001   0.000002   0.000000   0.002921  -0.000045
    11  O   -0.000045  -0.000010   0.000004   0.000001   0.000001   0.000000
    12  O    0.226815  -0.032543  -0.034474  -0.030385  -0.000017  -0.000010
    13  O   -0.001893   0.000129   0.006083   0.000050   0.229546  -0.031156
    14  O    0.000000   0.000000   0.000000   0.000000  -0.000039  -0.000009
    15  C    0.000000   0.000000   0.000000   0.000000   0.000003   0.000000
    16  H    0.000000   0.000000   0.000000   0.000000  -0.000001   0.000000
    17  H    0.000000   0.000000   0.000000   0.000000   0.000000   0.000000
    18  O    0.000000   0.000000   0.000000   0.000000  -0.000008   0.000000
    19  C    4.915683   0.368920   0.369261   0.384701  -0.000269  -0.000001
    20  H    0.368920   0.561164  -0.040112  -0.027036  -0.000200   0.000001
    21  H    0.369261  -0.040112   0.549549  -0.028338  -0.000731   0.000046
    22  H    0.384701  -0.027036  -0.028338   0.503621   0.000032  -0.000001
    23  C   -0.000269  -0.000200  -0.000731   0.000032   4.946398   0.387680
    24  H   -0.000001   0.000001   0.000046  -0.000001   0.387680   0.501620
    25  H    0.001532   0.000115  -0.000827  -0.000013   0.362220  -0.028603
    26  H    0.000012   0.000006   0.000187   0.000000   0.366536  -0.029345
    27  C    0.000000   0.000000   0.000000   0.000000  -0.000689   0.000003
    28  H    0.000000   0.000000   0.000000   0.000000  -0.001063  -0.000018
    29  H    0.000000   0.000000   0.000000   0.000000  -0.000509   0.000015
    30  H    0.000000   0.000000   0.000000   0.000000   0.000060  -0.000002
    31  C    0.000000   0.000000   0.000000   0.000000   0.000000   0.000000
    32  H    0.000000   0.000000   0.000000   0.000000   0.000000   0.000000
    33  H    0.000000   0.000000   0.000000   0.000000   0.000000   0.000000
    34  H    0.000000   0.000000   0.000000   0.000000   0.000000   0.000000
              25         26         27         28         29         30
     1  C   -0.006976  -0.005323  -0.001772   0.001773  -0.000472  -0.000111
     2  C    0.005076  -0.001125  -0.000013  -0.000072   0.000060   0.000005
     3  C   -0.000510   0.000069  -0.000001  -0.000002  -0.000003   0.000000
     4  C    0.000035  -0.000252   0.004104  -0.000063   0.000267  -0.000166
     5  C   -0.001178   0.005073  -0.030686  -0.004181  -0.010172   0.004714
     6  H    0.000015   0.000000   0.000000   0.000000   0.000000   0.000000
     7  H    0.005293  -0.000475  -0.000011   0.000001   0.000001   0.000000
     8  H   -0.000199  -0.000188  -0.000103  -0.000131   0.000066  -0.000018
     9  H    0.000000  -0.000004  -0.000134  -0.000003   0.000097  -0.000020
    10  H   -0.000231   0.002092  -0.006223  -0.001226   0.011166   0.000015
    11  O    0.000003  -0.000002  -0.000043   0.000003  -0.000002   0.000000
    12  O   -0.000180   0.000016   0.000000   0.000001   0.000000   0.000000
    13  O   -0.036147  -0.035820  -0.001456   0.006517   0.000132   0.000091
    14  O    0.000018  -0.000170   0.233260  -0.034692  -0.033756  -0.032413
    15  C   -0.000002   0.000028  -0.000030  -0.000005   0.000002   0.000012
    16  H    0.000000   0.000001   0.000037   0.000041   0.000015  -0.000049
    17  H    0.000000   0.000000   0.000005   0.000000  -0.000005   0.000000
    18  O    0.000000  -0.000031  -0.000009   0.000001  -0.000061   0.000000
    19  C    0.001532   0.000012   0.000000   0.000000   0.000000   0.000000
    20  H    0.000115   0.000006   0.000000   0.000000   0.000000   0.000000
    21  H   -0.000827   0.000187   0.000000   0.000000   0.000000   0.000000
    22  H   -0.000013   0.000000   0.000000   0.000000   0.000000   0.000000
    23  C    0.362220   0.366536  -0.000689  -0.001063  -0.000509   0.000060
    24  H   -0.028603  -0.029345   0.000003  -0.000018   0.000015  -0.000002
    25  H    0.586719  -0.045400   0.000042   0.000233   0.000008   0.000000
    26  H   -0.045400   0.575570   0.001519  -0.000929   0.000837  -0.000043
    27  C    0.000042   0.001519   4.908775   0.368625   0.367224   0.383707
    28  H    0.000233  -0.000929   0.368625   0.564054  -0.042286  -0.030826
    29  H    0.000008   0.000837   0.367224  -0.042286   0.573859  -0.027482
    30  H    0.000000  -0.000043   0.383707  -0.030826  -0.027482   0.519579
    31  C    0.000000   0.000001  -0.000002   0.000000   0.000012   0.000000
    32  H    0.000000   0.000000   0.000000   0.000000   0.000000   0.000000
    33  H    0.000000   0.000000   0.000000   0.000000   0.000000   0.000000
    34  H    0.000000   0.000000   0.000002   0.000000   0.000019   0.000000
              31         32         33         34
     1  C   -0.000004   0.000000   0.000000  -0.000001
     2  C    0.000006   0.000000   0.000000   0.000000
     3  C   -0.000065   0.000000   0.000002   0.000003
     4  C    0.005673  -0.000281   0.000097   0.000018
     5  C    0.000285   0.000010   0.000014  -0.000099
     6  H   -0.000001   0.000000   0.000000   0.000000
     7  H   -0.000002  -0.000001   0.000000   0.000000
     8  H    0.000000   0.000000   0.000000   0.000000
     9  H   -0.000139   0.000003   0.000007   0.000009
    10  H   -0.000452  -0.000030   0.000074  -0.000048
    11  O    0.000035   0.000002  -0.000030   0.000006
    12  O    0.000000   0.000000   0.000000   0.000000
    13  O    0.000000   0.000000   0.000000   0.000000
    14  O   -0.000008   0.000000   0.000000  -0.000005
    15  C   -0.041281   0.005544  -0.007406  -0.007025
    16  H   -0.003985  -0.000095  -0.002083   0.010679
    17  H   -0.003828  -0.000137   0.010345  -0.002049
    18  O    0.244537  -0.031457  -0.035490  -0.036304
    19  C    0.000000   0.000000   0.000000   0.000000
    20  H    0.000000   0.000000   0.000000   0.000000
    21  H    0.000000   0.000000   0.000000   0.000000
    22  H    0.000000   0.000000   0.000000   0.000000
    23  C    0.000000   0.000000   0.000000   0.000000
    24  H    0.000000   0.000000   0.000000   0.000000
    25  H    0.000000   0.000000   0.000000   0.000000
    26  H    0.000001   0.000000   0.000000   0.000000
    27  C   -0.000002   0.000000   0.000000   0.000002
    28  H    0.000000   0.000000   0.000000   0.000000
    29  H    0.000012   0.000000   0.000000   0.000019
    30  H    0.000000   0.000000   0.000000   0.000000
    31  C    4.887209   0.385403   0.368402   0.369690
    32  H    0.385403   0.523558  -0.030530  -0.030147
    33  H    0.368402  -0.030530   0.581652  -0.044254
    34  H    0.369690  -0.030147  -0.044254   0.580377
 Mulliken charges:
               1
     1  C    0.138837
     2  C    0.017477
     3  C    0.307250
     4  C    0.060077
     5  C    0.072957
     6  H    0.278650
     7  H    0.233219
     8  H    0.194650
     9  H    0.245941
    10  H    0.184974
    11  O   -0.306185
    12  O   -0.475810
    13  O   -0.479104
    14  O   -0.487971
    15  C   -0.030639
    16  H    0.184177
    17  H    0.179464
    18  O   -0.486155
    19  C   -0.232317
    20  H    0.170283
    21  H    0.182440
    22  H    0.193135
    23  C   -0.243548
    24  H    0.195043
    25  H    0.158955
    26  H    0.167163
    27  C   -0.226129
    28  H    0.174249
    29  H    0.160968
    30  H    0.182949
    31  C   -0.211487
    32  H    0.178160
    33  H    0.159199
    34  H    0.159128
 Sum of Mulliken charges =   1.00000
 Mulliken charges with hydrogens summed into heavy atoms:
               1
     1  C    0.333486
     2  C    0.250696
[...]
 05705,0.00007529,0.00005441,-0.00003670,-0.00006036,-0.00000741,0.0000
 0258,0.00000932,-0.00000414,0.00001078,0.00001086,-0.00001422,0.000001
 73,0.00000956,-0.00007401,0.00002260,0.00014081,-0.00002659,-0.0000062
 8,0.00001543,0.00000950,-0.00000332,-0.00000527,-0.00030646,-0.0001146
 7,-0.00004982,0.02183870,-0.05768375,0.03618596,0.00341607,0.00103301,
 0.00857851,-0.02046695,0.06356379,0.00036075,-0.00048935,-0.00004118,-
 0.00006182,0.00016790,0.00002282,0.00005562,0.00013922,-0.00000425,-0.
 00007490,0.00055705,0.00058045,0.00182804,0.00373313,0.00037393,-0.000
 02194,-0.00000009,-0.00002455,0.00001297,-0.00000900,0.00000540,0.0002
 0340,0.00008489,-0.00004231,-0.00017929,0.00018607,0.00005958,-0.00051
 843,-0.00123239,0.00065268,-0.00005061,-0.00035140,0.00003784,-0.00027
 242,-0.00017691,0.00006610,-0.00023337,0.00020321,0.00042920,-0.008547
 36,-0.01307756,-0.01917086,-0.00005287,0.00000672,-0.00013996,-0.00007
 421,0.00004985,0.00002309,0.00006595,-0.00001521,0.00004082,0.00018494
 ,-0.00000733,0.00015500,0.00010447,-0.00003218,-0.00011523,-0.00000697
 ,-0.00000098,0.00002345,0.00000120,0.00001011,0.00001179,-0.00002413,-
 0.00000141,0.00001271,-0.00011490,-0.00013077,-0.00043185,0.00003761,0
 .00004490,0.00002522,0.00004762,0.00000027,0.00001333,0.00017647,-0.00
 003357,-0.00016410,-0.11343718,0.03079404,-0.22429919,0.00386171,0.000
 44094,0.00757331,0.12786516,-0.02385106,0.24836153,-0.00009923,0.00073
 338,0.00035581,0.00011419,-0.00019180,-0.00002252,-0.00015837,0.000033
 45,0.00010289,0.00001449,0.00003005,0.00005250,0.00088216,0.00191362,-
 0.00072378,-0.00000032,-0.00000392,-0.00003159,-0.00000133,0.00005154,
 -0.00000222,0.00002967,-0.00002648,-0.00002661,0.00000374,0.00001116,0
 .00002206,-0.00008606,-0.00013724,0.00018533,0.00012319,0.00005505,-0.
 00002272,-0.00006643,-0.00001655,0.00001413,-0.00057306,-0.00075747,0.
 00025868,0.00179639,-0.00210320,-0.00192278,0.00002211,0.00000454,-0.0
 0008721,-0.00002360,0.00000804,-0.00000167,0.00001608,-0.00001394,0.00
 001418,0.00001954,-0.00001540,0.00005021,0.00001589,0.00000759,-0.0000
 2637,-0.00000185,0.00000075,0.00000618,0.00002126,-0.00000344,0.000000
 39,-0.00000809,-0.00001048,0.00000131,0.00022901,-0.00003822,-0.000349
 60,0.00001221,0.00002655,-0.00000412,-0.00007824,-0.00008264,-0.000004
 81,-0.00018149,0.00006332,-0.00014419,-0.11023413,-0.08032574,0.077677
 08,-0.01120078,-0.01975778,0.01948003,0.00992395,0.01275844,-0.0110910
 0,0.10950118,0.00060652,-0.00132314,0.00018024,-0.00016654,0.00027413,
 -0.00002760,0.00024961,0.00025351,-0.00005178,-0.00095305,0.00011411,0
 .00088255,-0.00054263,-0.00228109,-0.00431273,-0.00004889,0.00000112,-
 0.00002120,0.00001215,0.00002303,-0.00000623,0.00000088,0.00000391,-0.
 00001022,-0.00003345,0.00000620,-0.00004166,0.00005498,0.00008280,-0.0
 0007553,-0.00000802,-0.00096077,-0.00017657,-0.00037292,-0.00026585,0.
 00008344,-0.00014999,0.00052734,0.00021383,-0.01313184,-0.03362807,0.0
 1431736,-0.00016406,-0.00003466,-0.00014103,-0.00003378,0.00001566,0.0
 0001601,0.00008899,-0.00004300,0.00004787,0.00022034,-0.00005150,0.000
 12257,0.00014212,-0.00005104,-0.00015601,-0.00001121,0.00000125,0.0000
 2853,-0.00000557,0.00001781,0.00002094,-0.00003413,0.00000036,0.000020
 62,-0.00008674,0.00005069,-0.00027543,-0.00001427,0.00000301,0.0000372
 6,0.00008053,0.00002609,0.00003751,0.00009545,-0.00006914,0.00014403,-
 0.07592995,-0.15713963,0.10557812,0.00350166,0.00917099,-0.00564231,-0
 .00107381,-0.00046697,0.00302499,0.08778306,0.18575308,0.00020477,-0.0
 0066248,0.00019543,-0.00014531,0.00005368,0.00003692,0.00010006,0.0000
 9693,-0.00001948,-0.00039223,-0.00011943,0.00070784,-0.00082875,-0.003
 59796,-0.00103933,-0.00002467,0.00000568,-0.00001396,-0.00000323,0.000
 00556,-0.00001064,0.00003530,0.00000805,0.00001099,-0.00004097,0.00004
 872,-0.00003824,0.00011085,-0.00024567,0.00036149,0.00004561,-0.000323
 55,-0.00011409,-0.00008219,-0.00007995,0.00001818,0.00003964,0.0003510
 5,0.00004217,-0.00945148,-0.01872576,0.01219016,-0.00002255,-0.0000184
 9,-0.00007569,0.00003071,0.00000415,0.00000112,0.00001727,0.00000393,0
 .00000923,-0.00001063,0.00001934,0.00002889,0.00003372,-0.00003114,-0.
 00003825,-0.00000394,-0.00000114,0.00000490,-0.00001193,0.00000977,0.0
 0000473,-0.00000885,0.00000659,0.00000976,-0.00034136,-0.00006411,-0.0
 0024347,0.00007087,0.00001962,0.00002229,0.00013025,0.00006333,0.00003
 173,0.00006929,-0.00003278,0.00025494,0.07972495,0.11719583,-0.1606127
 8,0.00132822,0.00359567,-0.00242693,0.01315841,0.01618386,-0.01399219,
 -0.08374852,-0.11376206,0.16469174,-0.00098265,0.00015971,0.00006421,-
 0.00050068,-0.00052443,-0.00034325,-0.00223356,0.00016549,0.00067213,-
 0.00208640,-0.00217058,0.00321535,0.00014776,0.00139600,-0.00054702,0.
 00016624,-0.00003196,-0.00010758,0.00008317,-0.00005379,0.00010058,0.0
 0009641,0.00000253,0.00006859,0.00151900,0.00027418,0.00069585,-0.0006
 8654,0.00046786,0.00019316,0.00245697,0.00061190,-0.00070162,0.0007817
 2,0.00021409,-0.00012209,0.00077813,-0.00048582,-0.00050996,0.00029031
 ,-0.00130870,0.00017330,-0.00255165,0.00217559,-0.01116453,0.00176521,
 -0.00143754,0.00632549,0.00170116,-0.00132090,0.00654382,-0.19977080,0
 .01404932,-0.07057203,-0.00033336,-0.00002523,0.00036396,-0.00000579,-
 0.00000460,-0.00006551,0.00002753,-0.00001504,-0.00006268,0.00007077,0
 .00001114,-0.00002240,-0.00002959,0.00003237,0.00036345,0.00004992,-0.
 00003714,-0.00004066,-0.00002826,0.00000863,-0.00003803,-0.00002769,0.
 00006039,-0.00000518,0.00010042,0.00093302,0.00052605,0.00004347,-0.00
 013739,-0.00012428,-0.00000669,-0.00001442,-0.00013298,-0.00002495,-0.
 00015240,0.00001023,0.48588940,0.00000954,-0.00005039,0.00008992,0.000
 06493,0.00001637,0.00002506,0.00063041,0.00011561,-0.00026676,0.000467
 46,-0.00100934,0.00163105,0.00020090,-0.00002526,0.00037568,-0.0000283
 4,0.00000555,0.00002760,0.00003046,0.00001210,-0.00000663,0.00004322,-
 0.00000790,-0.00001414,0.00018730,0.00030475,0.00008865,-0.00010115,0.
 00020969,0.00015937,-0.00065169,-0.00001196,0.00011369,-0.00006520,-0.
 00002792,0.00001127,-0.00002006,0.00000172,-0.00001213,-0.00008092,-0.
 00023163,0.00010994,0.00928489,-0.00609274,0.00718167,0.00288105,0.001
 51819,0.00134959,-0.00199035,0.00172887,-0.00216800,0.00326560,-0.0642
 8567,0.00878542,0.00002781,0.00001429,-0.00003713,0.00000209,0.0000016
 6,0.00000786,-0.00000320,-0.00000216,0.00000717,-0.00000705,0.00000009
 ,0.00000159,0.00001883,0.00001147,0.00000953,-0.00000194,0.00000316,-0
 .00000112,-0.00000129,-0.00000242,-0.00000063,-0.00000474,0.00000195,-
 0.00000170,0.00007498,0.00002929,0.00011957,-0.00002755,-0.00000535,-0
 .00002342,0.00000647,-0.00000443,-0.00005283,0.00000787,-0.00001416,-0
 .00000513,0.01298743,0.57595652,-0.00057393,0.00019107,0.00022275,-0.0
 0029002,-0.00025527,-0.00016019,-0.00138026,-0.00018525,0.00014450,-0.
 00004554,0.00057255,-0.00660357,0.00041351,0.00014917,-0.00056034,0.00
 004220,-0.00000986,-0.00003469,-0.00001579,-0.00003132,0.00008689,0.00
 016707,-0.00000296,0.00004256,-0.00110577,0.00021761,-0.00004416,-0.00
 062384,0.00098210,0.00050050,0.00132590,0.00032131,-0.00004991,0.00043
 541,0.00012373,-0.00007893,0.00035693,-0.00025172,-0.00029671,0.000217
 41,-0.00083251,0.00043254,-0.03977892,0.00681070,-0.03768359,-0.000551
 86,-0.00137291,0.00390569,-0.00130292,0.00049317,0.00315583,-0.0286557
 6,0.01007415,-0.10692018,-0.00018747,-0.00001460,0.00022073,-0.0000017
 6,0.00000171,-0.00003961,0.00001592,-0.00000958,-0.00003363,0.00003845
 ,0.00000474,-0.00001664,-0.00003618,0.00000896,0.00022722,0.00002598,-
 0.00001740,-0.00002093,-0.00000537,0.00001636,-0.00001858,-0.00002598,
 0.00003379,0.00001065,0.00002214,0.00053968,0.00029887,0.00002797,-0.0
 0007023,-0.00005508,-0.00000272,0.00001145,-0.00006556,-0.00001348,-0.
 00008320,-0.00000087,-0.06351099,-0.00727362,0.59954835,0.00009372,-0.
 00000950,0.00001209,0.00003248,0.00006127,0.00003058,0.00021402,-0.000
 05446,-0.00010347,0.00054370,0.00054689,-0.00199359,0.00011759,-0.0002
 6116,-0.00004859,-0.00002399,0.00000413,0.00000905,-0.00002659,0.00000
 732,-0.00000434,0.00000597,-0.00000073,-0.00000177,-0.00058824,-0.0000
 4146,-0.00014608,0.00002723,0.00002864,0.00004502,-0.00014643,0.000006
 01,0.00014596,-0.00006481,-0.00001973,0.00002280,-0.00008475,0.0000495
 3,0.00006682,-0.00001972,0.00012081,0.00003842,-0.00494617,0.00039918,
 -0.00184089,-0.00002702,0.00031921,-0.00014951,0.00001228,-0.00019917,
 -0.00042257,0.00078304,0.00908387,-0.04005623,0.00002735,0.00000654,-0
 .00003886,0.00000012,-0.00000121,0.00000713,-0.00000301,0.00000093,0.0
 0000587,-0.00000588,-0.00000073,0.00000325,-0.00000139,-0.00000285,-0.
 00005550,-0.00000137,0.00000170,0.00000743,-0.00000530,-0.00000218,0.0
 0000630,0.00000427,0.00000378,-0.00000011,-0.00001901,-0.00008570,-0.0
 0005619,-0.00000294,0.00001567,0.00001373,0.00000353,0.00000673,0.0000
 1469,0.00000191,0.00001539,0.00000090,-0.06556309,-0.01632457,0.071742
 61,0.07322857,-0.00002686,0.00003954,0.00000478,-0.00001728,-0.0000274
 1,-0.00001553,-0.00006715,0.00004817,0.00004527,-0.00010980,0.00034350
 ,0.00025961,-0.00005211,0.00004643,0.00000618,0.00000318,-0.00000156,-
 0.00001698,0.00000549,0.00000451,0.00000307,0.00000087,-0.00000229,-0.
 00000023,0.00006637,-0.00001137,0.00002155,-0.00001203,0.00000409,0.00
 000232,0.00017062,0.00000171,0.00001412,0.00002610,0.00000107,-0.00000
 669,0.00001804,-0.00002994,-0.00003583,0.00001188,-0.00005049,-0.00001
 466,0.00067741,0.00048011,-0.00045022,0.00001011,0.00023947,-0.0003489
 9,-0.00002216,0.00007662,0.00043568,0.00091289,-0.00055590,0.00389269,
 -0.00001302,-0.00000048,0.00001419,-0.00000063,0.00000141,-0.00000180,
 0.00000272,-0.00000151,-0.00000201,0.00000211,0.00000026,-0.00000124,0
 .00001096,0.00001052,0.00002868,-0.00000128,-0.00000133,-0.00000271,0.
 00000245,-0.00000044,-0.00000164,-0.00000520,-0.00000672,0.00000038,0.
 00001018,0.00003524,0.00003139,0.00000303,-0.00000484,-0.00000381,-0.0
 0000813,-0.00000038,-0.00000313,-0.00000309,-0.00000263,-0.00000428,-0
 .01349252,-0.06569722,0.05558110,0.01310539,0.06202809,0.00014550,-0.0
 0000494,0.00000552,0.00005642,0.00008761,0.00003471,0.00035408,-0.0000
 3519,-0.00014524,0.00064627,0.00049002,-0.00093944,-0.00004472,-0.0002
 3734,-0.00001168,-0.00003000,0.00000260,0.00002095,-0.00002117,0.00001
 011,-0.00000983,-0.00000572,-0.00000261,-0.00000717,-0.00036820,-0.000
 03421,-0.00009908,0.00005943,-0.00004464,-0.00001811,-0.00038596,-0.00
 009298,0.00011806,-0.00010481,-0.00003544,0.00003237,-0.00012877,0.000
 07429,0.00010088,-0.00003621,0.00017456,0.00000735,-0.00342914,-0.0003
 8763,0.00216948,0.00010761,0.00012712,-0.00003602,0.00011108,-0.000094
 09,0.00003618,-0.00425078,0.00435235,-0.01900196,0.00004445,0.00000878
 ,-0.00006053,0.00000037,-0.00000128,0.00001153,-0.00000398,0.00000143,
 0.00000884,-0.00000938,-0.00000101,0.00000457,0.00000198,-0.00000412,-
 0.00008034,-0.00000380,0.00000370,0.00000941,-0.00000411,-0.00000435,0
 .00000870,0.00000736,0.00000057,0.00000004,-0.00001621,-0.00012558,-0.
 00007924,-0.00000844,0.00001963,0.00001646,0.00000685,0.00000444,0.000
 01586,0.00000536,0.00001887,0.00000291,0.05924240,0.05544941,-0.297265
 68,-0.05705526,-0.06268380,0.32433096,0.00021225,-0.00006503,-0.000119
 94,0.00011061,0.00008895,0.00004935,0.00034718,0.00002744,-0.00003711,
 0.00038130,0.00005781,-0.00006934,0.00006594,-0.00013328,0.00027335,-0
 .00002941,0.00000744,0.00001510,-0.00000252,0.00001707,-0.00002589,-0.
 00006177,-0.00000057,-0.00001382,-0.00017055,-0.00009472,-0.00008080,0
 .00024651,-0.00034637,-0.00020702,-0.00029181,-0.00005326,0.00010041,-
 0.00015992,-0.00005392,0.00002434,-0.00012550,0.00008041,0.00009857,-0
 .00007693,0.00035428,-0.00016946,0.00035485,-0.00100258,0.00637936,0.0
 0002114,0.00015576,-0.00078594,0.00053597,-0.00024106,-0.00166417,-0.0
 3384443,0.02563731,0.00004655,0.00006533,0.00000313,-0.00007452,0.0000
 0008,0.00000182,0.00001438,-0.00000371,0.00000264,0.00001216,-0.000014
 81,-0.00000166,0.00000530,0.00002020,0.00000410,-0.00006550,-0.0000123
 0,0.00000648,0.00000671,0.00000607,-0.00000551,0.00000633,0.00000468,-
 0.00002133,-0.00000379,-0.00000997,-0.00021196,-0.00011781,-0.00000868
 ,0.00002938,0.00002522,-0.00000390,0.00000216,0.00003094,0.00000477,0.
 00003478,-0.00000046,-0.11339996,0.09236299,0.05428070,-0.00183164,0.0
 0498630,0.00381416,0.13647788,-0.00005493,0.00003435,0.00003048,-0.000
 04151,-0.00002054,-0.00002442,-0.00009259,-0.00000676,0.00002303,-0.00
 023203,0.00013044,0.00032620,-0.00016374,0.00002844,-0.00014567,0.0000
 0651,-0.00000400,-0.00000500,0.00000218,-0.00000818,0.00000745,0.00001
 427,-0.00000101,0.00000556,0.00010438,0.00000329,0.00003261,-0.0000749
 0,0.00008890,0.00002679,0.00006916,0.00000017,-0.00005656,0.00005063,0
 .00001572,-0.00000275,0.00002469,-0.00001039,-0.00000730,0.00004825,-0
 .00005039,0.00005520,-0.00009238,0.00078301,-0.00147391,-0.00014743,-0
 .00045246,-0.00008835,0.00046711,-0.00050061,0.00119246,0.00672840,0.0
 0376171,0.00485372,-0.00002080,-0.00000084,0.00002021,-0.00000020,-0.0
 0000150,-0.00000389,0.00000082,-0.00000052,-0.00000414,0.00000502,0.00
 000088,-0.00000105,-0.00001548,-0.00000673,-0.00000014,0.00000508,-0.0
 0000207,-0.00000010,-0.00000244,0.00000160,-0.00000032,0.00000188,0.00
 000883,0.00000287,-0.00002328,0.00004552,-0.00001590,0.00000942,-0.000
 00681,0.00000236,-0.00000005,0.00000393,0.00000657,-0.00000095,-0.0000
 0785,0.00000448,0.09459320,-0.19560876,-0.08118754,-0.00512752,0.00724
 611,0.00291661,-0.11002471,0.20473576,-0.00000834,-0.00003661,-0.00008
 187,0.00000682,0.00000677,0.00000674,-0.00001548,0.00000179,0.00003051
 ,-0.00008405,-0.00011647,0.00016574,-0.00002430,0.00010091,-0.00000526
 ,0.00000681,0.00000122,-0.00000397,-0.00000117,-0.00000196,-0.00000444
 ,-0.00002402,-0.00000105,-0.00000141,-0.00000188,-0.00005881,-0.000027
 66,0.00004318,-0.00011315,-0.00010770,0.00009409,0.00006180,-0.0000092
 5,-0.00000766,0.00000094,0.00000396,0.00001698,0.00001286,0.00001998,-
 0.00000642,0.00009506,-0.00004222,-0.00209572,0.00257947,0.00484435,0.
 00003166,-0.00012133,-0.00042398,0.00106892,-0.00110009,0.00083694,-0.
 01565516,0.01537830,0.00549277,0.00000460,-0.00000190,-0.00000652,-0.0
 0000038,-0.00000146,0.00000061,-0.00000115,0.00000145,0.00000022,-0.00
 000035,0.00000008,0.00000136,-0.00000336,-0.00000340,-0.00001478,0.000
 00080,-0.00000032,0.00000120,-0.00000256,-0.00000124,-0.00000007,0.000
 00320,0.00000275,-0.00000108,-0.00000974,-0.00002513,-0.00003393,0.000
 00178,0.00000371,0.00000353,0.00000182,-0.00000193,0.00000790,-0.00000
 049,0.00000463,0.00000322,0.05805233,-0.08238376,-0.10260864,0.0148985
 2,-0.02390395,-0.01028731,-0.05563461,0.08687696,0.10006138,0.00014820
 ,-0.00007486,0.00000442,0.00011494,0.00008875,0.00008522,0.00062125,0.
 00006190,-0.00014947,0.00037718,0.00023144,0.00007808,0.00002799,-0.00
 026845,0.00005929,-0.00002292,0.00001086,0.00000612,-0.00000097,0.0000
 0563,-0.00002717,-0.00001396,0.00000342,-0.00001248,-0.00019465,-0.000
 02827,-0.00005144,0.00009338,-0.00016197,-0.00005125,-0.00034081,0.000
 04071,0.00018918,-0.00014779,-0.00003126,0.00001949,-0.00011793,0.0001
 0418,0.00009693,-0.00001281,0.00027757,-0.00001824,0.00045226,-0.00159
 679,0.00617810,0.00046360,0.00096240,-0.00124362,0.00001635,0.00019256
 ,-0.00080880,-0.03343748,-0.02438377,-0.01112871,0.00006508,0.00000639
 ,-0.00007197,0.00000220,0.00000018,0.00001228,-0.00000817,0.00000301,0
 .00001263,-0.00001323,-0.00000149,0.00000467,-0.00001352,-0.00001945,-
 0.00007132,-0.00000532,0.00000776,0.00000738,0.00000696,0.00000236,0.0
 0000535,0.00000831,-0.00000659,0.00000286,-0.00004886,-0.00016775,-0.0
 0015615,0.00000251,0.00002000,0.00003428,0.00000133,0.00000871,0.00004
 284,0.00000618,0.00002679,0.00000602,-0.10773594,-0.10324619,0.0089963
 5,-0.00173445,-0.00619482,0.00130333,0.01119306,0.01398393,-0.00065464
 ,0.13024801,0.00006216,-0.00001494,-0.00002789,0.00003651,0.00003042,0
 .00003013,0.00015717,0.00000161,0.00002060,0.00024067,0.00032849,-0.00
 031476,-0.00004686,-0.00011654,0.00007438,-0.00000645,0.00000072,-0.00
 001049,-0.00000208,-0.00000210,-0.00001041,-0.00001426,0.00000082,-0.0
 0000557,-0.00009478,-0.00003930,-0.00003128,0.00006787,-0.00004685,-0.
 00004013,-0.00000309,-0.00000158,0.00012139,-0.00005369,-0.00000708,0.
 00000255,-0.00004490,0.00003706,0.00003062,0.00000127,0.00011007,-0.00
 002450,0.00108745,0.00221780,0.00033425,-0.00093309,-0.00029906,-0.001
 47407,0.00009582,-0.00056511,-0.00000871,-0.00051800,0.01106645,-0.001
 94750,0.00002407,-0.00000321,-0.00001943,0.00000039,0.00000027,0.00000
 259,-0.00000208,0.00000249,0.00000371,-0.00000448,-0.00000130,0.000001
 15,-0.00000028,-0.00000521,-0.00002013,-0.00000451,0.00000298,0.000002
 17,0.00000443,0.00000063,0.00000136,0.00000264,-0.00000634,0.00000108,
 -0.00000806,-0.00006709,-0.00003498,-0.00000145,0.00001079,0.00000728,
 0.00000135,-0.00000204,0.00001531,-0.00000009,0.00001440,-0.00000230,-
 0.10693040,-0.24685399,0.01546465,-0.00165204,-0.00421234,0.00004710,-
 0.01160428,-0.02019925,0.00274387,0.12014310,0.25861832,0.00001448,-0.
 00002014,-0.00001276,0.00002576,0.00000681,0.00001483,0.00013452,0.000
 07634,-0.00005682,-0.00011413,-0.00005687,0.00011067,0.00002855,-0.000
 05105,0.00008869,0.00001081,0.00000329,0.00000225,0.00000302,0.0000068
 3,-0.00000464,-0.00000637,-0.00000016,-0.00000490,-0.00006269,0.000025
 09,-0.00001253,0.00003495,-0.00005199,-0.00001053,0.00008599,0.0001132
 0,-0.00002679,-0.00002425,-0.00000619,0.00000457,-0.00000724,0.0000071
 4,0.00000061,0.00004491,-0.00000532,-0.00003139,-0.00171490,-0.0039388
 2,0.00373748,0.00099966,0.00099544,0.00047590,0.00010646,0.00007915,-0
 .00038009,-0.01712086,-0.01275525,-0.00299093,0.00001016,0.00000341,-0
 .00001438,0.00000023,0.00000032,0.00000279,-0.00000118,-0.00000027,0.0
 0000268,-0.00000235,-0.00000020,0.00000104,0.00000666,0.00000361,0.000
 00033,-0.00000151,0.00000059,0.00000014,0.00000026,-0.00000038,0.00000
 003,-0.00000054,-0.00000346,-0.00000077,0.00001087,0.00000615,0.000012
 61,0.00000030,-0.00000311,-0.00000192,-0.00000847,0.00000073,-0.000000
 77,-0.00000248,0.00000422,-0.00000271,0.01145988,0.01670294,-0.0562395
 9,0.01490176,0.02715651,0.00110684,-0.00611272,-0.01336652,0.00217966,
 -0.00269955,-0.01493202,0.05205041\\-0.00001966,-0.00003763,0.00002306
 ,-0.00000110,0.00004140,-0.00002647,0.00003886,-0.00001810,0.00004775,
 0.00001721,0.00003683,0.00000458,0.00002166,-0.00002249,-0.00000579,0.
 00000140,-0.00000731,0.00001199,0.00001052,-0.00002118,0.00001286,0.00
 000511,-0.00001729,-0.00000772,0.00000298,-0.00001474,0.00000258,-0.00
 000229,0.00000622,-0.00001290,-0.00003043,-0.00002993,0.00003203,-0.00
 000347,-0.00002845,0.00001177,-0.00000163,0.00000547,-0.00001739,-0.00
 001715,-0.00000068,-0.00002708,-0.00001308,-0.00001055,0.00002201,0.00
 000047,0.00000238,-0.00001203,0.00000504,-0.00000234,0.00000090,-0.000
 00103,0.00001988,-0.00000799,-0.00000809,0.00001234,0.00002417,0.00000
 821,-0.00000344,0.00002221,0.00000309,-0.00000991,0.00000605,0.0000075
 3,-0.00001181,0.00001928,-0.00000718,0.00000806,-0.00000506,-0.0000027
 7,0.00000369,-0.00001375,0.00000248,0.00001415,-0.00000204,-0.00000739
 ,0.00001251,-0.00001127,-0.00000288,-0.00000740,-0.00001752,-0.0000059
 1,-0.00000299,-0.00002843,-0.00000591,0.00000664,-0.00002635,-0.000013
 17,-0.00000826,-0.00003352,0.00000899,0.00001714,0.00000580,0.00000385
 ,0.00002912,0.00000363,0.00000378,0.00001823,0.00000846,0.00000196,0.0
 0002043,-0.00000383\\\@


 KEEP CLOSE TO NATURES HEART, YOURSELF;
 AND BREAK CLEAR AWAY, ONCE IN A WHILE, AND
 CLIMB A MOUNTAIN OR SPEND A WEEK IN THE
 WOODS.  WASH YOUR SPIRIT CLEAN...
                                         -- JOHN MUIR
 Job cpu time:       0 days  1 hours 15 minutes 44.4 seconds.
 Elapsed time:       0 days  0 hours 18 minutes 57.0 seconds.
 File lengths (MBytes):  RWF=    377 Int=      0 D2E=      0 Chk=     16 Scr=      1
 Normal termination of Gaussian 16 at Fri May 24 08:53:39 2019.
