 Entering Gaussian System, Link 0=g16
 Input=clay-glucose_cation-034-b3lyp_d3bj-631gd-pcm_thf.gjf
 Output=clay-glucose_cation-034-b3lyp_d3bj-631gd-pcm_thf.out
 Initial command:
 /n/sw/g16_nehalem/g16/l1.exe "/scratch/Gau-143345.inp" -scrdir="/scratch/"
 Entering Link 1 = /n/sw/g16_nehalem/g16/l1.exe PID=    143348.
  
 Copyright (c) 1988,1990,1992,1993,1995,1998,2003,2009,2016,
            Gaussian, Inc.  All Rights Reserved.
  
 This is part of the Gaussian(R) 16 program.  It is based on
 the Gaussian(R) 09 system (copyright 2009, Gaussian, Inc.),
 the Gaussian(R) 03 system (copyright 2003, Gaussian, Inc.),
 the Gaussian(R) 98 system (copyright 1998, Gaussian, Inc.),
 the Gaussian(R) 94 system (copyright 1995, Gaussian, Inc.),
 the Gaussian 92(TM) system (copyright 1992, Gaussian, Inc.),
 the Gaussian 90(TM) system (copyright 1990, Gaussian, Inc.),
 the Gaussian 88(TM) system (copyright 1988, Gaussian, Inc.),
 the Gaussian 86(TM) system (copyright 1986, Carnegie Mellon
 University), and the Gaussian 82(TM) system (copyright 1983,
 Carnegie Mellon University). Gaussian is a federally registered
 trademark of Gaussian, Inc.
  
 This software contains proprietary and confidential information,
 including trade secrets, belonging to Gaussian, Inc.
  
 This software is provided under written license and may be
 used, copied, transmitted, or stored only in accord with that
 written license.
  
 The following legend is applicable only to US Government
 contracts under FAR:
  
                    RESTRICTED RIGHTS LEGEND
  
 Use, reproduction and disclosure by the US Government is
 subject to restrictions as set forth in subparagraphs (a)
 and (c) of the Commercial Computer Software - Restricted
 Rights clause in FAR 52.227-19.
  
 Gaussian, Inc.
 340 Quinnipiac St., Bldg. 40, Wallingford CT 06492
  
  
 ---------------------------------------------------------------
 Warning -- This program may not be used in any manner that
 competes with the business of Gaussian, Inc. or will provide
 assistance to any competitor of Gaussian, Inc.  The licensee
 of this program is prohibited from giving any competitor of
 Gaussian, Inc. access to this program.  By using this program,
 the user acknowledges that Gaussian, Inc. is engaged in the
 business of creating and licensing software in the field of
 computational chemistry and represents and warrants to the
 licensee that it is not a competitor of Gaussian, Inc. and that
 it will not use this program in any manner prohibited above.
 ---------------------------------------------------------------
  

 Cite this work as:
 Gaussian 16, Revision A.03,
 M. J. Frisch, G. W. Trucks, H. B. Schlegel, G. E. Scuseria, 
 M. A. Robb, J. R. Cheeseman, G. Scalmani, V. Barone, 
 G. A. Petersson, H. Nakatsuji, X. Li, M. Caricato, A. V. Marenich, 
 J. Bloino, B. G. Janesko, R. Gomperts, B. Mennucci, H. P. Hratchian, 
 J. V. Ortiz, A. F. Izmaylov, J. L. Sonnenberg, D. Williams-Young, 
 F. Ding, F. Lipparini, F. Egidi, J. Goings, B. Peng, A. Petrone, 
 T. Henderson, D. Ranasinghe, V. G. Zakrzewski, J. Gao, N. Rega, 
 G. Zheng, W. Liang, M. Hada, M. Ehara, K. Toyota, R. Fukuda, 
 J. Hasegawa, M. Ishida, T. Nakajima, Y. Honda, O. Kitao, H. Nakai, 
 T. Vreven, K. Throssell, J. A. Montgomery, Jr., J. E. Peralta, 
 F. Ogliaro, M. J. Bearpark, J. J. Heyd, E. N. Brothers, K. N. Kudin, 
 V. N. Staroverov, T. A. Keith, R. Kobayashi, J. Normand, 
 K. Raghavachari, A. P. Rendell, J. C. Burant, S. S. Iyengar, 
 J. Tomasi, M. Cossi, J. M. Millam, M. Klene, C. Adamo, R. Cammi, 
 J. W. Ochterski, R. L. Martin, K. Morokuma, O. Farkas, 
 J. B. Foresman, and D. J. Fox, Gaussian, Inc., Wallingford CT, 2016.
 
 ******************************************
 Gaussian 16:  ES64L-G16RevA.03 25-Dec-2016
                24-May-2019 
 ******************************************
 %nprocshared=4
 Will use up to    4 processors via shared memory.
 %mem=3GB
 -------------------------------------------------------------------
 #p b3lyp 6-31g* opt freq=noraman scrf=(pcm,solvent=tetrahydrofuran)
 -------------------------------------------------------------------
 1/18=20,19=15,26=3,38=1/1,3;
 2/9=110,12=2,17=6,18=5,40=1/2;
 3/5=1,6=6,7=1,11=2,25=1,30=1,70=2201,71=1,72=20,74=-5/1,2,3;
 4//1;
 5/5=2,38=5,53=20/2;
 6/7=2,8=2,9=2,10=2,28=1/1;
 7//1,2,3,16;
 1/18=20,19=15,26=3/3(2);
 2/9=110/2;
 99//99;
 2/9=110/2;
 3/5=1,6=6,7=1,11=2,25=1,30=1,70=2205,71=1,72=20,74=-5/1,2,3;
 4/5=5,16=3,69=1/1;
 5/5=2,38=5,53=20/2;
 7//1,2,3,16;
 1/18=20,19=15,26=3/3(-5);
 2/9=110/2;
 6/7=2,8=2,9=2,10=2,19=2,28=1/1;
 99/9=1/99;
 Leave Link    1 at Fri May 24 08:30:07 2019, MaxMem=   402653184 cpu:               0.2 elap:               0.1
 (Enter /n/sw/g16_nehalem/g16/l101.exe)
 -----
 title
 -----
 Symbolic Z-matrix:
 Charge =  1 Multiplicity = 1
 6                    -1.06662   0.40123  -0.16025 
 6                    -0.85074  -1.1395    0.02172 
 6                    -0.09818  -1.62559  -1.15907 
 6                     1.35386   0.3131   -1.12264 
 6                     0.30414   1.11044  -0.30921 
 1                    -0.34166  -2.57262  -1.64462 
 1                    -0.15994  -1.28401   0.86999 
 1                    -1.6137    0.57769  -1.09181 
 1                     1.60904   0.87281  -2.02077 
 1                     0.7212    1.27162   0.6935 
 8                     0.83648  -0.98321  -1.70195 
 8                    -1.97847  -1.9163    0.28921 
 8                    -1.88369   0.9446    0.8428 
 8                     0.17634   2.34058  -0.99231 
 6                     2.59952  -0.07701  -0.3495 
 1                     3.10032   0.85414  -0.04169 
 1                     3.28884  -0.63657  -0.99793 
 8                     2.1881   -0.84946   0.75654 
 6                    -3.13227  -1.68638  -0.53658 
 1                    -2.89884  -1.79094  -1.60456 
 1                    -3.8487   -2.45848  -0.25491 
 1                    -3.56151  -0.69909  -0.34452 
 6                    -1.53646   0.68265   2.20676 
 1                    -2.25058   1.25229   2.80288 
 1                    -0.52245   1.0175    2.45312 
 1                    -1.64265  -0.38218   2.44332 
 6                    -0.2261    3.44935  -0.18228 
 1                     0.44164   3.56153   0.68275 
 1                    -0.14233   4.3321   -0.81886 
 1                    -1.25727   3.34281   0.16734 
 6                     3.27542  -1.30524   1.56149 
 1                     2.84026  -1.88934   2.3737 
 1                     3.95642  -1.93851   0.9781 
 1                     3.83652  -0.4588    1.978 
 
 ITRead=  0  0  0  0  0  0  0  0  0  0  0  0  0  0  0  0  0  0  0  0
 ITRead=  0  0  0  0  0  0  0  0  0  0  0  0  0  0
 MicOpt= -1 -1 -1 -1 -1 -1 -1 -1 -1 -1 -1 -1 -1 -1 -1 -1 -1 -1 -1 -1
 MicOpt= -1 -1 -1 -1 -1 -1 -1 -1 -1 -1 -1 -1 -1 -1
 NAtoms=     34 NQM=       34 NQMF=       0 NMMI=      0 NMMIF=      0
                NMic=       0 NMicF=      0.
                    Isotopes and Nuclear Properties:
 (Nuclear quadrupole moments (NQMom) in fm**2, nuclear magnetic moments (NMagM)
  in nuclear magnetons)

  Atom         1           2           3           4           5           6           7           8           9          10
 IAtWgt=          12          12          12          12          12           1           1           1           1           1
 AtmWgt=  12.0000000  12.0000000  12.0000000  12.0000000  12.0000000   1.0078250   1.0078250   1.0078250   1.0078250   1.0078250
 NucSpn=           0           0           0           0           0           1           1           1           1           1
 AtZEff=   0.0000000   0.0000000   0.0000000   0.0000000   0.0000000   0.0000000   0.0000000   0.0000000   0.0000000   0.0000000
 NQMom=    0.0000000   0.0000000   0.0000000   0.0000000   0.0000000   0.0000000   0.0000000   0.0000000   0.0000000   0.0000000
 NMagM=    0.0000000   0.0000000   0.0000000   0.0000000   0.0000000   2.7928460   2.7928460   2.7928460   2.7928460   2.7928460
 AtZNuc=   6.0000000   6.0000000   6.0000000   6.0000000   6.0000000   1.0000000   1.0000000   1.0000000   1.0000000   1.0000000

  Atom        11          12          13          14          15          16          17          18          19          20
 IAtWgt=          16          16          16          16          12           1           1          16          12           1
 AtmWgt=  15.9949146  15.9949146  15.9949146  15.9949146  12.0000000   1.0078250   1.0078250  15.9949146  12.0000000   1.0078250
 NucSpn=           0           0           0           0           0           1           1           0           0           1
 AtZEff=   0.0000000   0.0000000   0.0000000   0.0000000   0.0000000   0.0000000   0.0000000   0.0000000   0.0000000   0.0000000
 NQMom=    0.0000000   0.0000000   0.0000000   0.0000000   0.0000000   0.0000000   0.0000000   0.0000000   0.0000000   0.0000000
 NMagM=    0.0000000   0.0000000   0.0000000   0.0000000   0.0000000   2.7928460   2.7928460   0.0000000   0.0000000   2.7928460
 AtZNuc=   8.0000000   8.0000000   8.0000000   8.0000000   6.0000000   1.0000000   1.0000000   8.0000000   6.0000000   1.0000000

  Atom        21          22          23          24          25          26          27          28          29          30
 IAtWgt=           1           1          12           1           1           1          12           1           1           1
 AtmWgt=   1.0078250   1.0078250  12.0000000   1.0078250   1.0078250   1.0078250  12.0000000   1.0078250   1.0078250   1.0078250
 NucSpn=           1           1           0           1           1           1           0           1           1           1
 AtZEff=   0.0000000   0.0000000   0.0000000   0.0000000   0.0000000   0.0000000   0.0000000   0.0000000   0.0000000   0.0000000
 NQMom=    0.0000000   0.0000000   0.0000000   0.0000000   0.0000000   0.0000000   0.0000000   0.0000000   0.0000000   0.0000000
 NMagM=    2.7928460   2.7928460   0.0000000   2.7928460   2.7928460   2.7928460   0.0000000   2.7928460   2.7928460   2.7928460
 AtZNuc=   1.0000000   1.0000000   6.0000000   1.0000000   1.0000000   1.0000000   6.0000000   1.0000000   1.0000000   1.0000000

  Atom        31          32          33          34
 IAtWgt=          12           1           1           1
 AtmWgt=  12.0000000   1.0078250   1.0078250   1.0078250
 NucSpn=           0           1           1           1
 AtZEff=   0.0000000   0.0000000   0.0000000   0.0000000
 NQMom=    0.0000000   0.0000000   0.0000000   0.0000000
 NMagM=    0.0000000   2.7928460   2.7928460   2.7928460
 AtZNuc=   6.0000000   1.0000000   1.0000000   1.0000000
 Leave Link  101 at Fri May 24 08:30:07 2019, MaxMem=   402653184 cpu:               0.6 elap:               0.2
 (Enter /n/sw/g16_nehalem/g16/l103.exe)

 GradGradGradGradGradGradGradGradGradGradGradGradGradGradGradGradGradGrad
 Berny optimization.
 Initialization pass.
                           ----------------------------
                           !    Initial Parameters    !
                           ! (Angstroms and Degrees)  !
 --------------------------                            --------------------------
 ! Name  Definition              Value          Derivative Info.                !
 --------------------------------------------------------------------------------
 ! R1    R(1,2)                  1.5664         estimate D2E/DX2                !
 ! R2    R(1,5)                  1.5505         estimate D2E/DX2                !
 ! R3    R(1,8)                  1.0946         estimate D2E/DX2                !
 ! R4    R(1,13)                 1.4032         estimate D2E/DX2                !
 ! R5    R(2,3)                  1.4822         estimate D2E/DX2                !
 ! R6    R(2,7)                  1.1035         estimate D2E/DX2                !
 ! R7    R(2,12)                 1.3953         estimate D2E/DX2                !
 ! R8    R(3,6)                  1.0918         estimate D2E/DX2                !
 ! R9    R(3,11)                 1.2574         estimate D2E/DX2                !
 ! R10   R(4,5)                  1.549          estimate D2E/DX2                !
 ! R11   R(4,9)                  1.0886         estimate D2E/DX2                !
 ! R12   R(4,11)                 1.5112         estimate D2E/DX2                !
 ! R13   R(4,15)                 1.5171         estimate D2E/DX2                !
 ! R14   R(5,10)                 1.0979         estimate D2E/DX2                !
 ! R15   R(5,14)                 1.4129         estimate D2E/DX2                !
 ! R16   R(12,19)                1.4374         estimate D2E/DX2                !
 ! R17   R(13,23)                1.4316         estimate D2E/DX2                !
 ! R18   R(14,27)                1.4309         estimate D2E/DX2                !
 ! R19   R(15,16)                1.1012         estimate D2E/DX2                !
 ! R20   R(15,17)                1.0994         estimate D2E/DX2                !
 ! R21   R(15,18)                1.4104         estimate D2E/DX2                !
 ! R22   R(18,31)                1.4276         estimate D2E/DX2                !
 ! R23   R(19,20)                1.0982         estimate D2E/DX2                !
 ! R24   R(19,21)                1.0903         estimate D2E/DX2                !
 ! R25   R(19,22)                1.0936         estimate D2E/DX2                !
 ! R26   R(23,24)                1.0908         estimate D2E/DX2                !
 ! R27   R(23,25)                1.0959         estimate D2E/DX2                !
 ! R28   R(23,26)                1.0959         estimate D2E/DX2                !
 ! R29   R(27,28)                1.0985         estimate D2E/DX2                !
 ! R30   R(27,29)                1.0916         estimate D2E/DX2                !
 ! R31   R(27,30)                1.094          estimate D2E/DX2                !
 ! R32   R(31,32)                1.091          estimate D2E/DX2                !
 ! R33   R(31,33)                1.0978         estimate D2E/DX2                !
 ! R34   R(31,34)                1.0976         estimate D2E/DX2                !
 ! A1    A(2,1,5)              109.8296         estimate D2E/DX2                !
 ! A2    A(2,1,8)              109.0451         estimate D2E/DX2                !
 ! A3    A(2,1,13)             112.2167         estimate D2E/DX2                !
 ! A4    A(5,1,8)              106.6386         estimate D2E/DX2                !
 ! A5    A(5,1,13)             113.9746         estimate D2E/DX2                !
 ! A6    A(8,1,13)             104.767          estimate D2E/DX2                !
 ! A7    A(1,2,3)              107.4582         estimate D2E/DX2                !
 ! A8    A(1,2,7)              107.7219         estimate D2E/DX2                !
 ! A9    A(1,2,12)             117.2902         estimate D2E/DX2                !
 ! A10   A(3,2,7)              104.5729         estimate D2E/DX2                !
 ! A11   A(3,2,12)             112.366          estimate D2E/DX2                !
 ! A12   A(7,2,12)             106.601          estimate D2E/DX2                !
 ! A13   A(2,3,6)              121.7059         estimate D2E/DX2                !
 ! A14   A(2,3,11)             123.6309         estimate D2E/DX2                !
 ! A15   A(6,3,11)             114.6405         estimate D2E/DX2                !
 ! A16   A(5,4,9)              109.1143         estimate D2E/DX2                !
 ! A17   A(5,4,11)             114.2584         estimate D2E/DX2                !
 ! A18   A(5,4,15)             114.9089         estimate D2E/DX2                !
 ! A19   A(9,4,11)             101.8313         estimate D2E/DX2                !
 ! A20   A(9,4,15)             111.112          estimate D2E/DX2                !
 ! A21   A(11,4,15)            104.8265         estimate D2E/DX2                !
 ! A22   A(1,5,4)              114.4637         estimate D2E/DX2                !
 ! A23   A(1,5,10)             108.375          estimate D2E/DX2                !
 ! A24   A(1,5,14)             111.3907         estimate D2E/DX2                !
 ! A25   A(4,5,10)             107.3226         estimate D2E/DX2                !
 ! A26   A(4,5,14)             104.8079         estimate D2E/DX2                !
 ! A27   A(10,5,14)            110.3721         estimate D2E/DX2                !
 ! A28   A(3,11,4)             121.8184         estimate D2E/DX2                !
 ! A29   A(2,12,19)            116.7183         estimate D2E/DX2                !
 ! A30   A(1,13,23)            117.9662         estimate D2E/DX2                !
 ! A31   A(5,14,27)            115.2391         estimate D2E/DX2                !
 ! A32   A(4,15,16)            107.3634         estimate D2E/DX2                !
 ! A33   A(4,15,17)            110.188          estimate D2E/DX2                !
 ! A34   A(4,15,18)            107.5147         estimate D2E/DX2                !
 ! A35   A(16,15,17)           108.065          estimate D2E/DX2                !
 ! A36   A(16,15,18)           112.1216         estimate D2E/DX2                !
 ! A37   A(17,15,18)           111.51           estimate D2E/DX2                !
 ! A38   A(15,18,31)           113.2566         estimate D2E/DX2                !
 ! A39   A(12,19,20)           111.8917         estimate D2E/DX2                !
 ! A40   A(12,19,21)           105.4122         estimate D2E/DX2                !
 ! A41   A(12,19,22)           111.0138         estimate D2E/DX2                !
 ! A42   A(20,19,21)           108.8741         estimate D2E/DX2                !
 ! A43   A(20,19,22)           109.8886         estimate D2E/DX2                !
 ! A44   A(21,19,22)           109.636          estimate D2E/DX2                !
 ! A45   A(13,23,24)           105.446          estimate D2E/DX2                !
 ! A46   A(13,23,25)           112.5005         estimate D2E/DX2                !
 ! A47   A(13,23,26)           111.0957         estimate D2E/DX2                !
 ! A48   A(24,23,25)           108.8648         estimate D2E/DX2                !
 ! A49   A(24,23,26)           109.026          estimate D2E/DX2                !
 ! A50   A(25,23,26)           109.7544         estimate D2E/DX2                !
 ! A51   A(14,27,28)           110.7285         estimate D2E/DX2                !
 ! A52   A(14,27,29)           105.957          estimate D2E/DX2                !
 ! A53   A(14,27,30)           111.7483         estimate D2E/DX2                !
 ! A54   A(28,27,29)           109.2688         estimate D2E/DX2                !
 ! A55   A(28,27,30)           109.3438         estimate D2E/DX2                !
 ! A56   A(29,27,30)           109.7227         estimate D2E/DX2                !
 ! A57   A(18,31,32)           106.6732         estimate D2E/DX2                !
 ! A58   A(18,31,33)           110.9166         estimate D2E/DX2                !
 ! A59   A(18,31,34)           110.9232         estimate D2E/DX2                !
 ! A60   A(32,31,33)           109.5251         estimate D2E/DX2                !
 ! A61   A(32,31,34)           109.5284         estimate D2E/DX2                !
 ! A62   A(33,31,34)           109.2322         estimate D2E/DX2                !
 ! D1    D(5,1,2,3)            -57.8772         estimate D2E/DX2                !
 ! D2    D(5,1,2,7)             54.2958         estimate D2E/DX2                !
 ! D3    D(5,1,2,12)           174.4529         estimate D2E/DX2                !
 ! D4    D(8,1,2,3)             58.6417         estimate D2E/DX2                !
 ! D5    D(8,1,2,7)            170.8146         estimate D2E/DX2                !
 ! D6    D(8,1,2,12)           -69.0283         estimate D2E/DX2                !
 ! D7    D(13,1,2,3)           174.2532         estimate D2E/DX2                !
 ! D8    D(13,1,2,7)           -73.5738         estimate D2E/DX2                !
 ! D9    D(13,1,2,12)           46.5833         estimate D2E/DX2                !
 ! D10   D(2,1,5,4)             37.5127         estimate D2E/DX2                !
 ! D11   D(2,1,5,10)           -82.211          estimate D2E/DX2                !
 ! D12   D(2,1,5,14)           156.1833         estimate D2E/DX2                !
 ! D13   D(8,1,5,4)            -80.5089         estimate D2E/DX2                !
 ! D14   D(8,1,5,10)           159.7673         estimate D2E/DX2                !
 ! D15   D(8,1,5,14)            38.1617         estimate D2E/DX2                !
 ! D16   D(13,1,5,4)           164.401          estimate D2E/DX2                !
 ! D17   D(13,1,5,10)           44.6773         estimate D2E/DX2                !
 ! D18   D(13,1,5,14)          -76.9284         estimate D2E/DX2                !
 ! D19   D(2,1,13,23)           52.1776         estimate D2E/DX2                !
 ! D20   D(5,1,13,23)          -73.4599         estimate D2E/DX2                !
 ! D21   D(8,1,13,23)          170.3536         estimate D2E/DX2                !
 ! D22   D(1,2,3,6)           -139.0714         estimate D2E/DX2                !
 ! D23   D(1,2,3,11)            39.1003         estimate D2E/DX2                !
 ! D24   D(7,2,3,6)            106.6316         estimate D2E/DX2                !
 ! D25   D(7,2,3,11)           -75.1966         estimate D2E/DX2                !
 ! D26   D(12,2,3,6)            -8.5944         estimate D2E/DX2                !
 ! D27   D(12,2,3,11)          169.5774         estimate D2E/DX2                !
 ! D28   D(1,2,12,19)           47.0513         estimate D2E/DX2                !
 ! D29   D(3,2,12,19)          -78.2121         estimate D2E/DX2                !
 ! D30   D(7,2,12,19)          167.7972         estimate D2E/DX2                !
 ! D31   D(2,3,11,4)             4.9277         estimate D2E/DX2                !
 ! D32   D(6,3,11,4)          -176.7835         estimate D2E/DX2                !
 ! D33   D(9,4,5,1)            116.673          estimate D2E/DX2                !
 ! D34   D(9,4,5,10)          -123.0167         estimate D2E/DX2                !
 ! D35   D(9,4,5,14)            -5.6531         estimate D2E/DX2                !
 ! D36   D(11,4,5,1)             3.458          estimate D2E/DX2                !
 ! D37   D(11,4,5,10)          123.7682         estimate D2E/DX2                !
 ! D38   D(11,4,5,14)         -118.8682         estimate D2E/DX2                !
 ! D39   D(15,4,5,1)          -117.7891         estimate D2E/DX2                !
 ! D40   D(15,4,5,10)            2.5212         estimate D2E/DX2                !
 ! D41   D(15,4,5,14)          119.8848         estimate D2E/DX2                !
 ! D42   D(5,4,11,3)           -27.9826         estimate D2E/DX2                !
 ! D43   D(9,4,11,3)          -145.4577         estimate D2E/DX2                !
 ! D44   D(15,4,11,3)           98.6847         estimate D2E/DX2                !
 ! D45   D(5,4,15,16)          -62.5119         estimate D2E/DX2                !
 ! D46   D(5,4,15,17)         -179.9725         estimate D2E/DX2                !
 ! D47   D(5,4,15,18)           58.3126         estimate D2E/DX2                !
 ! D48   D(9,4,15,16)           61.9817         estimate D2E/DX2                !
 ! D49   D(9,4,15,17)          -55.4789         estimate D2E/DX2                !
 ! D50   D(9,4,15,18)         -177.1938         estimate D2E/DX2                !
 ! D51   D(11,4,15,16)         171.2236         estimate D2E/DX2                !
 ! D52   D(11,4,15,17)          53.763          estimate D2E/DX2                !
 ! D53   D(11,4,15,18)         -67.9519         estimate D2E/DX2                !
 ! D54   D(1,5,14,27)           82.8989         estimate D2E/DX2                !
 ! D55   D(4,5,14,27)         -152.797          estimate D2E/DX2                !
 ! D56   D(10,5,14,27)         -37.5389         estimate D2E/DX2                !
 ! D57   D(2,12,19,20)          55.2118         estimate D2E/DX2                !
 ! D58   D(2,12,19,21)         173.4025         estimate D2E/DX2                !
 ! D59   D(2,12,19,22)         -67.9571         estimate D2E/DX2                !
 ! D60   D(1,13,23,24)         175.9595         estimate D2E/DX2                !
 ! D61   D(1,13,23,25)          57.4342         estimate D2E/DX2                !
 ! D62   D(1,13,23,26)         -66.0644         estimate D2E/DX2                !
 ! D63   D(5,14,27,28)          53.9614         estimate D2E/DX2                !
 ! D64   D(5,14,27,29)         172.3331         estimate D2E/DX2                !
 ! D65   D(5,14,27,30)         -68.1976         estimate D2E/DX2                !
 ! D66   D(4,15,18,31)         178.942          estimate D2E/DX2                !
 ! D67   D(16,15,18,31)        -63.2772         estimate D2E/DX2                !
 ! D68   D(17,15,18,31)         58.0552         estimate D2E/DX2                !
 ! D69   D(15,18,31,32)       -179.6973         estimate D2E/DX2                !
 ! D70   D(15,18,31,33)        -60.49           estimate D2E/DX2                !
 ! D71   D(15,18,31,34)         61.0877         estimate D2E/DX2                !
 --------------------------------------------------------------------------------
 Trust Radius=3.00D-01 FncErr=1.00D-07 GrdErr=1.00D-06 EigMax=2.50D+02 EigMin=1.00D-04
 Number of steps in this run=    177 maximum allowed number of steps=    204.
 GradGradGradGradGradGradGradGradGradGradGradGradGradGradGradGradGradGrad

 Leave Link  103 at Fri May 24 08:30:07 2019, MaxMem=   402653184 cpu:               0.1 elap:               0.1
 (Enter /n/sw/g16_nehalem/g16/l202.exe)
                          Input orientation:                          
 ---------------------------------------------------------------------
 Center     Atomic      Atomic             Coordinates (Angstroms)
 Number     Number       Type             X           Y           Z
 ---------------------------------------------------------------------
      1          6           0       -1.066620    0.401226   -0.160246
      2          6           0       -0.850735   -1.139501    0.021722
      3          6           0       -0.098184   -1.625587   -1.159067
      4          6           0        1.353857    0.313100   -1.122641
      5          6           0        0.304138    1.110439   -0.309212
      6          1           0       -0.341661   -2.572622   -1.644621
      7          1           0       -0.159939   -1.284009    0.869989
      8          1           0       -1.613695    0.577691   -1.091805
      9          1           0        1.609036    0.872811   -2.020772
     10          1           0        0.721197    1.271616    0.693501
     11          8           0        0.836477   -0.983212   -1.701950
     12          8           0       -1.978468   -1.916301    0.289211
     13          8           0       -1.883693    0.944603    0.842799
     14          8           0        0.176337    2.340576   -0.992314
     15          6           0        2.599524   -0.077007   -0.349499
     16          1           0        3.100323    0.854140   -0.041694
     17          1           0        3.288837   -0.636569   -0.997934
     18          8           0        2.188095   -0.849456    0.756542
     19          6           0       -3.132271   -1.686378   -0.536580
     20          1           0       -2.898836   -1.790935   -1.604563
     21          1           0       -3.848699   -2.458478   -0.254911
     22          1           0       -3.561514   -0.699088   -0.344516
     23          6           0       -1.536459    0.682654    2.206755
     24          1           0       -2.250579    1.252287    2.802876
     25          1           0       -0.522451    1.017500    2.453124
     26          1           0       -1.642647   -0.382178    2.443319
     27          6           0       -0.226103    3.449354   -0.182277
     28          1           0        0.441643    3.561528    0.682750
     29          1           0       -0.142329    4.332098   -0.818860
     30          1           0       -1.257272    3.342805    0.167341
     31          6           0        3.275419   -1.305236    1.561493
     32          1           0        2.840262   -1.889336    2.373695
     33          1           0        3.956419   -1.938514    0.978096
     34          1           0        3.836517   -0.458801    1.978000
 ---------------------------------------------------------------------
                    Distance matrix (angstroms):
                    1          2          3          4          5
     1  C    0.000000
     2  C    1.566384   0.000000
     3  C    2.458350   1.482186   0.000000
     4  C    2.606277   2.877471   2.422449   0.000000
     5  C    1.550533   2.550584   2.893087   1.548976   0.000000
     6  H    3.401868   2.256034   1.091750   3.387423   3.970556
     7  H    2.173355   1.103467   2.058533   2.968655   2.709108
     8  H    1.094638   2.184216   2.675020   2.979484   2.138774
     9  H    3.292884   3.777784   3.146288   1.088592   2.165332
    10  H    2.163967   2.955629   3.535135   2.148810   1.097884
    11  O    2.813414   2.417055   1.257362   1.511193   2.570307
    12  O    2.530694   1.395260   2.391128   4.250641   3.837910
    13  O    1.403199   2.466710   3.715022   3.839724   2.478152
    14  O    2.449154   3.767503   3.979148   2.348233   1.412869
    15  C    3.702045   3.629185   3.214207   1.517109   2.584656
    16  H    4.193161   4.426001   4.198573   2.123985   2.820621
    17  H    4.555079   4.292866   3.532143   2.159067   3.526302
    18  O    3.605257   3.139837   3.082046   2.361952   2.919985
    19  C    2.960850   2.411676   3.097881   4.946385   4.436529
    20  H    3.201349   2.695160   2.840679   4.769131   4.511646
    21  H    3.990844   3.286946   3.946843   5.958287   5.475963
    22  H    2.732973   2.770635   3.676486   5.078472   4.268360
    23  C    2.429536   2.926574   4.327282   4.424407   3.146568
    24  H    3.302447   3.926198   5.349014   5.411443   4.028870
    25  H    2.739638   3.266824   4.495980   4.099123   2.884855
    26  H    2.779223   2.657968   4.112009   4.709407   3.687045
    27  C    3.161968   4.635663   5.169672   3.635471   2.401623
    28  H    3.601806   4.920048   5.530811   3.826729   2.647779
    29  H    4.091435   5.580933   5.967554   4.299209   3.292136
    30  H    2.965898   4.503059   5.271410   4.202518   2.765603
    31  C    4.972897   4.407211   4.345718   3.676410   4.261870
    32  H    5.189534   4.440438   4.602655   4.391411   4.756949
    33  H    5.656954   4.966065   4.594039   4.031897   4.928735
    34  H    5.417794   5.124520   5.165699   4.046407   4.491275
                    6          7          8          9         10
     6  H    0.000000
     7  H    2.831397   0.000000
     8  H    3.442114   3.070500   0.000000
     9  H    3.977149   4.017169   3.366908   0.000000
    10  H    4.623272   2.709016   3.020028   2.883502   0.000000
    11  O    1.979273   2.774562   2.968508   2.035514   3.291766
    12  O    2.617174   2.011006   2.874067   5.097583   4.196958
    13  O    4.575587   2.817584   1.987515   4.517117   2.629578
    14  O    4.983306   4.088872   2.514334   2.294490   2.069183
    15  C    4.068907   3.249406   4.327917   2.162493   2.536680
    16  H    5.114619   4.004017   4.837471   2.478111   2.524884
    17  H    4.164976   3.975220   5.051540   2.479144   3.618687
    18  O    3.890315   2.390600   4.461697   3.318883   2.579673
    19  C    3.130605   3.312868   2.782150   5.588584   5.011192
    20  H    2.674282   3.725847   2.743155   5.252588   5.269246
    21  H    3.774074   4.031343   3.861859   6.633447   5.974700
    22  H    3.945612   3.658943   2.445936   5.658205   4.827294
    23  C    5.182418   2.747638   3.301133   5.272787   2.780975
    24  H    6.168803   3.813086   4.003653   6.189363   3.644350
    25  H    5.450979   2.816856   3.735073   4.957814   2.169679
    26  H    4.816831   2.342454   3.663235   5.663616   3.374116
    27  C    6.198064   4.849368   3.316489   3.658739   2.531187
    28  H    6.607421   4.886327   4.034445   3.987610   2.306938
    29  H    6.956779   5.864570   4.041657   4.059377   3.521287
    30  H    6.254105   4.806793   3.059141   4.370862   2.912217
    31  C    4.996869   3.504328   5.872720   4.511468   3.730634
    32  H    5.170916   3.410097   6.159030   5.334483   4.159941
    33  H    5.074862   4.169468   6.453057   4.733600   4.566464
    34  H    5.920202   4.228512   6.340570   4.767079   3.788073
                   11         12         13         14         15
    11  O    0.000000
    12  O    3.572015   0.000000
    13  O    4.194227   2.915513   0.000000
    14  O    3.462215   4.940293   3.091942   0.000000
    15  C    2.399722   4.974833   4.750210   3.482780   0.000000
    16  H    3.355192   5.794735   5.062700   3.415094   1.101171
    17  H    2.574853   5.571262   5.713446   4.307096   1.099423
    18  O    2.808727   4.326292   4.450342   4.157159   1.410418
    19  C    4.195651   1.437378   3.222374   5.231724   5.956387
    20  H    3.822887   2.109306   3.808315   5.186610   5.894463
    21  H    5.120665   2.021828   4.080095   6.306790   6.874586
    22  H    4.611472   2.095054   2.631828   4.861145   6.192366
    23  C    4.866612   3.259895   1.431630   3.989539   4.921166
    24  H    5.900918   4.053703   2.017716   4.634411   5.935317
    25  H    4.807720   3.925518   2.109844   3.756312   4.335824
    26  H    4.867294   2.665800   2.092872   4.746121   5.088121
    27  C    4.804802   5.664216   3.173667   1.430911   4.521875
    28  H    5.147558   6.001535   3.504440   2.089725   4.354414
    29  H    5.476352   6.606188   4.155548   2.024301   5.213278
    30  H    5.156787   5.309724   2.569050   2.098689   5.180455
    31  C    4.086832   5.440168   5.674040   5.423853   2.370078
    32  H    4.631101   5.250329   5.717570   6.026497   3.279981
    33  H    4.222474   5.974775   6.514413   6.040045   2.658737
    34  H    4.776744   6.228191   5.998252   5.482353   2.663301
                   16         17         18         19         20
    16  H    0.000000
    17  H    1.781052   0.000000
    18  O    2.090832   2.082100   0.000000
    19  C    6.748657   6.522697   5.538853   0.000000
    20  H    6.740096   6.323595   5.686657   1.098186   0.000000
    21  H    7.701156   7.403773   6.328892   1.090296   1.780285
    22  H    6.847210   6.881727   5.856018   1.093563   1.794155
    23  C    5.156033   5.940864   4.280512   3.960406   4.743507
    24  H    6.073076   6.978471   5.320398   4.534876   5.395086
    25  H    4.401738   5.401080   3.702833   4.802129   5.477165
    26  H    5.495410   6.018843   4.211668   3.577669   4.466313
    27  C    4.221375   5.451134   5.018914   5.911606   6.052027
    28  H    3.863075   5.343709   4.744715   6.465303   6.711145
    29  H    4.818192   6.040912   5.895869   6.726179   6.760710
    30  H    5.022528   6.153080   5.458275   5.413299   5.673593
    31  C    2.695139   2.645366   1.427570   6.753197   6.955662
    32  H    3.664478   3.624711   2.030235   6.646957   6.983800
    33  H    3.093831   2.458744   2.088565   7.253092   7.327102
    34  H    2.518920   3.031128   2.088508   7.509598   7.744309
                   21         22         23         24         25
    21  H    0.000000
    22  H    1.784925   0.000000
    23  C    4.612262   3.538226   0.000000
    24  H    5.066935   3.928421   1.090784   0.000000
    25  H    5.520852   4.473183   1.095916   1.778729   0.000000
    26  H    4.056862   3.399192   1.095950   1.780544   1.792773
    27  C    6.930437   5.325491   3.883186   4.223357   3.598204
    28  H    7.451625   5.935772   3.810957   4.132262   3.245887
    29  H    7.756748   6.101529   4.941294   5.200666   4.673000
    30  H    6.367784   4.680644   3.363563   3.507559   3.342426
    31  C    7.441932   7.123478   5.246164   6.214387   4.540256
    32  H    7.209417   7.056068   5.079241   5.997554   4.445654
    33  H    7.918998   7.733356   6.209012   7.213727   5.565429
    34  H    8.249069   7.757750   5.497647   6.376596   4.626641
                   26         27         28         29         30
    26  H    0.000000
    27  C    4.856026   0.000000
    28  H    4.795486   1.098517   0.000000
    29  H    5.925974   1.091555   1.785955   0.000000
    30  H    4.382247   1.094027   1.788798   1.787286   0.000000
    31  C    5.081046   6.156908   5.699813   7.009038   6.640274
    32  H    4.729994   6.666123   6.190685   7.602269   7.002363
    33  H    5.993213   6.918748   6.533861   7.703854   7.465402
    34  H    5.499421   6.036999   5.419030   6.826885   6.608886
                   31         32         33         34
    31  C    0.000000
    32  H    1.090966   0.000000
    33  H    1.097795   1.787714   0.000000
    34  H    1.097616   1.787604   1.789898   0.000000
 Stoichiometry    C10H19O5(1+)
 Framework group  C1[X(C10H19O5)]
 Deg. of freedom    96
 Full point group                 C1      NOp   1
 Largest Abelian subgroup         C1      NOp   1
 Largest concise Abelian subgroup C1      NOp   1
                         Standard orientation:                         
 ---------------------------------------------------------------------
 Center     Atomic      Atomic             Coordinates (Angstroms)
 Number     Number       Type             X           Y           Z
 ---------------------------------------------------------------------
      1          6           0       -1.066620    0.401226   -0.160246
      2          6           0       -0.850735   -1.139501    0.021722
      3          6           0       -0.098184   -1.625587   -1.159067
      4          6           0        1.353857    0.313100   -1.122641
      5          6           0        0.304138    1.110439   -0.309212
      6          1           0       -0.341661   -2.572622   -1.644621
      7          1           0       -0.159939   -1.284009    0.869989
      8          1           0       -1.613695    0.577691   -1.091805
      9          1           0        1.609036    0.872811   -2.020772
     10          1           0        0.721197    1.271616    0.693501
     11          8           0        0.836477   -0.983212   -1.701950
     12          8           0       -1.978468   -1.916301    0.289211
     13          8           0       -1.883693    0.944603    0.842799
     14          8           0        0.176337    2.340576   -0.992314
     15          6           0        2.599524   -0.077008   -0.349499
     16          1           0        3.100323    0.854139   -0.041694
     17          1           0        3.288837   -0.636570   -0.997934
     18          8           0        2.188095   -0.849456    0.756542
     19          6           0       -3.132271   -1.686378   -0.536580
     20          1           0       -2.898836   -1.790935   -1.604563
     21          1           0       -3.848699   -2.458477   -0.254911
     22          1           0       -3.561514   -0.699088   -0.344516
     23          6           0       -1.536459    0.682654    2.206755
     24          1           0       -2.250579    1.252287    2.802876
     25          1           0       -0.522451    1.017500    2.453124
     26          1           0       -1.642647   -0.382178    2.443319
     27          6           0       -0.226102    3.449354   -0.182277
     28          1           0        0.441644    3.561528    0.682750
     29          1           0       -0.142328    4.332098   -0.818860
     30          1           0       -1.257271    3.342805    0.167341
     31          6           0        3.275419   -1.305237    1.561493
     32          1           0        2.840262   -1.889337    2.373695
     33          1           0        3.956419   -1.938515    0.978096
     34          1           0        3.836517   -0.458802    1.978000
 ---------------------------------------------------------------------
 Rotational constants (GHZ):           0.6435889           0.5181962           0.4035282
 Leave Link  202 at Fri May 24 08:30:07 2019, MaxMem=   402653184 cpu:               0.5 elap:               0.2
 (Enter /n/sw/g16_nehalem/g16/l301.exe)
 Standard basis: 6-31G(d) (6D, 7F)
 Ernie: Thresh=  0.10000D-02 Tol=  0.10000D-05 Strict=F.
 There are   263 symmetry adapted cartesian basis functions of A   symmetry.
 There are   263 symmetry adapted basis functions of A   symmetry.
   263 basis functions,   496 primitive gaussians,   263 cartesian basis functions
    59 alpha electrons       59 beta electrons
       nuclear repulsion energy      1178.1381748579 Hartrees.
 IExCor=  402 DFT=T Ex+Corr=B3LYP ExCW=0 ScaHFX=  0.200000
 ScaDFX=  0.800000  0.720000  1.000000  0.810000 ScalE2=  1.000000  1.000000
 IRadAn=      5 IRanWt=     -1 IRanGd=            0 ICorTp=0 IEmpDi=  4
 NAtoms=   34 NActive=   34 NUniq=   34 SFac= 1.00D+00 NAtFMM=   60 NAOKFM=F Big=F
 Integral buffers will be    131072 words long.
 Raffenetti 2 integral format.
 Two-electron integral symmetry is turned on.
 ------------------------------------------------------------------------------
 Polarizable Continuum Model (PCM)
 =================================
 Model                : PCM.
 Atomic radii         : UFF (Universal Force Field).
 Polarization charges : Total charges.
 Charge compensation  : None.
 Solution method      : On-the-fly selection.
 Cavity type          : Scaled VdW (van der Waals Surface) (Alpha=1.100).
 Cavity algorithm     : GePol (No added spheres)
                        Default sphere list used, NSphG=   34.
                        Lebedev-Laikov grids with approx.  5.0 points / Ang**2.
                        Smoothing algorithm: York/Karplus (Gamma=1.0000).
                        Polarization charges: spherical gaussians, with
                                              point-specific exponents (IZeta= 3).
                        Self-potential: point-specific (ISelfS= 7).
                        Self-field    : sphere-specific E.n sum rule (ISelfD= 2).
 1st derivatives      : Analytical E(r).r(x)/FMM algorithm (CHGder, D1EAlg=3).
                        Cavity 1st derivative terms included.
 Solvent              : TetraHydroFuran, Eps=   7.425700 Eps(inf)=   1.974025
 ------------------------------------------------------------------------------
 GePol: Number of generator spheres                  =      34
 GePol: Total number of spheres                      =      34
 GePol: Number of exposed spheres                    =      34 (100.00%)
 GePol: Number of points                             =    2303
 GePol: Average weight of points                     =       0.13
 GePol: Minimum weight of points                     =   0.82D-11
 GePol: Maximum weight of points                     =    0.20577
 GePol: Number of points with low weight             =     150
 GePol: Fraction of low-weight points (<1% of avg)   =       6.51%
 GePol: Cavity surface area                          =    296.890 Ang**2
 GePol: Cavity volume                                =    318.829 Ang**3
 Leave Link  301 at Fri May 24 08:30:07 2019, MaxMem=   402653184 cpu:               0.3 elap:               0.1
 (Enter /n/sw/g16_nehalem/g16/l302.exe)
 NPDir=0 NMtPBC=     1 NCelOv=     1 NCel=       1 NClECP=     1 NCelD=      1
         NCelK=      1 NCelE2=     1 NClLst=     1 CellRange=     0.0.
 One-electron integrals computed using PRISM.
 One-electron integral symmetry used in STVInt
 NBasis=   263 RedAO= T EigKep=  1.55D-03  NBF=   263
 NBsUse=   263 1.00D-06 EigRej= -1.00D+00 NBFU=   263
 Precomputing XC quadrature grid using
 IXCGrd= 4 IRadAn=           5 IRanWt=          -1 IRanGd=           0 AccXCQ= 0.00D+00.
 Generated NRdTot=       0 NPtTot=           0 NUsed=           0 NTot=          32
 NSgBfM=   262   262   262   262   262 MxSgAt=    34 MxSgA2=    34.
 Leave Link  302 at Fri May 24 08:30:10 2019, MaxMem=   402653184 cpu:               7.2 elap:               2.2
 (Enter /n/sw/g16_nehalem/g16/l303.exe)
 DipDrv:  MaxL=1.
 Leave Link  303 at Fri May 24 08:30:10 2019, MaxMem=   402653184 cpu:               0.3 elap:               0.1
 (Enter /n/sw/g16_nehalem/g16/l401.exe)
 ExpMin= 1.61D-01 ExpMax= 5.48D+03 ExpMxC= 8.25D+02 IAcc=3 IRadAn=         5 AccDes= 0.00D+00
 Harris functional with IExCor=  402 and IRadAn=       5 diagonalized for initial guess.
 HarFok:  IExCor=  402 AccDes= 0.00D+00 IRadAn=         5 IDoV= 1 UseB2=F ITyADJ=14
 ICtDFT=  3500011 ScaDFX=  1.000000  1.000000  1.000000  1.000000
 FoFCou: FMM=F IPFlag=           0 FMFlag=      100000 FMFlg1=           0
         NFxFlg=           0 DoJE=T BraDBF=F KetDBF=T FulRan=T
         wScrn=  0.000000 ICntrl=       500 IOpCl=  0 I1Cent=   200000004 NGrid=           0
         NMat0=    1 NMatS0=      1 NMatT0=    0 NMatD0=    1 NMtDS0=    0 NMtDT0=    0
 Petite list used in FoFCou.
 Harris En= -768.258310106991    
 JPrj=0 DoOrth=F DoCkMO=F.
 Leave Link  401 at Fri May 24 08:30:15 2019, MaxMem=   402653184 cpu:              20.6 elap:               5.2
 (Enter /n/sw/g16_nehalem/g16/l502.exe)
 Integral symmetry usage will be decided dynamically.
 Closed shell SCF:
 Using DIIS extrapolation, IDIIS=  1040.
 NGot=   402653184 LenX=   402510103 LenY=   402440493
 Requested convergence on RMS density matrix=1.00D-08 within 128 cycles.
 Requested convergence on MAX density matrix=1.00D-06.
 Requested convergence on             energy=1.00D-06.
 No special actions if energy rises.
 Fock matrices will be formed incrementally for  20 cycles.

 Cycle   1  Pass 1  IDiag  1:
 FoFJK:  IHMeth= 1 ICntrl=       0 DoSepK=F KAlg= 0 I1Cent=           0 FoldK=F
 IRaf= 890000000 NMat=       1 IRICut=       1 DoRegI=T DoRafI=F ISym2E= 0 IDoP0=0 IntGTp=1.
 FoFCou: FMM=F IPFlag=           0 FMFlag=      100000 FMFlg1=           0
         NFxFlg=           0 DoJE=F BraDBF=F KetDBF=F FulRan=T
         wScrn=  0.000000 ICntrl=         0 IOpCl=  0 I1Cent=           0 NGrid=           0
         NMat0=    1 NMatS0=      1 NMatT0=    0 NMatD0=    1 NMtDS0=    0 NMtDT0=    0
 Symmetry not used in FoFCou.
 Inv3:  Mode=1 IEnd=    15911427.
 Iteration    1 A*A^-1 deviation from unit magnitude is 5.11D-15 for   2271.
 Iteration    1 A*A^-1 deviation from orthogonality  is 1.98D-15 for   1902    897.
 Iteration    1 A^-1*A deviation from unit magnitude is 5.11D-15 for   2271.
 Iteration    1 A^-1*A deviation from orthogonality  is 1.67D-15 for   1724   1119.
 E= -768.092782014769    
 DIIS: error= 2.01D-02 at cycle   1 NSaved=   1.
 NSaved= 1 IEnMin= 1 EnMin= -768.092782014769     IErMin= 1 ErrMin= 2.01D-02
 ErrMax= 2.01D-02  0.00D+00 EMaxC= 1.00D-01 BMatC= 2.53D-01 BMatP= 2.53D-01
 IDIUse=3 WtCom= 7.99D-01 WtEn= 2.01D-01
 Coeff-Com:  0.100D+01
 Coeff-En:   0.100D+01
 Coeff:      0.100D+01
 Gap=     0.010 Goal=   None    Shift=    0.000
 GapD=    0.010 DampG=0.250 DampE=0.500 DampFc=0.2500 IDamp=-1.
 Damping current iteration by 2.50D-01
 RMSDP=4.85D-03 MaxDP=1.45D-01              OVMax= 4.89D-01

 Cycle   2  Pass 1  IDiag  1:
 RMSU=  1.21D-03    CP:  9.94D-01
 E= -768.163979546290     Delta-E=       -0.071197531521 Rises=F Damp=T
 DIIS: error= 9.73D-03 at cycle   2 NSaved=   2.
 NSaved= 2 IEnMin= 2 EnMin= -768.163979546290     IErMin= 2 ErrMin= 9.73D-03
 ErrMax= 9.73D-03  0.00D+00 EMaxC= 1.00D-01 BMatC= 6.91D-02 BMatP= 2.53D-01
 IDIUse=3 WtCom= 9.03D-01 WtEn= 9.73D-02
 Coeff-Com: -0.672D+00 0.167D+01
 Coeff-En:   0.000D+00 0.100D+01
 Coeff:     -0.606D+00 0.161D+01
 Gap=     0.098 Goal=   None    Shift=    0.000
 RMSDP=1.49D-03 MaxDP=3.49D-02 DE=-7.12D-02 OVMax= 3.55D-01

 Cycle   3  Pass 1  IDiag  1:
 RMSU=  1.47D-03    CP:  9.86D-01  1.14D+00
 E= -768.284309571559     Delta-E=       -0.120330025270 Rises=F Damp=F
 DIIS: error= 7.69D-03 at cycle   3 NSaved=   3.
 NSaved= 3 IEnMin= 3 EnMin= -768.284309571559     IErMin= 3 ErrMin= 7.69D-03
 ErrMax= 7.69D-03  0.00D+00 EMaxC= 1.00D-01 BMatC= 5.08D-02 BMatP= 6.91D-02
 IDIUse=3 WtCom= 9.23D-01 WtEn= 7.69D-02
 Coeff-Com: -0.517D+00 0.105D+01 0.469D+00
 Coeff-En:   0.000D+00 0.000D+00 0.100D+01
 Coeff:     -0.478D+00 0.967D+00 0.510D+00
 Gap=     0.142 Goal=   None    Shift=    0.000
 RMSDP=9.12D-04 MaxDP=3.53D-02 DE=-1.20D-01 OVMax= 5.15D-02

 Cycle   4  Pass 1  IDiag  1:
 RMSU=  6.49D-04    CP:  9.89D-01  1.36D+00  6.06D-01
 E= -768.326240680441     Delta-E=       -0.041931108882 Rises=F Damp=F
 DIIS: error= 1.98D-03 at cycle   4 NSaved=   4.
 NSaved= 4 IEnMin= 4 EnMin= -768.326240680441     IErMin= 4 ErrMin= 1.98D-03
 ErrMax= 1.98D-03  0.00D+00 EMaxC= 1.00D-01 BMatC= 3.21D-03 BMatP= 5.08D-02
 IDIUse=3 WtCom= 9.80D-01 WtEn= 1.98D-02
 Coeff-Com: -0.229D+00 0.388D+00 0.209D+00 0.633D+00
 Coeff-En:   0.000D+00 0.000D+00 0.000D+00 0.100D+01
 Coeff:     -0.225D+00 0.380D+00 0.204D+00 0.640D+00
 Gap=     0.129 Goal=   None    Shift=    0.000
 RMSDP=2.34D-04 MaxDP=1.04D-02 DE=-4.19D-02 OVMax= 1.30D-02

 Cycle   5  Pass 1  IDiag  1:
 RMSU=  2.05D-04    CP:  9.89D-01  1.39D+00  6.60D-01  8.94D-01
 E= -768.328382600440     Delta-E=       -0.002141919999 Rises=F Damp=F
 DIIS: error= 1.32D-03 at cycle   5 NSaved=   5.
 NSaved= 5 IEnMin= 5 EnMin= -768.328382600440     IErMin= 5 ErrMin= 1.32D-03
 ErrMax= 1.32D-03  0.00D+00 EMaxC= 1.00D-01 BMatC= 9.75D-04 BMatP= 3.21D-03
 IDIUse=3 WtCom= 9.87D-01 WtEn= 1.32D-02
 Coeff-Com: -0.947D-01 0.140D+00 0.350D-01 0.354D+00 0.565D+00
 Coeff-En:   0.000D+00 0.000D+00 0.000D+00 0.133D+00 0.867D+00
 Coeff:     -0.935D-01 0.138D+00 0.346D-01 0.351D+00 0.569D+00
 Gap=     0.129 Goal=   None    Shift=    0.000
 RMSDP=9.99D-05 MaxDP=4.66D-03 DE=-2.14D-03 OVMax= 4.39D-03

 Cycle   6  Pass 1  IDiag  1:
 RMSU=  7.05D-05    CP:  9.89D-01  1.41D+00  6.55D-01  9.78D-01  8.08D-01
 E= -768.329026493654     Delta-E=       -0.000643893214 Rises=F Damp=F
 DIIS: error= 4.44D-04 at cycle   6 NSaved=   6.
 NSaved= 6 IEnMin= 6 EnMin= -768.329026493654     IErMin= 6 ErrMin= 4.44D-04
 ErrMax= 4.44D-04  0.00D+00 EMaxC= 1.00D-01 BMatC= 1.24D-04 BMatP= 9.75D-04
 IDIUse=3 WtCom= 9.96D-01 WtEn= 4.44D-03
 Coeff-Com: -0.343D-01 0.436D-01-0.145D-01 0.135D+00 0.341D+00 0.530D+00
 Coeff-En:   0.000D+00 0.000D+00 0.000D+00 0.000D+00 0.000D+00 0.100D+01
 Coeff:     -0.342D-01 0.434D-01-0.144D-01 0.134D+00 0.339D+00 0.532D+00
 Gap=     0.128 Goal=   None    Shift=    0.000
 RMSDP=3.75D-05 MaxDP=1.81D-03 DE=-6.44D-04 OVMax= 2.22D-03

 Cycle   7  Pass 1  IDiag  1:
 RMSU=  2.66D-05    CP:  9.89D-01  1.41D+00  6.51D-01  1.01D+00  8.72D-01
                    CP:  8.41D-01
 E= -768.329123290024     Delta-E=       -0.000096796370 Rises=F Damp=F
 DIIS: error= 1.47D-04 at cycle   7 NSaved=   7.
 NSaved= 7 IEnMin= 7 EnMin= -768.329123290024     IErMin= 7 ErrMin= 1.47D-04
 ErrMax= 1.47D-04  0.00D+00 EMaxC= 1.00D-01 BMatC= 1.34D-05 BMatP= 1.24D-04
 IDIUse=3 WtCom= 9.99D-01 WtEn= 1.47D-03
 Coeff-Com: -0.854D-02 0.856D-02-0.171D-01 0.277D-01 0.120D+00 0.298D+00
 Coeff-Com:  0.571D+00
 Coeff-En:   0.000D+00 0.000D+00 0.000D+00 0.000D+00 0.000D+00 0.000D+00
 Coeff-En:   0.100D+01
 Coeff:     -0.853D-02 0.855D-02-0.170D-01 0.277D-01 0.120D+00 0.298D+00
 Coeff:      0.572D+00
 Gap=     0.127 Goal=   None    Shift=    0.000
 RMSDP=1.54D-05 MaxDP=6.87D-04 DE=-9.68D-05 OVMax= 1.01D-03

 Cycle   8  Pass 1  IDiag  1:
 RMSU=  9.13D-06    CP:  9.89D-01  1.42D+00  6.51D-01  1.02D+00  9.02D-01
                    CP:  9.06D-01  8.15D-01
 E= -768.329135107111     Delta-E=       -0.000011817087 Rises=F Damp=F
 DIIS: error= 4.06D-05 at cycle   8 NSaved=   8.
 NSaved= 8 IEnMin= 8 EnMin= -768.329135107111     IErMin= 8 ErrMin= 4.06D-05
 ErrMax= 4.06D-05  0.00D+00 EMaxC= 1.00D-01 BMatC= 1.05D-06 BMatP= 1.34D-05
 IDIUse=1 WtCom= 1.00D+00 WtEn= 0.00D+00
 Coeff-Com:  0.134D-03-0.740D-03-0.551D-02-0.815D-02-0.146D-02 0.391D-01
 Coeff-Com:  0.247D+00 0.729D+00
 Coeff:      0.134D-03-0.740D-03-0.551D-02-0.815D-02-0.146D-02 0.391D-01
 Coeff:      0.247D+00 0.729D+00
 Gap=     0.127 Goal=   None    Shift=    0.000
 RMSDP=6.07D-06 MaxDP=1.77D-04 DE=-1.18D-05 OVMax= 8.48D-04

 Cycle   9  Pass 1  IDiag  1:
 RMSU=  3.35D-06    CP:  9.89D-01  1.41D+00  6.51D-01  1.02D+00  9.13D-01
                    CP:  9.36D-01  9.04D-01  9.72D-01
 E= -768.329136091121     Delta-E=       -0.000000984010 Rises=F Damp=F
 DIIS: error= 1.11D-05 at cycle   9 NSaved=   9.
 NSaved= 9 IEnMin= 9 EnMin= -768.329136091121     IErMin= 9 ErrMin= 1.11D-05
 ErrMax= 1.11D-05  0.00D+00 EMaxC= 1.00D-01 BMatC= 1.47D-07 BMatP= 1.05D-06
 IDIUse=1 WtCom= 1.00D+00 WtEn= 0.00D+00
 Coeff-Com:  0.435D-03-0.603D-03-0.151D-02-0.585D-02-0.988D-02-0.353D-02
 Coeff-Com:  0.814D-01 0.396D+00 0.544D+00
 Coeff:      0.435D-03-0.603D-03-0.151D-02-0.585D-02-0.988D-02-0.353D-02
 Coeff:      0.814D-01 0.396D+00 0.544D+00
 Gap=     0.127 Goal=   None    Shift=    0.000
 RMSDP=1.81D-06 MaxDP=4.55D-05 DE=-9.84D-07 OVMax= 2.10D-04

 Cycle  10  Pass 1  IDiag  1:
 RMSU=  1.15D-06    CP:  9.89D-01  1.41D+00  6.51D-01  1.02D+00  9.15D-01
                    CP:  9.46D-01  9.24D-01  1.02D+00  7.73D-01
 E= -768.329136226686     Delta-E=       -0.000000135565 Rises=F Damp=F
 DIIS: error= 2.17D-06 at cycle  10 NSaved=  10.
 NSaved=10 IEnMin=10 EnMin= -768.329136226686     IErMin=10 ErrMin= 2.17D-06
 ErrMax= 2.17D-06  0.00D+00 EMaxC= 1.00D-01 BMatC= 5.35D-09 BMatP= 1.47D-07
 IDIUse=1 WtCom= 1.00D+00 WtEn= 0.00D+00
 Coeff-Com:  0.229D-03-0.281D-03-0.313D-05-0.120D-02-0.361D-02-0.539D-02
 Coeff-Com: -0.339D-02 0.423D-01 0.155D+00 0.817D+00
 Coeff:      0.229D-03-0.281D-03-0.313D-05-0.120D-02-0.361D-02-0.539D-02
 Coeff:     -0.339D-02 0.423D-01 0.155D+00 0.817D+00
 Gap=     0.127 Goal=   None    Shift=    0.000
 RMSDP=7.14D-07 MaxDP=1.40D-05 DE=-1.36D-07 OVMax= 1.04D-04

 Cycle  11  Pass 1  IDiag  1:
 RMSU=  2.60D-07    CP:  9.89D-01  1.41D+00  6.52D-01  1.03D+00  9.16D-01
                    CP:  9.49D-01  9.32D-01  1.05D+00  8.31D-01  9.95D-01
 E= -768.329136234929     Delta-E=       -0.000000008243 Rises=F Damp=F
 DIIS: error= 1.05D-06 at cycle  11 NSaved=  11.
 NSaved=11 IEnMin=11 EnMin= -768.329136234929     IErMin=11 ErrMin= 1.05D-06
 ErrMax= 1.05D-06  0.00D+00 EMaxC= 1.00D-01 BMatC= 8.11D-10 BMatP= 5.35D-09
 IDIUse=1 WtCom= 1.00D+00 WtEn= 0.00D+00
 Coeff-Com:  0.601D-04-0.676D-04 0.805D-04-0.144D-03-0.101D-02-0.188D-02
 Coeff-Com: -0.627D-02-0.202D-02 0.388D-01 0.381D+00 0.592D+00
 Coeff:      0.601D-04-0.676D-04 0.805D-04-0.144D-03-0.101D-02-0.188D-02
 Coeff:     -0.627D-02-0.202D-02 0.388D-01 0.381D+00 0.592D+00
 Gap=     0.127 Goal=   None    Shift=    0.000
 RMSDP=1.73D-07 MaxDP=5.63D-06 DE=-8.24D-09 OVMax= 2.18D-05

 Cycle  12  Pass 1  IDiag  1:
 RMSU=  1.08D-07    CP:  9.89D-01  1.41D+00  6.52D-01  1.03D+00  9.16D-01
                    CP:  9.50D-01  9.32D-01  1.06D+00  8.49D-01  1.03D+00
                    CP:  7.68D-01
 E= -768.329136235769     Delta-E=       -0.000000000840 Rises=F Damp=F
 DIIS: error= 4.13D-07 at cycle  12 NSaved=  12.
 NSaved=12 IEnMin=12 EnMin= -768.329136235769     IErMin=12 ErrMin= 4.13D-07
 ErrMax= 4.13D-07  0.00D+00 EMaxC= 1.00D-01 BMatC= 1.11D-10 BMatP= 8.11D-10
 IDIUse=1 WtCom= 1.00D+00 WtEn= 0.00D+00
 Coeff-Com:  0.808D-05-0.935D-05 0.412D-04 0.100D-03 0.254D-04-0.340D-04
 Coeff-Com: -0.303D-02-0.874D-02-0.843D-02 0.465D-01 0.284D+00 0.689D+00
 Coeff:      0.808D-05-0.935D-05 0.412D-04 0.100D-03 0.254D-04-0.340D-04
 Coeff:     -0.303D-02-0.874D-02-0.843D-02 0.465D-01 0.284D+00 0.689D+00
 Gap=     0.127 Goal=   None    Shift=    0.000
 RMSDP=6.77D-08 MaxDP=1.86D-06 DE=-8.40D-10 OVMax= 8.45D-06

 Cycle  13  Pass 1  IDiag  1:
 RMSU=  2.56D-08    CP:  9.89D-01  1.41D+00  6.52D-01  1.03D+00  9.16D-01
                    CP:  9.50D-01  9.33D-01  1.06D+00  8.52D-01  1.05D+00
                    CP:  8.81D-01  8.44D-01
 E= -768.329136235877     Delta-E=       -0.000000000107 Rises=F Damp=F
 DIIS: error= 7.31D-08 at cycle  13 NSaved=  13.
 NSaved=13 IEnMin=13 EnMin= -768.329136235877     IErMin=13 ErrMin= 7.31D-08
 ErrMax= 7.31D-08  0.00D+00 EMaxC= 1.00D-01 BMatC= 3.65D-12 BMatP= 1.11D-10
 IDIUse=1 WtCom= 1.00D+00 WtEn= 0.00D+00
 Coeff-Com: -0.192D-05 0.244D-05 0.101D-04 0.492D-04 0.768D-04 0.130D-03
 Coeff-Com: -0.697D-03-0.282D-02-0.534D-02-0.518D-02 0.669D-01 0.234D+00
 Coeff-Com:  0.713D+00
 Coeff:     -0.192D-05 0.244D-05 0.101D-04 0.492D-04 0.768D-04 0.130D-03
 Coeff:     -0.697D-03-0.282D-02-0.534D-02-0.518D-02 0.669D-01 0.234D+00
 Coeff:      0.713D+00
 Gap=     0.127 Goal=   None    Shift=    0.000
 RMSDP=1.18D-08 MaxDP=5.22D-07 DE=-1.07D-10 OVMax= 1.07D-06

 Cycle  14  Pass 1  IDiag  1:
 RMSU=  9.07D-09    CP:  9.89D-01  1.41D+00  6.52D-01  1.03D+00  9.16D-01
                    CP:  9.50D-01  9.33D-01  1.06D+00  8.53D-01  1.05D+00
                    CP:  8.94D-01  8.85D-01  9.85D-01
 E= -768.329136235886     Delta-E=       -0.000000000009 Rises=F Damp=F
 DIIS: error= 2.90D-08 at cycle  14 NSaved=  14.
 NSaved=14 IEnMin=14 EnMin= -768.329136235886     IErMin=14 ErrMin= 2.90D-08
 ErrMax= 2.90D-08  0.00D+00 EMaxC= 1.00D-01 BMatC= 7.65D-13 BMatP= 3.65D-12
 IDIUse=1 WtCom= 1.00D+00 WtEn= 0.00D+00
 Coeff-Com: -0.121D-05 0.141D-05-0.132D-05 0.439D-05 0.216D-04 0.533D-04
 Coeff-Com:  0.112D-03 0.828D-04-0.104D-02-0.731D-02-0.689D-02 0.120D-01
 Coeff-Com:  0.341D+00 0.662D+00
 Coeff:     -0.121D-05 0.141D-05-0.132D-05 0.439D-05 0.216D-04 0.533D-04
 Coeff:      0.112D-03 0.828D-04-0.104D-02-0.731D-02-0.689D-02 0.120D-01
 Coeff:      0.341D+00 0.662D+00
 Gap=     0.127 Goal=   None    Shift=    0.000
 RMSDP=4.48D-09 MaxDP=1.28D-07 DE=-8.87D-12 OVMax= 4.39D-07

 Error on total polarization charges =  0.01209
 SCF Done:  E(RB3LYP) =  -768.329136236     A.U. after   14 cycles
            NFock= 14  Conv=0.45D-08     -V/T= 2.0091
 KE= 7.613940134941D+02 PE=-4.131098634338D+03 EE= 1.423237309750D+03
 Leave Link  502 at Fri May 24 08:32:37 2019, MaxMem=   402653184 cpu:             567.8 elap:             142.0
 (Enter /n/sw/g16_nehalem/g16/l601.exe)
 Copying SCF densities to generalized density rwf, IOpCl= 0 IROHF=0.

 **********************************************************************

            Population analysis using the SCF density.

 **********************************************************************

 Orbital symmetries:
       Occupied  (A) (A) (A) (A) (A) (A) (A) (A) (A) (A) (A) (A)
                 (A) (A) (A) (A) (A) (A) (A) (A) (A) (A) (A) (A)
                 (A) (A) (A) (A) (A) (A) (A) (A) (A) (A) (A) (A)
                 (A) (A) (A) (A) (A) (A) (A) (A) (A) (A) (A) (A)
                 (A) (A) (A) (A) (A) (A) (A) (A) (A) (A) (A)
       Virtual   (A) (A) (A) (A) (A) (A) (A) (A) (A) (A) (A) (A)
                 (A) (A) (A) (A) (A) (A) (A) (A) (A) (A) (A) (A)
                 (A) (A) (A) (A) (A) (A) (A) (A) (A) (A) (A) (A)
                 (A) (A) (A) (A) (A) (A) (A) (A) (A) (A) (A) (A)
                 (A) (A) (A) (A) (A) (A) (A) (A) (A) (A) (A) (A)
                 (A) (A) (A) (A) (A) (A) (A) (A) (A) (A) (A) (A)
                 (A) (A) (A) (A) (A) (A) (A) (A) (A) (A) (A) (A)
                 (A) (A) (A) (A) (A) (A) (A) (A) (A) (A) (A) (A)
                 (A) (A) (A) (A) (A) (A) (A) (A) (A) (A) (A) (A)
                 (A) (A) (A) (A) (A) (A) (A) (A) (A) (A) (A) (A)
                 (A) (A) (A) (A) (A) (A) (A) (A) (A) (A) (A) (A)
                 (A) (A) (A) (A) (A) (A) (A) (A) (A) (A) (A) (A)
                 (A) (A) (A) (A) (A) (A) (A) (A) (A) (A) (A) (A)
                 (A) (A) (A) (A) (A) (A) (A) (A) (A) (A) (A) (A)
                 (A) (A) (A) (A) (A) (A) (A) (A) (A) (A) (A) (A)
                 (A) (A) (A) (A) (A) (A) (A) (A) (A) (A) (A) (A)
                 (A) (A) (A) (A) (A) (A) (A) (A) (A) (A) (A) (A)
 The electronic state is 1-A.
 Alpha  occ. eigenvalues --  -19.32688 -19.20591 -19.19897 -19.19744 -19.18882
 Alpha  occ. eigenvalues --  -10.39342 -10.32171 -10.31480 -10.29864 -10.29627
 Alpha  occ. eigenvalues --  -10.28468 -10.25803 -10.25419 -10.25362 -10.24682
 Alpha  occ. eigenvalues --   -1.21467  -1.09642  -1.07989  -1.07676  -1.06467
 Alpha  occ. eigenvalues --   -0.87207  -0.85582  -0.77825  -0.74945  -0.74645
 Alpha  occ. eigenvalues --   -0.71288  -0.69643  -0.67809  -0.65766  -0.61917
 Alpha  occ. eigenvalues --   -0.59793  -0.58831  -0.56444  -0.54143  -0.54034
 Alpha  occ. eigenvalues --   -0.52624  -0.52086  -0.51260  -0.50413  -0.48863
 Alpha  occ. eigenvalues --   -0.48293  -0.47722  -0.46945  -0.45764  -0.45367
 Alpha  occ. eigenvalues --   -0.43821  -0.43627  -0.43146  -0.41665  -0.40654
 Alpha  occ. eigenvalues --   -0.40016  -0.37041  -0.36590  -0.35667  -0.34839
 Alpha  occ. eigenvalues --   -0.32747  -0.31259  -0.30146  -0.27623
 Alpha virt. eigenvalues --   -0.14891   0.00198   0.04288   0.05279   0.06044
 Alpha virt. eigenvalues --    0.07225   0.07942   0.08898   0.09252   0.10222
 Alpha virt. eigenvalues --    0.10847   0.12216   0.12320   0.13058   0.13486
 Alpha virt. eigenvalues --    0.13612   0.14050   0.14673   0.14978   0.15547
 Alpha virt. eigenvalues --    0.15720   0.16207   0.16533   0.17098   0.17429
 Alpha virt. eigenvalues --    0.18478   0.19024   0.19575   0.21714   0.22609
 Alpha virt. eigenvalues --    0.23808   0.24810   0.26103   0.27573   0.29662
 Alpha virt. eigenvalues --    0.44693   0.45635   0.45872   0.47167   0.47909
 Alpha virt. eigenvalues --    0.48187   0.49092   0.49600   0.51166   0.52216
 Alpha virt. eigenvalues --    0.53328   0.53445   0.53960   0.54399   0.55101
 Alpha virt. eigenvalues --    0.55536   0.58363   0.60257   0.61582   0.62575
 Alpha virt. eigenvalues --    0.63073   0.65838   0.66925   0.68937   0.70465
 Alpha virt. eigenvalues --    0.73352   0.74363   0.76316   0.77275   0.77979
 Alpha virt. eigenvalues --    0.78928   0.79528   0.80244   0.81088   0.81764
 Alpha virt. eigenvalues --    0.82819   0.83824   0.84077   0.84794   0.85858
 Alpha virt. eigenvalues --    0.86513   0.86680   0.87093   0.87903   0.89380
 Alpha virt. eigenvalues --    0.90646   0.92789   0.93143   0.93895   0.94527
 Alpha virt. eigenvalues --    0.95157   0.95990   0.98326   1.00784   1.01889
 Alpha virt. eigenvalues --    1.04492   1.06423   1.07306   1.10565   1.12225
 Alpha virt. eigenvalues --    1.15024   1.15289   1.17471   1.18481   1.21328
 Alpha virt. eigenvalues --    1.24737   1.26517   1.29094   1.30976   1.32719
 Alpha virt. eigenvalues --    1.34627   1.35307   1.38455   1.38876   1.42049
 Alpha virt. eigenvalues --    1.43023   1.44512   1.46493   1.47409   1.48680
 Alpha virt. eigenvalues --    1.51249   1.53308   1.56421   1.59281   1.61407
 Alpha virt. eigenvalues --    1.62170   1.64711   1.67294   1.69273   1.72148
 Alpha virt. eigenvalues --    1.74418   1.75319   1.75665   1.77473   1.81117
 Alpha virt. eigenvalues --    1.82504   1.83716   1.84361   1.89397   1.91921
 Alpha virt. eigenvalues --    1.92611   1.94189   1.95142   1.96000   2.00930
 Alpha virt. eigenvalues --    2.01361   2.02080   2.02422   2.03253   2.04528
 Alpha virt. eigenvalues --    2.06054   2.07165   2.07583   2.10478   2.11151
 Alpha virt. eigenvalues --    2.11185   2.13166   2.14427   2.16291   2.17236
 Alpha virt. eigenvalues --    2.19172   2.22364   2.22994   2.24002   2.25885
 Alpha virt. eigenvalues --    2.28499   2.29694   2.30645   2.34118   2.35339
 Alpha virt. eigenvalues --    2.36842   2.38907   2.41361   2.43170   2.47075
 Alpha virt. eigenvalues --    2.52080   2.53284   2.55369   2.58414   2.59388
 Alpha virt. eigenvalues --    2.60779   2.66454   2.67370   2.73218   2.75184
 Alpha virt. eigenvalues --    2.78114   2.80196   2.85864   2.90579   2.90833
 Alpha virt. eigenvalues --    2.95742   2.96212   3.00872   3.07282   3.86509
 Alpha virt. eigenvalues --    3.89941   3.91656   4.04602   4.08071   4.14266
 Alpha virt. eigenvalues --    4.21802   4.22442   4.23575   4.26207   4.33280
 Alpha virt. eigenvalues --    4.41341   4.46786   4.50174   4.73046
          Condensed to atoms (all electrons):
               1          2          3          4          5          6
     1  C    5.032832   0.210585  -0.035252  -0.030825   0.283900   0.002834
     2  C    0.210585   5.168365   0.275803  -0.002210  -0.033560  -0.040381
     3  C   -0.035252   0.275803   4.861022  -0.039923  -0.006299   0.360548
     4  C   -0.030825  -0.002210  -0.039923   5.103726   0.287041   0.003187
     5  C    0.283900  -0.033560  -0.006299   0.287041   5.019109  -0.000398
     6  H    0.002834  -0.040381   0.360548   0.003187  -0.000398   0.422949
     7  H   -0.030863   0.354027  -0.042260  -0.000483  -0.005022   0.001923
     8  H    0.377196  -0.042978  -0.003783  -0.000872  -0.049393   0.000100
     9  H    0.000930  -0.000109   0.002263   0.361264  -0.035090  -0.000104
    10  H   -0.046169  -0.001257  -0.000149  -0.052817   0.360563   0.000006
    11  O    0.000328  -0.026529   0.362268   0.135987  -0.028419  -0.033204
    12  O   -0.028746   0.226722  -0.031214   0.000044   0.002381   0.002797
    13  O    0.252876  -0.037882   0.002591   0.002464  -0.034702  -0.000043
    14  O   -0.040214   0.002834   0.000088  -0.037487   0.202260   0.000003
    15  C    0.000571   0.000993  -0.003044   0.338535  -0.024924  -0.000245
    16  H    0.000332  -0.000143   0.000337  -0.035799  -0.005289   0.000007
    17  H   -0.000274   0.000063  -0.000458  -0.028210   0.004936  -0.000049
    18  O   -0.001218  -0.010502   0.011063  -0.051777  -0.001205   0.000095
    19  C   -0.002833  -0.046251  -0.004455   0.000003   0.000125   0.000590
    20  H   -0.002141  -0.003661   0.005794  -0.000013   0.000014   0.000202
    21  H    0.000026   0.004958  -0.000093   0.000000  -0.000002  -0.000086
    22  H    0.005608  -0.009164  -0.000496  -0.000004   0.000136   0.000123
    23  C   -0.041428  -0.004664   0.000264   0.000253  -0.007360  -0.000001
    24  H    0.005189  -0.000005  -0.000006   0.000000   0.000008   0.000000
    25  H   -0.003611  -0.001953   0.000076  -0.000512   0.003693   0.000000
    26  H   -0.010661   0.007128   0.000106   0.000041  -0.000502   0.000007
    27  C   -0.002569   0.000113  -0.000013   0.005181  -0.034945   0.000000
    28  H   -0.000889   0.000035  -0.000001  -0.000185  -0.008450   0.000000
    29  H   -0.000086   0.000007   0.000000  -0.000115   0.004559   0.000000
    30  H    0.002178  -0.000058  -0.000004  -0.000076  -0.003522   0.000000
    31  C    0.000002   0.000308  -0.000284   0.005478   0.000065   0.000000
    32  H    0.000004   0.000064   0.000010  -0.000249  -0.000008   0.000000
    33  H   -0.000005  -0.000012  -0.000056   0.000056   0.000037  -0.000001
    34  H    0.000002  -0.000021   0.000027  -0.000083  -0.000058   0.000000
               7          8          9         10         11         12
     1  C   -0.030863   0.377196   0.000930  -0.046169   0.000328  -0.028746
     2  C    0.354027  -0.042978  -0.000109  -0.001257  -0.026529   0.226722
     3  C   -0.042260  -0.003783   0.002263  -0.000149   0.362268  -0.031214
     4  C   -0.000483  -0.000872   0.361264  -0.052817   0.135987   0.000044
     5  C   -0.005022  -0.049393  -0.035090   0.360563  -0.028419   0.002381
     6  H    0.001923   0.000100  -0.000104   0.000006  -0.033204   0.002797
     7  H    0.463316   0.004096   0.000003   0.003555  -0.000369  -0.031723
     8  H    0.004096   0.547323   0.000214   0.005576   0.001492  -0.003339
     9  H    0.000003   0.000214   0.456539   0.004033  -0.023577   0.000002
    10  H    0.003555   0.005576   0.004033   0.557285   0.002019  -0.000060
    11  O   -0.000369   0.001492  -0.023577   0.002019   7.951856   0.001685
    12  O   -0.031723  -0.003339   0.000002  -0.000060   0.001685   8.195815
    13  O   -0.004405  -0.042700  -0.000044  -0.004291   0.000020   0.003911
    14  O    0.000016   0.004140   0.008759  -0.034210   0.000696  -0.000008
    15  C   -0.001271   0.000134  -0.026713   0.000032  -0.039250  -0.000016
    16  H    0.000074  -0.000006   0.001315  -0.001164   0.002806   0.000000
    17  H    0.000177   0.000005  -0.002033   0.000688  -0.001530   0.000000
    18  O    0.020607  -0.000017   0.002271   0.007599  -0.001638   0.000061
    19  C    0.004504   0.005131   0.000000   0.000000   0.000012   0.230626
    20  H   -0.000251   0.000221   0.000000  -0.000001  -0.000389  -0.036254
    21  H   -0.000115  -0.000027   0.000000   0.000000   0.000001  -0.030077
    22  H   -0.000117  -0.002475   0.000000  -0.000005   0.000026  -0.032758
    23  C    0.005306   0.005644  -0.000004   0.002844   0.000002  -0.004136
    24  H   -0.000078  -0.000129   0.000000  -0.000074   0.000000   0.000006
    25  H   -0.000756  -0.000336   0.000005   0.004878  -0.000005   0.000296
    26  H    0.000199  -0.000077   0.000000  -0.000138  -0.000004   0.006464
    27  C   -0.000008  -0.000064  -0.000119  -0.005901  -0.000049   0.000000
    28  H    0.000002   0.000184   0.000093   0.012160  -0.000002   0.000000
    29  H    0.000000  -0.000046  -0.000100  -0.000034   0.000000   0.000000
    30  H    0.000000  -0.000346   0.000047  -0.001306   0.000004   0.000001
    31  C   -0.000559   0.000001  -0.000134  -0.000175   0.000041  -0.000002
    32  H   -0.000243   0.000000   0.000002   0.000004   0.000000  -0.000001
    33  H    0.000087   0.000000   0.000004   0.000038   0.000011   0.000000
    34  H    0.000068   0.000000   0.000009  -0.000083  -0.000001   0.000000
              13         14         15         16         17         18
     1  C    0.252876  -0.040214   0.000571   0.000332  -0.000274  -0.001218
     2  C   -0.037882   0.002834   0.000993  -0.000143   0.000063  -0.010502
     3  C    0.002591   0.000088  -0.003044   0.000337  -0.000458   0.011063
     4  C    0.002464  -0.037487   0.338535  -0.035799  -0.028210  -0.051777
     5  C   -0.034702   0.202260  -0.024924  -0.005289   0.004936  -0.001205
     6  H   -0.000043   0.000003  -0.000245   0.000007  -0.000049   0.000095
     7  H   -0.004405   0.000016  -0.001271   0.000074   0.000177   0.020607
     8  H   -0.042700   0.004140   0.000134  -0.000006   0.000005  -0.000017
     9  H   -0.000044   0.008759  -0.026713   0.001315  -0.002033   0.002271
    10  H   -0.004291  -0.034210   0.000032  -0.001164   0.000688   0.007599
    11  O    0.000020   0.000696  -0.039250   0.002806  -0.001530  -0.001638
    12  O    0.003911  -0.000008  -0.000016   0.000000   0.000000   0.000061
    13  O    8.188843   0.001238  -0.000019  -0.000001   0.000001   0.000005
    14  O    0.001238   8.252779   0.000759   0.000498  -0.000062   0.000097
    15  C   -0.000019   0.000759   4.892621   0.359923   0.357915   0.230667
    16  H   -0.000001   0.000498   0.359923   0.560137  -0.042617  -0.035992
    17  H    0.000001  -0.000062   0.357915  -0.042617   0.559892  -0.038732
    18  O    0.000005   0.000097   0.230667  -0.035992  -0.038732   8.221882
    19  C   -0.004926  -0.000002   0.000000   0.000000   0.000000  -0.000001
    20  H    0.000289   0.000000   0.000000   0.000000   0.000000   0.000000
    21  H    0.000029   0.000000   0.000000   0.000000   0.000000   0.000000
    22  H    0.008314   0.000002   0.000000   0.000000   0.000000   0.000000
    23  C    0.232396  -0.000049  -0.000004  -0.000001   0.000000  -0.000117
    24  H   -0.030650  -0.000003   0.000000   0.000000   0.000000   0.000001
    25  H   -0.035517   0.000026  -0.000017  -0.000004  -0.000001   0.000175
    26  H   -0.034258  -0.000003  -0.000001   0.000001   0.000000  -0.000023
    27  C   -0.002245   0.234997  -0.000267  -0.000038   0.000006   0.000009
    28  H    0.000104  -0.035242   0.000123   0.000026   0.000000  -0.000016
    29  H    0.000173  -0.032396   0.000004  -0.000001   0.000000   0.000000
    30  H    0.008046  -0.034453  -0.000008   0.000006   0.000000   0.000000
    31  C    0.000000  -0.000001  -0.039528  -0.003425  -0.004027   0.238566
    32  H    0.000000   0.000000   0.005316  -0.000125  -0.000109  -0.030794
    33  H    0.000000   0.000000  -0.006713  -0.001825   0.010243  -0.035262
    34  H    0.000000   0.000000  -0.006710   0.009578  -0.001958  -0.035326
              19         20         21         22         23         24
     1  C   -0.002833  -0.002141   0.000026   0.005608  -0.041428   0.005189
     2  C   -0.046251  -0.003661   0.004958  -0.009164  -0.004664  -0.000005
     3  C   -0.004455   0.005794  -0.000093  -0.000496   0.000264  -0.000006
     4  C    0.000003  -0.000013   0.000000  -0.000004   0.000253   0.000000
     5  C    0.000125   0.000014  -0.000002   0.000136  -0.007360   0.000008
     6  H    0.000590   0.000202  -0.000086   0.000123  -0.000001   0.000000
     7  H    0.004504  -0.000251  -0.000115  -0.000117   0.005306  -0.000078
     8  H    0.005131   0.000221  -0.000027  -0.002475   0.005644  -0.000129
     9  H    0.000000   0.000000   0.000000   0.000000  -0.000004   0.000000
    10  H    0.000000  -0.000001   0.000000  -0.000005   0.002844  -0.000074
    11  O    0.000012  -0.000389   0.000001   0.000026   0.000002   0.000000
    12  O    0.230626  -0.036254  -0.030077  -0.032758  -0.004136   0.000006
    13  O   -0.004926   0.000289   0.000029   0.008314   0.232396  -0.030650
    14  O   -0.000002   0.000000   0.000000   0.000002  -0.000049  -0.000003
    15  C    0.000000   0.000000   0.000000   0.000000  -0.000004   0.000000
    16  H    0.000000   0.000000   0.000000   0.000000  -0.000001   0.000000
    17  H    0.000000   0.000000   0.000000   0.000000   0.000000   0.000000
    18  O   -0.000001   0.000000   0.000000   0.000000  -0.000117   0.000001
    19  C    4.943572   0.362010   0.387069   0.367905   0.000536   0.000017
    20  H    0.362010   0.582109  -0.027947  -0.041384  -0.000022   0.000000
    21  H    0.387069  -0.027947   0.497974  -0.027654   0.000010  -0.000001
    22  H    0.367905  -0.041384  -0.027654   0.546237  -0.000546  -0.000065
    23  C    0.000536  -0.000022   0.000010  -0.000546   4.946797   0.386562
    24  H    0.000017   0.000000  -0.000001  -0.000065   0.386562   0.503313
    25  H   -0.000026   0.000001   0.000000   0.000052   0.359822  -0.028751
    26  H   -0.000410   0.000051  -0.000039  -0.000259   0.363915  -0.027886
    27  C    0.000000   0.000000   0.000000  -0.000001   0.000347   0.000037
    28  H    0.000000   0.000000   0.000000   0.000000  -0.000060   0.000013
    29  H    0.000000   0.000000   0.000000   0.000000  -0.000006  -0.000001
    30  H   -0.000001   0.000000   0.000000   0.000006  -0.000357  -0.000158
    31  C    0.000000   0.000000   0.000000   0.000000   0.000005   0.000000
    32  H    0.000000   0.000000   0.000000   0.000000   0.000001   0.000000
    33  H    0.000000   0.000000   0.000000   0.000000   0.000000   0.000000
    34  H    0.000000   0.000000   0.000000   0.000000  -0.000001   0.000000
              25         26         27         28         29         30
     1  C   -0.003611  -0.010661  -0.002569  -0.000889  -0.000086   0.002178
     2  C   -0.001953   0.007128   0.000113   0.000035   0.000007  -0.000058
     3  C    0.000076   0.000106  -0.000013  -0.000001   0.000000  -0.000004
     4  C   -0.000512   0.000041   0.005181  -0.000185  -0.000115  -0.000076
     5  C    0.003693  -0.000502  -0.034945  -0.008450   0.004559  -0.003522
     6  H    0.000000   0.000007   0.000000   0.000000   0.000000   0.000000
     7  H   -0.000756   0.000199  -0.000008   0.000002   0.000000   0.000000
     8  H   -0.000336  -0.000077  -0.000064   0.000184  -0.000046  -0.000346
     9  H    0.000005   0.000000  -0.000119   0.000093  -0.000100   0.000047
    10  H    0.004878  -0.000138  -0.005901   0.012160  -0.000034  -0.001306
    11  O   -0.000005  -0.000004  -0.000049  -0.000002   0.000000   0.000004
    12  O    0.000296   0.006464   0.000000   0.000000   0.000000   0.000001
    13  O   -0.035517  -0.034258  -0.002245   0.000104   0.000173   0.008046
    14  O    0.000026  -0.000003   0.234997  -0.035242  -0.032396  -0.034453
    15  C   -0.000017  -0.000001  -0.000267   0.000123   0.000004  -0.000008
    16  H   -0.000004   0.000001  -0.000038   0.000026  -0.000001   0.000006
    17  H   -0.000001   0.000000   0.000006   0.000000   0.000000   0.000000
    18  O    0.000175  -0.000023   0.000009  -0.000016   0.000000   0.000000
    19  C   -0.000026  -0.000410   0.000000   0.000000   0.000000  -0.000001
    20  H    0.000001   0.000051   0.000000   0.000000   0.000000   0.000000
    21  H    0.000000  -0.000039   0.000000   0.000000   0.000000   0.000000
    22  H    0.000052  -0.000259  -0.000001   0.000000   0.000000   0.000006
    23  C    0.359822   0.363915   0.000347  -0.000060  -0.000006  -0.000357
    24  H   -0.028751  -0.027886   0.000037   0.000013  -0.000001  -0.000158
    25  H    0.576956  -0.041894  -0.000063   0.000197  -0.000011   0.000018
    26  H   -0.041894   0.561971   0.000008   0.000004   0.000000   0.000066
    27  C   -0.000063   0.000008   4.913381   0.366872   0.381891   0.367346
    28  H    0.000197   0.000004   0.366872   0.578377  -0.028044  -0.042015
    29  H   -0.000011   0.000000   0.381891  -0.028044   0.525269  -0.030721
    30  H    0.000018   0.000066   0.367346  -0.042015  -0.030721   0.562274
    31  C    0.000012  -0.000001   0.000000   0.000001   0.000000   0.000000
    32  H    0.000000   0.000002   0.000000   0.000000   0.000000   0.000000
    33  H    0.000000   0.000000   0.000000   0.000000   0.000000   0.000000
    34  H    0.000000   0.000000   0.000000   0.000001   0.000000   0.000000
              31         32         33         34
     1  C    0.000002   0.000004  -0.000005   0.000002
     2  C    0.000308   0.000064  -0.000012  -0.000021
     3  C   -0.000284   0.000010  -0.000056   0.000027
     4  C    0.005478  -0.000249   0.000056  -0.000083
     5  C    0.000065  -0.000008   0.000037  -0.000058
     6  H    0.000000   0.000000  -0.000001   0.000000
     7  H   -0.000559  -0.000243   0.000087   0.000068
     8  H    0.000001   0.000000   0.000000   0.000000
     9  H   -0.000134   0.000002   0.000004   0.000009
    10  H   -0.000175   0.000004   0.000038  -0.000083
    11  O    0.000041   0.000000   0.000011  -0.000001
    12  O   -0.000002  -0.000001   0.000000   0.000000
    13  O    0.000000   0.000000   0.000000   0.000000
    14  O   -0.000001   0.000000   0.000000   0.000000
    15  C   -0.039528   0.005316  -0.006713  -0.006710
    16  H   -0.003425  -0.000125  -0.001825   0.009578
    17  H   -0.004027  -0.000109   0.010243  -0.001958
    18  O    0.238566  -0.030794  -0.035262  -0.035326
    19  C    0.000000   0.000000   0.000000   0.000000
    20  H    0.000000   0.000000   0.000000   0.000000
    21  H    0.000000   0.000000   0.000000   0.000000
    22  H    0.000000   0.000000   0.000000   0.000000
    23  C    0.000005   0.000001   0.000000  -0.000001
    24  H    0.000000   0.000000   0.000000   0.000000
    25  H    0.000012   0.000000   0.000000   0.000000
    26  H   -0.000001   0.000002   0.000000   0.000000
    27  C    0.000000   0.000000   0.000000   0.000000
    28  H    0.000001   0.000000   0.000000   0.000001
    29  H    0.000000   0.000000   0.000000   0.000000
    30  H    0.000000   0.000000   0.000000   0.000000
    31  C    4.891217   0.385204   0.369880   0.371454
    32  H    0.385204   0.516651  -0.029616  -0.029627
    33  H    0.369880  -0.029616   0.571087  -0.042618
    34  H    0.371454  -0.029627  -0.042618   0.570127
 Mulliken charges:
               1
     1  C    0.102392
     2  C    0.009333
     3  C    0.285530
     4  C    0.038378
     5  C    0.110322
     6  H    0.279141
     7  H    0.260564
     8  H    0.195132
     9  H    0.250275
    10  H    0.186557
    11  O   -0.304288
    12  O   -0.472476
    13  O   -0.469617
    14  O   -0.495063
    15  C   -0.038861
    16  H    0.191391
    17  H    0.186135
    18  O   -0.490478
    19  C   -0.243192
    20  H    0.161373
    21  H    0.195975
    22  H    0.186519
    23  C   -0.245948
    24  H    0.192660
    25  H    0.167250
    26  H    0.176192
    27  C   -0.223904
    28  H    0.156715
    29  H    0.179658
    30  H    0.173032
    31  C   -0.214096
    32  H    0.183512
    33  H    0.164664
    34  H    0.165223
 Sum of Mulliken charges =   1.00000
 Mulliken charges with hydrogens summed into heavy atoms:
               1
     1  C    0.297524
     2  C    0.269897
[...]
 0338449,-0.03297664,0.01081956,-0.00003691,-0.00003393,-0.00027566,-0.
 00000902,0.00000124,0.00002067,0.00009878,-0.00005899,0.00006729,0.000
 17697,-0.00010769,0.00013291,0.00014031,-0.00001823,0.00009968,-0.0000
 1017,0.00000680,-0.00001272,-0.00002248,-0.00001181,-0.00001047,0.0000
 0174,0.00001212,-0.00001045,-0.00005377,0.00006334,-0.00024406,-0.0000
 1744,-0.00000091,0.00003378,0.00002090,-0.00003271,0.00000643,0.000022
 84,-0.00003723,0.00002878,-0.01958396,-0.21718343,0.12892297,0.0005514
 7,0.00501956,-0.00122801,0.01638857,0.24812544,0.00043348,-0.00051929,
 -0.00014492,-0.00006322,-0.00003285,0.00006561,0.00003744,0.00006805,0
 .00001383,-0.00010062,-0.00048758,0.00064848,0.00062062,-0.00369618,-0
 .00146327,-0.00002645,0.00000967,-0.00000214,-0.00003904,0.00002750,-0
 .00001034,-0.00000563,-0.00000078,0.00002235,-0.00002844,0.00003039,-0
 .00006889,0.00025050,-0.00019363,0.00036445,0.00009874,-0.00011557,-0.
 00008482,-0.00007963,-0.00009305,0.00001020,0.00007097,0.00070405,0.00
 002729,0.00003357,-0.02378032,0.01270059,0.00005265,-0.00002116,-0.000
 12748,0.00001878,0.00000119,0.00000256,0.00003596,-0.00000908,0.000027
 36,0.00001328,0.00000327,0.00002582,0.00003376,-0.00002130,0.00001422,
 -0.00000485,0.00000281,-0.00000071,-0.00000690,0.00000237,-0.00000525,
 -0.00001282,0.00000135,-0.00000673,-0.00008949,-0.00008693,0.00019584,
 0.00000293,-0.00000902,0.00000708,0.00002945,-0.00007728,0.00003346,0.
 00001721,0.00003457,-0.00001804,0.01358277,0.14058439,-0.15553743,0.00
 370696,0.01915078,-0.01252957,-0.01784870,-0.13785093,0.16001182,-0.00
 053695,0.00176885,0.00036522,0.00032122,-0.00042446,-0.00029938,-0.000
 30627,-0.00020408,0.00031167,0.00004398,-0.00001426,-0.00014386,0.0005
 1902,-0.00219542,0.00174007,0.00000600,0.00002595,-0.00003231,-0.00002
 665,0.00004867,0.00003647,-0.00010076,-0.00002521,-0.00003196,0.000146
 88,-0.00010829,-0.00008974,-0.00019437,0.00002398,-0.00037500,0.000154
 21,0.00046032,-0.00012474,0.00010393,0.00019137,-0.00002839,-0.0003275
 4,-0.00291043,0.00053392,-0.00332483,0.00978342,0.00720562,0.00002857,
 -0.00001567,0.00011071,0.00004386,0.00000097,0.00000920,-0.00003258,0.
 00003132,-0.00002378,-0.00006024,0.00008809,-0.00008305,-0.00006040,0.
 00002209,-0.00003460,0.00000225,-0.00001151,0.00000306,0.00000757,-0.0
 0000327,0.00000125,0.00002174,-0.00000754,0.00002091,-0.00009500,0.000
 18698,-0.00062448,0.00003398,0.00001008,-0.00000440,0.00001171,0.00010
 678,-0.00001244,0.00002011,-0.00007114,0.00007330,-0.29035281,-0.03360
 507,0.07246859,-0.01732236,-0.00421979,0.00554113,0.00065794,-0.001055
 04,-0.00073282,0.31059056,0.00105434,-0.00090314,-0.00130170,-0.000280
 98,0.00020518,0.00014145,0.00046403,0.00019114,-0.00048525,0.00030533,
 -0.00004452,0.00006983,0.00135203,0.00444030,-0.00154408,0.00000223,-0
 .00004391,0.00008956,0.00002266,-0.00002245,-0.00003617,-0.00006964,-0
 .00004865,-0.00003871,-0.00031701,-0.00006077,0.00022795,0.00017620,-0
 .00052950,0.00025276,-0.00034782,-0.00084152,0.00010009,-0.00002689,0.
 00001103,0.00007155,-0.00137592,-0.00043516,0.00079782,0.03239148,-0.0
 0768161,-0.01790099,-0.00004981,-0.00000215,-0.00006922,-0.00001937,0.
 00000012,-0.00000199,0.00003559,-0.00002390,0.00002001,0.00008271,-0.0
 0009307,0.00009173,0.00000134,-0.00003330,-0.00003019,0.00000114,0.000
 00655,0.00000771,-0.00000039,0.00001182,0.00000390,-0.00002752,-0.0000
 0088,-0.00001243,-0.00000530,0.00007342,0.00082871,0.00001050,-0.00004
 669,-0.00003828,-0.00004089,-0.00002341,-0.00008082,-0.00005263,0.0001
 0097,-0.00020691,-0.03989664,-0.05678299,0.01577023,-0.00081164,0.0017
 9081,0.00195052,-0.02467911,-0.00062962,0.00637542,0.03213134,0.061417
 49,0.00023790,-0.00083243,0.00042652,-0.00016381,0.00024006,-0.0000508
 2,0.00013054,0.00010269,-0.00006135,0.00015032,-0.00009419,0.00007625,
 -0.00057821,0.00278199,-0.00108744,-0.00003287,0.00000119,-0.00000815,
 -0.00001761,0.00003970,-0.00000912,-0.00001759,-0.00005230,-0.00010947
 ,-0.00019851,0.00006048,0.00016226,-0.00022717,-0.00057536,0.00005678,
 -0.00006151,-0.00043173,0.00002802,-0.00018798,-0.00024556,-0.00000610
 ,0.00005247,0.00050565,-0.00040053,0.02217219,-0.00859653,-0.00948943,
 -0.00007963,-0.00002904,-0.00014000,-0.00000843,0.00000803,0.00000238,
 0.00005747,-0.00003256,0.00003934,0.00014132,-0.00009707,0.00012584,0.
 00012309,-0.00001582,0.00008519,-0.00000421,0.00000433,-0.00001315,-0.
 00001517,-0.00000562,-0.00000509,0.00000442,0.00001379,-0.00000082,0.0
 0003587,0.00028902,-0.00019440,-0.00001913,0.00004238,0.00001956,-0.00
 002958,0.00000967,-0.00002294,0.00000175,-0.00002397,-0.00001173,0.070
 98911,0.01185614,-0.07643190,-0.02518740,-0.00281010,0.00960729,0.0185
 8827,0.00290356,-0.00415548,-0.08580754,-0.00503010,0.08161184,-0.0007
 8426,0.00037283,0.00018401,-0.00055106,-0.00105458,-0.00000564,-0.0021
 5513,-0.00033927,0.00016328,-0.00213107,-0.00343194,0.00338888,-0.0005
 5452,0.00137564,-0.00020229,0.00002770,0.00008587,-0.00022065,-0.00085
 714,-0.00004316,0.00006406,0.00010192,-0.00001191,0.00000816,0.0014991
 3,0.00001157,0.00102574,-0.00024593,0.00046464,0.00001192,0.00161392,0
 .00023356,-0.00015037,0.00091212,0.00035902,0.00004918,0.00065727,-0.0
 0031343,-0.00071510,0.00044483,-0.00115753,0.00005277,0.00752542,0.001
 88720,-0.00156979,0.00088687,-0.00309905,0.00457089,0.00082002,-0.0034
 0623,0.00481233,-0.17316407,0.04075650,-0.07314402,-0.00039140,0.00009
 303,-0.00027872,-0.00000493,-0.00002992,0.00004413,0.00007772,0.000024
 15,0.00002022,0.00001237,-0.00004257,0.00003961,0.00004026,-0.00006427
 ,0.00033964,0.00005639,-0.00002753,-0.00004859,-0.00003116,0.00009414,
 0.00003185,-0.00006236,0.00000377,-0.00003981,-0.00016894,0.00061599,0
 .00046478,0.00000480,-0.00002094,-0.00010576,0.00002164,-0.00013451,-0
 .00001585,0.00005315,-0.00006046,-0.00009881,0.51717330,0.00033320,-0.
 00048731,-0.00015344,-0.00002422,0.00045153,0.00031258,0.00182824,0.00
 038650,0.00119678,-0.00092638,-0.00278150,0.00244377,-0.00004304,-0.00
 040632,0.00049725,0.00005618,-0.00005738,0.00007998,0.00057836,0.00020
 297,-0.00064531,-0.00004625,0.00005696,-0.00000328,0.00051732,0.000157
 79,0.00018628,0.00003517,-0.00010902,-0.00002969,-0.00078124,0.0010143
 2,-0.00103702,-0.00076832,-0.00013036,-0.00021949,-0.00022653,0.000194
 58,0.00031356,-0.00007378,0.00033641,-0.00006856,0.01763195,-0.0168107
 0,0.02016991,0.00229460,0.00183146,0.00055848,-0.00073747,0.00274775,-
 0.00290334,0.01654051,-0.08019501,0.02872697,0.00019993,-0.00011316,0.
 00022150,0.00000765,0.00001932,-0.00004002,-0.00007296,-0.00000656,-0.
 00003144,-0.00001338,0.00002531,-0.00002870,0.00001107,0.00002616,-0.0
 0015157,-0.00002412,0.00001549,0.00002147,0.00001381,-0.00003182,-0.00
 002102,0.00001633,-0.00000188,0.00000430,0.00008629,-0.00017127,-0.000
 12233,-0.00000931,-0.00000360,0.00001222,-0.00000536,0.00004584,0.0000
 0124,-0.00001979,0.00000584,0.00002257,0.04534774,0.58032632,-0.000880
 10,0.00046820,0.00017701,-0.00021205,-0.00042519,-0.00024775,-0.001391
 24,-0.00061056,-0.00072842,0.00060774,0.00147712,-0.00433521,-0.000470
 95,0.00057722,-0.00035266,-0.00006044,0.00006168,-0.00009435,-0.001192
 00,-0.00052800,0.00072428,0.00014840,-0.00005574,-0.00000658,-0.000656
 32,0.00028087,0.00015358,-0.00027281,0.00090997,0.00035247,0.00114397,
 0.00047960,0.00025586,0.00110515,0.00027457,0.00030547,0.00049084,-0.0
 0024788,-0.00065696,0.00051615,-0.00102650,0.00040221,-0.02431795,0.01
 818763,-0.03448213,0.00010814,-0.00284761,0.00445357,-0.00248918,-0.00
 026340,0.00290985,-0.03837757,0.03185587,-0.11376455,-0.00031255,0.000
 17074,-0.00030657,-0.00000186,-0.00002590,0.00004958,0.00010193,0.0000
 1447,0.00004452,0.00001881,-0.00004250,0.00004121,0.00003463,-0.000072
 97,0.00035854,0.00005025,-0.00001816,-0.00004145,-0.00004122,0.0000661
 6,0.00005601,-0.00003827,0.00001467,-0.00001153,-0.00016728,0.00055738
 ,0.00047399,-0.00000960,0.00000237,-0.00010071,0.00002291,-0.00011519,
 -0.00002708,0.00004142,-0.00004348,-0.00007341,-0.07366202,0.00283659,
 0.56647958,0.00005248,0.00000462,-0.00002087,0.00002055,0.00011310,0.0
 0004187,0.00023007,-0.00000861,-0.00021707,0.00072868,0.00106754,-0.00
 141652,0.00013290,-0.00017551,-0.00003097,-0.00002700,0.00000127,0.000
 00909,-0.00009564,0.00002070,-0.00000946,-0.00000133,-0.00001101,0.000
 00142,-0.00047065,0.00000219,-0.00022026,0.00001076,0.00001002,0.00003
 034,-0.00010427,-0.00006846,0.00018875,0.00001808,-0.00002294,0.000036
 94,-0.00004944,0.00000048,0.00007404,-0.00003113,0.00006693,0.00003548
 ,-0.00366400,0.00148189,-0.00250094,-0.00005139,0.00030444,-0.00008655
 ,0.00008449,-0.00005987,-0.00041913,0.00892228,0.02006579,-0.02872299,
 -0.00000254,0.00000867,-0.00001061,0.00000004,0.00000039,0.00000566,0.
 00000214,-0.00000149,0.00000196,0.00000338,-0.00000092,0.00000116,-0.0
 0000721,0.00001341,-0.00004875,0.00000382,-0.00000528,0.00000653,-0.00
 000034,0.00001252,-0.00000073,-0.00001414,-0.00000621,0.00000674,0.000
 01048,-0.00004097,-0.00002429,-0.00000141,0.00000569,0.00000778,-0.000
 00211,0.00000827,0.00000068,-0.00000506,0.00000763,0.00000783,-0.10378
 134,-0.06901032,0.09605016,0.10892606,-0.00009365,0.00005949,0.0000422
 6,-0.00000324,-0.00010163,-0.00002571,-0.00021144,-0.00004974,0.000111
 24,-0.00049335,-0.00020770,0.00063141,-0.00007624,0.00014513,0.0000258
 6,0.00000051,0.00001350,-0.00003168,-0.00004729,0.00001244,0.00007522,
 0.00000898,-0.00000129,-0.00000303,0.00021703,-0.00001118,0.00010567,-
 0.00002524,0.00001669,0.00000489,0.00025920,0.00009321,-0.00004287,0.0
 0008023,0.00002046,-0.00000219,0.00005812,-0.00003321,-0.00013493,0.00
 004846,-0.00010762,-0.00002255,0.00243444,0.00077342,-0.00041697,0.000
 00348,0.00019215,-0.00021915,-0.00016000,-0.00001943,0.00034469,-0.000
 65506,-0.00751008,0.01147236,-0.00002989,0.00001059,-0.00002013,-0.000
 00011,-0.00000224,0.00000076,0.00000611,0.00000224,0.00000263,0.000001
 91,-0.00000438,0.00000411,0.00003525,0.00000674,0.00008823,-0.00000501
 ,0.00000026,-0.00000920,-0.00001532,-0.00001867,0.00000298,0.00001044,
 0.00000713,-0.00000525,-0.00001439,0.00005896,0.00004807,-0.00000249,-
 0.00000319,-0.00000789,0.00000174,-0.00001163,-0.00000376,0.00000783,-
 0.00000757,-0.00000824,-0.06172410,-0.12919142,0.10537028,0.06392606,0
 .13495486,0.00013542,-0.00001795,-0.00001251,0.00002860,0.00013135,0.0
 0003077,0.00033906,0.00009913,-0.00014815,0.00074064,0.00102958,-0.000
 72617,0.00006454,-0.00024351,-0.00004645,-0.00001867,-0.00001181,0.000
 02023,0.00003872,0.00008323,-0.00005234,-0.00001318,-0.00000829,-0.000
 00188,-0.00037463,-0.00001522,-0.00018877,0.00001298,-0.00002489,-0.00
 001119,-0.00025071,-0.00010912,0.00012852,-0.00010660,-0.00006377,0.00
 000077,-0.00010646,0.00002479,0.00012214,-0.00007946,0.00017547,0.0000
 2173,-0.00404443,-0.00033662,0.00041742,0.00007017,0.00034317,-0.00010
 059,0.00003185,-0.00014557,0.00012987,0.00216462,0.01376223,-0.0200429
 5,0.00003167,-0.00000980,0.00002438,0.00000138,0.00000422,-0.00000077,
 -0.00001098,-0.00000247,-0.00000235,0.00000213,0.00000260,-0.00000296,
 -0.00000407,0.00001834,-0.00006822,-0.00000382,0.00000004,0.00000935,0
 .00000610,-0.00000768,-0.00000125,0.00000046,-0.00000497,0.00000729,0.
 00002544,-0.00008754,-0.00006580,-0.00000200,0.00000559,0.00001454,-0.
 00000341,0.00001987,0.00000298,-0.00001008,0.00001163,0.00001523,0.085
 09096,0.10448424,-0.19762618,-0.08718887,-0.12152098,0.21733040,0.0002
 5369,-0.00010595,-0.00003853,0.00010030,0.00009000,0.00002936,0.000248
 92,0.00019239,0.00020251,0.00044187,0.00016540,-0.00003861,0.00031845,
 -0.00021560,0.00021792,-0.00000080,-0.00001972,0.00002075,0.00033269,0
 .00020263,-0.00014871,-0.00004320,0.00001166,0.00000196,-0.00014613,-0
 .00005948,-0.00013220,0.00007054,-0.00027981,-0.00009482,-0.00018481,-
 0.00012570,0.00000724,-0.00029740,-0.00009441,-0.00009125,-0.00013190,
 0.00005293,0.00013803,-0.00015279,0.00028309,-0.00012206,-0.00034759,-
 0.00326150,0.00414090,0.00009553,0.00043736,-0.00052154,0.00052911,0.0
 0045611,-0.00132596,-0.02914249,0.02232235,0.00126412,0.00008831,-0.00
 004370,0.00008974,0.00000108,0.00000863,-0.00001671,-0.00002880,-0.000
 00325,-0.00001078,-0.00000417,0.00001021,-0.00001116,0.00000820,0.0000
 2821,-0.00006718,-0.00001894,0.00000642,0.00000938,0.00000492,-0.00002
 890,-0.00001805,0.00001851,-0.00000274,0.00000255,0.00005533,-0.000161
 09,-0.00012207,-0.00000115,0.00000027,0.00002821,-0.00000646,0.0000332
 8,0.00000557,-0.00001309,0.00001358,0.00002252,-0.13845732,0.08326381,
 0.08519128,-0.00603518,0.00738714,0.00790821,0.16021978,-0.00008999,0.
 00006951,0.00003138,-0.00004684,-0.00002890,-0.00003526,-0.00015452,-0
 .00005636,-0.00014146,-0.00029448,0.00005058,0.00027550,-0.00021153,0.
 00002896,-0.00016123,-0.00000320,0.00000389,-0.00000731,-0.00012050,-0
 .00008037,0.00007162,0.00001973,-0.00000673,-0.00000148,0.00009556,0.0
 0001674,0.00007699,-0.00003653,0.00011557,0.00004274,0.00007297,-0.000
 01844,0.00003356,0.00012058,0.00002970,0.00003819,0.00003385,-0.000020
 92,-0.00003235,0.00006158,-0.00008414,0.00007124,0.00149961,0.00101924
 ,-0.00309553,-0.00012925,-0.00037917,-0.00001617,-0.00040576,-0.000289
 61,0.00063508,0.01340091,-0.00560758,0.00349988,-0.00003794,0.00001849
 ,-0.00003852,-0.00000049,-0.00000289,0.00000758,0.00001106,0.00000134,
 0.00000488,0.00000224,-0.00000452,0.00000467,-0.00001768,-0.00001291,0
 .00001209,0.00000811,-0.00000196,-0.00000248,0.00000032,0.00001107,0.0
 0001101,-0.00000246,0.00000170,0.00000127,-0.00002745,0.00005158,0.000
 02835,0.00000248,0.00000264,-0.00000759,0.00000320,-0.00001134,0.00000
 052,0.00000481,-0.00000378,-0.00000597,0.08367253,-0.13755964,-0.08293
 391,-0.01126317,0.01256261,0.00922302,-0.10120803,0.14365755,0.0000737
 7,-0.00006692,-0.00004186,-0.00000781,-0.00002949,0.00001939,-0.000050
 99,0.00003030,0.00007609,-0.00011946,-0.00001947,0.00014517,0.00011312
 ,0.00012998,0.00001268,0.00000627,-0.00000218,-0.00000135,0.00009584,0
 .00007982,-0.00007279,-0.00001474,0.00000410,0.00000441,0.00001379,-0.
 00005459,-0.00005030,0.00000840,-0.00008100,-0.00010476,0.00003751,-0.
 00002392,0.00005211,-0.00006416,-0.00000984,-0.00002959,0.00000347,0.0
 0001614,0.00006618,-0.00009214,0.00010334,-0.00005333,-0.00309041,0.00
 052343,0.00511100,0.00015188,-0.00004221,-0.00060700,0.00127753,-0.001
 64688,-0.00004973,-0.01993122,0.01790401,0.00957417,0.00000763,-0.0000
 1481,0.00001437,-0.00000031,0.00000092,-0.00000148,-0.00000595,0.00000
 008,-0.00000417,-0.00000178,0.00000217,-0.00000260,-0.00002195,0.00000
 125,-0.00004687,0.00000046,-0.00000082,0.00000239,0.00001268,0.0000031
 1,-0.00000801,-0.00000415,-0.00000296,-0.00000094,0.00000447,-0.000046
 11,-0.00005615,0.00000501,-0.00000111,0.00001121,-0.00000252,0.0000076
 8,0.00000628,-0.00000254,0.00000628,0.00000559,0.08991117,-0.08476691,
 -0.13796749,0.01257982,-0.01476099,-0.01105938,-0.08853835,0.08837310,
 0.14015140,0.00019312,-0.00021559,-0.00005947,0.00007236,0.00018496,0.
 00010949,0.00068295,0.00017281,0.00035616,0.00021363,0.00010822,0.0000
 3392,0.00011091,-0.00027128,-0.00001117,0.00000812,-0.00001209,0.00002
 761,0.00028502,0.00005378,-0.00025630,-0.00002054,0.00002900,0.0000021
 5,-0.00013997,-0.00001894,-0.00008582,0.00001779,-0.00009630,-0.000022
 42,-0.00020696,0.00020575,-0.00005334,-0.00032965,-0.00005556,-0.00008
 467,-0.00011819,0.00010995,0.00020385,-0.00006746,0.00024760,0.0000185
 6,-0.00026430,-0.00258381,0.00433344,0.00016167,0.00118024,-0.00092737
 ,0.00013079,0.00040947,-0.00051363,-0.02579212,-0.01400662,-0.02242154
 ,0.00009947,-0.00004945,0.00009608,0.00000197,0.00000794,-0.00001666,-
 0.00002930,-0.00000330,-0.00001278,-0.00000890,0.00001320,-0.00001354,
 -0.00005376,-0.00001778,-0.00011609,-0.00000448,0.00000947,0.00001296,
 0.00001781,-0.00000530,0.00000069,0.00001609,0.00000317,0.00000744,0.0
 0001635,-0.00012290,-0.00011956,0.00000555,0.00000581,0.00002336,-0.00
 000323,0.00002676,0.00000914,-0.00000778,0.00000991,0.00002008,-0.1085
 8819,-0.09597973,-0.04107834,-0.00480202,-0.01093009,-0.00447560,0.012
 22498,0.01504028,0.00764564,0.12617829,0.00002360,-0.00001481,-0.00001
 445,0.00003396,0.00006215,0.00000866,0.00002291,-0.00010302,-0.0000226
 7,0.00024262,0.00037739,-0.00016902,0.00001755,-0.00003112,0.00001067,
 0.00000702,-0.00000697,0.00001783,-0.00001261,-0.00001718,0.00003592,-
 0.00000493,0.00000003,-0.00000008,-0.00003670,-0.00003337,-0.00002947,
 0.00002263,-0.00004018,-0.00001152,-0.00000367,-0.00006225,0.00015479,
 -0.00001143,-0.00000222,0.00000771,-0.00002426,0.00002271,0.00003720,-
 0.00003625,0.00007692,-0.00001850,0.00154969,0.00362721,0.00006061,-0.
 00079787,-0.00036236,-0.00173094,0.00004619,-0.00056764,0.00001882,0.0
 0862734,0.01495548,0.00827772,0.00002378,-0.00000026,0.00000751,-0.000
 00137,-0.00000003,-0.00000124,0.00000112,-0.00000211,0.00000034,-0.000
 00173,0.00000329,-0.00000169,-0.00001542,-0.00000730,-0.00001773,-0.00
 000261,0.00000264,0.00000158,0.00000866,-0.00000467,-0.00000181,0.0000
 0568,0.00000193,0.00000286,0.00000611,-0.00004027,-0.00003120,0.000002
 05,0.00000047,0.00000903,-0.00000136,0.00000651,0.00000116,-0.00000190
 ,0.00000391,0.00000531,-0.10043679,-0.21978758,-0.07434840,-0.00644687
 ,-0.01164888,-0.00680833,-0.00935558,-0.01347193,-0.00561547,0.1065504
 3,0.22706351,0.00009416,-0.00011495,-0.00002962,0.00003326,0.00007245,
 0.00007036,0.00036462,0.00013962,0.00028989,0.00003925,0.00004770,-0.0
 0005238,0.00007175,-0.00012393,0.00007630,0.00000181,0.00000967,-0.000
 00853,0.00017388,0.00003626,-0.00018646,-0.00001111,0.00001647,0.00000
 015,-0.00010849,0.00001139,-0.00006095,0.00000544,-0.00008007,-0.00000
 974,0.00007220,0.00024332,-0.00005426,-0.00018450,-0.00002797,-0.00005
 497,-0.00005274,0.00004843,0.00007173,-0.00002400,0.00011641,-0.000023
 11,-0.00186677,-0.00435880,0.00270189,0.00051093,0.00076211,-0.0002061
 5,0.00019775,0.00002335,-0.00045306,-0.02055732,-0.00800192,-0.0139264
 7,0.00004892,-0.00002913,0.00005441,0.00000147,0.00000391,-0.00000931,
 -0.00001699,-0.00000139,-0.00000787,-0.00000414,0.00000665,-0.00000655
 ,-0.00000114,0.00000279,-0.00003689,-0.00000581,0.00000347,0.00000521,
 0.00000326,-0.00000973,-0.00000254,0.00000688,0.00000129,0.00000124,0.
 00001251,-0.00005448,-0.00004846,-0.00000161,0.00000186,0.00001350,-0.
 00000310,0.00001342,0.00000192,-0.00000141,0.00000317,0.00000926,-0.04
 001614,-0.07186757,-0.08641468,0.01183176,0.01890487,0.01188228,-0.007
 98226,-0.01596342,-0.00509463,0.05736770,0.08016479,0.09150850\\-0.000
 00472,0.00000610,0.00000170,0.00000269,-0.00000300,0.00000716,-0.00000
 125,0.00000121,-0.00001741,-0.00001734,-0.00001726,-0.00001160,0.00001
 022,0.00000321,-0.00000316,-0.00000762,-0.00000288,-0.00000235,0.00000
 030,0.00000129,-0.00000415,-0.00000429,0.00000221,0.00000655,-0.000004
 97,0.00000613,-0.00000351,0.00000060,0.00000131,0.00000659,0.00000114,
 0.00001429,0.00000480,0.00000878,-0.00000105,-0.00000063,0.00000643,0.
 00000311,0.00000401,-0.00002146,-0.00000483,0.00000896,0.00000881,0.00
 000575,-0.00000126,0.00000058,0.00000019,-0.00000447,-0.00000224,0.000
 00536,-0.00001140,-0.00000253,0.00000304,-0.00001240,-0.00001119,-0.00
 000028,0.00000363,-0.00000056,0.00000128,0.00001470,0.00000331,-0.0000
 0428,0.00000533,0.00000096,-0.00000035,0.00000680,0.00000320,-0.000006
 06,0.00000536,0.00000447,-0.00000564,0.00000890,0.00000549,-0.00000169
 ,0.00000167,0.00000618,-0.00000455,0.00000270,0.00000608,-0.00000167,0
 .00000592,-0.00000257,-0.00000030,0.00000119,-0.00000532,0.00000305,0.
 00000998,-0.00000707,-0.00000258,0.00000892,0.00001122,0.00000132,-0.0
 0000521,0.00000610,-0.00000152,-0.00001081,0.00000233,0.00000044,-0.00
 001421,0.00000421,-0.00000135,-0.00001232\\\@


 HE THAT FOLLOWS NATURE IS NEVER LOST.

                             -- BACON
 Job cpu time:       0 days  1 hours 19 minutes 14.1 seconds.
 Elapsed time:       0 days  0 hours 20 minutes  8.7 seconds.
 File lengths (MBytes):  RWF=    378 Int=      0 D2E=      0 Chk=     17 Scr=      1
 Normal termination of Gaussian 16 at Fri May 24 08:53:14 2019.
