 Entering Gaussian System, Link 0=g16
 Input=clay-glucose_cation-204-b3lyp_d3bj-631gd-pcm_thf.gjf
 Output=clay-glucose_cation-204-b3lyp_d3bj-631gd-pcm_thf.out
 Initial command:
 /n/sw/g16_nehalem/g16/l1.exe "/scratch/Gau-62516.inp" -scrdir="/scratch/"
 Entering Link 1 = /n/sw/g16_nehalem/g16/l1.exe PID=     62519.
  
 Copyright (c) 1988,1990,1992,1993,1995,1998,2003,2009,2016,
            Gaussian, Inc.  All Rights Reserved.
  
 This is part of the Gaussian(R) 16 program.  It is based on
 the Gaussian(R) 09 system (copyright 2009, Gaussian, Inc.),
 the Gaussian(R) 03 system (copyright 2003, Gaussian, Inc.),
 the Gaussian(R) 98 system (copyright 1998, Gaussian, Inc.),
 the Gaussian(R) 94 system (copyright 1995, Gaussian, Inc.),
 the Gaussian 92(TM) system (copyright 1992, Gaussian, Inc.),
 the Gaussian 90(TM) system (copyright 1990, Gaussian, Inc.),
 the Gaussian 88(TM) system (copyright 1988, Gaussian, Inc.),
 the Gaussian 86(TM) system (copyright 1986, Carnegie Mellon
 University), and the Gaussian 82(TM) system (copyright 1983,
 Carnegie Mellon University). Gaussian is a federally registered
 trademark of Gaussian, Inc.
  
 This software contains proprietary and confidential information,
 including trade secrets, belonging to Gaussian, Inc.
  
 This software is provided under written license and may be
 used, copied, transmitted, or stored only in accord with that
 written license.
  
 The following legend is applicable only to US Government
 contracts under FAR:
  
                    RESTRICTED RIGHTS LEGEND
  
 Use, reproduction and disclosure by the US Government is
 subject to restrictions as set forth in subparagraphs (a)
 and (c) of the Commercial Computer Software - Restricted
 Rights clause in FAR 52.227-19.
  
 Gaussian, Inc.
 340 Quinnipiac St., Bldg. 40, Wallingford CT 06492
  
  
 ---------------------------------------------------------------
 Warning -- This program may not be used in any manner that
 competes with the business of Gaussian, Inc. or will provide
 assistance to any competitor of Gaussian, Inc.  The licensee
 of this program is prohibited from giving any competitor of
 Gaussian, Inc. access to this program.  By using this program,
 the user acknowledges that Gaussian, Inc. is engaged in the
 business of creating and licensing software in the field of
 computational chemistry and represents and warrants to the
 licensee that it is not a competitor of Gaussian, Inc. and that
 it will not use this program in any manner prohibited above.
 ---------------------------------------------------------------
  

 Cite this work as:
 Gaussian 16, Revision A.03,
 M. J. Frisch, G. W. Trucks, H. B. Schlegel, G. E. Scuseria, 
 M. A. Robb, J. R. Cheeseman, G. Scalmani, V. Barone, 
 G. A. Petersson, H. Nakatsuji, X. Li, M. Caricato, A. V. Marenich, 
 J. Bloino, B. G. Janesko, R. Gomperts, B. Mennucci, H. P. Hratchian, 
 J. V. Ortiz, A. F. Izmaylov, J. L. Sonnenberg, D. Williams-Young, 
 F. Ding, F. Lipparini, F. Egidi, J. Goings, B. Peng, A. Petrone, 
 T. Henderson, D. Ranasinghe, V. G. Zakrzewski, J. Gao, N. Rega, 
 G. Zheng, W. Liang, M. Hada, M. Ehara, K. Toyota, R. Fukuda, 
 J. Hasegawa, M. Ishida, T. Nakajima, Y. Honda, O. Kitao, H. Nakai, 
 T. Vreven, K. Throssell, J. A. Montgomery, Jr., J. E. Peralta, 
 F. Ogliaro, M. J. Bearpark, J. J. Heyd, E. N. Brothers, K. N. Kudin, 
 V. N. Staroverov, T. A. Keith, R. Kobayashi, J. Normand, 
 K. Raghavachari, A. P. Rendell, J. C. Burant, S. S. Iyengar, 
 J. Tomasi, M. Cossi, J. M. Millam, M. Klene, C. Adamo, R. Cammi, 
 J. W. Ochterski, R. L. Martin, K. Morokuma, O. Farkas, 
 J. B. Foresman, and D. J. Fox, Gaussian, Inc., Wallingford CT, 2016.
 
 ******************************************
 Gaussian 16:  ES64L-G16RevA.03 25-Dec-2016
                24-May-2019 
 ******************************************
 %nprocshared=4
 Will use up to    4 processors via shared memory.
 %mem=3GB
 -------------------------------------------------------------------
 #p b3lyp 6-31g* opt freq=noraman scrf=(pcm,solvent=tetrahydrofuran)
 -------------------------------------------------------------------
 1/18=20,19=15,26=3,38=1/1,3;
 2/9=110,12=2,17=6,18=5,40=1/2;
 3/5=1,6=6,7=1,11=2,25=1,30=1,70=2201,71=1,72=20,74=-5/1,2,3;
 4//1;
 5/5=2,38=5,53=20/2;
 6/7=2,8=2,9=2,10=2,28=1/1;
 7//1,2,3,16;
 1/18=20,19=15,26=3/3(2);
 2/9=110/2;
 99//99;
 2/9=110/2;
 3/5=1,6=6,7=1,11=2,25=1,30=1,70=2205,71=1,72=20,74=-5/1,2,3;
 4/5=5,16=3,69=1/1;
 5/5=2,38=5,53=20/2;
 7//1,2,3,16;
 1/18=20,19=15,26=3/3(-5);
 2/9=110/2;
 6/7=2,8=2,9=2,10=2,19=2,28=1/1;
 99/9=1/99;
 Leave Link    1 at Fri May 24 08:42:16 2019, MaxMem=   402653184 cpu:               0.4 elap:               0.1
 (Enter /n/sw/g16_nehalem/g16/l101.exe)
 -----
 title
 -----
 Symbolic Z-matrix:
 Charge =  1 Multiplicity = 1
 6                    -1.12266   0.41327  -0.28214 
 6                    -1.69914  -0.93444   0.20506 
 6                    -0.91181  -2.06438  -0.3582 
 6                     1.13756  -0.74883  -0.63465 
 6                     0.39316   0.45552  -0.02156 
 1                    -1.38558  -3.03292  -0.52608 
 1                    -1.55417  -0.98878   1.30083 
 1                    -1.30814   0.49879  -1.36037 
 1                     1.35654  -0.55052  -1.68491 
 1                     0.55472   0.47078   1.06363 
 8                     0.29053  -1.99915  -0.71536 
 8                    -3.03572  -1.12653  -0.16064 
 8                    -1.76265   1.44238   0.42865 
 8                     0.92047   1.61588  -0.62844 
 6                     2.39211  -1.22034   0.10439 
 1                     2.77536  -2.13137  -0.37918 
 1                     2.13765  -1.46769   1.14824 
 8                     3.31868  -0.16607   0.03369 
 6                    -3.98178  -0.98822   0.91192 
 1                    -4.96662  -1.10267   0.4577 
 1                    -3.89548   0.00061   1.37256 
 1                    -3.83479  -1.76863   1.66792 
 6                    -2.29768   2.49416  -0.38316 
 1                    -2.74936   3.20908   0.30694 
 1                    -1.50787   2.98684  -0.95933 
 1                    -3.06719   2.10973  -1.06381 
 6                     1.53181   2.54871   0.26948 
 1                     2.39311   2.09634   0.77087 
 1                     1.86664   3.38371  -0.34906 
 1                     0.80964   2.91138   1.00986 
 6                     4.54528  -0.47658   0.68876 
 1                     5.19126   0.39508   0.57127 
 1                     4.38648  -0.67261   1.75826 
 1                     5.02624  -1.35245   0.23203 
 
 ITRead=  0  0  0  0  0  0  0  0  0  0  0  0  0  0  0  0  0  0  0  0
 ITRead=  0  0  0  0  0  0  0  0  0  0  0  0  0  0
 MicOpt= -1 -1 -1 -1 -1 -1 -1 -1 -1 -1 -1 -1 -1 -1 -1 -1 -1 -1 -1 -1
 MicOpt= -1 -1 -1 -1 -1 -1 -1 -1 -1 -1 -1 -1 -1 -1
 NAtoms=     34 NQM=       34 NQMF=       0 NMMI=      0 NMMIF=      0
                NMic=       0 NMicF=      0.
                    Isotopes and Nuclear Properties:
 (Nuclear quadrupole moments (NQMom) in fm**2, nuclear magnetic moments (NMagM)
  in nuclear magnetons)

  Atom         1           2           3           4           5           6           7           8           9          10
 IAtWgt=          12          12          12          12          12           1           1           1           1           1
 AtmWgt=  12.0000000  12.0000000  12.0000000  12.0000000  12.0000000   1.0078250   1.0078250   1.0078250   1.0078250   1.0078250
 NucSpn=           0           0           0           0           0           1           1           1           1           1
 AtZEff=   0.0000000   0.0000000   0.0000000   0.0000000   0.0000000   0.0000000   0.0000000   0.0000000   0.0000000   0.0000000
 NQMom=    0.0000000   0.0000000   0.0000000   0.0000000   0.0000000   0.0000000   0.0000000   0.0000000   0.0000000   0.0000000
 NMagM=    0.0000000   0.0000000   0.0000000   0.0000000   0.0000000   2.7928460   2.7928460   2.7928460   2.7928460   2.7928460
 AtZNuc=   6.0000000   6.0000000   6.0000000   6.0000000   6.0000000   1.0000000   1.0000000   1.0000000   1.0000000   1.0000000

  Atom        11          12          13          14          15          16          17          18          19          20
 IAtWgt=          16          16          16          16          12           1           1          16          12           1
 AtmWgt=  15.9949146  15.9949146  15.9949146  15.9949146  12.0000000   1.0078250   1.0078250  15.9949146  12.0000000   1.0078250
 NucSpn=           0           0           0           0           0           1           1           0           0           1
 AtZEff=   0.0000000   0.0000000   0.0000000   0.0000000   0.0000000   0.0000000   0.0000000   0.0000000   0.0000000   0.0000000
 NQMom=    0.0000000   0.0000000   0.0000000   0.0000000   0.0000000   0.0000000   0.0000000   0.0000000   0.0000000   0.0000000
 NMagM=    0.0000000   0.0000000   0.0000000   0.0000000   0.0000000   2.7928460   2.7928460   0.0000000   0.0000000   2.7928460
 AtZNuc=   8.0000000   8.0000000   8.0000000   8.0000000   6.0000000   1.0000000   1.0000000   8.0000000   6.0000000   1.0000000

  Atom        21          22          23          24          25          26          27          28          29          30
 IAtWgt=           1           1          12           1           1           1          12           1           1           1
 AtmWgt=   1.0078250   1.0078250  12.0000000   1.0078250   1.0078250   1.0078250  12.0000000   1.0078250   1.0078250   1.0078250
 NucSpn=           1           1           0           1           1           1           0           1           1           1
 AtZEff=   0.0000000   0.0000000   0.0000000   0.0000000   0.0000000   0.0000000   0.0000000   0.0000000   0.0000000   0.0000000
 NQMom=    0.0000000   0.0000000   0.0000000   0.0000000   0.0000000   0.0000000   0.0000000   0.0000000   0.0000000   0.0000000
 NMagM=    2.7928460   2.7928460   0.0000000   2.7928460   2.7928460   2.7928460   0.0000000   2.7928460   2.7928460   2.7928460
 AtZNuc=   1.0000000   1.0000000   6.0000000   1.0000000   1.0000000   1.0000000   6.0000000   1.0000000   1.0000000   1.0000000

  Atom        31          32          33          34
 IAtWgt=          12           1           1           1
 AtmWgt=  12.0000000   1.0078250   1.0078250   1.0078250
 NucSpn=           0           1           1           1
 AtZEff=   0.0000000   0.0000000   0.0000000   0.0000000
 NQMom=    0.0000000   0.0000000   0.0000000   0.0000000
 NMagM=    0.0000000   2.7928460   2.7928460   2.7928460
 AtZNuc=   6.0000000   1.0000000   1.0000000   1.0000000
 Leave Link  101 at Fri May 24 08:42:17 2019, MaxMem=   402653184 cpu:               1.3 elap:               0.4
 (Enter /n/sw/g16_nehalem/g16/l103.exe)

 GradGradGradGradGradGradGradGradGradGradGradGradGradGradGradGradGradGrad
 Berny optimization.
 Initialization pass.
                           ----------------------------
                           !    Initial Parameters    !
                           ! (Angstroms and Degrees)  !
 --------------------------                            --------------------------
 ! Name  Definition              Value          Derivative Info.                !
 --------------------------------------------------------------------------------
 ! R1    R(1,2)                  1.5447         estimate D2E/DX2                !
 ! R2    R(1,5)                  1.5386         estimate D2E/DX2                !
 ! R3    R(1,8)                  1.0974         estimate D2E/DX2                !
 ! R4    R(1,13)                 1.4049         estimate D2E/DX2                !
 ! R5    R(2,3)                  1.4879         estimate D2E/DX2                !
 ! R6    R(2,7)                  1.1066         estimate D2E/DX2                !
 ! R7    R(2,12)                 1.399          estimate D2E/DX2                !
 ! R8    R(3,6)                  1.0912         estimate D2E/DX2                !
 ! R9    R(3,11)                 1.256          estimate D2E/DX2                !
 ! R10   R(4,5)                  1.5429         estimate D2E/DX2                !
 ! R11   R(4,9)                  1.091          estimate D2E/DX2                !
 ! R12   R(4,11)                 1.5124         estimate D2E/DX2                !
 ! R13   R(4,15)                 1.5305         estimate D2E/DX2                !
 ! R14   R(5,10)                 1.0973         estimate D2E/DX2                !
 ! R15   R(5,14)                 1.4117         estimate D2E/DX2                !
 ! R16   R(12,19)                1.4368         estimate D2E/DX2                !
 ! R17   R(13,23)                1.4323         estimate D2E/DX2                !
 ! R18   R(14,27)                1.4318         estimate D2E/DX2                !
 ! R19   R(15,16)                1.1003         estimate D2E/DX2                !
 ! R20   R(15,17)                1.1025         estimate D2E/DX2                !
 ! R21   R(15,18)                1.4053         estimate D2E/DX2                !
 ! R22   R(18,31)                1.4248         estimate D2E/DX2                !
 ! R23   R(19,20)                1.0906         estimate D2E/DX2                !
 ! R24   R(19,21)                1.0943         estimate D2E/DX2                !
 ! R25   R(19,22)                1.0964         estimate D2E/DX2                !
 ! R26   R(23,24)                1.0915         estimate D2E/DX2                !
 ! R27   R(23,25)                1.0948         estimate D2E/DX2                !
 ! R28   R(23,26)                1.0969         estimate D2E/DX2                !
 ! R29   R(27,28)                1.0945         estimate D2E/DX2                !
 ! R30   R(27,29)                1.0917         estimate D2E/DX2                !
 ! R31   R(27,30)                1.096          estimate D2E/DX2                !
 ! R32   R(31,32)                1.0913         estimate D2E/DX2                !
 ! R33   R(31,33)                1.0989         estimate D2E/DX2                !
 ! R34   R(31,34)                1.0987         estimate D2E/DX2                !
 ! A1    A(2,1,5)              109.7682         estimate D2E/DX2                !
 ! A2    A(2,1,8)              108.3494         estimate D2E/DX2                !
 ! A3    A(2,1,13)             108.03           estimate D2E/DX2                !
 ! A4    A(5,1,8)              109.3156         estimate D2E/DX2                !
 ! A5    A(5,1,13)             110.0582         estimate D2E/DX2                !
 ! A6    A(8,1,13)             111.2847         estimate D2E/DX2                !
 ! A7    A(1,2,3)              110.2242         estimate D2E/DX2                !
 ! A8    A(1,2,7)              107.8337         estimate D2E/DX2                !
 ! A9    A(1,2,12)             113.1985         estimate D2E/DX2                !
 ! A10   A(3,2,7)              105.5589         estimate D2E/DX2                !
 ! A11   A(3,2,12)             107.5972         estimate D2E/DX2                !
 ! A12   A(7,2,12)             112.1634         estimate D2E/DX2                !
 ! A13   A(2,3,6)              120.1689         estimate D2E/DX2                !
 ! A14   A(2,3,11)             125.0835         estimate D2E/DX2                !
 ! A15   A(6,3,11)             114.7067         estimate D2E/DX2                !
 ! A16   A(5,4,9)              109.7232         estimate D2E/DX2                !
 ! A17   A(5,4,11)             113.3483         estimate D2E/DX2                !
 ! A18   A(5,4,15)             116.3648         estimate D2E/DX2                !
 ! A19   A(9,4,11)             102.1993         estimate D2E/DX2                !
 ! A20   A(9,4,15)             110.8742         estimate D2E/DX2                !
 ! A21   A(11,4,15)            103.3066         estimate D2E/DX2                !
 ! A22   A(1,5,4)              112.7423         estimate D2E/DX2                !
 ! A23   A(1,5,10)             108.236          estimate D2E/DX2                !
 ! A24   A(1,5,14)             108.5276         estimate D2E/DX2                !
 ! A25   A(4,5,10)             109.4397         estimate D2E/DX2                !
 ! A26   A(4,5,14)             106.8924         estimate D2E/DX2                !
 ! A27   A(10,5,14)            111.0235         estimate D2E/DX2                !
 ! A28   A(3,11,4)             124.3269         estimate D2E/DX2                !
 ! A29   A(2,12,19)            114.8802         estimate D2E/DX2                !
 ! A30   A(1,13,23)            114.9164         estimate D2E/DX2                !
 ! A31   A(5,14,27)            115.1763         estimate D2E/DX2                !
 ! A32   A(4,15,16)            109.1702         estimate D2E/DX2                !
 ! A33   A(4,15,17)            109.7011         estimate D2E/DX2                !
 ! A34   A(4,15,18)            106.5611         estimate D2E/DX2                !
 ! A35   A(16,15,17)           108.1031         estimate D2E/DX2                !
 ! A36   A(16,15,18)           111.6772         estimate D2E/DX2                !
 ! A37   A(17,15,18)           111.5984         estimate D2E/DX2                !
 ! A38   A(15,18,31)           112.3943         estimate D2E/DX2                !
 ! A39   A(12,19,20)           105.8783         estimate D2E/DX2                !
 ! A40   A(12,19,21)           110.4438         estimate D2E/DX2                !
 ! A41   A(12,19,22)           110.9715         estimate D2E/DX2                !
 ! A42   A(20,19,21)           109.9611         estimate D2E/DX2                !
 ! A43   A(20,19,22)           109.4844         estimate D2E/DX2                !
 ! A44   A(21,19,22)           110.0205         estimate D2E/DX2                !
 ! A45   A(13,23,24)           106.0934         estimate D2E/DX2                !
 ! A46   A(13,23,25)           111.055          estimate D2E/DX2                !
 ! A47   A(13,23,26)           110.8784         estimate D2E/DX2                !
 ! A48   A(24,23,25)           109.6659         estimate D2E/DX2                !
 ! A49   A(24,23,26)           109.3647         estimate D2E/DX2                !
 ! A50   A(25,23,26)           109.7098         estimate D2E/DX2                !
 ! A51   A(14,27,28)           110.7325         estimate D2E/DX2                !
 ! A52   A(14,27,29)           105.8989         estimate D2E/DX2                !
 ! A53   A(14,27,30)           110.9698         estimate D2E/DX2                !
 ! A54   A(28,27,29)           109.5311         estimate D2E/DX2                !
 ! A55   A(28,27,30)           110.2324         estimate D2E/DX2                !
 ! A56   A(29,27,30)           109.3734         estimate D2E/DX2                !
 ! A57   A(18,31,32)           106.6204         estimate D2E/DX2                !
 ! A58   A(18,31,33)           111.2197         estimate D2E/DX2                !
 ! A59   A(18,31,34)           111.0686         estimate D2E/DX2                !
 ! A60   A(32,31,33)           109.44           estimate D2E/DX2                !
 ! A61   A(32,31,34)           109.4436         estimate D2E/DX2                !
 ! A62   A(33,31,34)           109.0052         estimate D2E/DX2                !
 ! D1    D(5,1,2,3)            -51.2055         estimate D2E/DX2                !
 ! D2    D(5,1,2,7)             63.5536         estimate D2E/DX2                !
 ! D3    D(5,1,2,12)          -171.7639         estimate D2E/DX2                !
 ! D4    D(8,1,2,3)             68.1033         estimate D2E/DX2                !
 ! D5    D(8,1,2,7)           -177.1377         estimate D2E/DX2                !
 ! D6    D(8,1,2,12)           -52.4551         estimate D2E/DX2                !
 ! D7    D(13,1,2,3)          -171.2224         estimate D2E/DX2                !
 ! D8    D(13,1,2,7)           -56.4633         estimate D2E/DX2                !
 ! D9    D(13,1,2,12)           68.2192         estimate D2E/DX2                !
 ! D10   D(2,1,5,4)             54.3041         estimate D2E/DX2                !
 ! D11   D(2,1,5,10)           -66.8984         estimate D2E/DX2                !
 ! D12   D(2,1,5,14)           172.5185         estimate D2E/DX2                !
 ! D13   D(8,1,5,4)            -64.4104         estimate D2E/DX2                !
 ! D14   D(8,1,5,10)           174.3871         estimate D2E/DX2                !
 ! D15   D(8,1,5,14)            53.804          estimate D2E/DX2                !
 ! D16   D(13,1,5,4)           173.0782         estimate D2E/DX2                !
 ! D17   D(13,1,5,10)           51.8757         estimate D2E/DX2                !
 ! D18   D(13,1,5,14)          -68.7074         estimate D2E/DX2                !
 ! D19   D(2,1,13,23)         -129.5947         estimate D2E/DX2                !
 ! D20   D(5,1,13,23)          110.5709         estimate D2E/DX2                !
 ! D21   D(8,1,13,23)          -10.7714         estimate D2E/DX2                !
 ! D22   D(1,2,3,6)           -151.6869         estimate D2E/DX2                !
 ! D23   D(1,2,3,11)            25.8602         estimate D2E/DX2                !
 ! D24   D(7,2,3,6)             92.1219         estimate D2E/DX2                !
 ! D25   D(7,2,3,11)           -90.3311         estimate D2E/DX2                !
 ! D26   D(12,2,3,6)           -27.8207         estimate D2E/DX2                !
 ! D27   D(12,2,3,11)          149.7263         estimate D2E/DX2                !
 ! D28   D(1,2,12,19)         -106.1153         estimate D2E/DX2                !
 ! D29   D(3,2,12,19)          131.8458         estimate D2E/DX2                !
 ! D30   D(7,2,12,19)           16.1849         estimate D2E/DX2                !
 ! D31   D(2,3,11,4)            -0.2523         estimate D2E/DX2                !
 ! D32   D(6,3,11,4)           177.4134         estimate D2E/DX2                !
 ! D33   D(9,4,5,1)             83.9984         estimate D2E/DX2                !
 ! D34   D(9,4,5,10)          -155.4864         estimate D2E/DX2                !
 ! D35   D(9,4,5,14)           -35.1701         estimate D2E/DX2                !
 ! D36   D(11,4,5,1)           -29.5335         estimate D2E/DX2                !
 ! D37   D(11,4,5,10)           90.9817         estimate D2E/DX2                !
 ! D38   D(11,4,5,14)         -148.7021         estimate D2E/DX2                !
 ! D39   D(15,4,5,1)          -149.1205         estimate D2E/DX2                !
 ! D40   D(15,4,5,10)          -28.6053         estimate D2E/DX2                !
 ! D41   D(15,4,5,14)           91.711          estimate D2E/DX2                !
 ! D42   D(5,4,11,3)             1.8115         estimate D2E/DX2                !
 ! D43   D(9,4,11,3)          -116.1833         estimate D2E/DX2                !
 ! D44   D(15,4,11,3)          128.6193         estimate D2E/DX2                !
 ! D45   D(5,4,15,16)          175.0661         estimate D2E/DX2                !
 ! D46   D(5,4,15,17)           56.7778         estimate D2E/DX2                !
 ! D47   D(5,4,15,18)          -64.1787         estimate D2E/DX2                !
 ! D48   D(9,4,15,16)          -58.6262         estimate D2E/DX2                !
 ! D49   D(9,4,15,17)         -176.9145         estimate D2E/DX2                !
 ! D50   D(9,4,15,18)           62.129          estimate D2E/DX2                !
 ! D51   D(11,4,15,16)          50.1934         estimate D2E/DX2                !
 ! D52   D(11,4,15,17)         -68.095          estimate D2E/DX2                !
 ! D53   D(11,4,15,18)         170.9485         estimate D2E/DX2                !
 ! D54   D(1,5,14,27)          118.5077         estimate D2E/DX2                !
 ! D55   D(4,5,14,27)         -119.6303         estimate D2E/DX2                !
 ! D56   D(10,5,14,27)          -0.333          estimate D2E/DX2                !
 ! D57   D(2,12,19,20)         176.5248         estimate D2E/DX2                !
 ! D58   D(2,12,19,21)          57.5244         estimate D2E/DX2                !
 ! D59   D(2,12,19,22)         -64.763          estimate D2E/DX2                !
 ! D60   D(1,13,23,24)        -179.6155         estimate D2E/DX2                !
 ! D61   D(1,13,23,25)         -60.5122         estimate D2E/DX2                !
 ! D62   D(1,13,23,26)          61.7381         estimate D2E/DX2                !
 ! D63   D(5,14,27,28)          62.3081         estimate D2E/DX2                !
 ! D64   D(5,14,27,29)        -179.0391         estimate D2E/DX2                !
 ! D65   D(5,14,27,30)         -60.4485         estimate D2E/DX2                !
 ! D66   D(4,15,18,31)        -179.9497         estimate D2E/DX2                !
 ! D67   D(16,15,18,31)        -60.8153         estimate D2E/DX2                !
 ! D68   D(17,15,18,31)         60.3152         estimate D2E/DX2                !
 ! D69   D(15,18,31,32)        179.6145         estimate D2E/DX2                !
 ! D70   D(15,18,31,33)        -61.144          estimate D2E/DX2                !
 ! D71   D(15,18,31,34)         60.4531         estimate D2E/DX2                !
 --------------------------------------------------------------------------------
 Trust Radius=3.00D-01 FncErr=1.00D-07 GrdErr=1.00D-06 EigMax=2.50D+02 EigMin=1.00D-04
 Number of steps in this run=    177 maximum allowed number of steps=    204.
 GradGradGradGradGradGradGradGradGradGradGradGradGradGradGradGradGradGrad

 Leave Link  103 at Fri May 24 08:42:17 2019, MaxMem=   402653184 cpu:               0.3 elap:               0.1
 (Enter /n/sw/g16_nehalem/g16/l202.exe)
                          Input orientation:                          
 ---------------------------------------------------------------------
 Center     Atomic      Atomic             Coordinates (Angstroms)
 Number     Number       Type             X           Y           Z
 ---------------------------------------------------------------------
      1          6           0       -1.122657    0.413268   -0.282138
      2          6           0       -1.699139   -0.934442    0.205062
      3          6           0       -0.911812   -2.064375   -0.358195
      4          6           0        1.137560   -0.748827   -0.634654
      5          6           0        0.393163    0.455521   -0.021560
      6          1           0       -1.385577   -3.032924   -0.526083
      7          1           0       -1.554173   -0.988778    1.300829
      8          1           0       -1.308141    0.498791   -1.360370
      9          1           0        1.356535   -0.550515   -1.684911
     10          1           0        0.554721    0.470776    1.063626
     11          8           0        0.290529   -1.999149   -0.715359
     12          8           0       -3.035719   -1.126534   -0.160635
     13          8           0       -1.762646    1.442380    0.428654
     14          8           0        0.920466    1.615877   -0.628439
     15          6           0        2.392112   -1.220337    0.104388
     16          1           0        2.775362   -2.131371   -0.379178
     17          1           0        2.137652   -1.467685    1.148244
     18          8           0        3.318677   -0.166072    0.033689
     19          6           0       -3.981782   -0.988219    0.911917
     20          1           0       -4.966615   -1.102665    0.457699
     21          1           0       -3.895481    0.000608    1.372558
     22          1           0       -3.834791   -1.768631    1.667923
     23          6           0       -2.297682    2.494164   -0.383158
     24          1           0       -2.749358    3.209081    0.306939
     25          1           0       -1.507867    2.986836   -0.959327
     26          1           0       -3.067186    2.109727   -1.063810
     27          6           0        1.531810    2.548712    0.269475
     28          1           0        2.393106    2.096337    0.770869
     29          1           0        1.866640    3.383713   -0.349055
     30          1           0        0.809639    2.911380    1.009862
     31          6           0        4.545276   -0.476583    0.688755
     32          1           0        5.191256    0.395077    0.571265
     33          1           0        4.386479   -0.672605    1.758256
     34          1           0        5.026243   -1.352454    0.232030
 ---------------------------------------------------------------------
                    Distance matrix (angstroms):
                    1          2          3          4          5
     1  C    0.000000
     2  C    1.544674   0.000000
     3  C    2.487761   1.487915   0.000000
     4  C    2.565797   2.964192   2.450923   0.000000
     5  C    1.538635   2.522119   2.857649   1.542876   0.000000
     6  H    3.464805   2.244219   1.091204   3.405159   3.948127
     7  H    2.158176   1.106649   2.078917   3.324018   2.761672
     8  H    1.097407   2.158151   2.780513   2.839836   2.165345
     9  H    3.007165   3.613384   3.032713   1.091017   2.169546
    10  H    2.151275   2.791354   3.255654   2.170550   1.097252
    11  O    2.829228   2.437120   1.255964   1.512376   2.552899
    12  O    2.458772   1.398957   2.330141   4.217062   3.778819
    13  O    1.404949   2.388160   3.693289   3.787243   2.413316
    14  O    2.395943   3.749824   4.120016   2.374656   1.411657
    15  C    3.895083   4.102463   3.441264   1.530492   2.611544
    16  H    4.656088   4.668526   3.687842   2.158493   3.534795
    17  H    4.026610   3.986842   3.453205   2.166949   2.847877
    18  O    4.490081   5.079197   4.653404   2.354476   2.991331
    19  C    3.400666   2.390187   3.492279   5.353210   4.700628
    20  H    4.197788   3.281543   4.246410   6.211231   5.602219
    21  H    3.255282   2.657308   4.020192   5.470106   4.532436
    22  H    3.989874   2.719714   3.568813   5.573700   5.067228
    23  C    2.391865   3.529815   4.764613   4.730870   3.395212
    24  H    3.287817   4.275760   5.623906   5.626701   4.191115
    25  H    2.688908   4.094973   5.121657   4.588995   3.301648
    26  H    2.696327   3.570512   4.750438   5.102489   3.974506
    27  C    3.451173   4.751373   5.257930   3.441896   2.400556
    28  H    4.037590   5.123693   5.432200   3.412748   2.705549
    29  H    4.214726   5.627458   6.115680   4.206068   3.294343
    30  H    3.412271   4.661761   5.439955   4.026050   2.696021
    31  C    5.818929   6.279834   5.779014   3.665795   4.314326
    32  H    6.371352   7.027038   6.645317   4.381234   4.834955
    33  H    5.974354   6.286153   5.872672   4.035753   4.515195
    34  H    6.418030   6.738414   6.009633   4.029561   4.979810
                    6          7          8          9         10
     6  H    0.000000
     7  H    2.746737   0.000000
     8  H    3.629744   3.058655   0.000000
     9  H    3.876134   4.192725   2.882164   0.000000
    10  H    4.309042   2.575655   3.057253   3.039802   0.000000
    11  O    1.978345   2.913553   3.035044   2.043267   3.055342
    12  O    2.547713   2.085625   2.658114   4.684774   4.116002
    13  O    4.591519   2.591270   2.073051   4.262403   2.591794
    14  O    5.190343   4.078007   2.598133   2.449397   2.075599
    15  C    4.237204   4.130164   4.335065   2.173171   2.675071
    16  H    4.260023   4.782553   4.955349   2.493414   3.712694
    17  H    4.203152   3.725883   4.694003   3.078654   2.504089
    18  O    5.537345   5.101682   4.877795   2.636548   3.017582
    19  C    3.604018   2.458564   3.810885   5.952540   4.767761
    20  H    4.185398   3.516902   4.387991   6.699095   5.773042
    21  H    4.371129   2.542784   3.796236   6.102092   4.485621
    22  H    3.522889   2.438062   4.549255   6.298823   4.964669
    23  C    5.603665   3.939480   2.432211   4.931322   3.784638
    24  H    6.443326   4.476417   3.493236   5.912731   4.357502
    25  H    6.036569   4.573397   2.528061   4.609135   3.831079
    26  H    5.437262   4.181083   2.403602   5.199227   4.508919
    27  C    6.348127   4.806331   3.863145   3.668181   2.429650
    28  H    6.501527   5.037837   4.559996   3.756482   2.471399
    29  H    7.195935   5.791611   4.407354   4.186033   3.493136
    30  H    6.520188   4.569847   3.990436   4.421042   2.454470
    31  C    6.571585   6.151443   6.277958   3.975906   4.118561
    32  H    7.497339   6.924459   6.781160   4.548578   4.663218
    33  H    6.641230   5.966620   6.597476   4.588122   4.058596
    34  H    6.671593   6.676561   6.788760   4.217170   4.900023
                   11         12         13         14         15
    11  O    0.000000
    12  O    3.483260   0.000000
    13  O    4.167543   2.926994   0.000000
    14  O    3.670530   4.836430   2.889055   0.000000
    15  C    2.386459   5.435107   4.945425   3.278245   0.000000
    16  H    2.510955   5.901366   5.832478   4.188632   1.100318
    17  H    2.677188   5.347272   4.919209   3.761183   1.102527
    18  O    3.618138   6.429510   5.344432   3.060257   1.405345
    19  C    4.682163   1.436849   3.326548   5.760733   6.429036
    20  H    5.460523   2.027626   4.091884   6.574792   7.368143
    21  H    5.087348   2.088138   2.742015   5.459526   6.529379
    22  H    4.769847   2.096289   4.017482   6.272212   6.443570
    23  C    5.196062   3.701847   1.432324   3.344851   6.002448
    24  H    6.116508   4.370147   2.027227   4.108630   6.789366
    25  H    5.306015   4.460051   2.092068   2.808170   5.834521
    26  H    5.317756   3.360074   2.091561   4.041634   6.500611
    27  C    4.815985   5.878329   3.478901   1.431842   3.869509
    28  H    4.837635   6.381750   4.220787   2.087480   3.382976
    29  H    5.620810   6.664154   4.188714   2.024486   4.656072
    30  H    5.230598   5.697507   3.018678   2.091564   4.516103
    31  C    4.732084   7.656068   6.598481   4.387783   2.351759
    32  H    5.604003   8.398458   7.033771   4.601010   3.265386
    33  H    4.965410   7.679663   6.637224   4.790272   2.648167
    34  H    4.872653   8.074680   7.344302   5.138949   2.640529
                   16         17         18         19         20
    16  H    0.000000
    17  H    1.783303   0.000000
    18  O    2.080397   2.081165   0.000000
    19  C    6.973716   6.142736   7.398913   0.000000
    20  H    7.854732   7.147076   8.348836   1.090554   0.000000
    21  H    7.219007   6.213284   7.339239   1.094265   1.789275
    22  H    6.929381   6.002559   7.510727   1.096446   1.785827
    23  C    6.865229   6.141142   6.228491   4.079265   4.557129
    24  H    7.714513   6.816363   6.948912   4.416129   4.850785
    25  H    6.699154   6.129798   5.849995   5.042110   5.540300
    26  H    7.251965   6.691890   6.867533   3.786456   4.030172
    27  C    4.885729   4.155806   3.258610   6.581969   7.456374
    28  H    4.397982   3.593038   2.553157   7.083331   8.031014
    29  H    5.589529   5.084429   3.854332   7.409985   8.214123
    30  H    5.587740   4.578098   4.088875   6.178526   7.055675
    31  C    2.647905   2.643873   1.424807   8.545308   9.535273
    32  H    3.622544   3.623159   2.027419   9.283005  10.268324
    33  H    3.048331   2.462009   2.090672   8.416870   9.452871
    34  H    2.459014   3.032604   2.088689   9.040986   9.998526
                   21         22         23         24         25
    21  H    0.000000
    22  H    1.794751   0.000000
    23  C    3.442865   4.974038   0.000000
    24  H    3.569796   5.273335   1.091490   0.000000
    25  H    4.478387   5.910286   1.094762   1.787211   0.000000
    26  H    3.327213   4.805543   1.096912   1.785650   1.792125
    27  C    6.096320   7.028194   3.885089   4.331961   3.307800
    28  H    6.655857   7.384401   4.847013   5.281890   4.359376
    29  H    6.900101   7.944883   4.258408   4.665647   3.452136
    30  H    5.544574   6.626181   3.430746   3.639943   3.042077
    31  C    8.481844   8.535437   7.536605   8.181784   7.166030
    32  H    9.130524   9.346326   7.835897   8.428632   7.344261
    33  H    8.318223   8.294499   7.700136   8.251907   7.451180
    34  H    9.095534   8.986263   8.295469   9.015164   7.933685
                   26         27         28         29         30
    26  H    0.000000
    27  C    4.808443   0.000000
    28  H    5.760296   1.094472   0.000000
    29  H    5.145537   1.091750   1.785702   0.000000
    30  H    4.469064   1.096007   1.796881   1.785218   0.000000
    31  C    8.228612   4.290592   3.355368   4.811863   5.053354
    32  H    8.591587   4.256849   3.280819   4.564209   5.071757
    33  H    8.441715   4.554392   3.551832   5.219585   5.118479
    34  H    8.897724   5.237515   4.372404   5.722939   6.046904
                   31         32         33         34
    31  C    0.000000
    32  H    1.091277   0.000000
    33  H    1.098851   1.787892   0.000000
    34  H    1.098671   1.787785   1.789094   0.000000
 Stoichiometry    C10H19O5(1+)
 Framework group  C1[X(C10H19O5)]
 Deg. of freedom    96
 Full point group                 C1      NOp   1
 Largest Abelian subgroup         C1      NOp   1
 Largest concise Abelian subgroup C1      NOp   1
                         Standard orientation:                         
 ---------------------------------------------------------------------
 Center     Atomic      Atomic             Coordinates (Angstroms)
 Number     Number       Type             X           Y           Z
 ---------------------------------------------------------------------
      1          6           0       -1.122657    0.413268   -0.282138
      2          6           0       -1.699139   -0.934442    0.205062
      3          6           0       -0.911812   -2.064375   -0.358195
      4          6           0        1.137560   -0.748827   -0.634654
      5          6           0        0.393163    0.455521   -0.021560
      6          1           0       -1.385577   -3.032924   -0.526083
      7          1           0       -1.554173   -0.988778    1.300829
      8          1           0       -1.308141    0.498791   -1.360370
      9          1           0        1.356535   -0.550515   -1.684911
     10          1           0        0.554721    0.470776    1.063626
     11          8           0        0.290529   -1.999149   -0.715359
     12          8           0       -3.035719   -1.126534   -0.160635
     13          8           0       -1.762646    1.442380    0.428654
     14          8           0        0.920466    1.615877   -0.628439
     15          6           0        2.392112   -1.220337    0.104388
     16          1           0        2.775362   -2.131371   -0.379178
     17          1           0        2.137652   -1.467685    1.148244
     18          8           0        3.318677   -0.166072    0.033689
     19          6           0       -3.981782   -0.988219    0.911917
     20          1           0       -4.966615   -1.102665    0.457699
     21          1           0       -3.895481    0.000608    1.372558
     22          1           0       -3.834791   -1.768631    1.667923
     23          6           0       -2.297682    2.494164   -0.383158
     24          1           0       -2.749358    3.209081    0.306939
     25          1           0       -1.507867    2.986836   -0.959327
     26          1           0       -3.067186    2.109727   -1.063810
     27          6           0        1.531810    2.548712    0.269475
     28          1           0        2.393106    2.096337    0.770869
     29          1           0        1.866640    3.383713   -0.349055
     30          1           0        0.809639    2.911380    1.009862
     31          6           0        4.545276   -0.476583    0.688755
     32          1           0        5.191256    0.395077    0.571265
     33          1           0        4.386479   -0.672605    1.758256
     34          1           0        5.026243   -1.352454    0.232030
 ---------------------------------------------------------------------
 Rotational constants (GHZ):           0.9089707           0.3869038           0.2919545
 Leave Link  202 at Fri May 24 08:42:17 2019, MaxMem=   402653184 cpu:               0.1 elap:               0.1
 (Enter /n/sw/g16_nehalem/g16/l301.exe)
 Standard basis: 6-31G(d) (6D, 7F)
 Ernie: Thresh=  0.10000D-02 Tol=  0.10000D-05 Strict=F.
 There are   263 symmetry adapted cartesian basis functions of A   symmetry.
 There are   263 symmetry adapted basis functions of A   symmetry.
   263 basis functions,   496 primitive gaussians,   263 cartesian basis functions
    59 alpha electrons       59 beta electrons
       nuclear repulsion energy      1145.5830883045 Hartrees.
 IExCor=  402 DFT=T Ex+Corr=B3LYP ExCW=0 ScaHFX=  0.200000
 ScaDFX=  0.800000  0.720000  1.000000  0.810000 ScalE2=  1.000000  1.000000
 IRadAn=      5 IRanWt=     -1 IRanGd=            0 ICorTp=0 IEmpDi=  4
 NAtoms=   34 NActive=   34 NUniq=   34 SFac= 1.00D+00 NAtFMM=   60 NAOKFM=F Big=F
 Integral buffers will be    131072 words long.
 Raffenetti 2 integral format.
 Two-electron integral symmetry is turned on.
 ------------------------------------------------------------------------------
 Polarizable Continuum Model (PCM)
 =================================
 Model                : PCM.
 Atomic radii         : UFF (Universal Force Field).
 Polarization charges : Total charges.
 Charge compensation  : None.
 Solution method      : On-the-fly selection.
 Cavity type          : Scaled VdW (van der Waals Surface) (Alpha=1.100).
 Cavity algorithm     : GePol (No added spheres)
                        Default sphere list used, NSphG=   34.
                        Lebedev-Laikov grids with approx.  5.0 points / Ang**2.
                        Smoothing algorithm: York/Karplus (Gamma=1.0000).
                        Polarization charges: spherical gaussians, with
                                              point-specific exponents (IZeta= 3).
                        Self-potential: point-specific (ISelfS= 7).
                        Self-field    : sphere-specific E.n sum rule (ISelfD= 2).
 1st derivatives      : Analytical E(r).r(x)/FMM algorithm (CHGder, D1EAlg=3).
                        Cavity 1st derivative terms included.
 Solvent              : TetraHydroFuran, Eps=   7.425700 Eps(inf)=   1.974025
 ------------------------------------------------------------------------------
 GePol: Number of generator spheres                  =      34
 GePol: Total number of spheres                      =      34
 GePol: Number of exposed spheres                    =      34 (100.00%)
 GePol: Number of points                             =    2361
 GePol: Average weight of points                     =       0.13
 GePol: Minimum weight of points                     =   0.32D-10
 GePol: Maximum weight of points                     =    0.20577
 GePol: Number of points with low weight             =     174
 GePol: Fraction of low-weight points (<1% of avg)   =       7.37%
 GePol: Cavity surface area                          =    309.517 Ang**2
 GePol: Cavity volume                                =    324.768 Ang**3
 Leave Link  301 at Fri May 24 08:42:17 2019, MaxMem=   402653184 cpu:               0.4 elap:               0.1
 (Enter /n/sw/g16_nehalem/g16/l302.exe)
 NPDir=0 NMtPBC=     1 NCelOv=     1 NCel=       1 NClECP=     1 NCelD=      1
         NCelK=      1 NCelE2=     1 NClLst=     1 CellRange=     0.0.
 One-electron integrals computed using PRISM.
 One-electron integral symmetry used in STVInt
 NBasis=   263 RedAO= T EigKep=  1.57D-03  NBF=   263
 NBsUse=   263 1.00D-06 EigRej= -1.00D+00 NBFU=   263
 Precomputing XC quadrature grid using
 IXCGrd= 4 IRadAn=           5 IRanWt=          -1 IRanGd=           0 AccXCQ= 0.00D+00.
 Generated NRdTot=       0 NPtTot=           0 NUsed=           0 NTot=          32
 NSgBfM=   263   263   263   263   263 MxSgAt=    34 MxSgA2=    34.
 Leave Link  302 at Fri May 24 08:42:19 2019, MaxMem=   402653184 cpu:               5.4 elap:               1.4
 (Enter /n/sw/g16_nehalem/g16/l303.exe)
 DipDrv:  MaxL=1.
 Leave Link  303 at Fri May 24 08:42:19 2019, MaxMem=   402653184 cpu:               0.6 elap:               0.2
 (Enter /n/sw/g16_nehalem/g16/l401.exe)
 ExpMin= 1.61D-01 ExpMax= 5.48D+03 ExpMxC= 8.25D+02 IAcc=3 IRadAn=         5 AccDes= 0.00D+00
 Harris functional with IExCor=  402 and IRadAn=       5 diagonalized for initial guess.
 HarFok:  IExCor=  402 AccDes= 0.00D+00 IRadAn=         5 IDoV= 1 UseB2=F ITyADJ=14
 ICtDFT=  3500011 ScaDFX=  1.000000  1.000000  1.000000  1.000000
 FoFCou: FMM=F IPFlag=           0 FMFlag=      100000 FMFlg1=           0
         NFxFlg=           0 DoJE=T BraDBF=F KetDBF=T FulRan=T
         wScrn=  0.000000 ICntrl=       500 IOpCl=  0 I1Cent=   200000004 NGrid=           0
         NMat0=    1 NMatS0=      1 NMatT0=    0 NMatD0=    1 NMtDS0=    0 NMtDT0=    0
 Petite list used in FoFCou.
 Harris En= -768.262507848629    
 JPrj=0 DoOrth=F DoCkMO=F.
 Leave Link  401 at Fri May 24 08:42:29 2019, MaxMem=   402653184 cpu:              40.5 elap:              10.3
 (Enter /n/sw/g16_nehalem/g16/l502.exe)
 Integral symmetry usage will be decided dynamically.
 Closed shell SCF:
 Using DIIS extrapolation, IDIIS=  1040.
 NGot=   402653184 LenX=   402510103 LenY=   402440493
 Requested convergence on RMS density matrix=1.00D-08 within 128 cycles.
 Requested convergence on MAX density matrix=1.00D-06.
 Requested convergence on             energy=1.00D-06.
 No special actions if energy rises.
 Fock matrices will be formed incrementally for  20 cycles.

 Cycle   1  Pass 1  IDiag  1:
 FoFJK:  IHMeth= 1 ICntrl=       0 DoSepK=F KAlg= 0 I1Cent=           0 FoldK=F
 IRaf= 860000000 NMat=       1 IRICut=       1 DoRegI=T DoRafI=F ISym2E= 0 IDoP0=0 IntGTp=1.
 FoFCou: FMM=F IPFlag=           0 FMFlag=      100000 FMFlg1=           0
         NFxFlg=           0 DoJE=F BraDBF=F KetDBF=F FulRan=T
         wScrn=  0.000000 ICntrl=         0 IOpCl=  0 I1Cent=           0 NGrid=           0
         NMat0=    1 NMatS0=      1 NMatT0=    0 NMatD0=    1 NMtDS0=    0 NMtDT0=    0
 Symmetry not used in FoFCou.
 Inv3:  Mode=1 IEnd=    16722963.
 Iteration    1 A*A^-1 deviation from unit magnitude is 9.44D-15 for   2355.
 Iteration    1 A*A^-1 deviation from orthogonality  is 3.25D-15 for   1627    984.
 Iteration    1 A^-1*A deviation from unit magnitude is 9.44D-15 for   2355.
 Iteration    1 A^-1*A deviation from orthogonality  is 1.92D-15 for   1857    996.
 E= -768.085509322995    
 DIIS: error= 2.72D-02 at cycle   1 NSaved=   1.
 NSaved= 1 IEnMin= 1 EnMin= -768.085509322995     IErMin= 1 ErrMin= 2.72D-02
 ErrMax= 2.72D-02  0.00D+00 EMaxC= 1.00D-01 BMatC= 2.56D-01 BMatP= 2.56D-01
 IDIUse=3 WtCom= 7.28D-01 WtEn= 2.72D-01
 Coeff-Com:  0.100D+01
 Coeff-En:   0.100D+01
 Coeff:      0.100D+01
 Gap=    -0.002 Goal=   None    Shift=    0.000
 GapD=   -0.002 DampG=0.250 DampE=0.500 DampFc=0.2500 IDamp=-1.
 Damping current iteration by 2.50D-01
 RMSDP=5.70D-03 MaxDP=2.23D-01              OVMax= 6.90D-01

 Cycle   2  Pass 1  IDiag  1:
 RMSU=  1.42D-03    CP:  9.93D-01
 E= -768.141242753841     Delta-E=       -0.055733430846 Rises=F Damp=T
 DIIS: error= 1.26D-02 at cycle   2 NSaved=   2.
 NSaved= 2 IEnMin= 2 EnMin= -768.141242753841     IErMin= 2 ErrMin= 1.26D-02
 ErrMax= 1.26D-02  0.00D+00 EMaxC= 1.00D-01 BMatC= 6.73D-02 BMatP= 2.56D-01
 IDIUse=3 WtCom= 8.74D-01 WtEn= 1.26D-01
 Coeff-Com: -0.457D+00 0.146D+01
 Coeff-En:   0.970D-01 0.903D+00
 Coeff:     -0.387D+00 0.139D+01
 Gap=     0.000 Goal=   None    Shift=    0.000
 RMSDP=1.80D-03 MaxDP=6.92D-02 DE=-5.57D-02 OVMax= 6.65D-01

 Cycle   3  Pass 1  IDiag  1:
 RMSU=  1.77D-03    CP:  9.85D-01  7.95D-01
 E= -768.250739119202     Delta-E=       -0.109496365361 Rises=F Damp=F
 DIIS: error= 1.10D-02 at cycle   3 NSaved=   3.
 NSaved= 3 IEnMin= 3 EnMin= -768.250739119202     IErMin= 3 ErrMin= 1.10D-02
 ErrMax= 1.10D-02  0.00D+00 EMaxC= 1.00D-01 BMatC= 8.48D-02 BMatP= 6.73D-02
 IDIUse=2 WtCom= 0.00D+00 WtEn= 1.00D+00
 Coeff-En:   0.000D+00 0.000D+00 0.100D+01
 Coeff:      0.000D+00 0.000D+00 0.100D+01
 Gap=     0.063 Goal=   None    Shift=    0.000
 RMSDP=5.29D-03 MaxDP=3.48D-01 DE=-1.09D-01 OVMax= 8.97D-01

 Cycle   4  Pass 1  IDiag  1:
 RMSU=  2.57D-03    CP:  9.73D-01  3.00D+00 -7.42D-01
 E= -766.936662646470     Delta-E=        1.314076472732 Rises=F Damp=F
 DIIS: error= 4.59D-02 at cycle   4 NSaved=   4.
 NSaved= 4 IEnMin= 3 EnMin= -768.250739119202     IErMin= 3 ErrMin= 1.10D-02
 ErrMax= 4.59D-02  0.00D+00 EMaxC= 1.00D-01 BMatC= 1.13D+00 BMatP= 6.73D-02
 IDIUse=2 WtCom= 0.00D+00 WtEn= 1.00D+00
 Coeff-En:   0.000D+00 0.000D+00 0.918D+00 0.821D-01
 Coeff:      0.000D+00 0.000D+00 0.918D+00 0.821D-01
 Gap=     0.026 Goal=   None    Shift=    0.000
 RMSDP=4.55D-03 MaxDP=3.02D-01 DE= 1.31D+00 OVMax= 7.87D-01

 Cycle   5  Pass 1  IDiag  1:
 RMSU=  1.46D-03    CP:  9.92D-01  1.48D+00  3.04D-01 -1.57D-01
 E= -768.267336952674     Delta-E=       -1.330674306204 Rises=F Damp=F
 DIIS: error= 9.73D-03 at cycle   5 NSaved=   5.
 NSaved= 5 IEnMin= 5 EnMin= -768.267336952674     IErMin= 5 ErrMin= 9.73D-03
 ErrMax= 9.73D-03  0.00D+00 EMaxC= 1.00D-01 BMatC= 7.35D-02 BMatP= 6.73D-02
 IDIUse=3 WtCom= 9.03D-01 WtEn= 9.73D-02
 Coeff-Com: -0.921D-01 0.241D+00 0.466D+00 0.110D-01 0.375D+00
 Coeff-En:   0.000D+00 0.000D+00 0.448D+00 0.000D+00 0.552D+00
 Coeff:     -0.831D-01 0.217D+00 0.464D+00 0.990D-02 0.392D+00
 Gap=     0.125 Goal=   None    Shift=    0.000
 RMSDP=1.18D-03 MaxDP=4.62D-02 DE=-1.33D+00 OVMax= 1.31D-01

 Cycle   6  Pass 1  IDiag  1:
 RMSU=  3.41D-04    CP:  9.89D-01  1.01D+00  6.48D-01 -7.12D-02  5.57D-01
 E= -768.326309622810     Delta-E=       -0.058972670136 Rises=F Damp=F
 DIIS: error= 2.11D-03 at cycle   6 NSaved=   6.
 NSaved= 6 IEnMin= 6 EnMin= -768.326309622810     IErMin= 6 ErrMin= 2.11D-03
 ErrMax= 2.11D-03  0.00D+00 EMaxC= 1.00D-01 BMatC= 3.01D-03 BMatP= 6.73D-02
 IDIUse=3 WtCom= 9.79D-01 WtEn= 2.11D-02
 Coeff-Com: -0.571D-01 0.928D-01 0.149D+00-0.107D-01 0.239D+00 0.587D+00
 Coeff-En:   0.000D+00 0.000D+00 0.000D+00 0.000D+00 0.000D+00 0.100D+01
 Coeff:     -0.559D-01 0.908D-01 0.145D+00-0.105D-01 0.234D+00 0.596D+00
 Gap=     0.123 Goal=   None    Shift=    0.000
 RMSDP=2.04D-04 MaxDP=1.11D-02 DE=-5.90D-02 OVMax= 9.03D-03

 Cycle   7  Pass 1  IDiag  1:
 RMSU=  1.39D-04    CP:  9.89D-01  1.07D+00  6.37D-01 -7.77D-02  6.31D-01
                    CP:  8.54D-01
 E= -768.328461158867     Delta-E=       -0.002151536056 Rises=F Damp=F
 DIIS: error= 5.36D-04 at cycle   7 NSaved=   7.
 NSaved= 7 IEnMin= 7 EnMin= -768.328461158867     IErMin= 7 ErrMin= 5.36D-04
 ErrMax= 5.36D-04  0.00D+00 EMaxC= 1.00D-01 BMatC= 2.15D-04 BMatP= 3.01D-03
 IDIUse=3 WtCom= 9.95D-01 WtEn= 5.36D-03
 Coeff-Com: -0.289D-01 0.381D-01 0.203D-01-0.516D-02 0.672D-01 0.310D+00
 Coeff-Com:  0.599D+00
 Coeff-En:   0.000D+00 0.000D+00 0.000D+00 0.000D+00 0.000D+00 0.000D+00
 Coeff-En:   0.100D+01
 Coeff:     -0.288D-01 0.379D-01 0.202D-01-0.513D-02 0.668D-01 0.308D+00
 Coeff:      0.601D+00
 Gap=     0.123 Goal=   None    Shift=    0.000
 RMSDP=5.94D-05 MaxDP=4.38D-03 DE=-2.15D-03 OVMax= 5.40D-03

 Cycle   8  Pass 1  IDiag  1:
 RMSU=  5.06D-05    CP:  9.89D-01  1.07D+00  6.39D-01 -7.56D-02  6.38D-01
                    CP:  9.13D-01  8.92D-01
 E= -768.328608891601     Delta-E=       -0.000147732735 Rises=F Damp=F
 DIIS: error= 2.32D-04 at cycle   8 NSaved=   8.
 NSaved= 8 IEnMin= 8 EnMin= -768.328608891601     IErMin= 8 ErrMin= 2.32D-04
 ErrMax= 2.32D-04  0.00D+00 EMaxC= 1.00D-01 BMatC= 4.89D-05 BMatP= 2.15D-04
 IDIUse=3 WtCom= 9.98D-01 WtEn= 2.32D-03
 Coeff-Com: -0.748D-02 0.709D-02-0.151D-01-0.186D-03-0.337D-02 0.853D-01
 Coeff-Com:  0.375D+00 0.559D+00
 Coeff-En:   0.000D+00 0.000D+00 0.000D+00 0.000D+00 0.000D+00 0.000D+00
 Coeff-En:   0.118D+00 0.882D+00
 Coeff:     -0.746D-02 0.708D-02-0.150D-01-0.185D-03-0.336D-02 0.851D-01
 Coeff:      0.374D+00 0.559D+00
 Gap=     0.123 Goal=   None    Shift=    0.000
 RMSDP=2.54D-05 MaxDP=1.10D-03 DE=-1.48D-04 OVMax= 2.62D-03

 Cycle   9  Pass 1  IDiag  1:
 RMSU=  1.29D-05    CP:  9.89D-01  1.06D+00  6.41D-01 -7.33D-02  6.41D-01
                    CP:  9.45D-01  9.75D-01  7.64D-01
 E= -768.328648036632     Delta-E=       -0.000039145031 Rises=F Damp=F
 DIIS: error= 4.57D-05 at cycle   9 NSaved=   9.
 NSaved= 9 IEnMin= 9 EnMin= -768.328648036632     IErMin= 9 ErrMin= 4.57D-05
 ErrMax= 4.57D-05  0.00D+00 EMaxC= 1.00D-01 BMatC= 1.94D-06 BMatP= 4.89D-05
 IDIUse=1 WtCom= 1.00D+00 WtEn= 0.00D+00
 Coeff-Com: -0.361D-02 0.389D-02-0.869D-02 0.406D-04-0.499D-02 0.214D-01
 Coeff-Com:  0.120D+00 0.212D+00 0.660D+00
 Coeff:     -0.361D-02 0.389D-02-0.869D-02 0.406D-04-0.499D-02 0.214D-01
 Coeff:      0.120D+00 0.212D+00 0.660D+00
 Gap=     0.123 Goal=   None    Shift=    0.000
 RMSDP=7.58D-06 MaxDP=1.60D-04 DE=-3.91D-05 OVMax= 9.73D-04

 Cycle  10  Pass 1  IDiag  1:
 RMSU=  4.96D-06    CP:  9.89D-01  1.06D+00  6.41D-01 -7.28D-02  6.43D-01
                    CP:  9.54D-01  9.99D-01  8.00D-01  9.77D-01
 E= -768.328649721923     Delta-E=       -0.000001685291 Rises=F Damp=F
 DIIS: error= 3.55D-05 at cycle  10 NSaved=  10.
 NSaved=10 IEnMin=10 EnMin= -768.328649721923     IErMin=10 ErrMin= 3.55D-05
 ErrMax= 3.55D-05  0.00D+00 EMaxC= 1.00D-01 BMatC= 5.58D-07 BMatP= 1.94D-06
 IDIUse=1 WtCom= 1.00D+00 WtEn= 0.00D+00
 Coeff-Com: -0.125D-02 0.173D-02-0.308D-02 0.262D-04-0.257D-02-0.461D-02
 Coeff-Com: -0.585D-02 0.434D-02 0.347D+00 0.664D+00
 Coeff:     -0.125D-02 0.173D-02-0.308D-02 0.262D-04-0.257D-02-0.461D-02
 Coeff:     -0.585D-02 0.434D-02 0.347D+00 0.664D+00
 Gap=     0.122 Goal=   None    Shift=    0.000
 RMSDP=3.96D-06 MaxDP=9.91D-05 DE=-1.69D-06 OVMax= 5.04D-04

 Cycle  11  Pass 1  IDiag  1:
 RMSU=  1.42D-06    CP:  9.89D-01  1.06D+00  6.41D-01 -7.26D-02  6.44D-01
                    CP:  9.60D-01  1.01D+00  8.25D-01  1.09D+00  8.38D-01
 E= -768.328650308678     Delta-E=       -0.000000586755 Rises=F Damp=F
 DIIS: error= 9.33D-06 at cycle  11 NSaved=  11.
 NSaved=11 IEnMin=11 EnMin= -768.328650308678     IErMin=11 ErrMin= 9.33D-06
 ErrMax= 9.33D-06  0.00D+00 EMaxC= 1.00D-01 BMatC= 6.13D-08 BMatP= 5.58D-07
 IDIUse=1 WtCom= 1.00D+00 WtEn= 0.00D+00
 Coeff-Com: -0.342D-03 0.503D-03-0.814D-03 0.159D-04-0.545D-03-0.346D-02
 Coeff-Com: -0.128D-01-0.194D-01 0.795D-01 0.248D+00 0.709D+00
 Coeff:     -0.342D-03 0.503D-03-0.814D-03 0.159D-04-0.545D-03-0.346D-02
 Coeff:     -0.128D-01-0.194D-01 0.795D-01 0.248D+00 0.709D+00
 Gap=     0.122 Goal=   None    Shift=    0.000
 RMSDP=1.30D-06 MaxDP=2.87D-05 DE=-5.87D-07 OVMax= 1.37D-04

 Cycle  12  Pass 1  IDiag  1:
 RMSU=  4.53D-07    CP:  9.89D-01  1.06D+00  6.41D-01 -7.25D-02  6.44D-01
                    CP:  9.61D-01  1.01D+00  8.31D-01  1.12D+00  9.06D-01
                    CP:  9.07D-01
 E= -768.328650365413     Delta-E=       -0.000000056735 Rises=F Damp=F
 DIIS: error= 3.21D-06 at cycle  12 NSaved=  12.
 NSaved=12 IEnMin=12 EnMin= -768.328650365413     IErMin=12 ErrMin= 3.21D-06
 ErrMax= 3.21D-06  0.00D+00 EMaxC= 1.00D-01 BMatC= 6.88D-09 BMatP= 6.13D-08
 IDIUse=1 WtCom= 1.00D+00 WtEn= 0.00D+00
 Coeff-Com: -0.548D-04 0.848D-04-0.662D-04 0.114D-05 0.832D-04-0.123D-02
 Coeff-Com: -0.613D-02-0.117D-01-0.723D-02 0.319D-01 0.377D+00 0.617D+00
 Coeff:     -0.548D-04 0.848D-04-0.662D-04 0.114D-05 0.832D-04-0.123D-02
 Coeff:     -0.613D-02-0.117D-01-0.723D-02 0.319D-01 0.377D+00 0.617D+00
 Gap=     0.122 Goal=   None    Shift=    0.000
 RMSDP=4.22D-07 MaxDP=1.11D-05 DE=-5.67D-08 OVMax= 3.73D-05

 Cycle  13  Pass 1  IDiag  1:
 RMSU=  1.44D-07    CP:  9.89D-01  1.06D+00  6.41D-01 -7.25D-02  6.45D-01
                    CP:  9.62D-01  1.02D+00  8.32D-01  1.12D+00  9.22D-01
                    CP:  9.88D-01  7.71D-01
 E= -768.328650371904     Delta-E=       -0.000000006492 Rises=F Damp=F
 DIIS: error= 4.01D-07 at cycle  13 NSaved=  13.
 NSaved=13 IEnMin=13 EnMin= -768.328650371904     IErMin=13 ErrMin= 4.01D-07
 ErrMax= 4.01D-07  0.00D+00 EMaxC= 1.00D-01 BMatC= 1.34D-10 BMatP= 6.88D-09
 IDIUse=1 WtCom= 1.00D+00 WtEn= 0.00D+00
 Coeff-Com:  0.240D-05-0.185D-05 0.174D-04 0.139D-06 0.528D-04-0.237D-03
 Coeff-Com: -0.118D-02-0.255D-02-0.692D-02-0.708D-02 0.801D-01 0.216D+00
 Coeff-Com:  0.722D+00
 Coeff:      0.240D-05-0.185D-05 0.174D-04 0.139D-06 0.528D-04-0.237D-03
 Coeff:     -0.118D-02-0.255D-02-0.692D-02-0.708D-02 0.801D-01 0.216D+00
 Coeff:      0.722D+00
 Gap=     0.122 Goal=   None    Shift=    0.000
 RMSDP=6.23D-08 MaxDP=1.99D-06 DE=-6.49D-09 OVMax= 2.88D-06

 Cycle  14  Pass 1  IDiag  1:
 RMSU=  4.00D-08    CP:  9.89D-01  1.06D+00  6.41D-01 -7.25D-02  6.45D-01
                    CP:  9.62D-01  1.02D+00  8.33D-01  1.13D+00  9.21D-01
                    CP:  1.00D+00  8.13D-01  8.45D-01
 E= -768.328650372009     Delta-E=       -0.000000000105 Rises=F Damp=F
 DIIS: error= 1.80D-07 at cycle  14 NSaved=  14.
 NSaved=14 IEnMin=14 EnMin= -768.328650372009     IErMin=14 ErrMin= 1.80D-07
 ErrMax= 1.80D-07  0.00D+00 EMaxC= 1.00D-01 BMatC= 3.09D-11 BMatP= 1.34D-10
 IDIUse=1 WtCom= 1.00D+00 WtEn= 0.00D+00
 Coeff-Com:  0.211D-05-0.321D-05 0.116D-04 0.112D-07 0.224D-04-0.251D-04
 Coeff-Com: -0.115D-03-0.415D-03-0.253D-02-0.545D-02 0.164D-01 0.723D-01
 Coeff-Com:  0.401D+00 0.519D+00
 Coeff:      0.211D-05-0.321D-05 0.116D-04 0.112D-07 0.224D-04-0.251D-04
 Coeff:     -0.115D-03-0.415D-03-0.253D-02-0.545D-02 0.164D-01 0.723D-01
 Coeff:      0.401D+00 0.519D+00
 Gap=     0.122 Goal=   None    Shift=    0.000
 RMSDP=2.11D-08 MaxDP=6.13D-07 DE=-1.05D-10 OVMax= 1.30D-06

 Cycle  15  Pass 1  IDiag  1:
 RMSU=  1.18D-08    CP:  9.89D-01  1.06D+00  6.41D-01 -7.25D-02  6.45D-01
                    CP:  9.62D-01  1.02D+00  8.33D-01  1.13D+00  9.22D-01
                    CP:  1.00D+00  8.20D-01  8.93D-01  6.82D-01
 E= -768.328650372027     Delta-E=       -0.000000000018 Rises=F Damp=F
 DIIS: error= 4.98D-08 at cycle  15 NSaved=  15.
 NSaved=15 IEnMin=15 EnMin= -768.328650372027     IErMin=15 ErrMin= 4.98D-08
 ErrMax= 4.98D-08  0.00D+00 EMaxC= 1.00D-01 BMatC= 1.36D-12 BMatP= 3.09D-11
 IDIUse=1 WtCom= 1.00D+00 WtEn= 0.00D+00
 Coeff-Com:  0.518D-06-0.562D-06 0.273D-05-0.609D-07 0.158D-05 0.115D-04
 Coeff-Com:  0.863D-04 0.123D-03-0.111D-03-0.107D-02-0.179D-02 0.340D-02
 Coeff-Com:  0.625D-01 0.175D+00 0.762D+00
 Coeff:      0.518D-06-0.562D-06 0.273D-05-0.609D-07 0.158D-05 0.115D-04
 Coeff:      0.863D-04 0.123D-03-0.111D-03-0.107D-02-0.179D-02 0.340D-02
 Coeff:      0.625D-01 0.175D+00 0.762D+00
 Gap=     0.122 Goal=   None    Shift=    0.000
 RMSDP=6.19D-09 MaxDP=1.64D-07 DE=-1.82D-11 OVMax= 6.85D-07

 Error on total polarization charges =  0.01216
 SCF Done:  E(RB3LYP) =  -768.328650372     A.U. after   15 cycles
            NFock= 15  Conv=0.62D-08     -V/T= 2.0091
 KE= 7.613998640774D+02 PE=-4.066508421958D+03 EE= 1.391196819204D+03
 Leave Link  502 at Fri May 24 08:48:16 2019, MaxMem=   402653184 cpu:            1385.0 elap:             346.7
 (Enter /n/sw/g16_nehalem/g16/l601.exe)
 Copying SCF densities to generalized density rwf, IOpCl= 0 IROHF=0.

 **********************************************************************

            Population analysis using the SCF density.

 **********************************************************************

 Orbital symmetries:
       Occupied  (A) (A) (A) (A) (A) (A) (A) (A) (A) (A) (A) (A)
                 (A) (A) (A) (A) (A) (A) (A) (A) (A) (A) (A) (A)
                 (A) (A) (A) (A) (A) (A) (A) (A) (A) (A) (A) (A)
                 (A) (A) (A) (A) (A) (A) (A) (A) (A) (A) (A) (A)
                 (A) (A) (A) (A) (A) (A) (A) (A) (A) (A) (A)
       Virtual   (A) (A) (A) (A) (A) (A) (A) (A) (A) (A) (A) (A)
                 (A) (A) (A) (A) (A) (A) (A) (A) (A) (A) (A) (A)
                 (A) (A) (A) (A) (A) (A) (A) (A) (A) (A) (A) (A)
                 (A) (A) (A) (A) (A) (A) (A) (A) (A) (A) (A) (A)
                 (A) (A) (A) (A) (A) (A) (A) (A) (A) (A) (A) (A)
                 (A) (A) (A) (A) (A) (A) (A) (A) (A) (A) (A) (A)
                 (A) (A) (A) (A) (A) (A) (A) (A) (A) (A) (A) (A)
                 (A) (A) (A) (A) (A) (A) (A) (A) (A) (A) (A) (A)
                 (A) (A) (A) (A) (A) (A) (A) (A) (A) (A) (A) (A)
                 (A) (A) (A) (A) (A) (A) (A) (A) (A) (A) (A) (A)
                 (A) (A) (A) (A) (A) (A) (A) (A) (A) (A) (A) (A)
                 (A) (A) (A) (A) (A) (A) (A) (A) (A) (A) (A) (A)
                 (A) (A) (A) (A) (A) (A) (A) (A) (A) (A) (A) (A)
                 (A) (A) (A) (A) (A) (A) (A) (A) (A) (A) (A) (A)
                 (A) (A) (A) (A) (A) (A) (A) (A) (A) (A) (A) (A)
                 (A) (A) (A) (A) (A) (A) (A) (A) (A) (A) (A) (A)
                 (A) (A) (A) (A) (A) (A) (A) (A) (A) (A) (A) (A)
 The electronic state is 1-A.
 Alpha  occ. eigenvalues --  -19.33208 -19.20622 -19.19063 -19.18745 -19.18698
 Alpha  occ. eigenvalues --  -10.39783 -10.32026 -10.31675 -10.29198 -10.29172
 Alpha  occ. eigenvalues --  -10.27947 -10.25646 -10.24801 -10.24774 -10.24383
 Alpha  occ. eigenvalues --   -1.21761  -1.09531  -1.07826  -1.06974  -1.05891
 Alpha  occ. eigenvalues --   -0.87235  -0.85980  -0.77354  -0.74620  -0.73328
 Alpha  occ. eigenvalues --   -0.70790  -0.68244  -0.67246  -0.65866  -0.63071
 Alpha  occ. eigenvalues --   -0.60236  -0.58820  -0.55511  -0.54810  -0.53458
 Alpha  occ. eigenvalues --   -0.51879  -0.51328  -0.50697  -0.50444  -0.49014
 Alpha  occ. eigenvalues --   -0.48608  -0.47463  -0.46236  -0.45728  -0.45216
 Alpha  occ. eigenvalues --   -0.44464  -0.42276  -0.41992  -0.40899  -0.40222
 Alpha  occ. eigenvalues --   -0.39559  -0.37001  -0.35731  -0.35559  -0.35199
 Alpha  occ. eigenvalues --   -0.31860  -0.30712  -0.29129  -0.27561
 Alpha virt. eigenvalues --   -0.15329  -0.00890   0.04584   0.05729   0.07066
 Alpha virt. eigenvalues --    0.07742   0.07842   0.09428   0.09980   0.11115
 Alpha virt. eigenvalues --    0.11543   0.11842   0.12304   0.12679   0.13630
 Alpha virt. eigenvalues --    0.14115   0.14165   0.14589   0.14928   0.15681
 Alpha virt. eigenvalues --    0.15790   0.16116   0.16244   0.17054   0.17287
 Alpha virt. eigenvalues --    0.18110   0.19066   0.20045   0.20536   0.21180
 Alpha virt. eigenvalues --    0.24380   0.25135   0.26554   0.28028   0.29528
 Alpha virt. eigenvalues --    0.44322   0.46657   0.47880   0.48165   0.48582
 Alpha virt. eigenvalues --    0.49239   0.49774   0.51003   0.51613   0.52067
 Alpha virt. eigenvalues --    0.53017   0.54083   0.54771   0.55049   0.55907
 Alpha virt. eigenvalues --    0.56537   0.58005   0.58483   0.59791   0.61819
 Alpha virt. eigenvalues --    0.63571   0.64990   0.65306   0.69612   0.70159
 Alpha virt. eigenvalues --    0.71426   0.73169   0.74209   0.76523   0.78169
 Alpha virt. eigenvalues --    0.78940   0.79380   0.81197   0.81687   0.82418
 Alpha virt. eigenvalues --    0.82569   0.83597   0.84099   0.84918   0.85837
 Alpha virt. eigenvalues --    0.86339   0.86891   0.87614   0.88178   0.89436
 Alpha virt. eigenvalues --    0.90064   0.91042   0.92994   0.93557   0.95290
 Alpha virt. eigenvalues --    0.96058   0.97017   0.99058   1.00171   1.01695
 Alpha virt. eigenvalues --    1.03258   1.05080   1.07434   1.10670   1.11706
 Alpha virt. eigenvalues --    1.14088   1.15024   1.17957   1.19435   1.22825
 Alpha virt. eigenvalues --    1.23202   1.27130   1.27670   1.30179   1.31572
 Alpha virt. eigenvalues --    1.34484   1.35764   1.39071   1.39599   1.42098
 Alpha virt. eigenvalues --    1.43728   1.45578   1.46719   1.48481   1.48867
 Alpha virt. eigenvalues --    1.52338   1.54595   1.57893   1.59153   1.62605
 Alpha virt. eigenvalues --    1.62900   1.65091   1.68486   1.70127   1.71025
 Alpha virt. eigenvalues --    1.73260   1.74122   1.79246   1.80295   1.81056
 Alpha virt. eigenvalues --    1.82446   1.85220   1.85531   1.88551   1.90019
 Alpha virt. eigenvalues --    1.91163   1.94647   1.97151   1.98575   2.00872
 Alpha virt. eigenvalues --    2.01148   2.02741   2.03156   2.03983   2.05344
 Alpha virt. eigenvalues --    2.06208   2.06787   2.08338   2.08530   2.10819
 Alpha virt. eigenvalues --    2.11951   2.12325   2.13567   2.14812   2.16087
 Alpha virt. eigenvalues --    2.17216   2.19702   2.19883   2.22482   2.24078
 Alpha virt. eigenvalues --    2.26582   2.28404   2.28778   2.30779   2.33995
 Alpha virt. eigenvalues --    2.37237   2.40894   2.41977   2.44339   2.45811
 Alpha virt. eigenvalues --    2.49960   2.52037   2.56354   2.58299   2.60869
 Alpha virt. eigenvalues --    2.62536   2.67606   2.70314   2.70756   2.76341
 Alpha virt. eigenvalues --    2.77554   2.80855   2.82230   2.87441   2.93292
 Alpha virt. eigenvalues --    2.94177   2.99816   3.03257   3.08220   3.81822
 Alpha virt. eigenvalues --    3.93980   3.95945   3.99575   4.08831   4.14130
 Alpha virt. eigenvalues --    4.21600   4.22664   4.23830   4.26065   4.27626
 Alpha virt. eigenvalues --    4.37027   4.44868   4.52396   4.64519
          Condensed to atoms (all electrons):
               1          2          3          4          5          6
     1  C    5.007881   0.263528  -0.037681  -0.045283   0.286272   0.003058
     2  C    0.263528   5.128770   0.280405   0.000198  -0.045605  -0.038867
     3  C   -0.037681   0.280405   4.803657  -0.035028   0.003550   0.355849
     4  C   -0.045283   0.000198  -0.035028   5.130044   0.255880   0.002892
     5  C    0.286272  -0.045605   0.003550   0.255880   5.063078  -0.000428
     6  H    0.003058  -0.038867   0.355849   0.002892  -0.000428   0.424601
     7  H   -0.031858   0.336875  -0.035500   0.001351  -0.004891   0.001371
     8  H    0.357103  -0.044234  -0.002213  -0.000952  -0.046555  -0.000011
     9  H   -0.003758   0.000667  -0.000242   0.358215  -0.040374  -0.000131
    10  H   -0.042240  -0.003549   0.000597  -0.046796   0.352437  -0.000010
    11  O    0.001343  -0.028681   0.384305   0.107661  -0.021422  -0.033806
    12  O   -0.034711   0.182887  -0.028895  -0.000075   0.003183   0.005269
    13  O    0.219666  -0.041340   0.003019   0.003216  -0.040749  -0.000044
    14  O   -0.036373   0.003189  -0.000114  -0.035172   0.195971   0.000003
    15  C    0.002478  -0.000266   0.001288   0.348566  -0.027236  -0.000126
    16  H   -0.000078   0.000014   0.000268  -0.035961   0.005257   0.000004
    17  H   -0.000127  -0.000059   0.000950  -0.034530  -0.011590  -0.000009
    18  O    0.000198  -0.000005  -0.000020  -0.044235   0.006396   0.000001
    19  C   -0.000242  -0.025083   0.002141  -0.000005  -0.000091   0.000220
    20  H   -0.000119   0.004891  -0.000158   0.000000   0.000001  -0.000029
    21  H    0.000255  -0.005876   0.000300  -0.000001  -0.000066   0.000037
    22  H   -0.000131  -0.007552   0.000482  -0.000002   0.000044  -0.000159
    23  C   -0.027664   0.002729  -0.000146  -0.000085  -0.000504   0.000003
    24  H    0.005183  -0.000194   0.000001   0.000002  -0.000181   0.000000
    25  H   -0.005598  -0.000132   0.000033  -0.000107   0.000963   0.000000
    26  H   -0.008855   0.001001  -0.000030   0.000046  -0.000216   0.000001
    27  C    0.000777  -0.000119   0.000004   0.001742  -0.027474   0.000000
    28  H   -0.000172   0.000040  -0.000002  -0.000365  -0.004927   0.000000
    29  H   -0.000151   0.000001   0.000000  -0.000155   0.005194   0.000000
    30  H    0.000671  -0.000068   0.000000   0.000046  -0.007671   0.000000
    31  C    0.000000   0.000000   0.000000   0.005172  -0.000015   0.000000
    32  H    0.000000   0.000000   0.000000  -0.000240   0.000005   0.000000
    33  H   -0.000001   0.000000   0.000000   0.000183  -0.000150   0.000000
    34  H    0.000000   0.000000   0.000000  -0.000235   0.000051   0.000000
               7          8          9         10         11         12
     1  C   -0.031858   0.357103  -0.003758  -0.042240   0.001343  -0.034711
     2  C    0.336875  -0.044234   0.000667  -0.003549  -0.028681   0.182887
     3  C   -0.035500  -0.002213  -0.000242   0.000597   0.384305  -0.028895
     4  C    0.001351  -0.000952   0.358215  -0.046796   0.107661  -0.000075
     5  C   -0.004891  -0.046555  -0.040374   0.352437  -0.021422   0.003183
     6  H    0.001371  -0.000011  -0.000131  -0.000010  -0.033806   0.005269
     7  H    0.508026   0.005661  -0.000006   0.004520  -0.000466  -0.025429
     8  H    0.005661   0.568947   0.001980   0.006032   0.000626   0.000169
     9  H   -0.000006   0.001980   0.479824   0.005060  -0.022468   0.000002
    10  H    0.004520   0.006032   0.005060   0.570342   0.001365  -0.000043
    11  O   -0.000466   0.000626  -0.022468   0.001365   7.952927   0.001404
    12  O   -0.025429   0.000169   0.000002  -0.000043   0.001404   8.244724
    13  O   -0.001140  -0.032478  -0.000048   0.000115   0.000033   0.002814
    14  O   -0.000036   0.000355   0.005909  -0.029478   0.001111  -0.000011
    15  C    0.000040  -0.000003  -0.032010  -0.003214  -0.031309  -0.000001
    16  H    0.000000   0.000004  -0.006417   0.000058   0.001980   0.000000
    17  H    0.000024   0.000002   0.005303   0.004135   0.001536   0.000000
    18  O   -0.000002  -0.000005   0.003878  -0.000519   0.000958   0.000000
    19  C   -0.006176  -0.000328   0.000000  -0.000012  -0.000042   0.225757
    20  H   -0.000081   0.000003   0.000000   0.000000   0.000001  -0.030021
    21  H    0.002612   0.000220   0.000000   0.000011   0.000005  -0.033479
    22  H    0.005859   0.000014   0.000000  -0.000001  -0.000016  -0.033961
    23  C   -0.000228  -0.006797  -0.000004  -0.000317   0.000002  -0.000575
    24  H   -0.000001   0.000006   0.000000   0.000005   0.000000  -0.000009
    25  H   -0.000001   0.002227   0.000007   0.000203  -0.000001   0.000021
    26  H    0.000106   0.006936   0.000000   0.000020  -0.000001   0.000937
    27  C   -0.000020  -0.000304  -0.000126  -0.006545  -0.000029   0.000000
    28  H    0.000000   0.000013   0.000050   0.004089  -0.000011   0.000000
    29  H    0.000000   0.000005  -0.000023  -0.000017   0.000001   0.000000
    30  H    0.000007   0.000149   0.000034   0.004644   0.000004   0.000000
    31  C    0.000000   0.000000  -0.000042  -0.000016  -0.000046   0.000000
    32  H    0.000000   0.000000   0.000002   0.000006   0.000000   0.000000
    33  H    0.000000   0.000000   0.000035   0.000002   0.000003   0.000000
    34  H    0.000000   0.000000  -0.000052   0.000000   0.000001   0.000000
              13         14         15         16         17         18
     1  C    0.219666  -0.036373   0.002478  -0.000078  -0.000127   0.000198
     2  C   -0.041340   0.003189  -0.000266   0.000014  -0.000059  -0.000005
     3  C    0.003019  -0.000114   0.001288   0.000268   0.000950  -0.000020
     4  C    0.003216  -0.035172   0.348566  -0.035961  -0.034530  -0.044235
     5  C   -0.040749   0.195971  -0.027236   0.005257  -0.011590   0.006396
     6  H   -0.000044   0.000003  -0.000126   0.000004  -0.000009   0.000001
     7  H   -0.001140  -0.000036   0.000040   0.000000   0.000024  -0.000002
     8  H   -0.032478   0.000355  -0.000003   0.000004   0.000002  -0.000005
     9  H   -0.000048   0.005909  -0.032010  -0.006417   0.005303   0.003878
    10  H    0.000115  -0.029478  -0.003214   0.000058   0.004135  -0.000519
    11  O    0.000033   0.001111  -0.031309   0.001980   0.001536   0.000958
    12  O    0.002814  -0.000011  -0.000001   0.000000   0.000000   0.000000
    13  O    8.236079   0.002361  -0.000037   0.000000  -0.000002   0.000000
    14  O    0.002361   8.244501  -0.000239  -0.000156   0.000142   0.000631
    15  C   -0.000037  -0.000239   4.863171   0.359470   0.352917   0.240705
    16  H    0.000000  -0.000156   0.359470   0.584157  -0.051410  -0.035486
    17  H   -0.000002   0.000142   0.352917  -0.051410   0.604537  -0.038645
    18  O    0.000000   0.000631   0.240705  -0.035486  -0.038645   8.191282
    19  C   -0.003276   0.000000   0.000000   0.000000   0.000000   0.000000
    20  H    0.000037   0.000000   0.000000   0.000000   0.000000   0.000000
    21  H    0.007996   0.000001   0.000000   0.000000   0.000000   0.000000
    22  H    0.000140   0.000000   0.000000   0.000000   0.000000   0.000000
    23  C    0.231051  -0.002285   0.000000   0.000000   0.000000   0.000000
    24  H   -0.031164   0.000037   0.000000   0.000000   0.000000   0.000000
    25  H   -0.034314   0.005884   0.000001   0.000000   0.000000   0.000000
    26  H   -0.034450   0.000101   0.000000   0.000000   0.000000   0.000000
    27  C   -0.001238   0.231840   0.000254  -0.000028   0.000146  -0.004815
    28  H    0.000070  -0.035986  -0.000217   0.000119  -0.000226   0.012015
    29  H    0.000002  -0.031483  -0.000006   0.000000  -0.000001   0.000040
    30  H    0.003356  -0.035096  -0.000067   0.000000  -0.000001   0.000171
    31  C    0.000000   0.000078  -0.039956  -0.005099  -0.004413   0.240200
    32  H    0.000000  -0.000003   0.005536  -0.000097  -0.000116  -0.031483
    33  H    0.000000   0.000002  -0.008397  -0.002148   0.011709  -0.035376
    34  H    0.000000  -0.000003  -0.007121   0.011178  -0.002311  -0.035486
              19         20         21         22         23         24
     1  C   -0.000242  -0.000119   0.000255  -0.000131  -0.027664   0.005183
     2  C   -0.025083   0.004891  -0.005876  -0.007552   0.002729  -0.000194
     3  C    0.002141  -0.000158   0.000300   0.000482  -0.000146   0.000001
     4  C   -0.000005   0.000000  -0.000001  -0.000002  -0.000085   0.000002
     5  C   -0.000091   0.000001  -0.000066   0.000044  -0.000504  -0.000181
     6  H    0.000220  -0.000029   0.000037  -0.000159   0.000003   0.000000
     7  H   -0.006176  -0.000081   0.002612   0.005859  -0.000228  -0.000001
     8  H   -0.000328   0.000003   0.000220   0.000014  -0.006797   0.000006
     9  H    0.000000   0.000000   0.000000   0.000000  -0.000004   0.000000
    10  H   -0.000012   0.000000   0.000011  -0.000001  -0.000317   0.000005
    11  O   -0.000042   0.000001   0.000005  -0.000016   0.000002   0.000000
    12  O    0.225757  -0.030021  -0.033479  -0.033961  -0.000575  -0.000009
    13  O   -0.003276   0.000037   0.007996   0.000140   0.231051  -0.031164
    14  O    0.000000   0.000000   0.000001   0.000000  -0.002285   0.000037
    15  C    0.000000   0.000000   0.000000   0.000000   0.000000   0.000000
    16  H    0.000000   0.000000   0.000000   0.000000   0.000000   0.000000
    17  H    0.000000   0.000000   0.000000   0.000000   0.000000   0.000000
    18  O    0.000000   0.000000   0.000000   0.000000   0.000000   0.000000
    19  C    4.917314   0.384847   0.367475   0.368378   0.000400   0.000027
    20  H    0.384847   0.505309  -0.026583  -0.028809   0.000001  -0.000002
    21  H    0.367475  -0.026583   0.545570  -0.039634  -0.000108  -0.000056
    22  H    0.368378  -0.028809  -0.039634   0.565582  -0.000009   0.000000
    23  C    0.000400   0.000001  -0.000108  -0.000009   4.908308   0.384096
    24  H    0.000027  -0.000002  -0.000056   0.000000   0.384096   0.520117
    25  H   -0.000011   0.000000   0.000051   0.000000   0.367226  -0.028991
    26  H    0.000102  -0.000008  -0.000395   0.000004   0.368830  -0.028995
    27  C    0.000000   0.000000   0.000000   0.000000   0.000537   0.000009
    28  H    0.000000   0.000000   0.000000   0.000000  -0.000013   0.000001
    29  H    0.000000   0.000000   0.000000   0.000000   0.000031  -0.000005
    30  H    0.000000   0.000000   0.000000   0.000000   0.000134  -0.000021
    31  C    0.000000   0.000000   0.000000   0.000000   0.000000   0.000000
    32  H    0.000000   0.000000   0.000000   0.000000   0.000000   0.000000
    33  H    0.000000   0.000000   0.000000   0.000000   0.000000   0.000000
    34  H    0.000000   0.000000   0.000000   0.000000   0.000000   0.000000
              25         26         27         28         29         30
     1  C   -0.005598  -0.008855   0.000777  -0.000172  -0.000151   0.000671
     2  C   -0.000132   0.001001  -0.000119   0.000040   0.000001  -0.000068
     3  C    0.000033  -0.000030   0.000004  -0.000002   0.000000   0.000000
     4  C   -0.000107   0.000046   0.001742  -0.000365  -0.000155   0.000046
     5  C    0.000963  -0.000216  -0.027474  -0.004927   0.005194  -0.007671
     6  H    0.000000   0.000001   0.000000   0.000000   0.000000   0.000000
     7  H   -0.000001   0.000106  -0.000020   0.000000   0.000000   0.000007
     8  H    0.002227   0.006936  -0.000304   0.000013   0.000005   0.000149
     9  H    0.000007   0.000000  -0.000126   0.000050  -0.000023   0.000034
    10  H    0.000203   0.000020  -0.006545   0.004089  -0.000017   0.004644
    11  O   -0.000001  -0.000001  -0.000029  -0.000011   0.000001   0.000004
    12  O    0.000021   0.000937   0.000000   0.000000   0.000000   0.000000
    13  O   -0.034314  -0.034450  -0.001238   0.000070   0.000002   0.003356
    14  O    0.005884   0.000101   0.231840  -0.035986  -0.031483  -0.035096
    15  C    0.000001   0.000000   0.000254  -0.000217  -0.000006  -0.000067
    16  H    0.000000   0.000000  -0.000028   0.000119   0.000000   0.000000
    17  H    0.000000   0.000000   0.000146  -0.000226  -0.000001  -0.000001
    18  O    0.000000   0.000000  -0.004815   0.012015   0.000040   0.000171
    19  C   -0.000011   0.000102   0.000000   0.000000   0.000000   0.000000
    20  H    0.000000  -0.000008   0.000000   0.000000   0.000000   0.000000
    21  H    0.000051  -0.000395   0.000000   0.000000   0.000000   0.000000
    22  H    0.000000   0.000004   0.000000   0.000000   0.000000   0.000000
    23  C    0.367226   0.368830   0.000537  -0.000013   0.000031   0.000134
    24  H   -0.028991  -0.028995   0.000009   0.000001  -0.000005  -0.000021
    25  H    0.564105  -0.041743   0.000010   0.000056  -0.000045  -0.000873
    26  H   -0.041743   0.571024  -0.000009   0.000000   0.000000   0.000032
    27  C    0.000010  -0.000009   4.917772   0.361243   0.384435   0.366114
    28  H    0.000056   0.000000   0.361243   0.564802  -0.028120  -0.041611
    29  H   -0.000045   0.000000   0.384435  -0.028120   0.523036  -0.030091
    30  H   -0.000873   0.000032   0.366114  -0.041611  -0.030091   0.578379
    31  C    0.000000   0.000000   0.000129  -0.000329  -0.000005  -0.000003
    32  H    0.000000   0.000000   0.000046  -0.000007   0.000002  -0.000002
    33  H    0.000000   0.000000   0.000051  -0.000125  -0.000001   0.000000
    34  H    0.000000   0.000000  -0.000010   0.000095   0.000000   0.000000
              31         32         33         34
     1  C    0.000000   0.000000  -0.000001   0.000000
     2  C    0.000000   0.000000   0.000000   0.000000
     3  C    0.000000   0.000000   0.000000   0.000000
     4  C    0.005172  -0.000240   0.000183  -0.000235
     5  C   -0.000015   0.000005  -0.000150   0.000051
     6  H    0.000000   0.000000   0.000000   0.000000
     7  H    0.000000   0.000000   0.000000   0.000000
     8  H    0.000000   0.000000   0.000000   0.000000
     9  H   -0.000042   0.000002   0.000035  -0.000052
    10  H   -0.000016   0.000006   0.000002   0.000000
    11  O   -0.000046   0.000000   0.000003   0.000001
    12  O    0.000000   0.000000   0.000000   0.000000
    13  O    0.000000   0.000000   0.000000   0.000000
    14  O    0.000078  -0.000003   0.000002  -0.000003
    15  C   -0.039956   0.005536  -0.008397  -0.007121
    16  H   -0.005099  -0.000097  -0.002148   0.011178
    17  H   -0.004413  -0.000116   0.011709  -0.002311
    18  O    0.240200  -0.031483  -0.035376  -0.035486
    19  C    0.000000   0.000000   0.000000   0.000000
    20  H    0.000000   0.000000   0.000000   0.000000
    21  H    0.000000   0.000000   0.000000   0.000000
    22  H    0.000000   0.000000   0.000000   0.000000
    23  C    0.000000   0.000000   0.000000   0.000000
    24  H    0.000000   0.000000   0.000000   0.000000
    25  H    0.000000   0.000000   0.000000   0.000000
    26  H    0.000000   0.000000   0.000000   0.000000
    27  C    0.000129   0.000046   0.000051  -0.000010
    28  H   -0.000329  -0.000007  -0.000125   0.000095
    29  H   -0.000005   0.000002  -0.000001   0.000000
    30  H   -0.000003  -0.000002   0.000000   0.000000
    31  C    4.894800   0.386174   0.367187   0.368398
[...]
 012873,0.00006930,-0.00005407,0.00001750,0.00000236,0.00001002,-0.0000
 0189,0.00033327,-0.00021211,-0.00007811,0.00011342,-0.00004170,-0.0001
 5422,-0.00002891,0.00000022,0.00001794,0.00000554,0.00000992,0.0000152
 1,-0.00001327,-0.00000600,0.00003029,0.00007767,-0.00017338,0.00015568
 ,-0.00002925,0.00003497,-0.00000640,0.00004242,-0.00002300,-0.00001565
 ,-0.00001441,0.00001042,-0.00002997,-0.05816673,-0.20194729,0.11910252
 ,-0.00398370,-0.00835639,0.00871666,0.07232709,0.22613160,0.00012679,-
 0.00087807,0.00040114,-0.00014706,0.00011324,-0.00001817,0.00014179,0.
 00010926,-0.00000708,-0.00062331,0.00014860,0.00065850,-0.00206666,-0.
 00406454,-0.00179641,-0.00003101,0.00001316,-0.00003102,-0.00001136,0.
 00002858,-0.00000898,0.00009023,0.00002532,-0.00001840,-0.00005050,0.0
 0000959,-0.00003162,-0.00008734,-0.00030249,0.00036948,-0.00003142,-0.
 00057142,-0.00012645,-0.00016295,-0.00011332,0.00004089,0.00018111,0.0
 0024764,0.00012153,-0.01044355,-0.02365247,0.01259045,-0.00015389,-0.0
 0014765,-0.00011043,0.00004336,0.00002529,0.00002252,0.00001924,-0.000
 00423,0.00000131,-0.00011082,0.00032232,0.00014669,0.00004072,-0.00002
 859,-0.00007439,-0.00001120,0.00000260,0.00001181,-0.00000191,0.000007
 93,0.00000951,-0.00000594,-0.00000195,0.00001181,-0.00005773,0.0000760
 9,-0.00005107,-0.00000313,0.00001234,-0.00001049,-0.00003953,0.0000033
 7,0.00000718,-0.00000277,-0.00001197,0.00001703,0.05231990,0.13052474,
 -0.15055331,0.00549000,0.00891353,-0.00653293,-0.04902683,-0.12693593,
 0.15523006,0.00063018,-0.00000205,-0.00063646,0.00006892,-0.00000596,0
 .00001571,0.00018345,-0.00005903,-0.00007004,0.00007407,-0.00003831,0.
 00004632,0.00179782,0.00075981,-0.00130853,-0.00001213,0.00000507,0.00
 001901,-0.00000040,-0.00001233,-0.00000461,-0.00011917,0.00003601,0.00
 003987,-0.00011114,-0.00011196,0.00009103,-0.00007254,0.00039455,0.000
 13029,-0.00015257,-0.00024404,0.00007070,0.00006489,0.00007413,-0.0000
 2732,-0.00003017,0.00055451,0.00018206,0.01309229,-0.01052795,-0.01634
 629,-0.00038073,-0.00022629,0.00002859,0.00007337,0.00007751,0.0000112
 4,0.00004990,0.00003623,-0.00002742,-0.00013550,0.00086334,0.00009940,
 -0.00002689,0.00000862,0.00003985,0.00000485,0.00000029,-0.00000377,-0
 .00001121,-0.00000890,0.00000583,0.00000336,0.00000401,-0.00000567,-0.
 00023945,0.00013940,-0.00022074,0.00000329,-0.00002423,-0.00002719,-0.
 00002395,0.00002695,-0.00001342,0.00005488,-0.00004410,0.00003029,-0.1
 7990147,0.05720363,0.12099345,-0.01478879,0.00587074,0.01763227,-0.005
 11787,0.00330524,0.00450934,0.18477980,0.00036948,-0.00052360,-0.00041
 517,-0.00000486,0.00019227,0.00001781,0.00041519,-0.00007488,-0.000170
 94,0.00025469,0.00014108,0.00056692,0.00295004,0.00345459,-0.00357912,
 -0.00004275,0.00001111,0.00002573,-0.00000990,-0.00003296,0.00000090,0
 .00004431,0.00005160,0.00009477,-0.00023264,0.00004532,0.00017998,-0.0
 0005355,-0.00054965,0.00080850,-0.00049630,-0.00070975,0.00009381,-0.0
 0011557,-0.00003087,0.00003060,0.00046610,0.00030481,0.00048376,0.0049
 1184,-0.01710011,-0.02428281,0.00015832,0.00016142,-0.00011264,0.00000
 680,-0.00006255,0.00000870,0.00000133,-0.00003618,0.00003161,0.0002116
 0,-0.00038363,0.00000316,0.00003351,-0.00001550,-0.00005309,-0.0000058
 3,0.00000385,0.00000773,-0.00001654,0.00000442,0.00001403,-0.00000042,
 -0.00000107,0.00000834,-0.00015135,0.00029622,-0.00024969,-0.00001123,
 -0.00000395,0.00000849,0.00002089,-0.00013114,0.00002616,0.00002371,-0
 .00005684,0.00005505,0.05532823,-0.07636358,-0.04510198,0.01118456,-0.
 00215291,-0.00922285,-0.01701245,0.01080635,0.01611053,-0.05804863,0.0
 8277036,0.00031184,-0.00114458,-0.00002669,-0.00007920,0.00023968,-0.0
 0002332,0.00037874,0.00005485,-0.00012518,-0.00007648,0.00013991,0.000
 20282,0.00107075,0.00413989,-0.00132246,-0.00004197,0.00001296,0.00001
 776,-0.00000377,-0.00000130,-0.00001632,0.00006094,0.00004185,0.000065
 60,-0.00015884,0.00021486,0.00011902,-0.00016590,-0.00031870,0.0008359
 8,-0.00034541,-0.00079685,0.00005745,-0.00030073,-0.00011754,0.0000556
 2,0.00048078,0.00081476,0.00028792,0.00459668,-0.01909884,-0.02085908,
 -0.00035706,-0.00003673,-0.00011629,0.00010057,0.00001459,0.00002329,0
 .00004965,0.00001090,0.00000933,0.00014406,0.00047794,0.00017260,0.000
 07954,-0.00003944,-0.00011780,-0.00001924,0.00000304,0.00001454,-0.000
 01197,0.00000683,0.00002515,-0.00000732,0.00000075,0.00002126,-0.00036
 903,-0.00004832,-0.00005037,-0.00006051,0.00001565,0.00001145,0.000057
 29,-0.00006765,-0.00015152,0.00006742,0.00005810,-0.00002313,0.1158097
 1,-0.04876960,-0.16148416,-0.00927412,0.00505247,0.01233929,0.01335170
 ,-0.00552374,-0.01030393,-0.12535188,0.06467888,0.18034674,-0.00074337
 ,0.00023100,-0.00001490,-0.00040339,-0.00038526,-0.00017968,-0.0015832
 2,0.00036869,0.00053365,-0.00423337,-0.00277291,-0.00070059,-0.0005938
 7,0.00061361,0.00043514,0.00016341,-0.00001294,-0.00013747,0.00004862,
 -0.00004990,0.00008048,0.00009830,0.00000911,0.00002661,-0.00011211,0.
 00026741,-0.00024736,-0.00018438,0.00014442,0.00008304,0.00314837,0.00
 088662,-0.00010692,0.00066848,0.00010862,-0.00012513,0.00069849,-0.000
 64962,-0.00006627,0.00070215,-0.00084840,-0.00023168,-0.04465614,-0.00
 503546,-0.01463161,0.00580419,0.00438515,0.00086652,0.00460046,0.00412
 981,-0.00178405,-0.17649911,0.00972665,-0.05310751,-0.00025584,-0.0000
 1738,0.00029962,0.00005880,0.00000207,-0.00002449,0.00001592,-0.000001
 53,-0.00003339,0.00000875,0.00001977,-0.00005913,-0.00020307,0.0003621
 0,-0.00028902,0.00004435,-0.00006847,0.00000689,-0.00002832,0.00000068
 ,0.00002473,0.00004769,-0.00002483,0.00006224,-0.00046360,0.00056857,-
 0.00029532,0.00010893,0.00116169,0.00059379,0.00015392,-0.00023281,0.0
 0014588,0.00028882,-0.00026524,0.00003636,0.50171293,0.00010618,-0.000
 29377,0.00012548,0.00025996,0.00032865,0.00009996,0.00082731,-0.000700
 80,-0.00053776,-0.00148020,-0.00432352,0.00116456,-0.00038381,-0.00061
 122,-0.00016939,-0.00009585,-0.00003585,0.00030367,-0.00007066,0.00001
 810,-0.00004148,0.00001574,0.00000550,-0.00000663,0.00013726,-0.000141
 15,-0.00011291,0.00001826,0.00005586,0.00006996,-0.00363692,-0.0000467
 2,-0.00088873,-0.00029793,-0.00003039,0.00004782,-0.00023674,0.0003072
 6,0.00006678,0.00051139,-0.00005317,-0.00019090,-0.03208923,0.00091768
 ,-0.01581754,-0.00386997,0.00074668,-0.00053758,-0.00118005,-0.0001906
 2,-0.00035430,0.04790946,-0.09198742,0.03360757,0.00012149,0.00003392,
 -0.00014366,-0.00002742,-0.00000079,0.00001154,-0.00001866,-0.00000460
 ,0.00001883,0.00000048,-0.00001016,0.00002733,0.00007471,-0.00012566,0
 .00010312,-0.00001254,0.00002672,-0.00000571,-0.00000310,0.00001763,-0
 .00001904,-0.00001456,0.00001088,-0.00002214,0.00020526,0.00012519,0.0
 0022209,0.00037423,-0.00007695,-0.00000159,0.00001754,0.00001196,0.000
 01541,-0.00005641,0.00002275,-0.00000459,0.04947073,0.60958288,-0.0004
 8305,0.00020162,-0.00002132,-0.00028499,-0.00033981,-0.00004416,-0.001
 21262,0.00038432,0.00062777,-0.00078242,0.00039323,-0.00218729,-0.0004
 3325,0.00055317,0.00030640,0.00008121,0.00002847,-0.00025095,0.0000518
 9,-0.00002011,0.00004038,0.00005805,0.00000119,0.00001336,-0.00009571,
 -0.00008887,0.00018415,-0.00013482,0.00006533,0.00005615,0.00263605,0.
 00055733,0.00090372,0.00044058,0.00006018,-0.00011431,0.00044730,-0.00
 044473,-0.00008333,0.00024049,-0.00061537,-0.00016537,-0.00278973,-0.0
 0397348,-0.00377798,-0.00001088,0.00262189,0.00044442,0.00518364,0.002
 19884,0.00252289,-0.06925941,0.01705799,-0.09910199,-0.00017448,-0.000
 02040,0.00022017,0.00003724,0.00000107,-0.00002015,0.00001691,-0.00000
 426,-0.00002233,0.00000552,0.00001805,-0.00003971,-0.00011606,0.000214
 61,-0.00016867,0.00002977,-0.00004658,0.00000683,-0.00001294,-0.000002
 14,0.00001781,0.00002543,-0.00001693,0.00003444,-0.00004783,0.00031326
 ,0.00005106,0.00016007,0.00047172,0.00034328,0.00004484,-0.00010716,0.
 00004715,0.00016614,-0.00013851,0.00001336,-0.05200596,0.00538599,0.54
 894558,0.00010080,-0.00010600,0.00003491,0.00011990,0.00014258,0.00004
 045,0.00044442,-0.00026603,-0.00027199,0.00012546,-0.00133645,0.000601
 22,-0.00002706,-0.00033790,-0.00007628,-0.00004354,-0.00000839,0.00011
 286,-0.00002464,0.00000554,-0.00001811,-0.00000700,0.00000151,-0.00000
 479,0.00000809,-0.00002482,-0.00004072,0.00001661,0.00000191,0.0000019
 6,-0.00140955,-0.00005313,-0.00028545,-0.00014563,-0.00001123,0.000025
 49,-0.00013646,0.00016955,0.00002926,0.00013936,0.00030652,0.00006394,
 -0.00359632,0.00339161,-0.00308920,-0.00002815,-0.00033943,-0.00022487
 ,-0.00005857,0.00003091,0.00018543,-0.02906365,-0.02468780,-0.00139509
 ,0.00005823,0.00001015,-0.00006795,-0.00001311,-0.00000058,0.00000562,
 -0.00000790,-0.00000074,0.00000909,-0.00000042,-0.00000463,0.00001245,
 0.00003318,-0.00007629,0.00006097,-0.00000882,0.00001484,-0.00000328,0
 .00000152,0.00000701,-0.00001196,-0.00000678,0.00000735,-0.00001171,-0
 .00015859,-0.00008915,-0.00018438,0.00001689,-0.00008723,0.00004919,-0
 .00000238,0.00003544,-0.00000054,0.00002952,0.00000800,0.00003208,-0.1
 3489696,-0.12124791,0.01973426,0.15918805,0.00004915,0.00001993,0.0000
 1036,0.00000425,0.00000564,0.00000434,0.00005942,0.00004586,0.00001013
 ,0.00011384,0.00049770,-0.00000069,-0.00006207,-0.00001681,-0.00005349
 ,-0.00000188,0.00000650,-0.00003110,0.00000378,-0.00000072,-0.00000219
 ,-0.00000448,-0.00000212,-0.00000230,-0.00004280,0.00000859,-0.0000013
 8,0.00000725,-0.00000431,-0.00000340,0.00017958,-0.00001171,0.00014402
 ,-0.00001822,-0.00000587,0.00000106,-0.00004427,0.00002838,0.00000208,
 -0.00001535,0.00002922,-0.00000848,0.00254101,0.00161260,0.00053765,0.
 00019585,0.00025461,0.00020110,0.00006378,-0.00006526,0.00002317,0.006
 28950,0.00983047,-0.00170351,0.00000592,-0.00000244,-0.00000436,-0.000
 00156,-0.00000028,0.00000006,0.00000094,0.00000020,0.00000034,-0.00000
 061,-0.00000027,0.00000116,0.00000851,-0.00002060,0.00001567,-0.000001
 86,0.00000290,-0.00000036,0.00000224,0.00000018,-0.00000101,-0.0000028
 9,0.00000147,-0.00000346,0.00001061,-0.00001326,0.00006021,-0.00004444
 ,-0.00002821,-0.00006618,-0.00000305,0.00001080,-0.00000645,-0.0000113
 3,0.00001533,-0.00000854,-0.13226275,-0.23763101,0.02672674,0.13858757
 ,0.24599436,0.00003665,-0.00003504,0.00002707,0.00004272,0.00005847,0.
 00001223,0.00016252,-0.00011772,-0.00010537,-0.00019412,-0.00056675,0.
 00071589,-0.00004847,-0.00008949,-0.00008497,-0.00001929,-0.00000689,0
 .00005445,-0.00001184,0.00000361,-0.00000688,-0.00000128,-0.00000027,-
 0.00000222,0.00009009,-0.00004627,0.00001376,0.00000167,0.00000872,0.0
 0000268,-0.00066787,-0.00004642,-0.00017782,-0.00005362,-0.00000707,0.
 00000938,-0.00005464,0.00006067,0.00000850,0.00002684,0.00004755,-0.00
 002421,-0.00275453,0.00088619,-0.00123487,0.00012636,0.00020240,-0.000
 00090,-0.00044410,-0.00025344,0.00031008,-0.01523905,-0.01465926,0.000
 43193,0.00002078,0.00000586,-0.00002536,-0.00000498,-0.00000031,0.0000
 0230,-0.00000286,-0.00000080,0.00000314,-0.00000018,-0.00000175,0.0000
 0478,0.00001385,-0.00002810,0.00002420,-0.00000213,0.00000531,-0.00000
 157,0.00000076,0.00000311,-0.00000304,-0.00000362,0.00000186,-0.000004
 77,0.00002330,-0.00002298,0.00002107,0.00000290,0.00000203,0.00000060,
 -0.00000640,0.00001781,-0.00000217,-0.00000293,0.00001030,-0.00000173,
 0.02469169,0.03134000,-0.05660969,-0.01501749,-0.03015588,0.05494858,0
 .00005518,-0.00002274,0.00001934,0.00003090,0.00003662,0.00002119,0.00
 012853,-0.00008843,-0.00007360,0.00057503,0.00021311,0.00006100,0.0001
 0613,-0.00003007,-0.00011716,-0.00002735,0.00000662,0.00000732,-0.0000
 0962,0.00000389,-0.00000627,-0.00000142,-0.00000193,-0.00000060,0.0000
 3429,-0.00013909,0.00017179,-0.00000186,0.00000584,0.00000718,-0.00049
 231,-0.00009480,0.00011596,-0.00005318,-0.00000714,0.00001076,-0.00005
 709,0.00005246,0.00000589,-0.00013356,0.00014736,0.00007472,0.00514683
 ,0.00464185,-0.00367969,-0.00067605,-0.00046620,0.00024245,0.00045691,
 -0.00013220,0.00183259,-0.00856892,0.00687089,-0.04002283,0.00002049,0
 .00000160,-0.00002470,-0.00000478,-0.00000013,0.00000227,-0.00000185,0
 .00000030,0.00000278,-0.00000054,-0.00000179,0.00000451,0.00001595,-0.
 00002790,0.00002264,-0.00000391,0.00000542,-0.00000067,0.00000266,-0.0
 0000069,-0.00000165,-0.00000380,0.00000191,-0.00000446,-0.00001722,-0.
 00011870,-0.00003007,0.00000649,-0.00005941,-0.00007039,-0.00000449,0.
 00001849,-0.00000446,-0.00001544,0.00002507,0.00000365,-0.06222476,-0.
 01091798,0.05234782,-0.00136563,-0.00130930,0.01799655,0.06716775,-0.0
 0005486,0.00003087,-0.00002223,-0.00004212,-0.00004338,-0.00001879,-0.
 00017827,0.00006346,0.00007540,-0.00029901,-0.00003715,-0.00016610,-0.
 00002122,0.00008198,0.00009732,0.00001382,-0.00000208,-0.00002026,0.00
 000747,-0.00000099,0.00000680,-0.00000064,0.,0.00000083,-0.00005893,-0
 .00001291,-0.00000699,-0.00000465,0.00001788,-0.00001449,0.00031135,0.
 00002045,-0.00000813,0.00005787,0.00000407,-0.00001226,0.00006163,-0.0
 0006526,-0.00001612,0.00001619,-0.00013827,-0.00007190,-0.00063606,-0.
 00024644,-0.00208985,0.00025836,0.00009470,-0.00004986,0.00086719,0.00
 061143,0.00026126,0.00335954,-0.00005352,0.01140992,-0.00002380,-0.000
 00083,0.00002797,0.00000495,0.,-0.00000250,0.00000287,-0.00000091,-0.0
 0000316,0.00000038,0.00000243,-0.00000472,-0.00001387,0.00002896,-0.00
 002170,0.00000490,-0.00000641,0.00000116,-0.00000126,-0.00000070,0.000
 00380,0.00000277,-0.00000319,0.00000414,0.00008391,0.00007831,0.000069
 62,-0.00000389,0.00003321,0.00005241,-0.00001600,-0.00000159,-0.000008
 34,0.00001426,-0.00001548,-0.00000767,-0.00883744,-0.06160215,0.038804
 80,-0.00456733,-0.00237806,0.02578478,0.00487202,0.05771187,0.00009865
 ,-0.00003622,0.00000959,0.00005974,0.00007362,0.00001844,0.00026897,-0
 .00010884,-0.00014094,0.00042381,-0.00009491,0.00073679,0.00011926,-0.
 00008363,-0.00014168,-0.00003060,0.00000170,0.00003593,-0.00001460,0.0
 0000598,-0.00000902,-0.00000840,-0.00000218,-0.00000144,0.00025877,-0.
 00005379,0.00012033,0.00001288,-0.00001099,0.00000641,-0.00071264,-0.0
 0011463,-0.00004490,-0.00009919,-0.00001602,0.00002923,-0.00010207,0.0
 0009399,0.00002189,-0.00014519,0.00017833,0.00011908,0.00279593,0.0027
 2353,0.00109271,-0.00002767,-0.00051286,-0.00029699,-0.00158155,-0.001
 10737,-0.00010395,-0.01441967,0.00573137,-0.01668569,0.00004025,0.0000
 0416,-0.00005260,-0.00000818,-0.00000010,0.00000497,-0.00000355,0.0000
 0156,0.00000478,-0.00000148,-0.00000453,0.00000942,0.00002728,-0.00004
 453,0.00003383,-0.00000766,0.00001056,-0.00000082,0.00000281,-0.000001
 81,-0.00000310,-0.00000546,0.00000380,-0.00000739,0.00001296,-0.000119
 20,-0.00004750,-0.00001730,-0.00014301,-0.00008654,-0.00000396,0.00001
 841,-0.00000701,-0.00004380,0.00003927,0.00000445,0.04841851,0.0392000
 8,-0.28654939,0.00172279,0.00002429,-0.00105649,-0.04159923,-0.0480398
 2,0.31551684,0.00013771,-0.00005006,-0.00003988,0.00006428,0.00006186,
 0.00000227,0.00021440,-0.00008057,-0.00012325,0.00076431,-0.00003837,0
 .00027507,0.00039714,-0.00002235,0.00003511,-0.00002624,0.00000119,0.0
 0004212,-0.00000045,0.00000708,-0.00000991,-0.00003017,-0.00000109,-0.
 00000579,0.00002797,-0.00000209,0.00003026,0.00004228,-0.00004150,-0.0
 0004444,-0.00058156,-0.00016510,-0.00010215,-0.00010745,-0.00002150,0.
 00002261,-0.00010278,0.00009212,0.00000256,-0.00027293,0.00020519,0.00
 009344,0.00358210,0.00653616,0.00118935,0.00023207,-0.00150355,-0.0004
 3991,-0.00055705,-0.00056841,0.00015420,-0.03075461,0.02628070,0.00253
 308,0.00003943,0.00000195,-0.00004757,-0.00000946,-0.00000025,0.000004
 16,-0.00000173,0.00000039,0.00000504,-0.00000174,-0.00000287,0.0000096
 4,0.00003565,-0.00005709,0.00004599,-0.00000690,0.00001053,-0.00000077
 ,0.00000665,-0.00000237,-0.00000133,-0.00000830,0.00000239,-0.00000948
 ,0.00003909,-0.00014327,0.00000955,-0.00004963,-0.00025655,-0.00016487
 ,-0.00003351,0.00004861,-0.00003445,-0.00006000,0.00005357,-0.00000833
 ,-0.09129104,0.07558995,0.04613693,0.01071914,-0.01429636,-0.00870730,
 -0.00008339,0.00481989,0.00456959,0.10767670,-0.00009452,0.00006581,-0
 .00000525,-0.00005830,-0.00005797,-0.00002834,-0.00022304,0.00006850,0
 .00009840,-0.00041396,0.00025012,-0.00009107,-0.00028092,0.00001530,0.
 00003074,0.00002382,-0.00000166,-0.00003299,0.00000929,-0.00000971,0.0
 0001204,0.00001259,-0.00000034,0.00000265,-0.00000275,0.00001191,-0.00
 001477,-0.00003554,0.00000626,0.00001233,0.00053117,0.00006244,0.00004
 936,0.00009726,0.00001804,-0.00001477,0.00008395,-0.00008139,-0.000002
 93,0.00018143,-0.00013373,0.00000503,-0.00299381,0.00146363,0.00139093
 ,0.00202470,0.00068842,-0.00001281,0.00025919,0.00006599,-0.00028051,0
 .01135052,-0.00408087,0.00304905,-0.00003599,-0.00000420,0.00004175,0.
 00000894,0.00000030,-0.00000338,0.00000236,0.00000066,-0.00000499,0.00
 000102,0.00000240,-0.00000857,-0.00003250,0.00004709,-0.00003871,0.000
 00516,-0.00000867,0.00000071,-0.00000394,0.00000053,0.00000094,0.00000
 803,-0.00000202,0.00000856,-0.00008830,0.00009709,-0.00004229,0.000008
 53,0.00015025,0.00010230,0.00001876,-0.00002998,0.00001789,0.00004721,
 -0.00003681,0.00000615,0.07900823,-0.21434570,-0.09024143,0.01052456,-
 0.01818380,-0.01240022,-0.00348492,0.00582969,0.00238380,-0.09645824,0
 .22813241,0.00005986,0.00000198,-0.00000649,0.00001926,0.00002282,0.00
 000090,0.00009024,-0.00002365,-0.00004251,0.00030094,0.00030635,0.0001
 9094,0.00002731,-0.00002621,-0.00005585,-0.00000607,0.00000065,0.00000
 959,-0.00000321,0.00000009,-0.00000204,-0.00000901,-0.00000140,-0.0000
 0198,-0.00001723,0.00001072,-0.00000336,0.00000565,-0.00001868,-0.0000
 1218,-0.00010886,-0.00006449,-0.00002792,-0.00003202,-0.00000317,0.000
 01067,-0.00004775,0.00004202,0.00000939,-0.00008053,0.00010228,0.00006
 782,0.00121385,0.00275812,0.00095211,0.00107095,-0.00055904,-0.0001856
 2,-0.00024566,-0.00044655,-0.00043932,-0.01516663,0.01672132,0.0094125
 0,0.00001268,-0.00000188,-0.00001632,-0.00000254,-0.00000006,0.0000019
 2,-0.00000107,0.00000146,0.00000120,-0.00000068,-0.00000182,0.00000236
 ,0.00000802,-0.00002120,0.00001669,-0.00000364,0.00000454,-0.00000114,
 0.00000256,-0.00000062,-0.00000178,-0.00000200,0.00000184,-0.00000244,
 -0.00001814,-0.00006606,-0.00003746,-0.00002065,-0.00010536,-0.0000538
 2,-0.00000531,0.00001501,-0.00000320,-0.00002134,0.00002176,-0.0000016
 7,0.04773531,-0.09295625,-0.10562228,-0.00201814,0.00429040,0.00275144
 ,0.01268538,-0.02601534,-0.01252922,-0.04542154,0.09601040,0.10561907\
 \-0.00000456,0.00000168,-0.00000518,0.00000510,0.00000805,0.00001543,0
 .00000620,-0.00001057,-0.00001175,-0.00000678,-0.00000779,-0.00001038,
 -0.00000636,0.00000647,0.00001091,0.00000648,-0.00000218,-0.00000304,-
 0.00000123,-0.00000554,-0.00000100,-0.00000160,0.00000046,0.00000071,0
 .00000167,0.00001023,-0.00000234,0.00000177,-0.00000151,-0.00000189,0.
 00000744,0.00000616,-0.00000696,-0.00000020,-0.00000191,-0.00000433,-0
 .00001005,-0.00000809,0.00000538,0.00000062,0.00000362,-0.00000094,0.0
 0001268,0.00000463,0.00000377,-0.00000076,0.00000457,-0.00001218,0.000
 00436,0.00000306,-0.00000561,-0.00000062,0.00000605,-0.00000768,0.0000
 0302,-0.00001211,0.00000156,0.00000282,-0.00000922,-0.00000032,0.00000
 172,-0.00000828,0.00000328,0.00000494,-0.00000908,-0.00000142,-0.00000
 041,-0.00000249,0.00000749,-0.00000510,-0.00000485,0.00001037,-0.00000
 517,0.00000029,0.00000744,-0.00000419,-0.00000300,0.00000616,-0.000009
 64,0.00000396,0.00000236,-0.00000072,0.00000153,0.00000520,-0.00000333
 ,0.00000290,0.00000543,-0.00000341,-0.00000185,0.00000685,-0.00000052,
 0.00000559,-0.00000108,0.00000027,0.00000865,-0.00000340,0.00000223,0.
 00000291,-0.00000522,0.00000333,0.00000767,-0.00000766\\\@


 IF GOD HAD MEANT MAN TO SEE THE SUN RISE, HE
 WOULD HAVE SCHEDULED IT FOR A LATER HOUR.
 Job cpu time:       0 days  2 hours 58 minutes  3.8 seconds.
 Elapsed time:       0 days  0 hours 44 minutes 36.5 seconds.
 File lengths (MBytes):  RWF=    383 Int=      0 D2E=      0 Chk=     17 Scr=      1
 Normal termination of Gaussian 16 at Fri May 24 09:33:50 2019.
