 Entering Gaussian System, Link 0=g16
 Input=clay-glucose_cation-040-b3lyp_d3bj-631gd-pcm_thf.gjf
 Output=clay-glucose_cation-040-b3lyp_d3bj-631gd-pcm_thf.out
 Initial command:
 /n/sw/g16_nehalem/g16/l1.exe "/scratch/Gau-2593.inp" -scrdir="/scratch/"
 Entering Link 1 = /n/sw/g16_nehalem/g16/l1.exe PID=      2594.
  
 Copyright (c) 1988,1990,1992,1993,1995,1998,2003,2009,2016,
            Gaussian, Inc.  All Rights Reserved.
  
 This is part of the Gaussian(R) 16 program.  It is based on
 the Gaussian(R) 09 system (copyright 2009, Gaussian, Inc.),
 the Gaussian(R) 03 system (copyright 2003, Gaussian, Inc.),
 the Gaussian(R) 98 system (copyright 1998, Gaussian, Inc.),
 the Gaussian(R) 94 system (copyright 1995, Gaussian, Inc.),
 the Gaussian 92(TM) system (copyright 1992, Gaussian, Inc.),
 the Gaussian 90(TM) system (copyright 1990, Gaussian, Inc.),
 the Gaussian 88(TM) system (copyright 1988, Gaussian, Inc.),
 the Gaussian 86(TM) system (copyright 1986, Carnegie Mellon
 University), and the Gaussian 82(TM) system (copyright 1983,
 Carnegie Mellon University). Gaussian is a federally registered
 trademark of Gaussian, Inc.
  
 This software contains proprietary and confidential information,
 including trade secrets, belonging to Gaussian, Inc.
  
 This software is provided under written license and may be
 used, copied, transmitted, or stored only in accord with that
 written license.
  
 The following legend is applicable only to US Government
 contracts under FAR:
  
                    RESTRICTED RIGHTS LEGEND
  
 Use, reproduction and disclosure by the US Government is
 subject to restrictions as set forth in subparagraphs (a)
 and (c) of the Commercial Computer Software - Restricted
 Rights clause in FAR 52.227-19.
  
 Gaussian, Inc.
 340 Quinnipiac St., Bldg. 40, Wallingford CT 06492
  
  
 ---------------------------------------------------------------
 Warning -- This program may not be used in any manner that
 competes with the business of Gaussian, Inc. or will provide
 assistance to any competitor of Gaussian, Inc.  The licensee
 of this program is prohibited from giving any competitor of
 Gaussian, Inc. access to this program.  By using this program,
 the user acknowledges that Gaussian, Inc. is engaged in the
 business of creating and licensing software in the field of
 computational chemistry and represents and warrants to the
 licensee that it is not a competitor of Gaussian, Inc. and that
 it will not use this program in any manner prohibited above.
 ---------------------------------------------------------------
  

 Cite this work as:
 Gaussian 16, Revision A.03,
 M. J. Frisch, G. W. Trucks, H. B. Schlegel, G. E. Scuseria, 
 M. A. Robb, J. R. Cheeseman, G. Scalmani, V. Barone, 
 G. A. Petersson, H. Nakatsuji, X. Li, M. Caricato, A. V. Marenich, 
 J. Bloino, B. G. Janesko, R. Gomperts, B. Mennucci, H. P. Hratchian, 
 J. V. Ortiz, A. F. Izmaylov, J. L. Sonnenberg, D. Williams-Young, 
 F. Ding, F. Lipparini, F. Egidi, J. Goings, B. Peng, A. Petrone, 
 T. Henderson, D. Ranasinghe, V. G. Zakrzewski, J. Gao, N. Rega, 
 G. Zheng, W. Liang, M. Hada, M. Ehara, K. Toyota, R. Fukuda, 
 J. Hasegawa, M. Ishida, T. Nakajima, Y. Honda, O. Kitao, H. Nakai, 
 T. Vreven, K. Throssell, J. A. Montgomery, Jr., J. E. Peralta, 
 F. Ogliaro, M. J. Bearpark, J. J. Heyd, E. N. Brothers, K. N. Kudin, 
 V. N. Staroverov, T. A. Keith, R. Kobayashi, J. Normand, 
 K. Raghavachari, A. P. Rendell, J. C. Burant, S. S. Iyengar, 
 J. Tomasi, M. Cossi, J. M. Millam, M. Klene, C. Adamo, R. Cammi, 
 J. W. Ochterski, R. L. Martin, K. Morokuma, O. Farkas, 
 J. B. Foresman, and D. J. Fox, Gaussian, Inc., Wallingford CT, 2016.
 
 ******************************************
 Gaussian 16:  ES64L-G16RevA.03 25-Dec-2016
                24-May-2019 
 ******************************************
 %nprocshared=4
 Will use up to    4 processors via shared memory.
 %mem=3GB
 -------------------------------------------------------------------
 #p b3lyp 6-31g* opt freq=noraman scrf=(pcm,solvent=tetrahydrofuran)
 -------------------------------------------------------------------
 1/18=20,19=15,26=3,38=1/1,3;
 2/9=110,12=2,17=6,18=5,40=1/2;
 3/5=1,6=6,7=1,11=2,25=1,30=1,70=2201,71=1,72=20,74=-5/1,2,3;
 4//1;
 5/5=2,38=5,53=20/2;
 6/7=2,8=2,9=2,10=2,28=1/1;
 7//1,2,3,16;
 1/18=20,19=15,26=3/3(2);
 2/9=110/2;
 99//99;
 2/9=110/2;
 3/5=1,6=6,7=1,11=2,25=1,30=1,70=2205,71=1,72=20,74=-5/1,2,3;
 4/5=5,16=3,69=1/1;
 5/5=2,38=5,53=20/2;
 7//1,2,3,16;
 1/18=20,19=15,26=3/3(-5);
 2/9=110/2;
 6/7=2,8=2,9=2,10=2,19=2,28=1/1;
 99/9=1/99;
 Leave Link    1 at Fri May 24 08:30:21 2019, MaxMem=   402653184 cpu:               0.5 elap:               0.2
 (Enter /n/sw/g16_nehalem/g16/l101.exe)
 -----
 title
 -----
 Symbolic Z-matrix:
 Charge =  1 Multiplicity = 1
 6                    -1.26442   0.2837   -0.32363 
 6                    -1.43282  -1.042     0.47279 
 6                    -0.30059  -1.9672    0.1837 
 6                     1.25159  -0.16366  -0.37961 
 6                     0.14513   0.85129  -0.03494 
 1                    -0.43574  -3.04774   0.26879 
 1                    -1.28788  -0.81243   1.54561 
 1                    -1.31215   0.07166  -1.39642 
 1                     1.4202   -0.17225  -1.45774 
 1                     0.22653   1.13712   1.02447 
 8                     0.86022  -1.6057   -0.12507 
 8                    -2.66659  -1.69048   0.4029 
 8                    -2.31036   1.19131  -0.09421 
 8                     0.45078   1.94053  -0.87553 
 6                     2.55735   0.05595   0.35665 
 1                     2.43299  -0.16206   1.43 
 1                     2.7948    1.12721   0.2572 
 8                     3.53837  -0.75871  -0.23173 
 6                    -3.20895  -1.88776  -0.91395 
 1                    -4.10187  -2.4965   -0.77035 
 1                    -3.48562  -0.93351  -1.37135 
 1                    -2.50918  -2.42742  -1.56562 
 6                    -2.67292   1.47641   1.26117 
 1                    -1.83751   1.88309   1.84307 
 1                    -3.45632   2.23291   1.19821 
 1                    -3.07845   0.58864   1.76019 
 6                     0.11887   3.23773  -0.36862 
 1                    -0.96436   3.37616  -0.31095 
 1                     0.56925   3.4002    0.61921 
 1                     0.54159   3.95149  -1.07779 
 6                     4.81447  -0.60934   0.38034 
 1                     5.17911   0.42393   0.29479 
 1                     5.49628  -1.27779  -0.14851 
 1                     4.78258  -0.88902   1.4429 
 
 ITRead=  0  0  0  0  0  0  0  0  0  0  0  0  0  0  0  0  0  0  0  0
 ITRead=  0  0  0  0  0  0  0  0  0  0  0  0  0  0
 MicOpt= -1 -1 -1 -1 -1 -1 -1 -1 -1 -1 -1 -1 -1 -1 -1 -1 -1 -1 -1 -1
 MicOpt= -1 -1 -1 -1 -1 -1 -1 -1 -1 -1 -1 -1 -1 -1
 NAtoms=     34 NQM=       34 NQMF=       0 NMMI=      0 NMMIF=      0
                NMic=       0 NMicF=      0.
                    Isotopes and Nuclear Properties:
 (Nuclear quadrupole moments (NQMom) in fm**2, nuclear magnetic moments (NMagM)
  in nuclear magnetons)

  Atom         1           2           3           4           5           6           7           8           9          10
 IAtWgt=          12          12          12          12          12           1           1           1           1           1
 AtmWgt=  12.0000000  12.0000000  12.0000000  12.0000000  12.0000000   1.0078250   1.0078250   1.0078250   1.0078250   1.0078250
 NucSpn=           0           0           0           0           0           1           1           1           1           1
 AtZEff=   0.0000000   0.0000000   0.0000000   0.0000000   0.0000000   0.0000000   0.0000000   0.0000000   0.0000000   0.0000000
 NQMom=    0.0000000   0.0000000   0.0000000   0.0000000   0.0000000   0.0000000   0.0000000   0.0000000   0.0000000   0.0000000
 NMagM=    0.0000000   0.0000000   0.0000000   0.0000000   0.0000000   2.7928460   2.7928460   2.7928460   2.7928460   2.7928460
 AtZNuc=   6.0000000   6.0000000   6.0000000   6.0000000   6.0000000   1.0000000   1.0000000   1.0000000   1.0000000   1.0000000

  Atom        11          12          13          14          15          16          17          18          19          20
 IAtWgt=          16          16          16          16          12           1           1          16          12           1
 AtmWgt=  15.9949146  15.9949146  15.9949146  15.9949146  12.0000000   1.0078250   1.0078250  15.9949146  12.0000000   1.0078250
 NucSpn=           0           0           0           0           0           1           1           0           0           1
 AtZEff=   0.0000000   0.0000000   0.0000000   0.0000000   0.0000000   0.0000000   0.0000000   0.0000000   0.0000000   0.0000000
 NQMom=    0.0000000   0.0000000   0.0000000   0.0000000   0.0000000   0.0000000   0.0000000   0.0000000   0.0000000   0.0000000
 NMagM=    0.0000000   0.0000000   0.0000000   0.0000000   0.0000000   2.7928460   2.7928460   0.0000000   0.0000000   2.7928460
 AtZNuc=   8.0000000   8.0000000   8.0000000   8.0000000   6.0000000   1.0000000   1.0000000   8.0000000   6.0000000   1.0000000

  Atom        21          22          23          24          25          26          27          28          29          30
 IAtWgt=           1           1          12           1           1           1          12           1           1           1
 AtmWgt=   1.0078250   1.0078250  12.0000000   1.0078250   1.0078250   1.0078250  12.0000000   1.0078250   1.0078250   1.0078250
 NucSpn=           1           1           0           1           1           1           0           1           1           1
 AtZEff=   0.0000000   0.0000000   0.0000000   0.0000000   0.0000000   0.0000000   0.0000000   0.0000000   0.0000000   0.0000000
 NQMom=    0.0000000   0.0000000   0.0000000   0.0000000   0.0000000   0.0000000   0.0000000   0.0000000   0.0000000   0.0000000
 NMagM=    2.7928460   2.7928460   0.0000000   2.7928460   2.7928460   2.7928460   0.0000000   2.7928460   2.7928460   2.7928460
 AtZNuc=   1.0000000   1.0000000   6.0000000   1.0000000   1.0000000   1.0000000   6.0000000   1.0000000   1.0000000   1.0000000

  Atom        31          32          33          34
 IAtWgt=          12           1           1           1
 AtmWgt=  12.0000000   1.0078250   1.0078250   1.0078250
 NucSpn=           0           1           1           1
 AtZEff=   0.0000000   0.0000000   0.0000000   0.0000000
 NQMom=    0.0000000   0.0000000   0.0000000   0.0000000
 NMagM=    0.0000000   2.7928460   2.7928460   2.7928460
 AtZNuc=   6.0000000   1.0000000   1.0000000   1.0000000
 Leave Link  101 at Fri May 24 08:30:22 2019, MaxMem=   402653184 cpu:               2.3 elap:               0.6
 (Enter /n/sw/g16_nehalem/g16/l103.exe)

 GradGradGradGradGradGradGradGradGradGradGradGradGradGradGradGradGradGrad
 Berny optimization.
 Initialization pass.
                           ----------------------------
                           !    Initial Parameters    !
                           ! (Angstroms and Degrees)  !
 --------------------------                            --------------------------
 ! Name  Definition              Value          Derivative Info.                !
 --------------------------------------------------------------------------------
 ! R1    R(1,2)                  1.5557         estimate D2E/DX2                !
 ! R2    R(1,5)                  1.5467         estimate D2E/DX2                !
 ! R3    R(1,8)                  1.0946         estimate D2E/DX2                !
 ! R4    R(1,13)                 1.4037         estimate D2E/DX2                !
 ! R5    R(2,3)                  1.4905         estimate D2E/DX2                !
 ! R6    R(2,7)                  1.1066         estimate D2E/DX2                !
 ! R7    R(2,12)                 1.3956         estimate D2E/DX2                !
 ! R8    R(3,6)                  1.0923         estimate D2E/DX2                !
 ! R9    R(3,11)                 1.2544         estimate D2E/DX2                !
 ! R10   R(4,5)                  1.5405         estimate D2E/DX2                !
 ! R11   R(4,9)                  1.0913         estimate D2E/DX2                !
 ! R12   R(4,11)                 1.5157         estimate D2E/DX2                !
 ! R13   R(4,15)                 1.515          estimate D2E/DX2                !
 ! R14   R(5,10)                 1.1003         estimate D2E/DX2                !
 ! R15   R(5,14)                 1.4094         estimate D2E/DX2                !
 ! R16   R(12,19)                1.4378         estimate D2E/DX2                !
 ! R17   R(13,23)                1.4317         estimate D2E/DX2                !
 ! R18   R(14,27)                1.4317         estimate D2E/DX2                !
 ! R19   R(15,16)                1.1023         estimate D2E/DX2                !
 ! R20   R(15,17)                1.1018         estimate D2E/DX2                !
 ! R21   R(15,18)                1.4044         estimate D2E/DX2                !
 ! R22   R(18,31)                1.4232         estimate D2E/DX2                !
 ! R23   R(19,20)                1.0902         estimate D2E/DX2                !
 ! R24   R(19,21)                1.0938         estimate D2E/DX2                !
 ! R25   R(19,22)                1.098          estimate D2E/DX2                !
 ! R26   R(23,24)                1.0963         estimate D2E/DX2                !
 ! R27   R(23,25)                1.0909         estimate D2E/DX2                !
 ! R28   R(23,26)                1.0962         estimate D2E/DX2                !
 ! R29   R(27,28)                1.0936         estimate D2E/DX2                !
 ! R30   R(27,29)                1.0977         estimate D2E/DX2                !
 ! R31   R(27,30)                1.0914         estimate D2E/DX2                !
 ! R32   R(31,32)                1.0991         estimate D2E/DX2                !
 ! R33   R(31,33)                1.0915         estimate D2E/DX2                !
 ! R34   R(31,34)                1.0992         estimate D2E/DX2                !
 ! A1    A(2,1,5)              108.41           estimate D2E/DX2                !
 ! A2    A(2,1,8)              109.3878         estimate D2E/DX2                !
 ! A3    A(2,1,13)             112.7474         estimate D2E/DX2                !
 ! A4    A(5,1,8)              107.0826         estimate D2E/DX2                !
 ! A5    A(5,1,13)             114.2845         estimate D2E/DX2                !
 ! A6    A(8,1,13)             104.6517         estimate D2E/DX2                !
 ! A7    A(1,2,3)              110.3319         estimate D2E/DX2                !
 ! A8    A(1,2,7)              107.7791         estimate D2E/DX2                !
 ! A9    A(1,2,12)             117.7778         estimate D2E/DX2                !
 ! A10   A(3,2,7)              102.551          estimate D2E/DX2                !
 ! A11   A(3,2,12)             111.9261         estimate D2E/DX2                !
 ! A12   A(7,2,12)             105.1132         estimate D2E/DX2                !
 ! A13   A(2,3,6)              120.3301         estimate D2E/DX2                !
 ! A14   A(2,3,11)             124.8768         estimate D2E/DX2                !
 ! A15   A(6,3,11)             114.7567         estimate D2E/DX2                !
 ! A16   A(5,4,9)              109.7061         estimate D2E/DX2                !
 ! A17   A(5,4,11)             113.8148         estimate D2E/DX2                !
 ! A18   A(5,4,15)             114.5073         estimate D2E/DX2                !
 ! A19   A(9,4,11)             101.4382         estimate D2E/DX2                !
 ! A20   A(9,4,15)             110.371          estimate D2E/DX2                !
 ! A21   A(11,4,15)            106.1908         estimate D2E/DX2                !
 ! A22   A(1,5,4)              111.7784         estimate D2E/DX2                !
 ! A23   A(1,5,10)             110.0262         estimate D2E/DX2                !
 ! A24   A(1,5,14)             111.7103         estimate D2E/DX2                !
 ! A25   A(4,5,10)             109.4775         estimate D2E/DX2                !
 ! A26   A(4,5,14)             102.7075         estimate D2E/DX2                !
 ! A27   A(10,5,14)            110.9431         estimate D2E/DX2                !
 ! A28   A(3,11,4)             123.6734         estimate D2E/DX2                !
 ! A29   A(2,12,19)            116.3026         estimate D2E/DX2                !
 ! A30   A(1,13,23)            118.1757         estimate D2E/DX2                !
 ! A31   A(5,14,27)            116.026          estimate D2E/DX2                !
 ! A32   A(4,15,16)            110.3219         estimate D2E/DX2                !
 ! A33   A(4,15,17)            106.4288         estimate D2E/DX2                !
 ! A34   A(4,15,18)            108.3231         estimate D2E/DX2                !
 ! A35   A(16,15,17)           107.7284         estimate D2E/DX2                !
 ! A36   A(16,15,18)           111.8416         estimate D2E/DX2                !
 ! A37   A(17,15,18)           112.0655         estimate D2E/DX2                !
 ! A38   A(15,18,31)           112.6622         estimate D2E/DX2                !
 ! A39   A(12,19,20)           105.3631         estimate D2E/DX2                !
 ! A40   A(12,19,21)           111.0222         estimate D2E/DX2                !
 ! A41   A(12,19,22)           111.7537         estimate D2E/DX2                !
 ! A42   A(20,19,21)           109.5768         estimate D2E/DX2                !
 ! A43   A(20,19,22)           109.0099         estimate D2E/DX2                !
 ! A44   A(21,19,22)           109.9872         estimate D2E/DX2                !
 ! A45   A(13,23,24)           112.543          estimate D2E/DX2                !
 ! A46   A(13,23,25)           105.386          estimate D2E/DX2                !
 ! A47   A(13,23,26)           111.3081         estimate D2E/DX2                !
 ! A48   A(24,23,25)           108.7007         estimate D2E/DX2                !
 ! A49   A(24,23,26)           109.9196         estimate D2E/DX2                !
 ! A50   A(25,23,26)           108.7981         estimate D2E/DX2                !
 ! A51   A(14,27,28)           111.2837         estimate D2E/DX2                !
 ! A52   A(14,27,29)           110.952          estimate D2E/DX2                !
 ! A53   A(14,27,30)           105.8244         estimate D2E/DX2                !
 ! A54   A(28,27,29)           109.8899         estimate D2E/DX2                !
 ! A55   A(28,27,30)           109.582          estimate D2E/DX2                !
 ! A56   A(29,27,30)           109.2108         estimate D2E/DX2                !
 ! A57   A(18,31,32)           111.2654         estimate D2E/DX2                !
 ! A58   A(18,31,33)           106.7055         estimate D2E/DX2                !
 ! A59   A(18,31,34)           111.2859         estimate D2E/DX2                !
 ! A60   A(32,31,33)           109.3173         estimate D2E/DX2                !
 ! A61   A(32,31,34)           108.9092         estimate D2E/DX2                !
 ! A62   A(33,31,34)           109.309          estimate D2E/DX2                !
 ! D1    D(5,1,2,3)            -52.7924         estimate D2E/DX2                !
 ! D2    D(5,1,2,7)             58.4424         estimate D2E/DX2                !
 ! D3    D(5,1,2,12)           177.0216         estimate D2E/DX2                !
 ! D4    D(8,1,2,3)             63.6528         estimate D2E/DX2                !
 ! D5    D(8,1,2,7)            174.8877         estimate D2E/DX2                !
 ! D6    D(8,1,2,12)           -66.5332         estimate D2E/DX2                !
 ! D7    D(13,1,2,3)           179.6494         estimate D2E/DX2                !
 ! D8    D(13,1,2,7)           -69.1158         estimate D2E/DX2                !
 ! D9    D(13,1,2,12)           49.4634         estimate D2E/DX2                !
 ! D10   D(2,1,5,4)             56.4988         estimate D2E/DX2                !
 ! D11   D(2,1,5,10)           -65.3579         estimate D2E/DX2                !
 ! D12   D(2,1,5,14)           170.958          estimate D2E/DX2                !
 ! D13   D(8,1,5,4)            -61.4253         estimate D2E/DX2                !
 ! D14   D(8,1,5,10)           176.7179         estimate D2E/DX2                !
 ! D15   D(8,1,5,14)            53.0339         estimate D2E/DX2                !
 ! D16   D(13,1,5,4)          -176.8269         estimate D2E/DX2                !
 ! D17   D(13,1,5,10)           61.3164         estimate D2E/DX2                !
 ! D18   D(13,1,5,14)          -62.3677         estimate D2E/DX2                !
 ! D19   D(2,1,13,23)           49.7788         estimate D2E/DX2                !
 ! D20   D(5,1,13,23)          -74.6145         estimate D2E/DX2                !
 ! D21   D(8,1,13,23)          168.5737         estimate D2E/DX2                !
 ! D22   D(1,2,3,6)           -152.9513         estimate D2E/DX2                !
 ! D23   D(1,2,3,11)            29.3606         estimate D2E/DX2                !
 ! D24   D(7,2,3,6)             92.4599         estimate D2E/DX2                !
 ! D25   D(7,2,3,11)           -85.2282         estimate D2E/DX2                !
 ! D26   D(12,2,3,6)           -19.7222         estimate D2E/DX2                !
 ! D27   D(12,2,3,11)          162.5897         estimate D2E/DX2                !
 ! D28   D(1,2,12,19)           49.2592         estimate D2E/DX2                !
 ! D29   D(3,2,12,19)          -80.1877         estimate D2E/DX2                !
 ! D30   D(7,2,12,19)          169.242          estimate D2E/DX2                !
 ! D31   D(2,3,11,4)            -6.0711         estimate D2E/DX2                !
 ! D32   D(6,3,11,4)           176.1262         estimate D2E/DX2                !
 ! D33   D(9,4,5,1)             78.6807         estimate D2E/DX2                !
 ! D34   D(9,4,5,10)          -159.1475         estimate D2E/DX2                !
 ! D35   D(9,4,5,14)           -41.2163         estimate D2E/DX2                !
 ! D36   D(11,4,5,1)           -34.1703         estimate D2E/DX2                !
 ! D37   D(11,4,5,10)           88.0016         estimate D2E/DX2                !
 ! D38   D(11,4,5,14)         -154.0673         estimate D2E/DX2                !
 ! D39   D(15,4,5,1)          -156.5938         estimate D2E/DX2                !
 ! D40   D(15,4,5,10)          -34.4219         estimate D2E/DX2                !
 ! D41   D(15,4,5,14)           83.5092         estimate D2E/DX2                !
 ! D42   D(5,4,11,3)             8.1091         estimate D2E/DX2                !
 ! D43   D(9,4,11,3)          -109.6235         estimate D2E/DX2                !
 ! D44   D(15,4,11,3)          134.9999         estimate D2E/DX2                !
 ! D45   D(5,4,15,16)           68.5055         estimate D2E/DX2                !
 ! D46   D(5,4,15,17)          -48.0933         estimate D2E/DX2                !
 ! D47   D(5,4,15,18)         -168.772          estimate D2E/DX2                !
 ! D48   D(9,4,15,16)         -167.1211         estimate D2E/DX2                !
 ! D49   D(9,4,15,17)           76.28           estimate D2E/DX2                !
 ! D50   D(9,4,15,18)          -44.3987         estimate D2E/DX2                !
 ! D51   D(11,4,15,16)         -57.9682         estimate D2E/DX2                !
 ! D52   D(11,4,15,17)        -174.567          estimate D2E/DX2                !
 ! D53   D(11,4,15,18)          64.7543         estimate D2E/DX2                !
 ! D54   D(1,5,14,27)           91.7159         estimate D2E/DX2                !
 ! D55   D(4,5,14,27)         -148.34           estimate D2E/DX2                !
 ! D56   D(10,5,14,27)         -31.4491         estimate D2E/DX2                !
 ! D57   D(2,12,19,20)         173.9224         estimate D2E/DX2                !
 ! D58   D(2,12,19,21)         -67.5323         estimate D2E/DX2                !
 ! D59   D(2,12,19,22)          55.6711         estimate D2E/DX2                !
 ! D60   D(1,13,23,24)          58.7616         estimate D2E/DX2                !
 ! D61   D(1,13,23,25)         177.0741         estimate D2E/DX2                !
 ! D62   D(1,13,23,26)         -65.1464         estimate D2E/DX2                !
 ! D63   D(5,14,27,28)         -68.4389         estimate D2E/DX2                !
 ! D64   D(5,14,27,29)          54.2536         estimate D2E/DX2                !
 ! D65   D(5,14,27,30)         172.5965         estimate D2E/DX2                !
 ! D66   D(4,15,18,31)         179.1317         estimate D2E/DX2                !
 ! D67   D(16,15,18,31)        -59.0741         estimate D2E/DX2                !
 ! D68   D(17,15,18,31)         62.0207         estimate D2E/DX2                !
 ! D69   D(15,18,31,32)        -60.7087         estimate D2E/DX2                !
 ! D70   D(15,18,31,33)       -179.8795         estimate D2E/DX2                !
 ! D71   D(15,18,31,34)         60.9484         estimate D2E/DX2                !
 --------------------------------------------------------------------------------
 Trust Radius=3.00D-01 FncErr=1.00D-07 GrdErr=1.00D-06 EigMax=2.50D+02 EigMin=1.00D-04
 Number of steps in this run=    177 maximum allowed number of steps=    204.
 GradGradGradGradGradGradGradGradGradGradGradGradGradGradGradGradGradGrad

 Leave Link  103 at Fri May 24 08:30:22 2019, MaxMem=   402653184 cpu:               0.2 elap:               0.1
 (Enter /n/sw/g16_nehalem/g16/l202.exe)
                          Input orientation:                          
 ---------------------------------------------------------------------
 Center     Atomic      Atomic             Coordinates (Angstroms)
 Number     Number       Type             X           Y           Z
 ---------------------------------------------------------------------
      1          6           0       -1.264417    0.283696   -0.323628
      2          6           0       -1.432815   -1.041995    0.472790
      3          6           0       -0.300594   -1.967204    0.183702
      4          6           0        1.251594   -0.163656   -0.379606
      5          6           0        0.145132    0.851291   -0.034942
      6          1           0       -0.435738   -3.047742    0.268791
      7          1           0       -1.287877   -0.812430    1.545614
      8          1           0       -1.312146    0.071664   -1.396424
      9          1           0        1.420196   -0.172247   -1.457744
     10          1           0        0.226525    1.137123    1.024467
     11          8           0        0.860224   -1.605696   -0.125071
     12          8           0       -2.666592   -1.690483    0.402904
     13          8           0       -2.310355    1.191308   -0.094209
     14          8           0        0.450776    1.940525   -0.875530
     15          6           0        2.557353    0.055948    0.356645
     16          1           0        2.432987   -0.162064    1.430001
     17          1           0        2.794800    1.127208    0.257202
     18          8           0        3.538372   -0.758708   -0.231732
     19          6           0       -3.208954   -1.887755   -0.913953
     20          1           0       -4.101868   -2.496503   -0.770349
     21          1           0       -3.485620   -0.933509   -1.371352
     22          1           0       -2.509178   -2.427415   -1.565621
     23          6           0       -2.672919    1.476407    1.261168
     24          1           0       -1.837507    1.883091    1.843070
     25          1           0       -3.456319    2.232905    1.198208
     26          1           0       -3.078448    0.588642    1.760191
     27          6           0        0.118873    3.237734   -0.368615
     28          1           0       -0.964362    3.376160   -0.310950
     29          1           0        0.569247    3.400195    0.619211
     30          1           0        0.541593    3.951485   -1.077792
     31          6           0        4.814471   -0.609342    0.380339
     32          1           0        5.179114    0.423933    0.294792
     33          1           0        5.496281   -1.277794   -0.148509
     34          1           0        4.782581   -0.889019    1.442902
 ---------------------------------------------------------------------
                    Distance matrix (angstroms):
                    1          2          3          4          5
     1  C    0.000000
     2  C    1.555666   0.000000
     3  C    2.500578   1.490472   0.000000
     4  C    2.556085   2.950273   2.445279   0.000000
     5  C    1.546717   2.516394   2.861886   1.540509   0.000000
     6  H    3.483698   2.249177   1.092276   3.403742   3.953748
     7  H    2.167051   1.106643   2.040352   3.252121   2.705483
     8  H    1.094590   2.179165   2.770743   2.768042   2.141287
     9  H    2.949788   3.552900   2.979485   1.091275   2.167437
    10  H    2.183714   2.793978   3.259078   2.171224   1.100305
    11  O    2.850145   2.435821   1.254403   1.515730   2.560520
    12  O    2.528107   1.395574   2.392189   4.277348   3.815510
    13  O    1.403702   2.465605   3.754007   3.821630   2.479625
    14  O    2.447767   3.776415   4.117873   2.305391   1.409410
    15  C    3.888517   4.140098   3.505840   1.515024   2.569965
    16  H    4.116396   4.078597   3.504890   2.161104   2.899522
    17  H    4.186421   4.756537   4.377471   2.110294   2.679966
    18  O    4.915469   5.028847   4.046073   2.367553   3.760971
    19  C    2.974039   2.406873   3.109617   4.811916   4.418702
    20  H    3.997524   3.284027   3.954751   5.852727   5.457615
    21  H    2.740996   2.761637   3.692033   4.900758   4.260735
    22  H    3.231424   2.689436   2.854780   4.546938   4.487566
    23  C    2.432697   2.915775   4.318254   4.558920   3.164188
    24  H    2.753376   3.255391   4.465465   4.321112   2.919315
    25  H    3.304517   3.917368   5.350583   5.513388   4.049687
    26  H    2.779569   2.650375   4.090738   4.888144   3.699048
    27  C    3.262186   4.629447   5.250941   3.585057   2.409800
    28  H    3.107013   4.511518   5.407107   4.176778   2.771664
    29  H    3.736822   4.874704   5.454839   3.763544   2.665465
    30  H    4.157296   5.589046   6.109953   4.233905   3.294832
    31  C    6.184332   6.262932   5.295880   3.670183   4.910054
    32  H    6.474658   6.774823   5.979722   4.028087   5.062839
    33  H    6.940890   6.960890   5.847171   4.394551   5.760269
    34  H    6.407970   6.292509   5.346656   4.039252   5.169007
                    6          7          8          9         10
     6  H    0.000000
     7  H    2.711648   0.000000
     8  H    3.643038   3.072100   0.000000
     9  H    3.833260   4.094344   2.743892   0.000000
    10  H    4.303805   2.523047   3.059971   3.049700   0.000000
    11  O    1.978419   2.834572   3.024742   2.035771   3.040735
    12  O    2.614737   1.994397   2.859592   4.740136   4.092899
    13  O    4.649248   2.783783   1.986401   4.199467   2.773109
    14  O    5.194053   4.057538   2.621424   2.396363   2.075026
    15  C    4.312679   4.117465   4.248120   2.153417   2.654748
    16  H    4.231445   3.779044   4.697800   3.060216   2.592454
    17  H    5.278894   4.700048   4.551446   2.553264   2.680453
    18  O    4.613432   5.143396   5.057030   2.516687   4.017529
    19  C    3.230353   3.300959   2.769473   4.966659   4.970903
    20  H    3.850219   4.014764   3.843176   6.030578   5.929552
    21  H    4.057318   3.654234   2.394784   4.965281   4.879292
    22  H    2.837081   3.712080   2.776132   4.531821   5.186382
    23  C    5.143706   2.690358   3.299667   5.183062   2.928808
    24  H    5.362502   2.767021   3.748545   5.072713   2.342393
    25  H    6.154101   3.754583   4.000069   6.051383   3.846331
    26  H    4.736188   2.283679   3.653944   5.583176   3.430010
    27  C    6.342010   4.695428   3.623287   3.808886   2.522862
    28  H    6.471635   4.593014   3.495555   4.426335   2.866154
    29  H    6.535188   4.696099   4.322215   4.219028   2.324475
    30  H    7.194278   5.737953   4.311715   4.233376   3.526953
    31  C    5.789899   6.215928   6.415301   3.884676   4.951191
    32  H    6.601497   6.701874   6.717199   4.190021   5.056600
    33  H    6.204491   7.007954   7.052163   4.421629   5.914222
    34  H    5.767970   6.071810   6.791935   4.498127   5.003797
                   11         12         13         14         15
    11  O    0.000000
    12  O    3.567125   0.000000
    13  O    4.228091   2.945971   0.000000
    14  O    3.647810   4.953443   2.965743   0.000000
    15  C    2.423501   5.508336   5.018654   3.083432   0.000000
    16  H    2.641194   5.421872   5.162763   3.696690   1.102311
    17  H    3.370086   6.147147   5.117637   2.727456   1.101757
    18  O    2.810915   6.306548   6.166772   4.151335   1.404368
    19  C    4.154528   1.437771   3.310603   5.296303   6.216325
    20  H    5.082546   2.021437   4.155314   6.358054   7.220135
    21  H    4.570712   2.095662   2.743572   4.899094   6.362588
    22  H    3.755433   2.107828   3.911488   5.321321   5.960867
    23  C    4.889184   3.281135   1.431706   3.812919   5.494689
    24  H    4.829386   3.941052   2.110734   3.553917   4.986252
    25  H    5.926084   4.080337   2.017052   4.432975   6.450707
    26  H    4.886969   2.684449   2.095703   4.607606   5.832320
    27  C    4.905887   5.713263   3.188151   1.431738   4.073813
    28  H    5.308724   5.392406   2.575316   2.093422   4.885895
    29  H    5.069277   6.035930   3.698683   2.092588   3.899422
    30  H    5.647253   6.657080   4.088963   2.023146   4.614770
    31  C    4.109042   7.558815   7.364148   5.207769   2.353243
    32  H    4.790458   8.126349   7.538722   5.101655   2.648182
    33  H    4.647698   8.191878   8.187978   6.028537   3.266703
    34  H    4.284513   7.564002   7.549848   5.669743   2.650388
                   16         17         18         19         20
    16  H    0.000000
    17  H    1.780053   0.000000
    18  O    2.083079   2.085338   0.000000
    19  C    6.348514   6.819580   6.875070   0.000000
    20  H    7.279799   7.858191   7.853872   1.090180   0.000000
    21  H    6.593377   6.807527   7.117988   1.093775   1.784353
    22  H    6.207299   6.640046   6.413790   1.097994   1.781542
    23  C    5.365013   5.570084   6.767911   4.041791   4.685400
    24  H    4.752936   4.954251   6.339084   4.868400   5.580155
    25  H    6.361881   6.417519   7.740813   4.637052   5.163260
    26  H    5.572118   6.086384   7.040271   3.647002   4.119362
    27  C    4.488738   3.465047   5.261488   6.135345   7.131446
    28  H    5.204990   4.417225   6.113757   5.754182   6.674066
    29  H    4.101292   3.201657   5.180375   6.677410   7.649918
    30  H    5.175682   3.851713   5.646452   6.941914   7.951905
    31  C    2.640703   2.666428   1.423155   8.227082   9.186216
    32  H    3.028747   2.486154   2.089953   8.784341   9.787752
    33  H    3.622198   3.639593   2.027260   8.760084   9.695174
    34  H    2.459517   3.069581   2.090320   8.391476   9.296016
                   21         22         23         24         25
    21  H    0.000000
    22  H    1.795253   0.000000
    23  C    3.660374   4.822590   0.000000
    24  H    4.580614   5.536314   1.096319   0.000000
    25  H    4.077950   5.500401   1.090857   1.777293   0.000000
    26  H    3.505609   4.525671   1.096177   1.795105   1.778261
    27  C    5.603313   6.358725   3.681381   3.248697   4.030709
    28  H    5.104355   6.135319   2.999964   2.762506   3.129607
    29  H    6.259815   6.943431   3.824227   3.097079   4.231192
    30  H    6.337806   7.087704   4.682930   4.297651   4.910906
    31  C    8.489112   7.792816   7.822226   7.252628   8.783692
    32  H    8.927278   8.408398   7.980978   7.332072   8.869005
    33  H    9.071297   8.210798   8.735482   8.230554   9.710185
    34  H    8.734137   8.036642   7.823858   7.188205   8.813952
                   26         27         28         29         30
    26  H    0.000000
    27  C    4.666087   0.000000
    28  H    4.065617   1.093565   0.000000
    29  H    4.744718   1.097739   1.793804   0.000000
    30  H    5.698031   1.091359   1.785202   1.784518   0.000000
    31  C    8.101687   6.116336   7.053865   5.844260   6.417537
    32  H    8.388197   5.827832   6.842870   5.496750   5.986168
    33  H    8.980685   7.025308   7.964018   6.837298   7.263461
    34  H    8.004994   6.485511   7.368521   6.068608   6.911610
                   31         32         33         34
    31  C    0.000000
    32  H    1.099063   0.000000
    33  H    1.091500   1.786893   0.000000
    34  H    1.099216   1.788641   1.786925   0.000000
 Stoichiometry    C10H19O5(1+)
 Framework group  C1[X(C10H19O5)]
 Deg. of freedom    96
 Full point group                 C1      NOp   1
 Largest Abelian subgroup         C1      NOp   1
 Largest concise Abelian subgroup C1      NOp   1
                         Standard orientation:                         
 ---------------------------------------------------------------------
 Center     Atomic      Atomic             Coordinates (Angstroms)
 Number     Number       Type             X           Y           Z
 ---------------------------------------------------------------------
      1          6           0       -1.264417    0.283696   -0.323628
      2          6           0       -1.432815   -1.041995    0.472790
      3          6           0       -0.300594   -1.967204    0.183702
      4          6           0        1.251594   -0.163656   -0.379606
      5          6           0        0.145132    0.851291   -0.034942
      6          1           0       -0.435738   -3.047742    0.268791
      7          1           0       -1.287877   -0.812430    1.545614
      8          1           0       -1.312146    0.071664   -1.396424
      9          1           0        1.420196   -0.172247   -1.457744
     10          1           0        0.226525    1.137123    1.024467
     11          8           0        0.860224   -1.605696   -0.125071
     12          8           0       -2.666592   -1.690483    0.402904
     13          8           0       -2.310355    1.191308   -0.094209
     14          8           0        0.450776    1.940525   -0.875530
     15          6           0        2.557353    0.055948    0.356645
     16          1           0        2.432987   -0.162064    1.430001
     17          1           0        2.794800    1.127208    0.257202
     18          8           0        3.538372   -0.758708   -0.231732
     19          6           0       -3.208954   -1.887755   -0.913953
     20          1           0       -4.101868   -2.496503   -0.770349
     21          1           0       -3.485620   -0.933509   -1.371352
     22          1           0       -2.509178   -2.427415   -1.565621
     23          6           0       -2.672919    1.476407    1.261168
     24          1           0       -1.837507    1.883091    1.843070
     25          1           0       -3.456319    2.232905    1.198208
     26          1           0       -3.078448    0.588642    1.760191
     27          6           0        0.118873    3.237734   -0.368615
     28          1           0       -0.964362    3.376160   -0.310950
     29          1           0        0.569247    3.400195    0.619211
     30          1           0        0.541593    3.951485   -1.077792
     31          6           0        4.814471   -0.609342    0.380339
     32          1           0        5.179114    0.423933    0.294792
     33          1           0        5.496281   -1.277794   -0.148509
     34          1           0        4.782581   -0.889019    1.442902
 ---------------------------------------------------------------------
 Rotational constants (GHZ):           0.8333323           0.3920062           0.2920037
 Leave Link  202 at Fri May 24 08:30:22 2019, MaxMem=   402653184 cpu:               0.5 elap:               0.2
 (Enter /n/sw/g16_nehalem/g16/l301.exe)
 Standard basis: 6-31G(d) (6D, 7F)
 Ernie: Thresh=  0.10000D-02 Tol=  0.10000D-05 Strict=F.
 There are   263 symmetry adapted cartesian basis functions of A   symmetry.
 There are   263 symmetry adapted basis functions of A   symmetry.
   263 basis functions,   496 primitive gaussians,   263 cartesian basis functions
    59 alpha electrons       59 beta electrons
       nuclear repulsion energy      1144.9624419323 Hartrees.
 IExCor=  402 DFT=T Ex+Corr=B3LYP ExCW=0 ScaHFX=  0.200000
 ScaDFX=  0.800000  0.720000  1.000000  0.810000 ScalE2=  1.000000  1.000000
 IRadAn=      5 IRanWt=     -1 IRanGd=            0 ICorTp=0 IEmpDi=  4
 NAtoms=   34 NActive=   34 NUniq=   34 SFac= 1.00D+00 NAtFMM=   60 NAOKFM=F Big=F
 Integral buffers will be    131072 words long.
 Raffenetti 2 integral format.
 Two-electron integral symmetry is turned on.
 ------------------------------------------------------------------------------
 Polarizable Continuum Model (PCM)
 =================================
 Model                : PCM.
 Atomic radii         : UFF (Universal Force Field).
 Polarization charges : Total charges.
 Charge compensation  : None.
 Solution method      : On-the-fly selection.
 Cavity type          : Scaled VdW (van der Waals Surface) (Alpha=1.100).
 Cavity algorithm     : GePol (No added spheres)
                        Default sphere list used, NSphG=   34.
                        Lebedev-Laikov grids with approx.  5.0 points / Ang**2.
                        Smoothing algorithm: York/Karplus (Gamma=1.0000).
                        Polarization charges: spherical gaussians, with
                                              point-specific exponents (IZeta= 3).
                        Self-potential: point-specific (ISelfS= 7).
                        Self-field    : sphere-specific E.n sum rule (ISelfD= 2).
 1st derivatives      : Analytical E(r).r(x)/FMM algorithm (CHGder, D1EAlg=3).
                        Cavity 1st derivative terms included.
 Solvent              : TetraHydroFuran, Eps=   7.425700 Eps(inf)=   1.974025
 ------------------------------------------------------------------------------
 GePol: Number of generator spheres                  =      34
 GePol: Total number of spheres                      =      34
 GePol: Number of exposed spheres                    =      34 (100.00%)
 GePol: Number of points                             =    2318
 GePol: Average weight of points                     =       0.13
 GePol: Minimum weight of points                     =   0.29D-11
 GePol: Maximum weight of points                     =    0.20577
 GePol: Number of points with low weight             =     133
 GePol: Fraction of low-weight points (<1% of avg)   =       5.74%
 GePol: Cavity surface area                          =    303.158 Ang**2
 GePol: Cavity volume                                =    321.784 Ang**3
 Leave Link  301 at Fri May 24 08:30:22 2019, MaxMem=   402653184 cpu:               0.9 elap:               0.3
 (Enter /n/sw/g16_nehalem/g16/l302.exe)
 NPDir=0 NMtPBC=     1 NCelOv=     1 NCel=       1 NClECP=     1 NCelD=      1
         NCelK=      1 NCelE2=     1 NClLst=     1 CellRange=     0.0.
 One-electron integrals computed using PRISM.
 One-electron integral symmetry used in STVInt
 NBasis=   263 RedAO= T EigKep=  1.76D-03  NBF=   263
 NBsUse=   263 1.00D-06 EigRej= -1.00D+00 NBFU=   263
 Precomputing XC quadrature grid using
 IXCGrd= 4 IRadAn=           5 IRanWt=          -1 IRanGd=           0 AccXCQ= 0.00D+00.
 Generated NRdTot=       0 NPtTot=           0 NUsed=           0 NTot=          32
 NSgBfM=   262   262   262   262   262 MxSgAt=    34 MxSgA2=    34.
 Leave Link  302 at Fri May 24 08:30:25 2019, MaxMem=   402653184 cpu:               8.0 elap:               2.1
 (Enter /n/sw/g16_nehalem/g16/l303.exe)
 DipDrv:  MaxL=1.
 Leave Link  303 at Fri May 24 08:30:25 2019, MaxMem=   402653184 cpu:               0.6 elap:               0.2
 (Enter /n/sw/g16_nehalem/g16/l401.exe)
 ExpMin= 1.61D-01 ExpMax= 5.48D+03 ExpMxC= 8.25D+02 IAcc=3 IRadAn=         5 AccDes= 0.00D+00
 Harris functional with IExCor=  402 and IRadAn=       5 diagonalized for initial guess.
 HarFok:  IExCor=  402 AccDes= 0.00D+00 IRadAn=         5 IDoV= 1 UseB2=F ITyADJ=14
 ICtDFT=  3500011 ScaDFX=  1.000000  1.000000  1.000000  1.000000
 FoFCou: FMM=F IPFlag=           0 FMFlag=      100000 FMFlg1=           0
         NFxFlg=           0 DoJE=T BraDBF=F KetDBF=T FulRan=T
         wScrn=  0.000000 ICntrl=       500 IOpCl=  0 I1Cent=   200000004 NGrid=           0
         NMat0=    1 NMatS0=      1 NMatT0=    0 NMatD0=    1 NMtDS0=    0 NMtDT0=    0
 Petite list used in FoFCou.
 Harris En= -768.259473354302    
 JPrj=0 DoOrth=F DoCkMO=F.
 Leave Link  401 at Fri May 24 08:30:34 2019, MaxMem=   402653184 cpu:              35.7 elap:               9.0
 (Enter /n/sw/g16_nehalem/g16/l502.exe)
 Integral symmetry usage will be decided dynamically.
 Closed shell SCF:
 Using DIIS extrapolation, IDIIS=  1040.
 NGot=   402653184 LenX=   402510103 LenY=   402440493
 Requested convergence on RMS density matrix=1.00D-08 within 128 cycles.
 Requested convergence on MAX density matrix=1.00D-06.
 Requested convergence on             energy=1.00D-06.
 No special actions if energy rises.
 Fock matrices will be formed incrementally for  20 cycles.

 Cycle   1  Pass 1  IDiag  1:
 FoFJK:  IHMeth= 1 ICntrl=       0 DoSepK=F KAlg= 0 I1Cent=           0 FoldK=F
 IRaf= 860000000 NMat=       1 IRICut=       1 DoRegI=T DoRafI=F ISym2E= 0 IDoP0=0 IntGTp=1.
 FoFCou: FMM=F IPFlag=           0 FMFlag=      100000 FMFlg1=           0
         NFxFlg=           0 DoJE=F BraDBF=F KetDBF=F FulRan=T
         wScrn=  0.000000 ICntrl=         0 IOpCl=  0 I1Cent=           0 NGrid=           0
         NMat0=    1 NMatS0=      1 NMatT0=    0 NMatD0=    1 NMtDS0=    0 NMtDT0=    0
 Symmetry not used in FoFCou.
 Inv3:  Mode=1 IEnd=    16119372.
 Iteration    1 A*A^-1 deviation from unit magnitude is 6.44D-15 for   2317.
 Iteration    1 A*A^-1 deviation from orthogonality  is 2.44D-15 for   2317    453.
 Iteration    1 A^-1*A deviation from unit magnitude is 6.44D-15 for   2317.
 Iteration    1 A^-1*A deviation from orthogonality  is 2.55D-15 for   2111    753.
 E= -768.083690001147    
 DIIS: error= 2.01D-02 at cycle   1 NSaved=   1.
 NSaved= 1 IEnMin= 1 EnMin= -768.083690001147     IErMin= 1 ErrMin= 2.01D-02
 ErrMax= 2.01D-02  0.00D+00 EMaxC= 1.00D-01 BMatC= 2.56D-01 BMatP= 2.56D-01
 IDIUse=3 WtCom= 7.99D-01 WtEn= 2.01D-01
 Coeff-Com:  0.100D+01
 Coeff-En:   0.100D+01
 Coeff:      0.100D+01
 Gap=     0.009 Goal=   None    Shift=    0.000
 GapD=    0.009 DampG=0.250 DampE=0.500 DampFc=0.2500 IDamp=-1.
 Damping current iteration by 2.50D-01
 RMSDP=5.07D-03 MaxDP=1.48D-01              OVMax= 4.65D-01

 Cycle   2  Pass 1  IDiag  1:
 RMSU=  1.26D-03    CP:  9.94D-01
 E= -768.154390547833     Delta-E=       -0.070700546686 Rises=F Damp=T
 DIIS: error= 9.98D-03 at cycle   2 NSaved=   2.
 NSaved= 2 IEnMin= 2 EnMin= -768.154390547833     IErMin= 2 ErrMin= 9.98D-03
 ErrMax= 9.98D-03  0.00D+00 EMaxC= 1.00D-01 BMatC= 6.90D-02 BMatP= 2.56D-01
 IDIUse=3 WtCom= 9.00D-01 WtEn= 9.98D-02
 Coeff-Com: -0.645D+00 0.164D+01
 Coeff-En:   0.000D+00 0.100D+01
 Coeff:     -0.580D+00 0.158D+01
 Gap=     0.102 Goal=   None    Shift=    0.000
 RMSDP=1.52D-03 MaxDP=4.48D-02 DE=-7.07D-02 OVMax= 4.31D-01

 Cycle   3  Pass 1  IDiag  1:
 RMSU=  1.51D-03    CP:  9.86D-01  1.10D+00
 E= -768.277276872296     Delta-E=       -0.122886324463 Rises=F Damp=F
 DIIS: error= 8.58D-03 at cycle   3 NSaved=   3.
 NSaved= 3 IEnMin= 3 EnMin= -768.277276872296     IErMin= 3 ErrMin= 8.58D-03
 ErrMax= 8.58D-03  0.00D+00 EMaxC= 1.00D-01 BMatC= 5.37D-02 BMatP= 6.90D-02
 IDIUse=3 WtCom= 9.14D-01 WtEn= 8.58D-02
 Coeff-Com: -0.507D+00 0.104D+01 0.467D+00
 Coeff-En:   0.000D+00 0.000D+00 0.100D+01
 Coeff:     -0.463D+00 0.950D+00 0.513D+00
 Gap=     0.143 Goal=   None    Shift=    0.000
 RMSDP=9.34D-04 MaxDP=3.07D-02 DE=-1.23D-01 OVMax= 4.67D-02

 Cycle   4  Pass 1  IDiag  1:
 RMSU=  6.88D-04    CP:  9.89D-01  1.30D+00  6.22D-01
 E= -768.321646242467     Delta-E=       -0.044369370170 Rises=F Damp=F
 DIIS: error= 2.12D-03 at cycle   4 NSaved=   4.
 NSaved= 4 IEnMin= 4 EnMin= -768.321646242467     IErMin= 4 ErrMin= 2.12D-03
 ErrMax= 2.12D-03  0.00D+00 EMaxC= 1.00D-01 BMatC= 3.39D-03 BMatP= 5.37D-02
 IDIUse=3 WtCom= 9.79D-01 WtEn= 2.12D-02
 Coeff-Com: -0.229D+00 0.391D+00 0.207D+00 0.631D+00
 Coeff-En:   0.000D+00 0.000D+00 0.000D+00 0.100D+01
 Coeff:     -0.224D+00 0.383D+00 0.203D+00 0.639D+00
 Gap=     0.129 Goal=   None    Shift=    0.000
 RMSDP=2.36D-04 MaxDP=1.18D-02 DE=-4.44D-02 OVMax= 1.21D-02

 Cycle   5  Pass 1  IDiag  1:
 RMSU=  2.09D-04    CP:  9.89D-01  1.33D+00  6.77D-01  9.12D-01
 E= -768.323849624837     Delta-E=       -0.002203382371 Rises=F Damp=F
 DIIS: error= 1.27D-03 at cycle   5 NSaved=   5.
 NSaved= 5 IEnMin= 5 EnMin= -768.323849624837     IErMin= 5 ErrMin= 1.27D-03
 ErrMax= 1.27D-03  0.00D+00 EMaxC= 1.00D-01 BMatC= 1.14D-03 BMatP= 3.39D-03
 IDIUse=3 WtCom= 9.87D-01 WtEn= 1.27D-02
 Coeff-Com: -0.985D-01 0.146D+00 0.341D-01 0.361D+00 0.558D+00
 Coeff-En:   0.000D+00 0.000D+00 0.000D+00 0.148D+00 0.852D+00
 Coeff:     -0.972D-01 0.144D+00 0.336D-01 0.358D+00 0.562D+00
 Gap=     0.129 Goal=   None    Shift=    0.000
 RMSDP=1.08D-04 MaxDP=6.51D-03 DE=-2.20D-03 OVMax= 5.06D-03

 Cycle   6  Pass 1  IDiag  1:
 RMSU=  7.52D-05    CP:  9.89D-01  1.35D+00  6.72D-01  9.98D-01  8.01D-01
 E= -768.324599956948     Delta-E=       -0.000750332111 Rises=F Damp=F
 DIIS: error= 4.33D-04 at cycle   6 NSaved=   6.
 NSaved= 6 IEnMin= 6 EnMin= -768.324599956948     IErMin= 6 ErrMin= 4.33D-04
 ErrMax= 4.33D-04  0.00D+00 EMaxC= 1.00D-01 BMatC= 1.53D-04 BMatP= 1.14D-03
 IDIUse=3 WtCom= 9.96D-01 WtEn= 4.33D-03
 Coeff-Com: -0.377D-01 0.481D-01-0.158D-01 0.139D+00 0.343D+00 0.524D+00
 Coeff-En:   0.000D+00 0.000D+00 0.000D+00 0.000D+00 0.000D+00 0.100D+01
 Coeff:     -0.376D-01 0.479D-01-0.158D-01 0.138D+00 0.341D+00 0.526D+00
 Gap=     0.128 Goal=   None    Shift=    0.000
 RMSDP=4.11D-05 MaxDP=2.68D-03 DE=-7.50D-04 OVMax= 2.52D-03

 Cycle   7  Pass 1  IDiag  1:
 RMSU=  2.94D-05    CP:  9.89D-01  1.35D+00  6.69D-01  1.03D+00  8.69D-01
                    CP:  8.41D-01
 E= -768.324718518571     Delta-E=       -0.000118561623 Rises=F Damp=F
 DIIS: error= 1.50D-04 at cycle   7 NSaved=   7.
 NSaved= 7 IEnMin= 7 EnMin= -768.324718518571     IErMin= 7 ErrMin= 1.50D-04
 ErrMax= 1.50D-04  0.00D+00 EMaxC= 1.00D-01 BMatC= 1.59D-05 BMatP= 1.53D-04
 IDIUse=3 WtCom= 9.99D-01 WtEn= 1.50D-03
 Coeff-Com: -0.788D-02 0.739D-02-0.189D-01 0.194D-01 0.107D+00 0.287D+00
 Coeff-Com:  0.606D+00
 Coeff-En:   0.000D+00 0.000D+00 0.000D+00 0.000D+00 0.000D+00 0.000D+00
 Coeff-En:   0.100D+01
 Coeff:     -0.787D-02 0.738D-02-0.188D-01 0.194D-01 0.107D+00 0.287D+00
 Coeff:      0.607D+00
 Gap=     0.128 Goal=   None    Shift=    0.000
 RMSDP=1.78D-05 MaxDP=8.35D-04 DE=-1.19D-04 OVMax= 1.30D-03

 Cycle   8  Pass 1  IDiag  1:
 RMSU=  9.90D-06    CP:  9.89D-01  1.36D+00  6.68D-01  1.04D+00  9.04D-01
                    CP:  9.20D-01  8.31D-01
 E= -768.324733302236     Delta-E=       -0.000014783666 Rises=F Damp=F
 DIIS: error= 4.34D-05 at cycle   8 NSaved=   8.
 NSaved= 8 IEnMin= 8 EnMin= -768.324733302236     IErMin= 8 ErrMin= 4.34D-05
 ErrMax= 4.34D-05  0.00D+00 EMaxC= 1.00D-01 BMatC= 1.08D-06 BMatP= 1.59D-05
 IDIUse=1 WtCom= 1.00D+00 WtEn= 0.00D+00
 Coeff-Com:  0.111D-03-0.789D-03-0.596D-02-0.920D-02-0.622D-03 0.445D-01
 Coeff-Com:  0.258D+00 0.714D+00
 Coeff:      0.111D-03-0.789D-03-0.596D-02-0.920D-02-0.622D-03 0.445D-01
 Coeff:      0.258D+00 0.714D+00
 Gap=     0.128 Goal=   None    Shift=    0.000
 RMSDP=6.18D-06 MaxDP=1.63D-04 DE=-1.48D-05 OVMax= 8.55D-04

 Cycle   9  Pass 1  IDiag  1:
 RMSU=  3.61D-06    CP:  9.89D-01  1.36D+00  6.69D-01  1.05D+00  9.14D-01
                    CP:  9.48D-01  9.12D-01  9.60D-01
 E= -768.324734324411     Delta-E=       -0.000001022175 Rises=F Damp=F
 DIIS: error= 1.13D-05 at cycle   9 NSaved=   9.
 NSaved= 9 IEnMin= 9 EnMin= -768.324734324411     IErMin= 9 ErrMin= 1.13D-05
 ErrMax= 1.13D-05  0.00D+00 EMaxC= 1.00D-01 BMatC= 1.53D-07 BMatP= 1.08D-06
 IDIUse=1 WtCom= 1.00D+00 WtEn= 0.00D+00
 Coeff-Com:  0.455D-03-0.625D-03-0.143D-02-0.590D-02-0.918D-02-0.171D-02
 Coeff-Com:  0.800D-01 0.381D+00 0.558D+00
 Coeff:      0.455D-03-0.625D-03-0.143D-02-0.590D-02-0.918D-02-0.171D-02
 Coeff:      0.800D-01 0.381D+00 0.558D+00
 Gap=     0.128 Goal=   None    Shift=    0.000
 RMSDP=1.91D-06 MaxDP=5.16D-05 DE=-1.02D-06 OVMax= 2.27D-04

 Cycle  10  Pass 1  IDiag  1:
 RMSU=  1.17D-06    CP:  9.89D-01  1.35D+00  6.69D-01  1.05D+00  9.16D-01
                    CP:  9.56D-01  9.33D-01  1.02D+00  7.95D-01
 E= -768.324734470367     Delta-E=       -0.000000145956 Rises=F Damp=F
 DIIS: error= 2.04D-06 at cycle  10 NSaved=  10.
 NSaved=10 IEnMin=10 EnMin= -768.324734470367     IErMin=10 ErrMin= 2.04D-06
 ErrMax= 2.04D-06  0.00D+00 EMaxC= 1.00D-01 BMatC= 5.24D-09 BMatP= 1.53D-07
 IDIUse=1 WtCom= 1.00D+00 WtEn= 0.00D+00
 Coeff-Com:  0.250D-03-0.310D-03 0.250D-04-0.120D-02-0.345D-02-0.475D-02
 Coeff-Com: -0.150D-02 0.481D-01 0.164D+00 0.799D+00
 Coeff:      0.250D-03-0.310D-03 0.250D-04-0.120D-02-0.345D-02-0.475D-02
 Coeff:     -0.150D-02 0.481D-01 0.164D+00 0.799D+00
 Gap=     0.128 Goal=   None    Shift=    0.000
 RMSDP=7.21D-07 MaxDP=1.90D-05 DE=-1.46D-07 OVMax= 1.06D-04

 Cycle  11  Pass 1  IDiag  1:
 RMSU=  2.82D-07    CP:  9.89D-01  1.35D+00  6.69D-01  1.05D+00  9.17D-01
                    CP:  9.60D-01  9.40D-01  1.05D+00  8.44D-01  9.92D-01
 E= -768.324734478495     Delta-E=       -0.000000008128 Rises=F Damp=F
 DIIS: error= 1.30D-06 at cycle  11 NSaved=  11.
 NSaved=11 IEnMin=11 EnMin= -768.324734478495     IErMin=11 ErrMin= 1.30D-06
 ErrMax= 1.30D-06  0.00D+00 EMaxC= 1.00D-01 BMatC= 9.45D-10 BMatP= 5.24D-09
 IDIUse=1 WtCom= 1.00D+00 WtEn= 0.00D+00
 Coeff-Com:  0.658D-04-0.751D-04 0.101D-03-0.107D-03-0.925D-03-0.166D-02
 Coeff-Com: -0.567D-02-0.121D-02 0.392D-01 0.377D+00 0.593D+00
 Coeff:      0.658D-04-0.751D-04 0.101D-03-0.107D-03-0.925D-03-0.166D-02
 Coeff:     -0.567D-02-0.121D-02 0.392D-01 0.377D+00 0.593D+00
 Gap=     0.128 Goal=   None    Shift=    0.000
 RMSDP=2.00D-07 MaxDP=5.46D-06 DE=-8.13D-09 OVMax= 2.38D-05

 Cycle  12  Pass 1  IDiag  1:
 RMSU=  1.20D-07    CP:  9.89D-01  1.35D+00  6.69D-01  1.05D+00  9.17D-01
                    CP:  9.61D-01  9.41D-01  1.05D+00  8.64D-01  1.03D+00
                    CP:  7.46D-01
 E= -768.324734479494     Delta-E=       -0.000000000999 Rises=F Damp=F
 DIIS: error= 3.27D-07 at cycle  12 NSaved=  12.
 NSaved=12 IEnMin=12 EnMin= -768.324734479494     IErMin=12 ErrMin= 3.27D-07
 ErrMax= 3.27D-07  0.00D+00 EMaxC= 1.00D-01 BMatC= 1.17D-10 BMatP= 9.45D-10
 IDIUse=1 WtCom= 1.00D+00 WtEn= 0.00D+00
 Coeff-Com:  0.114D-04-0.140D-04 0.470D-04 0.108D-03 0.192D-04-0.703D-04
 Coeff-Com: -0.297D-02-0.892D-02-0.864D-02 0.481D-01 0.277D+00 0.695D+00
 Coeff:      0.114D-04-0.140D-04 0.470D-04 0.108D-03 0.192D-04-0.703D-04
 Coeff:     -0.297D-02-0.892D-02-0.864D-02 0.481D-01 0.277D+00 0.695D+00
 Gap=     0.128 Goal=   None    Shift=    0.000
 RMSDP=7.52D-08 MaxDP=2.24D-06 DE=-9.99D-10 OVMax= 9.49D-06

 Cycle  13  Pass 1  IDiag  1:
 RMSU=  2.73D-08    CP:  9.89D-01  1.35D+00  6.69D-01  1.05D+00  9.17D-01
                    CP:  9.61D-01  9.42D-01  1.05D+00  8.66D-01  1.06D+00
                    CP:  8.62D-01  8.38D-01
 E= -768.324734479632     Delta-E=       -0.000000000138 Rises=F Damp=F
 DIIS: error= 8.15D-08 at cycle  13 NSaved=  13.
 NSaved=13 IEnMin=13 EnMin= -768.324734479632     IErMin=13 ErrMin= 8.15D-08
 ErrMax= 8.15D-08  0.00D+00 EMaxC= 1.00D-01 BMatC= 5.50D-12 BMatP= 1.17D-10
 IDIUse=1 WtCom= 1.00D+00 WtEn= 0.00D+00
 Coeff-Com: -0.806D-06 0.901D-06 0.127D-04 0.545D-04 0.700D-04 0.106D-03
 Coeff-Com: -0.822D-03-0.328D-02-0.559D-02-0.122D-02 0.768D-01 0.271D+00
 Coeff-Com:  0.663D+00
 Coeff:     -0.806D-06 0.901D-06 0.127D-04 0.545D-04 0.700D-04 0.106D-03
 Coeff:     -0.822D-03-0.328D-02-0.559D-02-0.122D-02 0.768D-01 0.271D+00
 Coeff:      0.663D+00
 Gap=     0.128 Goal=   None    Shift=    0.000
 RMSDP=1.34D-08 MaxDP=3.77D-07 DE=-1.38D-10 OVMax= 1.22D-06

 Cycle  14  Pass 1  IDiag  1:
 RMSU=  1.01D-08    CP:  9.89D-01  1.35D+00  6.69D-01  1.05D+00  9.17D-01
                    CP:  9.61D-01  9.42D-01  1.05D+00  8.67D-01  1.06D+00
                    CP:  8.74D-01  8.87D-01  9.52D-01
 E= -768.324734479631     Delta-E=        0.000000000001 Rises=F Damp=F
 DIIS: error= 3.49D-08 at cycle  14 NSaved=  14.
 NSaved=14 IEnMin=13 EnMin= -768.324734479632     IErMin=14 ErrMin= 3.49D-08
 ErrMax= 3.49D-08  0.00D+00 EMaxC= 1.00D-01 BMatC= 9.63D-13 BMatP= 5.50D-12
 IDIUse=1 WtCom= 1.00D+00 WtEn= 0.00D+00
 Coeff-Com: -0.143D-05 0.169D-05-0.131D-05 0.560D-05 0.226D-04 0.528D-04
 Coeff-Com:  0.754D-04-0.485D-04-0.113D-02-0.707D-02-0.705D-02 0.172D-01
 Coeff-Com:  0.317D+00 0.681D+00
 Coeff:     -0.143D-05 0.169D-05-0.131D-05 0.560D-05 0.226D-04 0.528D-04
 Coeff:      0.754D-04-0.485D-04-0.113D-02-0.707D-02-0.705D-02 0.172D-01
 Coeff:      0.317D+00 0.681D+00
 Gap=     0.128 Goal=   None    Shift=    0.000
 RMSDP=5.06D-09 MaxDP=1.57D-07 DE= 9.09D-13 OVMax= 5.37D-07

 Error on total polarization charges =  0.01280
 SCF Done:  E(RB3LYP) =  -768.324734480     A.U. after   14 cycles
            NFock= 14  Conv=0.51D-08     -V/T= 2.0091
 KE= 7.613955282532D+02 PE=-4.064583511423D+03 EE= 1.389900806758D+03
 Leave Link  502 at Fri May 24 08:34:46 2019, MaxMem=   402653184 cpu:            1001.4 elap:             251.9
 (Enter /n/sw/g16_nehalem/g16/l601.exe)
 Copying SCF densities to generalized density rwf, IOpCl= 0 IROHF=0.

 **********************************************************************

            Population analysis using the SCF density.

 **********************************************************************

 Orbital symmetries:
       Occupied  (A) (A) (A) (A) (A) (A) (A) (A) (A) (A) (A) (A)
                 (A) (A) (A) (A) (A) (A) (A) (A) (A) (A) (A) (A)
                 (A) (A) (A) (A) (A) (A) (A) (A) (A) (A) (A) (A)
                 (A) (A) (A) (A) (A) (A) (A) (A) (A) (A) (A) (A)
                 (A) (A) (A) (A) (A) (A) (A) (A) (A) (A) (A)
       Virtual   (A) (A) (A) (A) (A) (A) (A) (A) (A) (A) (A) (A)
                 (A) (A) (A) (A) (A) (A) (A) (A) (A) (A) (A) (A)
                 (A) (A) (A) (A) (A) (A) (A) (A) (A) (A) (A) (A)
                 (A) (A) (A) (A) (A) (A) (A) (A) (A) (A) (A) (A)
                 (A) (A) (A) (A) (A) (A) (A) (A) (A) (A) (A) (A)
                 (A) (A) (A) (A) (A) (A) (A) (A) (A) (A) (A) (A)
                 (A) (A) (A) (A) (A) (A) (A) (A) (A) (A) (A) (A)
                 (A) (A) (A) (A) (A) (A) (A) (A) (A) (A) (A) (A)
                 (A) (A) (A) (A) (A) (A) (A) (A) (A) (A) (A) (A)
                 (A) (A) (A) (A) (A) (A) (A) (A) (A) (A) (A) (A)
                 (A) (A) (A) (A) (A) (A) (A) (A) (A) (A) (A) (A)
                 (A) (A) (A) (A) (A) (A) (A) (A) (A) (A) (A) (A)
                 (A) (A) (A) (A) (A) (A) (A) (A) (A) (A) (A) (A)
                 (A) (A) (A) (A) (A) (A) (A) (A) (A) (A) (A) (A)
                 (A) (A) (A) (A) (A) (A) (A) (A) (A) (A) (A) (A)
                 (A) (A) (A) (A) (A) (A) (A) (A) (A) (A) (A) (A)
                 (A) (A) (A) (A) (A) (A) (A) (A) (A) (A) (A) (A)
 The electronic state is 1-A.
 Alpha  occ. eigenvalues --  -19.33140 -19.21015 -19.19894 -19.19536 -19.18273
 Alpha  occ. eigenvalues --  -10.39907 -10.32300 -10.32234 -10.30118 -10.29912
 Alpha  occ. eigenvalues --  -10.27945 -10.26055 -10.25596 -10.25075 -10.24623
 Alpha  occ. eigenvalues --   -1.21801  -1.09979  -1.08383  -1.06868  -1.06655
 Alpha  occ. eigenvalues --   -0.87533  -0.86093  -0.77999  -0.75154  -0.74391
 Alpha  occ. eigenvalues --   -0.71740  -0.69057  -0.68086  -0.65442  -0.62745
 Alpha  occ. eigenvalues --   -0.60699  -0.58867  -0.55740  -0.54864  -0.54312
 Alpha  occ. eigenvalues --   -0.52784  -0.51920  -0.51116  -0.50332  -0.49374
 Alpha  occ. eigenvalues --   -0.48776  -0.47867  -0.46629  -0.45685  -0.45453
 Alpha  occ. eigenvalues --   -0.44282  -0.43392  -0.42317  -0.42055  -0.40614
 Alpha  occ. eigenvalues --   -0.40238  -0.37249  -0.36108  -0.35444  -0.35146
 Alpha  occ. eigenvalues --   -0.32795  -0.31540  -0.28981  -0.28152
 Alpha virt. eigenvalues --   -0.15387  -0.00241   0.04454   0.04688   0.06554
 Alpha virt. eigenvalues --    0.07054   0.07174   0.08730   0.09351   0.10284
 Alpha virt. eigenvalues --    0.11234   0.11579   0.11841   0.12486   0.13313
 Alpha virt. eigenvalues --    0.13463   0.13885   0.14521   0.14974   0.15645
 Alpha virt. eigenvalues --    0.15745   0.16090   0.16654   0.16682   0.17498
 Alpha virt. eigenvalues --    0.17774   0.18749   0.20033   0.20839   0.21874
 Alpha virt. eigenvalues --    0.23065   0.24508   0.26647   0.27705   0.29179
 Alpha virt. eigenvalues --    0.43855   0.45115   0.46226   0.47116   0.47850
 Alpha virt. eigenvalues --    0.48544   0.49771   0.50392   0.50499   0.52457
 Alpha virt. eigenvalues --    0.52934   0.54110   0.54922   0.55116   0.55894
 Alpha virt. eigenvalues --    0.56793   0.58473   0.58914   0.62086   0.62383
 Alpha virt. eigenvalues --    0.62990   0.65434   0.67040   0.70778   0.72482
 Alpha virt. eigenvalues --    0.73421   0.74059   0.75662   0.76247   0.77525
 Alpha virt. eigenvalues --    0.77994   0.79290   0.80083   0.81583   0.82009
 Alpha virt. eigenvalues --    0.83145   0.83372   0.84128   0.84413   0.85328
 Alpha virt. eigenvalues --    0.86277   0.87042   0.87345   0.89175   0.90007
 Alpha virt. eigenvalues --    0.91081   0.92128   0.93205   0.93733   0.95060
 Alpha virt. eigenvalues --    0.96191   0.97841   0.98823   0.99151   1.01038
 Alpha virt. eigenvalues --    1.04658   1.04739   1.08544   1.10938   1.11704
 Alpha virt. eigenvalues --    1.13655   1.16203   1.18597   1.19303   1.23056
 Alpha virt. eigenvalues --    1.24462   1.25281   1.28202   1.29503   1.32633
 Alpha virt. eigenvalues --    1.32723   1.34889   1.38059   1.40073   1.42298
 Alpha virt. eigenvalues --    1.43132   1.44298   1.46154   1.46552   1.48130
 Alpha virt. eigenvalues --    1.50269   1.51008   1.56785   1.59452   1.61215
 Alpha virt. eigenvalues --    1.64990   1.65251   1.66930   1.69117   1.70775
 Alpha virt. eigenvalues --    1.73695   1.75045   1.76571   1.80063   1.80139
 Alpha virt. eigenvalues --    1.81820   1.84555   1.85407   1.86612   1.89023
 Alpha virt. eigenvalues --    1.92322   1.93850   1.96205   1.97954   1.99726
 Alpha virt. eigenvalues --    2.00132   2.01104   2.02403   2.02785   2.04267
 Alpha virt. eigenvalues --    2.05425   2.06105   2.07818   2.08899   2.09894
 Alpha virt. eigenvalues --    2.11232   2.13882   2.14679   2.15553   2.16808
 Alpha virt. eigenvalues --    2.18656   2.19435   2.20666   2.23970   2.24670
 Alpha virt. eigenvalues --    2.25647   2.28081   2.30568   2.31536   2.36198
 Alpha virt. eigenvalues --    2.36950   2.39088   2.40995   2.43467   2.46616
 Alpha virt. eigenvalues --    2.49733   2.52423   2.54656   2.56779   2.60493
 Alpha virt. eigenvalues --    2.62526   2.64797   2.67504   2.72630   2.74792
 Alpha virt. eigenvalues --    2.78554   2.82101   2.84362   2.88003   2.93361
 Alpha virt. eigenvalues --    2.95802   2.97727   3.02261   3.07357   3.83367
 Alpha virt. eigenvalues --    3.92338   3.95512   4.00826   4.07027   4.13666
 Alpha virt. eigenvalues --    4.21684   4.22559   4.24155   4.25129   4.28883
 Alpha virt. eigenvalues --    4.36250   4.43388   4.52408   4.63809
          Condensed to atoms (all electrons):
               1          2          3          4          5          6
     1  C    5.014416   0.214665  -0.033407  -0.038087   0.280925   0.002908
     2  C    0.214665   5.142357   0.267213  -0.002073  -0.039598  -0.042356
     3  C   -0.033407   0.267213   4.858035  -0.037201  -0.001492   0.357989
     4  C   -0.038087  -0.002073  -0.037201   5.080090   0.280239   0.002928
     5  C    0.280925  -0.039598  -0.001492   0.280239   5.065680  -0.000267
     6  H    0.002908  -0.042356   0.357989   0.002928  -0.000267   0.424633
     7  H   -0.033659   0.368448  -0.046443   0.001234  -0.005972   0.001054
     8  H    0.381911  -0.042253  -0.003486  -0.002406  -0.049294  -0.000041
     9  H   -0.005803   0.000830  -0.000183   0.358813  -0.032510  -0.000161
    10  H   -0.054579  -0.001371   0.000330  -0.041038   0.353697  -0.000022
    11  O    0.002847  -0.026671   0.376841   0.118074  -0.022332  -0.033436
    12  O   -0.029433   0.239535  -0.032451  -0.000006   0.002429   0.004178
    13  O    0.265040  -0.038397   0.002692   0.002244  -0.038230  -0.000037
    14  O   -0.037406   0.002822  -0.000095  -0.035789   0.193281   0.000003
    15  C    0.002697  -0.000114   0.001541   0.354219  -0.025304  -0.000171
    16  H   -0.000189  -0.000069   0.000825  -0.029459  -0.002878  -0.000030
    17  H    0.000504  -0.000037   0.000014  -0.044271   0.003987   0.000005
    18  O   -0.000032  -0.000012   0.000238  -0.040103   0.001919   0.000019
    19  C   -0.002978  -0.048461  -0.004535   0.000000   0.000138   0.000115
    20  H    0.000011   0.005080  -0.000069   0.000000  -0.000004  -0.000075
    21  H    0.005685  -0.008958  -0.000484  -0.000005   0.000146   0.000120
    22  H   -0.001789  -0.003635   0.006180  -0.000039   0.000032  -0.000045
    23  C   -0.043128  -0.004941   0.000251   0.000206  -0.005619  -0.000001
    24  H   -0.003505  -0.002104   0.000077  -0.000287   0.004531  -0.000001
    25  H    0.005137   0.000015  -0.000005  -0.000001  -0.000060   0.000000
    26  H   -0.010613   0.006628   0.000095   0.000025  -0.000638   0.000012
    27  C   -0.002442  -0.000025   0.000002   0.003870  -0.028319   0.000000
    28  H    0.001586  -0.000050  -0.000003   0.000004  -0.004243   0.000000
    29  H   -0.000565   0.000067  -0.000003   0.000160  -0.010740   0.000000
    30  H   -0.000102   0.000004   0.000000  -0.000165   0.004779   0.000000
    31  C    0.000001   0.000000  -0.000003   0.005016  -0.000138  -0.000001
    32  H    0.000000   0.000000   0.000001  -0.000191   0.000027   0.000000
    33  H    0.000000   0.000000   0.000000  -0.000259   0.000000   0.000000
    34  H    0.000000   0.000000  -0.000001   0.000257   0.000009   0.000000
               7          8          9         10         11         12
     1  C   -0.033659   0.381911  -0.005803  -0.054579   0.002847  -0.029433
     2  C    0.368448  -0.042253   0.000830  -0.001371  -0.026671   0.239535
     3  C   -0.046443  -0.003486  -0.000183   0.000330   0.376841  -0.032451
     4  C    0.001234  -0.002406   0.358813  -0.041038   0.118074  -0.000006
     5  C   -0.005972  -0.049294  -0.032510   0.353697  -0.022332   0.002429
     6  H    0.001054  -0.000041  -0.000161  -0.000022  -0.033436   0.004178
     7  H    0.485217   0.004178   0.000001   0.004869  -0.000157  -0.036376
     8  H    0.004178   0.543008   0.002990   0.005594   0.000615  -0.003272
     9  H    0.000001   0.002990   0.475319   0.005349  -0.028888  -0.000001
    10  H    0.004869   0.005594   0.005349   0.581296   0.000761  -0.000054
    11  O   -0.000157   0.000615  -0.028888   0.000761   7.943295   0.001630
    12  O   -0.036376  -0.003272  -0.000001  -0.000054   0.001630   8.184329
    13  O   -0.004975  -0.042355  -0.000021  -0.002435   0.000013   0.003724
    14  O   -0.000005   0.002365   0.005324  -0.034164   0.001085  -0.000008
    15  C    0.000111  -0.000053  -0.034988  -0.004554  -0.034246   0.000000
    16  H    0.000031   0.000005   0.005315   0.004229  -0.004193   0.000000
    17  H   -0.000013  -0.000013  -0.003263  -0.001065   0.003017   0.000000
    18  O    0.000000   0.000001   0.004396   0.000058   0.002446   0.000000
    19  C    0.005192   0.005173  -0.000004   0.000002  -0.000002   0.231081
    20  H   -0.000131  -0.000016   0.000000   0.000000   0.000001  -0.029825
    21  H   -0.000130  -0.002324  -0.000003  -0.000008   0.000029  -0.032705
    22  H   -0.000291   0.000206   0.000004  -0.000001  -0.000443  -0.035966
    23  C    0.006557   0.005603  -0.000001   0.002186   0.000001  -0.003795
    24  H   -0.000801  -0.000352  -0.000003   0.001995  -0.000003   0.000292
    25  H   -0.000097  -0.000129   0.000000  -0.000043   0.000000  -0.000001
    26  H   -0.000170  -0.000086   0.000000  -0.000175  -0.000004   0.006228
    27  C   -0.000023  -0.000145  -0.000156  -0.006070  -0.000042   0.000000
    28  H    0.000000  -0.000072  -0.000002  -0.001291   0.000003   0.000001
    29  H    0.000005   0.000057   0.000081   0.011814  -0.000001   0.000000
    30  H    0.000000  -0.000004  -0.000015  -0.000011   0.000000   0.000000
    31  C    0.000000   0.000000  -0.000006  -0.000005  -0.000019   0.000000
    32  H    0.000000   0.000000  -0.000051  -0.000001   0.000004   0.000000
    33  H    0.000000   0.000000  -0.000011   0.000000   0.000004   0.000000
    34  H    0.000000   0.000000   0.000053   0.000002  -0.000023   0.000000
              13         14         15         16         17         18
     1  C    0.265040  -0.037406   0.002697  -0.000189   0.000504  -0.000032
     2  C   -0.038397   0.002822  -0.000114  -0.000069  -0.000037  -0.000012
     3  C    0.002692  -0.000095   0.001541   0.000825   0.000014   0.000238
     4  C    0.002244  -0.035789   0.354219  -0.029459  -0.044271  -0.040103
     5  C   -0.038230   0.193281  -0.025304  -0.002878   0.003987   0.001919
     6  H   -0.000037   0.000003  -0.000171  -0.000030   0.000005   0.000019
     7  H   -0.004975  -0.000005   0.000111   0.000031  -0.000013   0.000000
     8  H   -0.042355   0.002365  -0.000053   0.000005  -0.000013   0.000001
     9  H   -0.000021   0.005324  -0.034988   0.005315  -0.003263   0.004396
    10  H   -0.002435  -0.034164  -0.004554   0.004229  -0.001065   0.000058
    11  O    0.000013   0.001085  -0.034246  -0.004193   0.003017   0.002446
    12  O    0.003724  -0.000008   0.000000   0.000000   0.000000   0.000000
    13  O    8.187701   0.001310  -0.000030   0.000001  -0.000001   0.000000
    14  O    0.001310   8.251559  -0.003541   0.000329   0.006191  -0.000006
    15  C   -0.000030  -0.003541   4.872536   0.345955   0.360517   0.236955
    16  H    0.000001   0.000329   0.345955   0.594593  -0.045670  -0.040285
    17  H   -0.000001   0.006191   0.360517  -0.045670   0.567492  -0.036491
    18  O    0.000000  -0.000006   0.236955  -0.040285  -0.036491   8.210478
    19  C   -0.003599  -0.000001   0.000000   0.000000   0.000000   0.000000
    20  H    0.000002   0.000000   0.000000   0.000000   0.000000   0.000000
    21  H    0.006294   0.000003   0.000000   0.000000   0.000000   0.000000
    22  H    0.000218   0.000000   0.000000   0.000000   0.000000   0.000000
    23  C    0.229908  -0.000043   0.000000  -0.000001  -0.000001   0.000000
    24  H   -0.036460  -0.000021   0.000012  -0.000006   0.000003   0.000000
    25  H   -0.030702  -0.000005   0.000000   0.000000   0.000000   0.000000
    26  H   -0.033202   0.000000  -0.000001   0.000000   0.000000   0.000000
    27  C   -0.002702   0.230754  -0.000026  -0.000002  -0.000027   0.000000
    28  H    0.007965  -0.033996  -0.000019   0.000001   0.000062   0.000000
    29  H    0.000177  -0.034056   0.000120  -0.000045   0.000076   0.000000
    30  H    0.000120  -0.031914   0.000011   0.000000  -0.000051   0.000000
    31  C    0.000000   0.000005  -0.039905  -0.004228  -0.003687   0.243406
    32  H    0.000000  -0.000004  -0.006984  -0.002345   0.010539  -0.036185
    33  H    0.000000   0.000000   0.005547  -0.000138  -0.000114  -0.031435
    34  H    0.000000   0.000000  -0.008460   0.011816  -0.002108  -0.035681
              19         20         21         22         23         24
     1  C   -0.002978   0.000011   0.005685  -0.001789  -0.043128  -0.003505
     2  C   -0.048461   0.005080  -0.008958  -0.003635  -0.004941  -0.002104
     3  C   -0.004535  -0.000069  -0.000484   0.006180   0.000251   0.000077
     4  C    0.000000   0.000000  -0.000005  -0.000039   0.000206  -0.000287
     5  C    0.000138  -0.000004   0.000146   0.000032  -0.005619   0.004531
     6  H    0.000115  -0.000075   0.000120  -0.000045  -0.000001  -0.000001
     7  H    0.005192  -0.000131  -0.000130  -0.000291   0.006557  -0.000801
     8  H    0.005173  -0.000016  -0.002324   0.000206   0.005603  -0.000352
     9  H   -0.000004   0.000000  -0.000003   0.000004  -0.000001  -0.000003
    10  H    0.000002   0.000000  -0.000008  -0.000001   0.002186   0.001995
    11  O   -0.000002   0.000001   0.000029  -0.000443   0.000001  -0.000003
    12  O    0.231081  -0.029825  -0.032705  -0.035966  -0.003795   0.000292
    13  O   -0.003599   0.000002   0.006294   0.000218   0.229908  -0.036460
    14  O   -0.000001   0.000000   0.000003   0.000000  -0.000043  -0.000021
    15  C    0.000000   0.000000   0.000000   0.000000   0.000000   0.000012
    16  H    0.000000   0.000000   0.000000   0.000000  -0.000001  -0.000006
    17  H    0.000000   0.000000   0.000000   0.000000  -0.000001   0.000003
    18  O    0.000000   0.000000   0.000000   0.000000   0.000000   0.000000
    19  C    4.942359   0.387186   0.368970   0.362614   0.000417  -0.000020
    20  H    0.387186   0.494427  -0.027545  -0.027659   0.000011   0.000000
    21  H    0.368970  -0.027545   0.545094  -0.040895  -0.000413   0.000037
    22  H    0.362614  -0.027659  -0.040895   0.577224  -0.000017   0.000001
    23  C    0.000417   0.000011  -0.000413  -0.000017   4.948169   0.360606
    24  H   -0.000020   0.000000   0.000037   0.000001   0.360606   0.583653
    25  H    0.000012  -0.000001  -0.000042   0.000000   0.387800  -0.029411
    26  H   -0.000388  -0.000028  -0.000204   0.000043   0.364871  -0.042365
    27  C    0.000000   0.000000   0.000000   0.000000   0.000235   0.000700
    28  H    0.000000   0.000000   0.000000   0.000000  -0.000705  -0.000404
    29  H    0.000000   0.000000   0.000000   0.000000  -0.000175   0.000230
    30  H    0.000000   0.000000   0.000000   0.000000   0.000013  -0.000020
    31  C    0.000000   0.000000   0.000000   0.000000   0.000000   0.000000
    32  H    0.000000   0.000000   0.000000   0.000000   0.000000   0.000000
    33  H    0.000000   0.000000   0.000000   0.000000   0.000000   0.000000
    34  H    0.000000   0.000000   0.000000   0.000000   0.000000   0.000000
              25         26         27         28         29         30
     1  C    0.005137  -0.010613  -0.002442   0.001586  -0.000565  -0.000102
     2  C    0.000015   0.006628  -0.000025  -0.000050   0.000067   0.000004
     3  C   -0.000005   0.000095   0.000002  -0.000003  -0.000003   0.000000
     4  C   -0.000001   0.000025   0.003870   0.000004   0.000160  -0.000165
     5  C   -0.000060  -0.000638  -0.028319  -0.004243  -0.010740   0.004779
     6  H    0.000000   0.000012   0.000000   0.000000   0.000000   0.000000
     7  H   -0.000097  -0.000170  -0.000023   0.000000   0.000005   0.000000
     8  H   -0.000129  -0.000086  -0.000145  -0.000072   0.000057  -0.000004
     9  H    0.000000   0.000000  -0.000156  -0.000002   0.000081  -0.000015
    10  H   -0.000043  -0.000175  -0.006070  -0.001291   0.011814  -0.000011
    11  O    0.000000  -0.000004  -0.000042   0.000003  -0.000001   0.000000
    12  O   -0.000001   0.006228   0.000000   0.000001   0.000000   0.000000
    13  O   -0.030702  -0.033202  -0.002702   0.007965   0.000177   0.000120
    14  O   -0.000005   0.000000   0.230754  -0.033996  -0.034056  -0.031914
    15  C    0.000000  -0.000001  -0.000026  -0.000019   0.000120   0.000011
    16  H    0.000000   0.000000  -0.000002   0.000001  -0.000045   0.000000
    17  H    0.000000   0.000000  -0.000027   0.000062   0.000076  -0.000051
    18  O    0.000000   0.000000   0.000000   0.000000   0.000000   0.000000
    19  C    0.000012  -0.000388   0.000000   0.000000   0.000000   0.000000
    20  H   -0.000001  -0.000028   0.000000   0.000000   0.000000   0.000000
    21  H   -0.000042  -0.000204   0.000000   0.000000   0.000000   0.000000
    22  H    0.000000   0.000043   0.000000   0.000000   0.000000   0.000000
    23  C    0.387800   0.364871   0.000235  -0.000705  -0.000175   0.000013
    24  H   -0.029411  -0.042365   0.000700  -0.000404   0.000230  -0.000020
    25  H    0.500143  -0.027333   0.000029  -0.000099   0.000003  -0.000001
    26  H   -0.027333   0.560713   0.000009   0.000174   0.000005   0.000000
    27  C    0.000029   0.000009   4.911570   0.368366   0.367324   0.384037
    28  H   -0.000099   0.000174   0.368366   0.557398  -0.041474  -0.029716
    29  H    0.000003   0.000005   0.367324  -0.041474   0.573744  -0.027621
    30  H   -0.000001   0.000000   0.384037  -0.029716  -0.027621   0.515901
    31  C    0.000000   0.000000   0.000000   0.000000   0.000000   0.000000
    32  H    0.000000   0.000000   0.000000   0.000000   0.000000   0.000000
    33  H    0.000000   0.000000   0.000000   0.000000   0.000000   0.000000
    34  H    0.000000   0.000000   0.000000   0.000000   0.000000   0.000000
              31         32         33         34
     1  C    0.000001   0.000000   0.000000   0.000000
     2  C    0.000000   0.000000   0.000000   0.000000
     3  C   -0.000003   0.000001   0.000000  -0.000001
     4  C    0.005016  -0.000191  -0.000259   0.000257
     5  C   -0.000138   0.000027   0.000000   0.000009
     6  H   -0.000001   0.000000   0.000000   0.000000
     7  H    0.000000   0.000000   0.000000   0.000000
     8  H    0.000000   0.000000   0.000000   0.000000
     9  H   -0.000006  -0.000051  -0.000011   0.000053
    10  H   -0.000005  -0.000001   0.000000   0.000002
    11  O   -0.000019   0.000004   0.000004  -0.000023
    12  O    0.000000   0.000000   0.000000   0.000000
    13  O    0.000000   0.000000   0.000000   0.000000
    14  O    0.000005  -0.000004   0.000000   0.000000
    15  C   -0.039905  -0.006984   0.005547  -0.008460
    16  H   -0.004228  -0.002345  -0.000138   0.011816
    17  H   -0.003687   0.010539  -0.000114  -0.002108
    18  O    0.243406  -0.036185  -0.031435  -0.035681
    19  C    0.000000   0.000000   0.000000   0.000000
    20  H    0.000000   0.000000   0.000000   0.000000
    21  H    0.000000   0.000000   0.000000   0.000000
    22  H    0.000000   0.000000   0.000000   0.000000
    23  C    0.000000   0.000000   0.000000   0.000000
    24  H    0.000000   0.000000   0.000000   0.000000
    25  H    0.000000   0.000000   0.000000   0.000000
    26  H    0.000000   0.000000   0.000000   0.000000
    27  C    0.000000   0.000000   0.000000   0.000000
    28  H    0.000000   0.000000   0.000000   0.000000
    29  H    0.000000   0.000000   0.000000   0.000000
    30  H    0.000000   0.000000   0.000000   0.000000
    31  C    4.891022   0.368194   0.386327   0.366585
    32  H    0.368194   0.586019  -0.030287  -0.045243
    33  H    0.386327  -0.030287   0.521424  -0.030503
    34  H    0.366585  -0.045243  -0.030503   0.589105
 Mulliken charges:
               1
     1  C    0.119382
     2  C    0.013462
     3  C    0.287538
     4  C    0.064005
     5  C    0.075818
     6  H    0.282679
     7  H    0.252347
     8  H    0.194595
     9  H    0.247595
    10  H    0.174705
    11  O   -0.300207
    12  O   -0.469534
    13  O   -0.474263
    14  O   -0.483977
    15  C   -0.021827
    16  H    0.166438
    17  H    0.184404
    18  O   -0.479687
    19  C   -0.243273
    20  H    0.198633
    21  H    0.187337
    22  H    0.164259
    23  C   -0.247992
    24  H    0.163628
    25  H    0.194789
    26  H    0.176407
    27  C   -0.226918
    28  H    0.176514
    29  H    0.160815
    30  H    0.184754
    31  C   -0.212565
    32  H    0.156504
    33  H    0.179444
    34  H    0.154192
 Sum of Mulliken charges =   1.00000
 Mulliken charges with hydrogens summed into heavy atoms:
               1
     1  C    0.313978
     2  C    0.265809
[...]
 .00026421,0.00001884,0.00004709,0.00005207,0.00004522,0.00004500,0.000
 01120,0.00007686,-0.00000692,-0.00000563,-0.00000969,-0.00000144,0.000
 00252,-0.00001435,-0.00000411,0.00000371,-0.00000843,-0.00011197,-0.00
 002911,-0.00009401,-0.00006023,-0.00005086,0.00011556,-0.00000454,0.00
 000470,0.00002228,0.00003108,0.00000191,0.00002460,-0.01209902,-0.0532
 0457,-0.01777507,-0.00039956,0.00281943,0.00290730,0.01074295,0.064203
 07,0.00042699,-0.00029140,0.00001053,-0.00005285,0.00011080,-0.0000862
 6,0.00002472,0.00015434,-0.00001097,-0.00027995,0.00053605,0.00052674,
 0.00123964,0.00318942,0.00110508,-0.00001949,-0.00000655,-0.00003059,0
 .00002144,0.00002126,-0.00000245,0.00015307,0.00009752,-0.00005046,-0.
 00019692,0.00015101,-0.00001528,-0.00044999,-0.00111336,0.00063465,0.0
 0000479,-0.00034638,0.00010613,-0.00018675,-0.00022693,0.00001637,-0.0
 0041036,0.00006036,0.00028710,-0.00020175,-0.01381296,-0.01099587,-0.0
 0005243,-0.00001981,-0.00003436,0.00001772,-0.00004732,0.00001767,0.00
 015425,-0.00015672,-0.00026396,0.00020713,-0.00000888,0.00005583,0.000
 04248,0.00003271,0.00009682,-0.00001187,-0.00001168,-0.00000590,0.0000
 1296,0.00000405,-0.00001287,0.00000150,0.00000675,-0.00001127,0.000041
 87,-0.00009954,-0.00045342,0.00028721,-0.00011137,-0.00006772,0.000003
 10,0.00002588,0.00002520,0.00003609,0.00000140,0.00004766,-0.09822301,
 -0.02279832,-0.25643357,0.00081391,0.00158931,0.00284905,0.10652658,0.
 03515566,0.27924070,-0.00054083,0.00107490,0.00004493,0.00021054,-0.00
 023313,0.00006787,-0.00025567,-0.00004757,0.00010564,0.00030250,0.0000
 3720,-0.00021427,0.00042316,0.00307963,0.00000141,0.00001530,-0.000004
 27,-0.00002764,-0.00001535,0.00003857,-0.00000358,0.00003286,-0.000025
 82,-0.00001744,0.00001416,0.00000718,0.00003605,-0.00011939,-0.0001198
 6,0.00011134,0.00006316,0.00032931,-0.00001862,0.00001385,0.00002731,-
 0.00003540,-0.00051916,-0.00120722,0.00015494,0.00507177,0.00788487,-0
 .00708693,0.00001961,0.00003225,-0.00002392,-0.00000794,-0.00000753,0.
 00000845,-0.00001504,-0.00000143,-0.00002287,-0.00000179,-0.00001601,0
 .00000837,0.00000148,0.00001328,0.00000400,-0.00000073,-0.00000464,0.0
 0000065,0.00000518,0.00000233,0.00001382,0.00000058,-0.00000431,-0.000
 00099,0.00033465,0.00001157,-0.00035295,-0.00003887,0.00006557,-0.0001
 4847,0.00003044,0.00002647,-0.00000622,-0.00004204,-0.00006788,-0.0000
 0133,-0.09831817,-0.07327641,0.07521379,-0.00963433,-0.02047224,0.0222
 8323,0.00686486,0.01009193,-0.00987864,0.09610788,0.00076362,-0.000891
 93,0.00057563,-0.00014294,0.00015290,-0.00013645,0.00018471,0.00030750
 ,-0.00003751,-0.00112059,0.00000911,0.00085192,0.00109789,-0.00319887,
 -0.00387917,-0.00005168,-0.00001014,-0.00003717,-0.00000183,0.00006626
 ,-0.00003395,0.00002005,-0.00000554,-0.00000875,-0.00004066,0.00000926
 ,-0.00004491,0.00009623,-0.00000157,0.00009880,0.00021008,-0.00096079,
 -0.00000330,-0.00030038,-0.00035056,-0.00000257,-0.00034985,0.00040821
 ,0.00010967,-0.00863963,-0.03477516,0.01926139,-0.00023688,-0.00004198
 ,-0.00009031,0.00002195,-0.00001950,-0.00000005,-0.00002232,-0.0000068
 6,-0.00002704,0.00030649,-0.00003901,0.00003724,0.00007557,0.00003253,
 0.00017755,-0.00001621,-0.00001497,-0.00001766,0.00000728,0.00000599,-
 0.00002040,0.00000042,0.00000313,-0.00002139,0.00001780,-0.00002189,-0
 .00027958,0.00001885,-0.00004766,0.00011465,-0.00002756,0.00001101,0.0
 0002863,0.00003136,0.00000320,0.00004905,-0.06703268,-0.15350716,0.111
 02385,0.00018247,0.00466667,-0.00209385,0.00223925,0.00511439,-0.00206
 332,0.07276126,0.18312829,0.00009438,-0.00020853,0.00026130,-0.0000798
 0,-0.00002718,0.00004062,0.00003482,0.00007264,-0.00000555,-0.00029715
 ,-0.00007680,0.00055482,0.00010421,-0.00311057,0.00009986,-0.00001519,
 -0.00000201,-0.00001729,-0.00001673,0.00000952,-0.00001823,0.00004877,
 0.00001586,0.00001654,-0.00004386,0.00003592,-0.00003776,0.00002990,-0
 .00024932,0.00046238,0.00010356,-0.00018211,-0.00004292,-0.00003979,-0
 .00004815,0.00001831,0.00003340,0.00015806,-0.00006129,-0.00533166,-0.
 01244479,0.01025793,0.00001310,-0.00001419,-0.00004454,-0.00000516,-0.
 00001566,0.00000416,0.00002437,0.00001107,-0.00000041,-0.00001142,0.00
 000845,0.00000878,0.00000814,-0.00000850,0.00001205,-0.00000036,0.0000
 0068,-0.00000495,-0.00000458,-0.00000044,-0.00000504,-0.00000265,-0.00
 000002,-0.00000137,-0.00013829,-0.00005156,-0.00008877,-0.00003609,-0.
 00002950,0.00015555,0.00002114,0.00000687,0.00001390,0.00004268,0.0000
 2685,0.00001941,0.07394062,0.12226021,-0.17708113,-0.00069370,-0.00046
 844,0.00088792,0.01242008,0.01781751,-0.01651159,-0.08021451,-0.123491
 66,0.18110741,-0.00056495,0.00011152,-0.00018795,-0.00033784,-0.000594
 46,-0.00014301,-0.00193426,-0.00023753,0.00052121,-0.00270983,0.000338
 70,0.00038946,0.00003244,0.00082366,-0.00037473,0.00014218,-0.00002701
 ,-0.00016485,0.00008891,-0.00002387,0.00011514,0.00003066,0.00000781,0
 .00002975,-0.00046440,0.00013656,-0.00021274,-0.00016793,0.00001359,0.
 00009033,0.00197160,0.00105664,0.00006040,0.00056494,0.00023654,0.0001
 8746,0.00075712,-0.00037996,-0.00020008,0.00061765,-0.00083009,0.00023
 849,-0.04927871,0.00593749,-0.00769785,0.00536072,-0.00282421,-0.00344
 470,0.00604318,-0.00399855,-0.00182547,-0.18832413,-0.00014323,-0.0441
 7271,-0.00014224,-0.00003575,-0.00028651,0.00003716,0.00002334,0.00002
 449,-0.00000898,-0.00001075,0.00003624,-0.00001281,-0.00001679,0.00002
 667,-0.00008951,0.00009293,0.00032587,-0.00003560,0.00002941,-0.000022
 20,0.00003408,-0.00003333,-0.00002485,-0.00000352,-0.00000653,-0.00004
 575,-0.00012302,0.00077731,0.00024598,0.00007169,-0.00011292,-0.000065
 19,-0.00000764,-0.00001381,-0.00009092,-0.00000018,-0.00011192,0.00001
 750,0.49895163,-0.00020379,-0.00038327,-0.00013037,-0.00013773,-0.0001
 6184,0.00001828,-0.00026268,0.00021695,-0.00003543,0.00333945,-0.00363
 988,-0.00181551,0.00112051,0.00101981,0.00037878,0.00003316,-0.0000032
 5,-0.00000266,-0.00000231,-0.00000926,0.00001152,0.00000370,0.00001621
 ,0.00001446,-0.00008288,-0.00000620,-0.00006423,-0.00006076,0.00004725
 ,0.00001016,0.00009311,0.00018421,0.00003513,0.00007920,0.00007936,0.0
 0003682,0.00043721,-0.00010445,-0.00007155,-0.00003931,-0.00025470,0.0
 0001571,0.02530836,-0.00270723,0.01118865,-0.00041159,0.00049650,-0.00
 063812,0.00392262,0.00142379,0.00042674,-0.02844711,-0.07696288,-0.026
 36538,-0.00002621,-0.00001126,-0.00005615,0.00000575,0.00000684,0.0000
 0379,-0.00000452,-0.00000433,0.00000361,-0.00000109,-0.00000134,0.0000
 0518,-0.00003648,0.00003120,0.00014214,-0.00001369,0.00001033,-0.00001
 511,0.00001522,-0.00000805,-0.00001482,0.00000269,0.00000034,-0.000022
 38,-0.00002491,0.00022040,0.00009881,0.00000733,-0.00003068,-0.0000241
 2,0.00001952,-0.00001357,-0.00004022,0.00001084,-0.00004987,0.00001399
 ,-0.03306022,0.59503809,-0.00036964,-0.00031203,-0.00019464,-0.0002029
 7,-0.00033627,0.00000267,-0.00099039,-0.00010355,0.00032935,0.00186757
 ,-0.00307598,-0.00264970,0.00105411,0.00103978,0.00095658,0.00009694,-
 0.00000241,-0.00010935,0.00005168,-0.00002676,0.00006128,0.00000662,0.
 00002100,0.00001890,-0.00026046,0.00007531,0.00034720,-0.00019735,0.00
 006791,0.00006549,0.00109388,0.00057921,-0.00000276,0.00032409,0.00017
 586,0.00007363,0.00070744,-0.00023622,-0.00018350,0.00034177,-0.000612
 45,0.00008839,0.01354686,0.00395801,0.00464228,0.00522793,-0.00207098,
 0.00109942,0.00135498,-0.00168532,-0.00032164,-0.07503367,-0.01602219,
 -0.10769701,-0.00007720,-0.00002739,-0.00015139,0.00002221,0.00001491,
 0.00001251,-0.00000891,-0.00000331,0.00001742,-0.00000724,-0.00001146,
 0.00001446,-0.00007440,0.00006379,0.00028582,-0.00002516,0.00001019,-0
 .00002085,0.00002375,-0.00002128,-0.00002730,0.00000778,0.00000355,-0.
 00004073,-0.00008378,0.00048172,0.00020381,0.00005222,-0.00006573,-0.0
 0004175,-0.00001334,-0.00001133,-0.00005795,-0.00000307,-0.00007436,0.
 00000006,-0.06305451,0.01422716,0.56628588,0.00007163,0.00002499,0.000
 04678,0.00003859,0.00005705,0.00004312,0.00024607,0.00016327,-0.000087
 96,0.00016768,0.00017284,0.00001083,-0.00013403,-0.00027132,-0.0000353
 3,-0.00000903,0.00000359,-0.00000629,-0.00001708,0.00000428,-0.0000154
 8,-0.00000086,-0.00000219,-0.00000589,0.00011478,-0.00001876,0.0000744
 8,0.00000573,0.00000490,-0.00000874,-0.00010299,0.00006315,0.00010979,
 -0.00008232,-0.00002525,-0.00002512,-0.00011403,0.00005346,0.00002408,
 0.00001704,0.00012171,-0.00002260,0.00468563,-0.00635114,-0.00187958,-
 0.00059995,0.00043110,0.00042067,0.00102043,0.00181189,0.00034820,-0.0
 2919825,-0.03047296,-0.00551830,0.00001959,0.00000376,0.00003775,-0.00
 000481,-0.00000291,-0.00000337,0.00000072,0.00000148,-0.00000485,0.000
 00124,0.00000196,-0.00000367,0.00000897,-0.00001552,-0.00004791,0.0000
 0605,-0.00000320,0.00000492,-0.00000424,0.00000440,0.00000396,0.000001
 00,0.00000176,0.00000628,0.00000547,-0.00007494,-0.00003681,-0.0000043
 7,0.00000855,0.00000745,-0.00000319,0.00000341,0.00001287,-0.00000287,
 0.00001652,-0.00000197,-0.07210539,-0.06423871,0.01001571,0.08540534,0
 .00008175,0.00001935,0.00004483,0.00005220,0.00008328,0.00000344,0.000
 27490,0.00004109,-0.00007618,-0.00008993,0.00048709,0.00024637,-0.0000
 6558,-0.00024591,-0.00002491,-0.00001020,0.00000355,0.00002679,-0.0000
 0730,-0.00000035,-0.00001286,-0.00000385,-0.00000358,-0.00000607,0.000
 06027,-0.00003632,0.00003877,0.00002471,-0.00000020,-0.00001342,-0.000
 08901,-0.00008003,0.00000734,-0.00007971,-0.00003016,-0.00002871,-0.00
 012704,0.00006119,0.00002497,-0.00006386,0.00014935,-0.00005005,0.0023
 7635,0.00242471,-0.00109921,-0.00016191,-0.00025354,0.00040443,-0.0020
 6448,0.00043315,0.00061914,-0.00854235,0.00250825,-0.00503985,0.000021
 76,0.00000400,0.00004285,-0.00000458,-0.00000371,-0.00000337,0.0000009
 1,0.00000278,-0.00000509,0.00000168,0.00000138,-0.00000330,0.00001218,
 -0.00001637,-0.00004973,0.00000562,-0.00000490,0.00000517,-0.00000569,
 0.00000492,0.00000424,0.00000133,0.00000181,0.00000713,0.00001483,-0.0
 0011495,-0.00003875,-0.00000715,0.00001619,0.00001011,-0.00000048,0.00
 000188,0.00001528,-0.00000279,0.00002172,-0.00000460,-0.06795128,-0.28
 110107,0.02517918,0.08299092,0.29940004,0.00005361,0.00001316,0.000024
 99,0.00002801,0.00004636,0.00001254,0.00016509,0.00005720,-0.00006149,
 0.00022272,0.00006686,0.00002538,-0.00000306,-0.00012874,-0.00000796,-
 0.00001600,0.00000010,0.00001269,-0.00001058,0.00000510,-0.00000980,-0
 .00000281,-0.00000332,-0.00000351,0.00001574,-0.00002291,0.00001558,0.
 00001507,0.00000810,-0.00000815,-0.00019179,-0.00009999,0.00000323,-0.
 00005576,-0.00002522,-0.00001579,-0.00007791,0.00002945,0.00001632,-0.
 00006427,0.00007382,-0.00003126,0.00213509,-0.00102074,-0.00052413,-0.
 00034607,0.00045490,-0.00008593,0.00013124,0.00073738,0.00000384,-0.01
 372944,-0.01772987,0.00173898,0.00001277,0.00000456,0.00002751,-0.0000
 0360,-0.00000205,-0.00000236,0.00000099,0.00000069,-0.00000291,0.00000
 146,0.00000128,-0.00000297,0.00001135,-0.00000606,-0.00003033,0.000002
 55,-0.00000267,0.00000117,-0.00000309,0.00000309,0.00000283,-0.0000006
 2,-0.00000042,0.00000433,0.00001238,-0.00006384,-0.00001168,-0.0000081
 7,0.00000955,0.00000391,0.00000281,-0.00000012,0.00000352,0.00000080,0
 .00001145,-0.00000091,0.00988419,0.02741527,-0.05680502,-0.00250317,-0
 .02447540,0.05449193,0.00016403,0.00018961,0.00009924,0.00009109,0.000
 12215,0.00000335,0.00032340,0.00000340,-0.00007297,-0.00079913,0.00169
 214,0.00107104,-0.00051429,-0.00059830,-0.00028557,-0.00004061,0.00000
 210,0.00002737,-0.00001410,0.00001050,-0.00001831,-0.00000229,-0.00001
 118,-0.00001091,0.00008310,-0.00004944,0.00000270,0.00004881,-0.000013
 65,-0.00001861,-0.00032779,-0.00019554,0.00001939,-0.00011712,-0.00007
 288,-0.00003812,-0.00029262,0.00007908,0.00005655,-0.00005108,0.000207
 56,-0.00003756,-0.00317000,-0.00242829,-0.00415123,-0.00012385,-0.0000
 7364,0.00027563,-0.00007168,0.00035803,-0.00003827,-0.03227263,0.02065
 429,0.01239596,0.00002701,0.00001557,0.00006755,-0.00000780,-0.0000056
 8,-0.00000525,0.00000381,0.00000163,-0.00000621,0.00000376,0.00000222,
 -0.00000786,0.00003155,-0.00002143,-0.00010553,0.00000901,-0.00000690,
 0.00000800,-0.00001007,0.00000771,0.00001045,-0.00000252,-0.00000139,0
 .00001609,0.00002872,-0.00016734,-0.00006618,-0.00001690,0.00002183,0.
 00001583,-0.00000168,0.00000618,0.00001919,0.00000023,0.00003093,-0.00
 000189,-0.14441617,0.09742310,0.07988940,0.00881129,-0.00542043,-0.005
 20569,0.17171591,-0.00002080,0.00002778,-0.00001359,-0.00001412,-0.000
 02687,-0.00000702,-0.00008193,0.00002184,0.00002317,-0.00019445,0.0002
 9944,-0.00012796,-0.00007710,0.00000633,-0.00002767,0.00000819,-0.0000
 0114,-0.00001479,0.00000437,-0.00000049,0.00000453,-0.00000012,-0.0000
 0041,0.00000106,-0.00000280,0.00001679,-0.00001290,-0.00000381,-0.0000
 1058,-0.00000197,0.00020518,0.00009191,0.00004626,0.00002467,0.0000090
 4,0.00001102,0.00001440,-0.00001384,-0.00000285,0.00002376,-0.00003600
 ,0.00001821,-0.00165643,0.00130579,0.00044751,0.00010176,-0.00008919,-
 0.00015555,-0.00028111,0.00033781,-0.00001785,-0.00276798,0.00447321,0
 .00381603,-0.00000677,-0.00000168,-0.00001481,0.00000142,0.00000097,0.
 00000119,-0.00000007,-0.00000089,0.00000162,-0.00000068,0.,0.00000136,
 -0.00000316,0.00000296,0.00000554,-0.00000034,0.00000148,0.00000010,0.
 00000098,-0.00000143,-0.00000034,-0.00000038,-0.00000056,-0.00000090,-
 0.00000349,0.00001746,-0.00000064,0.00000403,-0.00000308,-0.00000053,-
 0.00000198,0.00000079,0.00000211,-0.00000161,-0.00000326,-0.00000060,0
 .10568628,-0.16044880,-0.08621670,0.01832508,-0.01662562,-0.01589687,-
 0.11247069,0.16353435,0.00002896,0.00007334,0.00001994,0.00001451,0.00
 001950,-0.00000920,0.00002536,-0.00001759,-0.00000123,-0.00063164,0.00
 043312,0.00070453,-0.00023823,-0.00016122,-0.00012835,-0.00000328,-0.0
 0000126,0.00000559,-0.00000145,0.00000158,-0.00000267,-0.00000249,-0.0
 0000506,-0.00000285,0.00010519,0.00001414,0.00000968,0.00001179,-0.000
 01536,-0.00001206,-0.00003730,-0.00000871,-0.00002859,-0.00001381,-0.0
 0001125,-0.00000268,-0.00007811,0.00001717,0.00001368,0.00000328,0.000
 04564,-0.00000082,-0.00298482,0.00011848,-0.00055559,-0.00039922,0.000
 05177,0.00034494,0.00004012,-0.00006615,-0.00010603,-0.01459470,0.0119
 3297,0.00893781,0.00000346,0.00000222,0.00000814,-0.00000061,-0.000001
 05,-0.00000058,0.00000065,0.00000054,-0.00000029,0.00000009,-0.0000001
 5,-0.00000063,0.00000575,-0.00000630,-0.00002784,0.00000272,0.00000028
 ,0.00000261,-0.00000192,0.00000120,0.00000290,-0.00000107,-0.00000042,
 0.00000388,0.00000370,-0.00003557,-0.00002087,-0.00000226,0.00000402,0
 .00000390,-0.00000057,0.00000170,0.00000532,-0.00000057,0.00000739,0.0
 0000019,0.08933145,-0.08900449,-0.12389653,-0.00293434,0.00336723,0.00
 285394,-0.08586620,0.09325640,0.12486256,0.00007186,0.00003950,0.00003
 498,0.00003058,0.00005094,0.00000399,0.00015281,0.00001577,-0.00004975
 ,-0.00006256,0.00007888,0.00004753,-0.00010138,-0.00023277,0.00010263,
 -0.00001723,0.00000045,0.00001030,-0.00000804,0.00000381,-0.00000913,-
 0.00000202,-0.00000449,-0.00000406,0.00010186,0.00004485,0.00026715,-0
 .00002290,0.00003311,0.00000364,-0.00014026,-0.00006412,0.00001397,-0.
 00005065,-0.00002467,-0.00001432,-0.00010047,0.00003332,0.00001774,-0.
 00001547,0.00005891,-0.00001017,0.00532047,-0.00228973,-0.00585641,0.0
 0056741,-0.00026122,0.00195972,-0.00063953,0.00032298,0.00047359,-0.01
 435869,0.00894941,-0.03942384,0.00001224,0.00000432,0.00002592,-0.0000
 0335,-0.00000218,-0.00000204,0.00000119,0.00000091,-0.00000268,0.00000
 137,0.00000141,-0.00000257,0.00001249,-0.00000917,-0.00004060,0.000004
 58,-0.00000211,0.00000224,-0.00000359,0.00000310,0.00000331,-0.0000006
 0,-0.00000026,0.00000546,0.00001039,-0.00007460,-0.00002244,-0.0000064
 1,0.00000982,0.00000669,-0.00000089,0.00000236,0.00000742,0.00000014,0
 .00001239,-0.00000186,-0.05397686,-0.00476778,0.02471714,0.00175615,-0
 .00122178,0.00952616,0.00091058,-0.00681031,0.01821558,0.06055679,0.00
 002042,0.00000462,0.00000278,0.00001583,0.00001674,0.00000106,0.000049
 04,0.00000423,-0.00000918,0.00010886,0.00007214,-0.00016372,0.00002667
 ,-0.00005555,0.00004096,-0.00000801,0.00000078,0.00000486,0.00000040,0
 .00000225,-0.00000196,-0.00000232,-0.00000174,-0.00000130,-0.00002909,
 -0.00003937,-0.00002686,0.00001043,0.00000018,-0.00000882,-0.00003920,
 -0.00002832,0.00001857,-0.00001760,-0.00001162,-0.00000868,-0.00002467
 ,0.00000749,0.00000167,-0.00000618,0.00003355,-0.00002661,0.00002305,0
 .00003898,0.00108221,0.00006607,-0.00020363,0.00006600,-0.00027190,-0.
 00019318,0.00018637,0.00091696,0.00488053,-0.00668682,0.00000369,0.000
 00273,0.00001221,-0.00000138,-0.00000064,-0.00000096,0.00000051,0.0000
 0012,-0.00000099,0.00000122,0.00000026,-0.00000163,0.00000552,0.000001
 29,-0.00000403,-0.00000029,-0.00000315,-0.00000015,-0.00000171,0.00000
 092,0.00000064,-0.00000001,-0.00000030,0.00000110,0.00000426,-0.000017
 44,0.00000498,-0.00000143,0.00000390,0.00000038,-0.00000229,-0.0000008
 8,0.00000084,-0.00000174,0.00000654,-0.00000301,-0.00485960,-0.0728893
 6,0.06501816,-0.00279317,-0.00714901,0.03053989,0.00070873,0.00711592,
 -0.02001408,0.00609894,0.06840102,0.00011086,0.00005371,0.00004424,0.0
 0005099,0.00008679,0.00001190,0.00027525,0.00004179,-0.00008392,0.0000
 2100,0.00038574,0.00068442,-0.00013641,-0.00027106,-0.00003422,-0.0000
 3076,0.00000052,0.00001723,-0.00001606,0.00000864,-0.00001825,-0.00000
 453,-0.00000451,-0.00000508,0.00036458,-0.00001356,0.00009797,0.000014
 36,0.00000377,-0.00001255,-0.00028382,-0.00017060,-0.00000801,-0.00008
 413,-0.00004569,-0.00001745,-0.00016437,0.00005528,0.00004601,-0.00008
 855,0.00013720,-0.00002095,0.00309943,-0.00277000,0.00079098,-0.001693
 09,0.00104466,0.00007636,-0.00017141,0.00052849,-0.00006345,-0.0157313
 5,0.00103714,-0.01533569,0.00001974,0.00000615,0.00003577,-0.00000632,
 -0.00000367,-0.00000316,0.00000248,0.00000032,-0.00000468,0.00000174,0
 .00000418,-0.00000354,0.00002147,-0.00001532,-0.00007410,0.00000765,-0
 .00000251,0.00000427,-0.00000575,0.00000545,0.00000600,-0.00000192,-0.
 00000152,0.00001010,0.00002083,-0.00013197,-0.00005468,-0.00001449,0.0
 0001807,0.00001170,0.00000328,0.00000419,0.00001611,0.00000212,0.00001
 618,0.00000055,0.02048938,0.06425435,-0.28230502,0.00197448,0.00088423
 ,-0.00163848,0.00195860,0.00487741,-0.01298280,-0.01000528,-0.07002385
 ,0.31081240\\0.00000517,0.00000433,-0.00000294,-0.00000071,-0.00001109
 ,-0.00000083,0.00000388,-0.00000060,0.00000361,-0.00000047,0.00000330,
 -0.00000561,-0.00001018,-0.00000207,0.00000067,0.00000718,0.00000066,0
 .00000473,0.00000550,-0.00000290,0.00000436,0.00000053,-0.00000792,-0.
 00000184,-0.00000155,0.00000263,-0.00000075,-0.00000124,0.00000345,-0.
 00000179,0.00000983,0.00000143,0.00000628,0.00000923,-0.00000281,0.000
 00146,-0.00000494,-0.00001002,0.00000384,0.00000288,0.00000069,-0.0000
 0086,0.00000479,0.00000575,-0.00000510,-0.00000099,0.00000719,-0.00000
 160,-0.00000306,0.00000679,-0.00000194,-0.00000219,0.00001152,0.000003
 46,0.00000594,-0.00001040,0.00000437,0.00000637,-0.00001278,0.00000450
 ,0.00000265,-0.00001074,0.00000404,0.00000485,-0.00000931,0.00000496,-
 0.00000299,-0.00000424,-0.00000026,-0.00000605,-0.00000190,-0.00000073
 ,-0.00000603,-0.00000782,0.00000046,-0.00000103,-0.00000497,0.00000082
 ,-0.00000899,-0.00000453,-0.00000380,-0.00000986,-0.00000244,-0.000003
 69,-0.00000811,0.00000283,-0.00000407,-0.00001184,-0.00000045,-0.00000
 591,0.00000554,0.00001368,-0.00000119,-0.00000149,0.00001386,-0.000002
 82,0.00000433,0.00001445,-0.00000035,0.00000303,0.00001441,-0.00000146
 \\\@


 THERE IS NOTHING NOBLE IN BEING SUPERIOR TO SOME OTHER MAN.
 TRUE NOBILITY IS BEING SUPERIOR TO YOUR FORMER SELF.

                                                   -- HINDU PROVERB
 Job cpu time:       0 days  2 hours 53 minutes 38.0 seconds.
 Elapsed time:       0 days  0 hours 43 minutes 29.2 seconds.
 File lengths (MBytes):  RWF=    379 Int=      0 D2E=      0 Chk=     17 Scr=      1
 Normal termination of Gaussian 16 at Fri May 24 09:19:19 2019.
