 Entering Gaussian System, Link 0=g16
 Input=clay-glucose_cation-082-b3lyp_d3bj-631gd-pcm_thf.gjf
 Output=clay-glucose_cation-082-b3lyp_d3bj-631gd-pcm_thf.out
 Initial command:
 /n/sw/g16_nehalem/g16/l1.exe "/scratch/Gau-60952.inp" -scrdir="/scratch/"
 Entering Link 1 = /n/sw/g16_nehalem/g16/l1.exe PID=     60958.
  
 Copyright (c) 1988,1990,1992,1993,1995,1998,2003,2009,2016,
            Gaussian, Inc.  All Rights Reserved.
  
 This is part of the Gaussian(R) 16 program.  It is based on
 the Gaussian(R) 09 system (copyright 2009, Gaussian, Inc.),
 the Gaussian(R) 03 system (copyright 2003, Gaussian, Inc.),
 the Gaussian(R) 98 system (copyright 1998, Gaussian, Inc.),
 the Gaussian(R) 94 system (copyright 1995, Gaussian, Inc.),
 the Gaussian 92(TM) system (copyright 1992, Gaussian, Inc.),
 the Gaussian 90(TM) system (copyright 1990, Gaussian, Inc.),
 the Gaussian 88(TM) system (copyright 1988, Gaussian, Inc.),
 the Gaussian 86(TM) system (copyright 1986, Carnegie Mellon
 University), and the Gaussian 82(TM) system (copyright 1983,
 Carnegie Mellon University). Gaussian is a federally registered
 trademark of Gaussian, Inc.
  
 This software contains proprietary and confidential information,
 including trade secrets, belonging to Gaussian, Inc.
  
 This software is provided under written license and may be
 used, copied, transmitted, or stored only in accord with that
 written license.
  
 The following legend is applicable only to US Government
 contracts under FAR:
  
                    RESTRICTED RIGHTS LEGEND
  
 Use, reproduction and disclosure by the US Government is
 subject to restrictions as set forth in subparagraphs (a)
 and (c) of the Commercial Computer Software - Restricted
 Rights clause in FAR 52.227-19.
  
 Gaussian, Inc.
 340 Quinnipiac St., Bldg. 40, Wallingford CT 06492
  
  
 ---------------------------------------------------------------
 Warning -- This program may not be used in any manner that
 competes with the business of Gaussian, Inc. or will provide
 assistance to any competitor of Gaussian, Inc.  The licensee
 of this program is prohibited from giving any competitor of
 Gaussian, Inc. access to this program.  By using this program,
 the user acknowledges that Gaussian, Inc. is engaged in the
 business of creating and licensing software in the field of
 computational chemistry and represents and warrants to the
 licensee that it is not a competitor of Gaussian, Inc. and that
 it will not use this program in any manner prohibited above.
 ---------------------------------------------------------------
  

 Cite this work as:
 Gaussian 16, Revision A.03,
 M. J. Frisch, G. W. Trucks, H. B. Schlegel, G. E. Scuseria, 
 M. A. Robb, J. R. Cheeseman, G. Scalmani, V. Barone, 
 G. A. Petersson, H. Nakatsuji, X. Li, M. Caricato, A. V. Marenich, 
 J. Bloino, B. G. Janesko, R. Gomperts, B. Mennucci, H. P. Hratchian, 
 J. V. Ortiz, A. F. Izmaylov, J. L. Sonnenberg, D. Williams-Young, 
 F. Ding, F. Lipparini, F. Egidi, J. Goings, B. Peng, A. Petrone, 
 T. Henderson, D. Ranasinghe, V. G. Zakrzewski, J. Gao, N. Rega, 
 G. Zheng, W. Liang, M. Hada, M. Ehara, K. Toyota, R. Fukuda, 
 J. Hasegawa, M. Ishida, T. Nakajima, Y. Honda, O. Kitao, H. Nakai, 
 T. Vreven, K. Throssell, J. A. Montgomery, Jr., J. E. Peralta, 
 F. Ogliaro, M. J. Bearpark, J. J. Heyd, E. N. Brothers, K. N. Kudin, 
 V. N. Staroverov, T. A. Keith, R. Kobayashi, J. Normand, 
 K. Raghavachari, A. P. Rendell, J. C. Burant, S. S. Iyengar, 
 J. Tomasi, M. Cossi, J. M. Millam, M. Klene, C. Adamo, R. Cammi, 
 J. W. Ochterski, R. L. Martin, K. Morokuma, O. Farkas, 
 J. B. Foresman, and D. J. Fox, Gaussian, Inc., Wallingford CT, 2016.
 
 ******************************************
 Gaussian 16:  ES64L-G16RevA.03 25-Dec-2016
                24-May-2019 
 ******************************************
 %nprocshared=4
 Will use up to    4 processors via shared memory.
 %mem=3GB
 -------------------------------------------------------------------
 #p b3lyp 6-31g* opt freq=noraman scrf=(pcm,solvent=tetrahydrofuran)
 -------------------------------------------------------------------
 1/18=20,19=15,26=3,38=1/1,3;
 2/9=110,12=2,17=6,18=5,40=1/2;
 3/5=1,6=6,7=1,11=2,25=1,30=1,70=2201,71=1,72=20,74=-5/1,2,3;
 4//1;
 5/5=2,38=5,53=20/2;
 6/7=2,8=2,9=2,10=2,28=1/1;
 7//1,2,3,16;
 1/18=20,19=15,26=3/3(2);
 2/9=110/2;
 99//99;
 2/9=110/2;
 3/5=1,6=6,7=1,11=2,25=1,30=1,70=2205,71=1,72=20,74=-5/1,2,3;
 4/5=5,16=3,69=1/1;
 5/5=2,38=5,53=20/2;
 7//1,2,3,16;
 1/18=20,19=15,26=3/3(-5);
 2/9=110/2;
 6/7=2,8=2,9=2,10=2,19=2,28=1/1;
 99/9=1/99;
 Leave Link    1 at Fri May 24 08:30:51 2019, MaxMem=   402653184 cpu:               0.4 elap:               0.2
 (Enter /n/sw/g16_nehalem/g16/l101.exe)
 -----
 title
 -----
 Symbolic Z-matrix:
 Charge =  1 Multiplicity = 1
 6                    -1.13014   0.47344  -0.32288 
 6                    -1.68224  -0.74097   0.4825 
 6                    -1.06329  -1.99219  -0.02798 
 6                     1.04647  -0.89945  -0.59225 
 6                     0.41433   0.47098  -0.25912 
 1                    -1.61898  -2.93215  -0.03153 
 1                    -1.29577  -0.66531   1.51637 
 1                    -1.40779   0.36565  -1.37551 
 1                     1.29603  -0.92704  -1.65317 
 1                     0.74051   0.76737   0.74497 
 8                     0.1124   -2.07728  -0.46241 
 8                    -3.06668  -0.86231   0.60783 
 8                    -1.70167   1.69224   0.07278 
 8                     0.92761   1.35491  -1.23181 
 6                     2.25453  -1.28124   0.26702 
 1                     2.64027  -2.26083  -0.052 
 1                     1.94987  -1.35953   1.32414 
 8                     3.19806  -0.25716   0.0771 
 6                    -3.82736  -0.72621  -0.6051 
 1                    -3.48407  -1.42389  -1.38117 
 1                    -4.85324  -0.97515  -0.33288 
 1                    -3.786     0.30004  -0.98086 
 6                    -1.71383   2.00606   1.46892 
 1                    -0.70973   2.00472   1.90931 
 1                    -2.1245    3.01443   1.53682 
 1                    -2.36411   1.32008   2.02431 
 6                     1.40287   2.60601  -0.72987 
 1                     0.58887   3.19806  -0.2978 
 1                     2.19276   2.4504    0.01442 
 1                     1.81667   3.13646  -1.58964 
 6                     4.3901   -0.46585   0.82926 
 1                     4.18044  -0.4907    1.90776 
 1                     5.04987   0.37448   0.60682 
 1                     4.88264  -1.40378   0.53866 
 
 ITRead=  0  0  0  0  0  0  0  0  0  0  0  0  0  0  0  0  0  0  0  0
 ITRead=  0  0  0  0  0  0  0  0  0  0  0  0  0  0
 MicOpt= -1 -1 -1 -1 -1 -1 -1 -1 -1 -1 -1 -1 -1 -1 -1 -1 -1 -1 -1 -1
 MicOpt= -1 -1 -1 -1 -1 -1 -1 -1 -1 -1 -1 -1 -1 -1
 NAtoms=     34 NQM=       34 NQMF=       0 NMMI=      0 NMMIF=      0
                NMic=       0 NMicF=      0.
                    Isotopes and Nuclear Properties:
 (Nuclear quadrupole moments (NQMom) in fm**2, nuclear magnetic moments (NMagM)
  in nuclear magnetons)

  Atom         1           2           3           4           5           6           7           8           9          10
 IAtWgt=          12          12          12          12          12           1           1           1           1           1
 AtmWgt=  12.0000000  12.0000000  12.0000000  12.0000000  12.0000000   1.0078250   1.0078250   1.0078250   1.0078250   1.0078250
 NucSpn=           0           0           0           0           0           1           1           1           1           1
 AtZEff=   0.0000000   0.0000000   0.0000000   0.0000000   0.0000000   0.0000000   0.0000000   0.0000000   0.0000000   0.0000000
 NQMom=    0.0000000   0.0000000   0.0000000   0.0000000   0.0000000   0.0000000   0.0000000   0.0000000   0.0000000   0.0000000
 NMagM=    0.0000000   0.0000000   0.0000000   0.0000000   0.0000000   2.7928460   2.7928460   2.7928460   2.7928460   2.7928460
 AtZNuc=   6.0000000   6.0000000   6.0000000   6.0000000   6.0000000   1.0000000   1.0000000   1.0000000   1.0000000   1.0000000

  Atom        11          12          13          14          15          16          17          18          19          20
 IAtWgt=          16          16          16          16          12           1           1          16          12           1
 AtmWgt=  15.9949146  15.9949146  15.9949146  15.9949146  12.0000000   1.0078250   1.0078250  15.9949146  12.0000000   1.0078250
 NucSpn=           0           0           0           0           0           1           1           0           0           1
 AtZEff=   0.0000000   0.0000000   0.0000000   0.0000000   0.0000000   0.0000000   0.0000000   0.0000000   0.0000000   0.0000000
 NQMom=    0.0000000   0.0000000   0.0000000   0.0000000   0.0000000   0.0000000   0.0000000   0.0000000   0.0000000   0.0000000
 NMagM=    0.0000000   0.0000000   0.0000000   0.0000000   0.0000000   2.7928460   2.7928460   0.0000000   0.0000000   2.7928460
 AtZNuc=   8.0000000   8.0000000   8.0000000   8.0000000   6.0000000   1.0000000   1.0000000   8.0000000   6.0000000   1.0000000

  Atom        21          22          23          24          25          26          27          28          29          30
 IAtWgt=           1           1          12           1           1           1          12           1           1           1
 AtmWgt=   1.0078250   1.0078250  12.0000000   1.0078250   1.0078250   1.0078250  12.0000000   1.0078250   1.0078250   1.0078250
 NucSpn=           1           1           0           1           1           1           0           1           1           1
 AtZEff=   0.0000000   0.0000000   0.0000000   0.0000000   0.0000000   0.0000000   0.0000000   0.0000000   0.0000000   0.0000000
 NQMom=    0.0000000   0.0000000   0.0000000   0.0000000   0.0000000   0.0000000   0.0000000   0.0000000   0.0000000   0.0000000
 NMagM=    2.7928460   2.7928460   0.0000000   2.7928460   2.7928460   2.7928460   0.0000000   2.7928460   2.7928460   2.7928460
 AtZNuc=   1.0000000   1.0000000   6.0000000   1.0000000   1.0000000   1.0000000   6.0000000   1.0000000   1.0000000   1.0000000

  Atom        31          32          33          34
 IAtWgt=          12           1           1           1
 AtmWgt=  12.0000000   1.0078250   1.0078250   1.0078250
 NucSpn=           0           1           1           1
 AtZEff=   0.0000000   0.0000000   0.0000000   0.0000000
 NQMom=    0.0000000   0.0000000   0.0000000   0.0000000
 NMagM=    0.0000000   2.7928460   2.7928460   2.7928460
 AtZNuc=   6.0000000   1.0000000   1.0000000   1.0000000
 Leave Link  101 at Fri May 24 08:30:52 2019, MaxMem=   402653184 cpu:               1.5 elap:               0.7
 (Enter /n/sw/g16_nehalem/g16/l103.exe)

 GradGradGradGradGradGradGradGradGradGradGradGradGradGradGradGradGradGrad
 Berny optimization.
 Initialization pass.
                           ----------------------------
                           !    Initial Parameters    !
                           ! (Angstroms and Degrees)  !
 --------------------------                            --------------------------
 ! Name  Definition              Value          Derivative Info.                !
 --------------------------------------------------------------------------------
 ! R1    R(1,2)                  1.5583         estimate D2E/DX2                !
 ! R2    R(1,5)                  1.5458         estimate D2E/DX2                !
 ! R3    R(1,8)                  1.094          estimate D2E/DX2                !
 ! R4    R(1,13)                 1.4031         estimate D2E/DX2                !
 ! R5    R(2,3)                  1.4864         estimate D2E/DX2                !
 ! R6    R(2,7)                  1.1063         estimate D2E/DX2                !
 ! R7    R(2,12)                 1.3954         estimate D2E/DX2                !
 ! R8    R(3,6)                  1.0919         estimate D2E/DX2                !
 ! R9    R(3,11)                 1.2563         estimate D2E/DX2                !
 ! R10   R(4,5)                  1.5455         estimate D2E/DX2                !
 ! R11   R(4,9)                  1.0902         estimate D2E/DX2                !
 ! R12   R(4,11)                 1.5088         estimate D2E/DX2                !
 ! R13   R(4,15)                 1.5309         estimate D2E/DX2                !
 ! R14   R(5,10)                 1.0966         estimate D2E/DX2                !
 ! R15   R(5,14)                 1.411          estimate D2E/DX2                !
 ! R16   R(12,19)                1.4382         estimate D2E/DX2                !
 ! R17   R(13,23)                1.431          estimate D2E/DX2                !
 ! R18   R(14,27)                1.4294         estimate D2E/DX2                !
 ! R19   R(15,16)                1.1001         estimate D2E/DX2                !
 ! R20   R(15,17)                1.1029         estimate D2E/DX2                !
 ! R21   R(15,18)                1.4054         estimate D2E/DX2                !
 ! R22   R(18,31)                1.4249         estimate D2E/DX2                !
 ! R23   R(19,20)                1.0986         estimate D2E/DX2                !
 ! R24   R(19,21)                1.0902         estimate D2E/DX2                !
 ! R25   R(19,22)                1.0937         estimate D2E/DX2                !
 ! R26   R(23,24)                1.0964         estimate D2E/DX2                !
 ! R27   R(23,25)                1.0909         estimate D2E/DX2                !
 ! R28   R(23,26)                1.0963         estimate D2E/DX2                !
 ! R29   R(27,28)                1.0954         estimate D2E/DX2                !
 ! R30   R(27,29)                1.0964         estimate D2E/DX2                !
 ! R31   R(27,30)                1.0917         estimate D2E/DX2                !
 ! R32   R(31,32)                1.099          estimate D2E/DX2                !
 ! R33   R(31,33)                1.0913         estimate D2E/DX2                !
 ! R34   R(31,34)                1.0985         estimate D2E/DX2                !
 ! A1    A(2,1,5)              109.3564         estimate D2E/DX2                !
 ! A2    A(2,1,8)              109.3058         estimate D2E/DX2                !
 ! A3    A(2,1,13)             112.762          estimate D2E/DX2                !
 ! A4    A(5,1,8)              107.0447         estimate D2E/DX2                !
 ! A5    A(5,1,13)             113.3739         estimate D2E/DX2                !
 ! A6    A(8,1,13)             104.6873         estimate D2E/DX2                !
 ! A7    A(1,2,3)              109.3293         estimate D2E/DX2                !
 ! A8    A(1,2,7)              107.8138         estimate D2E/DX2                !
 ! A9    A(1,2,12)             117.7564         estimate D2E/DX2                !
 ! A10   A(3,2,7)              103.4769         estimate D2E/DX2                !
 ! A11   A(3,2,12)             111.7648         estimate D2E/DX2                !
 ! A12   A(7,2,12)             105.5809         estimate D2E/DX2                !
 ! A13   A(2,3,6)              120.9201         estimate D2E/DX2                !
 ! A14   A(2,3,11)             124.4368         estimate D2E/DX2                !
 ! A15   A(6,3,11)             114.6345         estimate D2E/DX2                !
 ! A16   A(5,4,9)              109.0149         estimate D2E/DX2                !
 ! A17   A(5,4,11)             114.8616         estimate D2E/DX2                !
 ! A18   A(5,4,15)             115.0192         estimate D2E/DX2                !
 ! A19   A(9,4,11)             101.8703         estimate D2E/DX2                !
 ! A20   A(9,4,15)             111.0548         estimate D2E/DX2                !
 ! A21   A(11,4,15)            104.2137         estimate D2E/DX2                !
 ! A22   A(1,5,4)              113.6517         estimate D2E/DX2                !
 ! A23   A(1,5,10)             109.5448         estimate D2E/DX2                !
 ! A24   A(1,5,14)             109.5136         estimate D2E/DX2                !
 ! A25   A(4,5,10)             108.3836         estimate D2E/DX2                !
 ! A26   A(4,5,14)             104.9579         estimate D2E/DX2                !
 ! A27   A(10,5,14)            110.714          estimate D2E/DX2                !
 ! A28   A(3,11,4)             123.7959         estimate D2E/DX2                !
 ! A29   A(2,12,19)            116.1542         estimate D2E/DX2                !
 ! A30   A(1,13,23)            117.9742         estimate D2E/DX2                !
 ! A31   A(5,14,27)            115.2901         estimate D2E/DX2                !
 ! A32   A(4,15,16)            109.6343         estimate D2E/DX2                !
 ! A33   A(4,15,17)            109.7373         estimate D2E/DX2                !
 ! A34   A(4,15,18)            105.7964         estimate D2E/DX2                !
 ! A35   A(16,15,17)           108.1558         estimate D2E/DX2                !
 ! A36   A(16,15,18)           111.9799         estimate D2E/DX2                !
 ! A37   A(17,15,18)           111.5124         estimate D2E/DX2                !
 ! A38   A(15,18,31)           112.5571         estimate D2E/DX2                !
 ! A39   A(12,19,20)           111.7408         estimate D2E/DX2                !
 ! A40   A(12,19,21)           105.3977         estimate D2E/DX2                !
 ! A41   A(12,19,22)           111.0123         estimate D2E/DX2                !
 ! A42   A(20,19,21)           108.9917         estimate D2E/DX2                !
 ! A43   A(20,19,22)           109.9617         estimate D2E/DX2                !
 ! A44   A(21,19,22)           109.6122         estimate D2E/DX2                !
 ! A45   A(13,23,24)           112.5701         estimate D2E/DX2                !
 ! A46   A(13,23,25)           105.4642         estimate D2E/DX2                !
 ! A47   A(13,23,26)           111.2279         estimate D2E/DX2                !
 ! A48   A(24,23,25)           108.7158         estimate D2E/DX2                !
 ! A49   A(24,23,26)           109.8133         estimate D2E/DX2                !
 ! A50   A(25,23,26)           108.8778         estimate D2E/DX2                !
 ! A51   A(14,27,28)           111.3787         estimate D2E/DX2                !
 ! A52   A(14,27,29)           110.7135         estimate D2E/DX2                !
 ! A53   A(14,27,30)           105.948          estimate D2E/DX2                !
 ! A54   A(28,27,29)           110.1401         estimate D2E/DX2                !
 ! A55   A(28,27,30)           109.2514         estimate D2E/DX2                !
 ! A56   A(29,27,30)           109.2998         estimate D2E/DX2                !
 ! A57   A(18,31,32)           111.2077         estimate D2E/DX2                !
 ! A58   A(18,31,33)           106.583          estimate D2E/DX2                !
 ! A59   A(18,31,34)           111.1311         estimate D2E/DX2                !
 ! A60   A(32,31,33)           109.4385         estimate D2E/DX2                !
 ! A61   A(32,31,34)           109.0165         estimate D2E/DX2                !
 ! A62   A(33,31,34)           109.4186         estimate D2E/DX2                !
 ! D1    D(5,1,2,3)            -54.8197         estimate D2E/DX2                !
 ! D2    D(5,1,2,7)             57.0269         estimate D2E/DX2                !
 ! D3    D(5,1,2,12)           176.2305         estimate D2E/DX2                !
 ! D4    D(8,1,2,3)             62.0686         estimate D2E/DX2                !
 ! D5    D(8,1,2,7)            173.9153         estimate D2E/DX2                !
 ! D6    D(8,1,2,12)           -66.8812         estimate D2E/DX2                !
 ! D7    D(13,1,2,3)           178.0656         estimate D2E/DX2                !
 ! D8    D(13,1,2,7)           -70.0878         estimate D2E/DX2                !
 ! D9    D(13,1,2,12)           49.1158         estimate D2E/DX2                !
 ! D10   D(2,1,5,4)             48.9379         estimate D2E/DX2                !
 ! D11   D(2,1,5,10)           -72.4498         estimate D2E/DX2                !
 ! D12   D(2,1,5,14)           165.9487         estimate D2E/DX2                !
 ! D13   D(8,1,5,4)            -69.3706         estimate D2E/DX2                !
 ! D14   D(8,1,5,10)           169.2417         estimate D2E/DX2                !
 ! D15   D(8,1,5,14)            47.6403         estimate D2E/DX2                !
 ! D16   D(13,1,5,4)           175.706          estimate D2E/DX2                !
 ! D17   D(13,1,5,10)           54.3183         estimate D2E/DX2                !
 ! D18   D(13,1,5,14)          -67.2831         estimate D2E/DX2                !
 ! D19   D(2,1,13,23)           50.5158         estimate D2E/DX2                !
 ! D20   D(5,1,13,23)          -74.4378         estimate D2E/DX2                !
 ! D21   D(8,1,13,23)          169.2416         estimate D2E/DX2                !
 ! D22   D(1,2,3,6)           -147.0619         estimate D2E/DX2                !
 ! D23   D(1,2,3,11)            34.0682         estimate D2E/DX2                !
 ! D24   D(7,2,3,6)             98.265          estimate D2E/DX2                !
 ! D25   D(7,2,3,11)           -80.6049         estimate D2E/DX2                !
 ! D26   D(12,2,3,6)           -14.8818         estimate D2E/DX2                !
 ! D27   D(12,2,3,11)          166.2483         estimate D2E/DX2                !
 ! D28   D(1,2,12,19)           48.3853         estimate D2E/DX2                !
 ! D29   D(3,2,12,19)          -79.4115         estimate D2E/DX2                !
 ! D30   D(7,2,12,19)          168.759          estimate D2E/DX2                !
 ! D31   D(2,3,11,4)            -3.1831         estimate D2E/DX2                !
 ! D32   D(6,3,11,4)           177.8834         estimate D2E/DX2                !
 ! D33   D(9,4,5,1)             93.8338         estimate D2E/DX2                !
 ! D34   D(9,4,5,10)          -144.1326         estimate D2E/DX2                !
 ! D35   D(9,4,5,14)           -25.8003         estimate D2E/DX2                !
 ! D36   D(11,4,5,1)           -19.7117         estimate D2E/DX2                !
 ! D37   D(11,4,5,10)          102.3219         estimate D2E/DX2                !
 ! D38   D(11,4,5,14)         -139.3458         estimate D2E/DX2                !
 ! D39   D(15,4,5,1)          -140.7027         estimate D2E/DX2                !
 ! D40   D(15,4,5,10)          -18.6692         estimate D2E/DX2                !
 ! D41   D(15,4,5,14)           99.6631         estimate D2E/DX2                !
 ! D42   D(5,4,11,3)            -4.9221         estimate D2E/DX2                !
 ! D43   D(9,4,11,3)          -122.5894         estimate D2E/DX2                !
 ! D44   D(15,4,11,3)          121.8196         estimate D2E/DX2                !
 ! D45   D(5,4,15,16)         -179.2741         estimate D2E/DX2                !
 ! D46   D(5,4,15,17)           62.0738         estimate D2E/DX2                !
 ! D47   D(5,4,15,18)          -58.3493         estimate D2E/DX2                !
 ! D48   D(9,4,15,16)          -54.8758         estimate D2E/DX2                !
 ! D49   D(9,4,15,17)         -173.5278         estimate D2E/DX2                !
 ! D50   D(9,4,15,18)           66.049          estimate D2E/DX2                !
 ! D51   D(11,4,15,16)          54.0826         estimate D2E/DX2                !
 ! D52   D(11,4,15,17)         -64.5695         estimate D2E/DX2                !
 ! D53   D(11,4,15,18)         175.0073         estimate D2E/DX2                !
 ! D54   D(1,5,14,27)          103.7534         estimate D2E/DX2                !
 ! D55   D(4,5,14,27)         -133.8871         estimate D2E/DX2                !
 ! D56   D(10,5,14,27)         -17.1419         estimate D2E/DX2                !
 ! D57   D(2,12,19,20)          54.7227         estimate D2E/DX2                !
 ! D58   D(2,12,19,21)         172.9661         estimate D2E/DX2                !
 ! D59   D(2,12,19,22)         -68.4313         estimate D2E/DX2                !
 ! D60   D(1,13,23,24)          57.2761         estimate D2E/DX2                !
 ! D61   D(1,13,23,25)         175.67           estimate D2E/DX2                !
 ! D62   D(1,13,23,26)         -66.4513         estimate D2E/DX2                !
 ! D63   D(5,14,27,28)         -64.7321         estimate D2E/DX2                !
 ! D64   D(5,14,27,29)          58.1793         estimate D2E/DX2                !
 ! D65   D(5,14,27,30)         176.5747         estimate D2E/DX2                !
 ! D66   D(4,15,18,31)         179.5394         estimate D2E/DX2                !
 ! D67   D(16,15,18,31)        -61.07           estimate D2E/DX2                !
 ! D68   D(17,15,18,31)         60.2809         estimate D2E/DX2                !
 ! D69   D(15,18,31,32)        -61.1098         estimate D2E/DX2                !
 ! D70   D(15,18,31,33)        179.6801         estimate D2E/DX2                !
 ! D71   D(15,18,31,34)         60.5367         estimate D2E/DX2                !
 --------------------------------------------------------------------------------
 Trust Radius=3.00D-01 FncErr=1.00D-07 GrdErr=1.00D-06 EigMax=2.50D+02 EigMin=1.00D-04
 Number of steps in this run=    177 maximum allowed number of steps=    204.
 GradGradGradGradGradGradGradGradGradGradGradGradGradGradGradGradGradGrad

 Leave Link  103 at Fri May 24 08:30:52 2019, MaxMem=   402653184 cpu:               0.3 elap:               0.2
 (Enter /n/sw/g16_nehalem/g16/l202.exe)
                          Input orientation:                          
 ---------------------------------------------------------------------
 Center     Atomic      Atomic             Coordinates (Angstroms)
 Number     Number       Type             X           Y           Z
 ---------------------------------------------------------------------
      1          6           0       -1.130143    0.473437   -0.322878
      2          6           0       -1.682240   -0.740968    0.482499
      3          6           0       -1.063291   -1.992188   -0.027984
      4          6           0        1.046467   -0.899451   -0.592251
      5          6           0        0.414332    0.470984   -0.259119
      6          1           0       -1.618979   -2.932149   -0.031533
      7          1           0       -1.295767   -0.665309    1.516371
      8          1           0       -1.407791    0.365654   -1.375511
      9          1           0        1.296027   -0.927039   -1.653171
     10          1           0        0.740510    0.767373    0.744967
     11          8           0        0.112399   -2.077281   -0.462405
     12          8           0       -3.066684   -0.862314    0.607831
     13          8           0       -1.701666    1.692243    0.072784
     14          8           0        0.927610    1.354913   -1.231812
     15          6           0        2.254532   -1.281243    0.267020
     16          1           0        2.640269   -2.260831   -0.051999
     17          1           0        1.949874   -1.359533    1.324141
     18          8           0        3.198056   -0.257158    0.077101
     19          6           0       -3.827362   -0.726213   -0.605097
     20          1           0       -3.484072   -1.423892   -1.381169
     21          1           0       -4.853240   -0.975154   -0.332876
     22          1           0       -3.786003    0.300039   -0.980860
     23          6           0       -1.713834    2.006059    1.468917
     24          1           0       -0.709728    2.004717    1.909314
     25          1           0       -2.124500    3.014425    1.536823
     26          1           0       -2.364112    1.320084    2.024307
     27          6           0        1.402866    2.606012   -0.729873
     28          1           0        0.588870    3.198058   -0.297796
     29          1           0        2.192757    2.450396    0.014417
     30          1           0        1.816665    3.136455   -1.589636
     31          6           0        4.390100   -0.465847    0.829262
     32          1           0        4.180435   -0.490700    1.907764
     33          1           0        5.049868    0.374479    0.606817
     34          1           0        4.882636   -1.403781    0.538661
 ---------------------------------------------------------------------
                    Distance matrix (angstroms):
                    1          2          3          4          5
     1  C    0.000000
     2  C    1.558276   0.000000
     3  C    2.484097   1.486352   0.000000
     4  C    2.587473   2.937013   2.442038   0.000000
     5  C    1.545792   2.532674   2.881668   1.545530   0.000000
     6  H    3.452804   2.251556   1.091938   3.398657   3.970827
     7  H    2.169565   1.106335   2.049313   3.160248   2.714400
     8  H    1.093957   2.179939   2.737504   2.870082   2.139523
     9  H    3.101179   3.669575   3.056494   1.090226   2.162229
    10  H    2.173944   2.865955   3.386197   2.158718   1.096552
    11  O    2.840694   2.428849   1.256268   1.508849   2.574130
    12  O    2.529949   1.395392   2.386307   4.284809   3.827108
    13  O    1.403095   2.467541   3.740683   3.835542   2.465579
    14  O    2.416094   3.760704   4.076270   2.346342   1.410998
    15  C    3.857837   3.979510   3.405939   1.530860   2.594891
    16  H    4.665362   4.612999   3.713368   2.164586   3.529944
    17  H    3.944484   3.779317   3.362686   2.168036   2.866251
    18  O    4.407614   4.920946   4.602222   2.343055   2.896956
    19  C    2.965434   2.405126   3.094486   4.876924   4.420967
    20  H    3.203251   2.680717   2.830945   4.628522   4.477399
    21  H    3.994993   3.282517   3.935865   5.905891   5.462973
    22  H    2.741642   2.766032   3.684486   4.994253   4.265319
    23  C    2.429023   2.918934   4.318553   4.506624   3.141919
    24  H    2.739388   3.243511   4.455713   4.216188   2.884086
    25  H    3.302098   3.925579   5.351725   5.468676   4.017483
    26  H    2.783661   2.662716   4.107941   4.837847   3.695234
    27  C    3.336114   4.710626   5.264791   3.526220   2.399407
    28  H    3.221676   4.613321   5.453539   4.133483   2.732927
    29  H    3.881211   5.041776   5.508194   3.592144   2.675012
    30  H    4.168935   5.618762   6.085711   4.228063   3.292651
    31  C    5.716884   6.088452   5.727483   3.659043   4.227169
    32  H    5.840168   6.038623   5.787767   4.029753   4.450140
    33  H    6.250333   6.825024   6.585955   4.368968   4.716710
    34  H    6.357650   6.598490   6.001780   4.031067   4.910900
                    6          7          8          9         10
     6  H    0.000000
     7  H    2.763881   0.000000
     8  H    3.567405   3.072200   0.000000
     9  H    3.891971   4.102669   3.009781   0.000000
    10  H    4.456075   2.606543   3.045160   2.988427   0.000000
    11  O    1.978413   2.809297   3.018720   2.035179   3.153463
    12  O    2.605543   2.000101   2.862425   4.914221   4.143599
    13  O    4.626307   2.794056   1.985890   4.338862   2.696560
    14  O    5.128809   4.071512   2.540350   2.349591   2.070716
    15  C    4.221222   3.813774   4.338524   2.175161   2.591819
    16  H    4.311877   4.527456   5.003688   2.479867   3.662548
    17  H    4.128884   3.324618   4.640938   3.078791   2.514306
    18  O    5.511008   4.736299   4.869477   2.657122   2.745039
    19  C    3.173655   3.303530   2.764061   5.233345   4.991886
    20  H    2.752259   3.709429   2.741067   4.813543   5.212407
    21  H    3.792240   4.021360   3.841350   6.289593   5.957196
    22  H    4.005528   3.656410   2.411627   5.271124   4.866847
    23  C    5.162000   2.704300   3.297781   5.235433   2.842930
    24  H    5.382032   2.761682   3.736830   5.030859   2.233812
    25  H    6.170659   3.771957   4.001418   6.116470   3.726199
    26  H    4.781546   2.311092   3.658449   5.654204   3.403069
    27  C    6.347476   4.798935   3.651828   3.653265   2.448359
    28  H    6.521114   4.665690   3.629137   4.399266   2.649260
    29  H    6.595698   4.912564   4.386570   3.871956   2.339934
    30  H    7.145578   5.812738   4.256795   4.097204   3.495859
    31  C    6.552301   5.730706   6.258431   3.993552   3.853238
    32  H    6.584432   5.492947   6.537699   4.603310   3.842906
    33  H    7.470930   6.494269   6.755077   4.570866   4.329436
    34  H    6.703136   6.298724   6.809143   4.230269   4.681205
                   11         12         13         14         15
    11  O    0.000000
    12  O    3.567649   0.000000
    13  O    4.217413   2.945388   0.000000
    14  O    3.610611   4.924913   2.954463   0.000000
    15  C    2.398848   5.348551   4.952863   3.310066   0.000000
    16  H    2.567538   5.912744   5.873224   4.171183   1.100072
    17  H    2.661433   5.091776   4.920668   3.866023   1.102928
    18  O    3.622871   6.316237   5.273278   3.076841   1.405367
    19  C    4.167429   1.438176   3.290446   5.228156   6.169123
    20  H    3.769038   2.108484   3.873144   5.216033   5.972307
    21  H    5.088127   2.022238   4.148733   6.297263   7.139607
    22  H    4.595431   2.095811   2.718981   4.836722   6.367552
    23  C    4.872248   3.286219   1.431019   3.833426   5.291393
    24  H    4.792040   3.933061   2.110551   3.601360   4.720328
    25  H    5.909831   4.096321   2.017514   4.442375   6.264270
    26  H    4.884561   2.694972   2.094225   4.630222   5.584517
    27  C    4.865190   5.813400   3.334269   1.429356   4.102424
    28  H    5.299370   5.538037   2.766110   2.093875   4.812233
    29  H    5.005508   6.244030   3.967963   2.086568   3.740689
    30  H    5.599841   6.683271   4.150668   2.022955   4.811960
    31  C    4.750142   7.470599   6.506860   4.421768   2.354068
    32  H    4.968285   7.372154   6.536934   4.883042   2.650679
    33  H    5.615422   8.210242   6.899631   4.618963   3.266616
    34  H    4.920457   7.968040   7.290778   5.136847   2.644945
                   16         17         18         19         20
    16  H    0.000000
    17  H    1.784025   0.000000
    18  O    2.083866   2.080456   0.000000
    19  C    6.670174   6.123684   7.074030   0.000000
    20  H    6.322556   6.070471   6.938203   1.098586   0.000000
    21  H    7.608189   7.012547   8.093637   1.090184   1.781826
    22  H    6.979814   6.400585   7.085678   1.093664   1.795368
    23  C    6.283132   4.977040   5.584440   4.029125   4.798051
    24  H    5.767506   4.328289   4.872767   4.847668   5.502692
    25  H    7.283935   5.981410   6.415890   4.634645   5.482862
    26  H    6.494446   5.126505   6.100575   3.638983   4.514530
    27  C    5.067232   4.499304   3.474429   6.202788   6.367611
    28  H    5.836790   5.025400   4.345908   5.915864   6.254996
    29  H    4.732900   4.036078   2.888841   6.834945   7.013142
    30  H    5.672155   5.359268   4.025278   6.909744   6.995573
    31  C    2.657160   2.645427   1.424874   8.345769   8.234467
    32  H    3.057147   2.463917   2.090679   8.396115   8.392413
    33  H    3.631124   3.623716   2.027011   9.026930   8.945075
    34  H    2.472170   3.036450   2.089400   8.810865   8.584169
                   21         22         23         24         25
    21  H    0.000000
    22  H    1.784656   0.000000
    23  C    4.689345   3.633978   0.000000
    24  H    5.574562   4.552197   1.096440   0.000000
    25  H    5.182522   4.057981   1.090899   1.777594   0.000000
    26  H    4.125553   3.477541   1.096303   1.794138   1.779282
    27  C    7.219503   5.683737   3.861145   3.433645   4.212722
    28  H    6.858097   5.291938   3.137608   2.825200   3.280537
    29  H    7.842262   6.431188   4.192190   3.494808   4.612435
    30  H    7.935516   6.309180   4.805930   4.461630   5.032139
    31  C    9.330021   8.409030   6.616456   5.768747   7.419767
    32  H    9.320003   8.510790   6.416292   5.490064   7.223275
    33  H   10.038729   8.977688   7.010915   6.125938   7.701025
    34  H    9.784200   8.964220   7.483702   6.691120   8.343670
                   26         27         28         29         30
    26  H    0.000000
    27  C    4.840376   0.000000
    28  H    4.199887   1.095353   0.000000
    29  H    5.107085   1.096409   1.796922   0.000000
    30  H    5.817103   1.091692   1.783291   1.784687   0.000000
    31  C    7.087811   4.559692   5.398501   3.741225   5.044821
    32  H    6.791437   4.925611   5.600961   4.023142   5.565561
    33  H    7.607269   4.479632   5.356438   3.580985   4.786076
    34  H    7.883016   5.458609   6.349253   4.729161   5.877378
                   31         32         33         34
    31  C    0.000000
    32  H    1.098974   0.000000
    33  H    1.091294   1.787991   0.000000
    34  H    1.098527   1.789203   1.787406   0.000000
 Stoichiometry    C10H19O5(1+)
 Framework group  C1[X(C10H19O5)]
 Deg. of freedom    96
 Full point group                 C1      NOp   1
 Largest Abelian subgroup         C1      NOp   1
 Largest concise Abelian subgroup C1      NOp   1
                         Standard orientation:                         
 ---------------------------------------------------------------------
 Center     Atomic      Atomic             Coordinates (Angstroms)
 Number     Number       Type             X           Y           Z
 ---------------------------------------------------------------------
      1          6           0       -1.130143    0.473437   -0.322878
      2          6           0       -1.682240   -0.740968    0.482499
      3          6           0       -1.063291   -1.992188   -0.027984
      4          6           0        1.046467   -0.899451   -0.592251
      5          6           0        0.414332    0.470984   -0.259119
      6          1           0       -1.618979   -2.932149   -0.031533
      7          1           0       -1.295767   -0.665309    1.516371
      8          1           0       -1.407791    0.365654   -1.375511
      9          1           0        1.296027   -0.927039   -1.653171
     10          1           0        0.740510    0.767373    0.744967
     11          8           0        0.112399   -2.077281   -0.462405
     12          8           0       -3.066684   -0.862314    0.607831
     13          8           0       -1.701666    1.692243    0.072784
     14          8           0        0.927610    1.354913   -1.231812
     15          6           0        2.254532   -1.281243    0.267020
     16          1           0        2.640269   -2.260831   -0.051999
     17          1           0        1.949874   -1.359533    1.324141
     18          8           0        3.198056   -0.257158    0.077101
     19          6           0       -3.827362   -0.726213   -0.605097
     20          1           0       -3.484072   -1.423892   -1.381169
     21          1           0       -4.853240   -0.975154   -0.332876
     22          1           0       -3.786003    0.300039   -0.980860
     23          6           0       -1.713834    2.006059    1.468917
     24          1           0       -0.709728    2.004717    1.909314
     25          1           0       -2.124500    3.014425    1.536823
     26          1           0       -2.364112    1.320084    2.024307
     27          6           0        1.402866    2.606012   -0.729873
     28          1           0        0.588870    3.198058   -0.297796
     29          1           0        2.192757    2.450396    0.014417
     30          1           0        1.816665    3.136455   -1.589636
     31          6           0        4.390100   -0.465847    0.829262
     32          1           0        4.180435   -0.490700    1.907764
     33          1           0        5.049868    0.374479    0.606817
     34          1           0        4.882636   -1.403781    0.538661
 ---------------------------------------------------------------------
 Rotational constants (GHZ):           0.8912823           0.4031579           0.3188541
 Leave Link  202 at Fri May 24 08:30:52 2019, MaxMem=   402653184 cpu:               0.3 elap:               0.1
 (Enter /n/sw/g16_nehalem/g16/l301.exe)
 Standard basis: 6-31G(d) (6D, 7F)
 Ernie: Thresh=  0.10000D-02 Tol=  0.10000D-05 Strict=F.
 There are   263 symmetry adapted cartesian basis functions of A   symmetry.
 There are   263 symmetry adapted basis functions of A   symmetry.
   263 basis functions,   496 primitive gaussians,   263 cartesian basis functions
    59 alpha electrons       59 beta electrons
       nuclear repulsion energy      1156.9832112296 Hartrees.
 IExCor=  402 DFT=T Ex+Corr=B3LYP ExCW=0 ScaHFX=  0.200000
 ScaDFX=  0.800000  0.720000  1.000000  0.810000 ScalE2=  1.000000  1.000000
 IRadAn=      5 IRanWt=     -1 IRanGd=            0 ICorTp=0 IEmpDi=  4
 NAtoms=   34 NActive=   34 NUniq=   34 SFac= 1.00D+00 NAtFMM=   60 NAOKFM=F Big=F
 Integral buffers will be    131072 words long.
 Raffenetti 2 integral format.
 Two-electron integral symmetry is turned on.
 ------------------------------------------------------------------------------
 Polarizable Continuum Model (PCM)
 =================================
 Model                : PCM.
 Atomic radii         : UFF (Universal Force Field).
 Polarization charges : Total charges.
 Charge compensation  : None.
 Solution method      : On-the-fly selection.
 Cavity type          : Scaled VdW (van der Waals Surface) (Alpha=1.100).
 Cavity algorithm     : GePol (No added spheres)
                        Default sphere list used, NSphG=   34.
                        Lebedev-Laikov grids with approx.  5.0 points / Ang**2.
                        Smoothing algorithm: York/Karplus (Gamma=1.0000).
                        Polarization charges: spherical gaussians, with
                                              point-specific exponents (IZeta= 3).
                        Self-potential: point-specific (ISelfS= 7).
                        Self-field    : sphere-specific E.n sum rule (ISelfD= 2).
 1st derivatives      : Analytical E(r).r(x)/FMM algorithm (CHGder, D1EAlg=3).
                        Cavity 1st derivative terms included.
 Solvent              : TetraHydroFuran, Eps=   7.425700 Eps(inf)=   1.974025
 ------------------------------------------------------------------------------
 GePol: Number of generator spheres                  =      34
 GePol: Total number of spheres                      =      34
 GePol: Number of exposed spheres                    =      34 (100.00%)
 GePol: Number of points                             =    2282
 GePol: Average weight of points                     =       0.13
 GePol: Minimum weight of points                     =   0.10D-09
 GePol: Maximum weight of points                     =    0.20577
 GePol: Number of points with low weight             =     142
 GePol: Fraction of low-weight points (<1% of avg)   =       6.22%
 GePol: Cavity surface area                          =    300.429 Ang**2
 GePol: Cavity volume                                =    321.804 Ang**3
 Leave Link  301 at Fri May 24 08:30:52 2019, MaxMem=   402653184 cpu:               0.6 elap:               0.3
 (Enter /n/sw/g16_nehalem/g16/l302.exe)
 NPDir=0 NMtPBC=     1 NCelOv=     1 NCel=       1 NClECP=     1 NCelD=      1
         NCelK=      1 NCelE2=     1 NClLst=     1 CellRange=     0.0.
 One-electron integrals computed using PRISM.
 One-electron integral symmetry used in STVInt
 NBasis=   263 RedAO= T EigKep=  1.68D-03  NBF=   263
 NBsUse=   263 1.00D-06 EigRej= -1.00D+00 NBFU=   263
 Precomputing XC quadrature grid using
 IXCGrd= 4 IRadAn=           5 IRanWt=          -1 IRanGd=           0 AccXCQ= 0.00D+00.
 Generated NRdTot=       0 NPtTot=           0 NUsed=           0 NTot=          32
 NSgBfM=   262   262   262   262   262 MxSgAt=    34 MxSgA2=    34.
 Leave Link  302 at Fri May 24 08:30:54 2019, MaxMem=   402653184 cpu:               6.0 elap:               1.6
 (Enter /n/sw/g16_nehalem/g16/l303.exe)
 DipDrv:  MaxL=1.
 Leave Link  303 at Fri May 24 08:30:54 2019, MaxMem=   402653184 cpu:               0.5 elap:               0.2
 (Enter /n/sw/g16_nehalem/g16/l401.exe)
 ExpMin= 1.61D-01 ExpMax= 5.48D+03 ExpMxC= 8.25D+02 IAcc=3 IRadAn=         5 AccDes= 0.00D+00
 Harris functional with IExCor=  402 and IRadAn=       5 diagonalized for initial guess.
 HarFok:  IExCor=  402 AccDes= 0.00D+00 IRadAn=         5 IDoV= 1 UseB2=F ITyADJ=14
 ICtDFT=  3500011 ScaDFX=  1.000000  1.000000  1.000000  1.000000
 FoFCou: FMM=F IPFlag=           0 FMFlag=      100000 FMFlg1=           0
         NFxFlg=           0 DoJE=T BraDBF=F KetDBF=T FulRan=T
         wScrn=  0.000000 ICntrl=       500 IOpCl=  0 I1Cent=   200000004 NGrid=           0
         NMat0=    1 NMatS0=      1 NMatT0=    0 NMatD0=    1 NMtDS0=    0 NMtDT0=    0
 Petite list used in FoFCou.
 Harris En= -768.256907111552    
 JPrj=0 DoOrth=F DoCkMO=F.
 Leave Link  401 at Fri May 24 08:31:07 2019, MaxMem=   402653184 cpu:              49.1 elap:              12.5
 (Enter /n/sw/g16_nehalem/g16/l502.exe)
 Integral symmetry usage will be decided dynamically.
 Closed shell SCF:
 Using DIIS extrapolation, IDIIS=  1040.
 NGot=   402653184 LenX=   402510103 LenY=   402440493
 Requested convergence on RMS density matrix=1.00D-08 within 128 cycles.
 Requested convergence on MAX density matrix=1.00D-06.
 Requested convergence on             energy=1.00D-06.
 No special actions if energy rises.
 Fock matrices will be formed incrementally for  20 cycles.

 Cycle   1  Pass 1  IDiag  1:
 FoFJK:  IHMeth= 1 ICntrl=       0 DoSepK=F KAlg= 0 I1Cent=           0 FoldK=F
 IRaf= 870000000 NMat=       1 IRICut=       1 DoRegI=T DoRafI=F ISym2E= 0 IDoP0=0 IntGTp=1.
 FoFCou: FMM=F IPFlag=           0 FMFlag=      100000 FMFlg1=           0
         NFxFlg=           0 DoJE=F BraDBF=F KetDBF=F FulRan=T
         wScrn=  0.000000 ICntrl=         0 IOpCl=  0 I1Cent=           0 NGrid=           0
         NMat0=    1 NMatS0=      1 NMatT0=    0 NMatD0=    1 NMtDS0=    0 NMtDT0=    0
 Symmetry not used in FoFCou.
 Inv3:  Mode=1 IEnd=    15622572.
 Iteration    1 A*A^-1 deviation from unit magnitude is 5.11D-15 for   1136.
 Iteration    1 A*A^-1 deviation from orthogonality  is 2.17D-15 for   2267   2011.
 Iteration    1 A^-1*A deviation from unit magnitude is 5.22D-15 for   1127.
 Iteration    1 A^-1*A deviation from orthogonality  is 1.30D-13 for   1725   1690.
 E= -768.078885555644    
 DIIS: error= 2.07D-02 at cycle   1 NSaved=   1.
 NSaved= 1 IEnMin= 1 EnMin= -768.078885555644     IErMin= 1 ErrMin= 2.07D-02
 ErrMax= 2.07D-02  0.00D+00 EMaxC= 1.00D-01 BMatC= 2.57D-01 BMatP= 2.57D-01
 IDIUse=3 WtCom= 7.93D-01 WtEn= 2.07D-01
 Coeff-Com:  0.100D+01
 Coeff-En:   0.100D+01
 Coeff:      0.100D+01
 Gap=     0.001 Goal=   None    Shift=    0.000
 GapD=    0.001 DampG=0.250 DampE=0.500 DampFc=0.2500 IDamp=-1.
 Damping current iteration by 2.50D-01
 RMSDP=5.67D-03 MaxDP=2.17D-01              OVMax= 6.92D-01

 Cycle   2  Pass 1  IDiag  1:
 RMSU=  1.41D-03    CP:  9.93D-01
 E= -768.132443623273     Delta-E=       -0.053558067629 Rises=F Damp=T
 DIIS: error= 1.03D-02 at cycle   2 NSaved=   2.
 NSaved= 2 IEnMin= 2 EnMin= -768.132443623273     IErMin= 2 ErrMin= 1.03D-02
 ErrMax= 1.03D-02  0.00D+00 EMaxC= 1.00D-01 BMatC= 6.85D-02 BMatP= 2.57D-01
 IDIUse=3 WtCom= 8.97D-01 WtEn= 1.03D-01
 Coeff-Com: -0.455D+00 0.145D+01
 Coeff-En:   0.114D+00 0.886D+00
 Coeff:     -0.396D+00 0.140D+01
 Gap=     0.002 Goal=   None    Shift=    0.000
 RMSDP=1.83D-03 MaxDP=6.83D-02 DE=-5.36D-02 OVMax= 5.62D-01

 Cycle   3  Pass 1  IDiag  1:
 RMSU=  1.80D-03    CP:  9.84D-01  8.14D-01
 E= -768.237272141967     Delta-E=       -0.104828518695 Rises=F Damp=F
 DIIS: error= 9.16D-03 at cycle   3 NSaved=   3.
 NSaved= 3 IEnMin= 3 EnMin= -768.237272141967     IErMin= 3 ErrMin= 9.16D-03
 ErrMax= 9.16D-03  0.00D+00 EMaxC= 1.00D-01 BMatC= 9.24D-02 BMatP= 6.85D-02
 IDIUse=3 WtCom= 9.46D-02 WtEn= 9.05D-01
 Coeff-Com: -0.454D+00 0.101D+01 0.442D+00
 Coeff-En:   0.000D+00 0.377D-01 0.962D+00
 Coeff:     -0.430D-01 0.130D+00 0.913D+00
 Gap=     0.071 Goal=   None    Shift=    0.000
 RMSDP=5.10D-03 MaxDP=3.17D-01 DE=-1.05D-01 OVMax= 7.90D-01

 Cycle   4  Pass 1  IDiag  1:
 RMSU=  2.13D-03    CP:  9.74D-01  3.00D+00 -7.18D-01
 E= -767.145636320537     Delta-E=        1.091635821431 Rises=F Damp=F
 DIIS: error= 3.21D-02 at cycle   4 NSaved=   4.
 NSaved= 4 IEnMin= 3 EnMin= -768.237272141967     IErMin= 3 ErrMin= 9.16D-03
 ErrMax= 3.21D-02  0.00D+00 EMaxC= 1.00D-01 BMatC= 9.71D-01 BMatP= 6.85D-02
 IDIUse=2 WtCom= 0.00D+00 WtEn= 1.00D+00
 Coeff-En:   0.000D+00 0.000D+00 0.897D+00 0.103D+00
 Coeff:      0.000D+00 0.000D+00 0.897D+00 0.103D+00
 Gap=    -0.014 Goal=   None    Shift=    0.000
 RMSDP=4.39D-03 MaxDP=2.80D-01 DE= 1.09D+00 OVMax= 8.35D-01

 Cycle   5  Pass 1  IDiag  1:
 RMSU=  1.42D-03    CP:  9.91D-01  1.38D+00  3.14D-01 -2.16D-01
 E= -768.270012875900     Delta-E=       -1.124376555364 Rises=F Damp=F
 DIIS: error= 9.58D-03 at cycle   5 NSaved=   5.
 NSaved= 5 IEnMin= 5 EnMin= -768.270012875900     IErMin= 3 ErrMin= 9.16D-03
 ErrMax= 9.58D-03  0.00D+00 EMaxC= 1.00D-01 BMatC= 6.26D-02 BMatP= 6.85D-02
 IDIUse=3 WtCom= 9.04D-01 WtEn= 9.58D-02
 Coeff-Com: -0.121D+00 0.284D+00 0.441D+00 0.979D-02 0.386D+00
 Coeff-En:   0.000D+00 0.000D+00 0.393D+00 0.000D+00 0.607D+00
 Coeff:     -0.110D+00 0.257D+00 0.437D+00 0.885D-02 0.407D+00
 Gap=     0.128 Goal=   None    Shift=    0.000
 RMSDP=1.08D-03 MaxDP=4.17D-02 DE=-1.12D+00 OVMax= 9.67D-02

 Cycle   6  Pass 1  IDiag  1:
 RMSU=  3.77D-04    CP:  9.89D-01  1.01D+00  6.33D-01 -1.10D-01  5.66D-01
 E= -768.318640197127     Delta-E=       -0.048627321227 Rises=F Damp=F
 DIIS: error= 2.74D-03 at cycle   6 NSaved=   6.
 NSaved= 6 IEnMin= 6 EnMin= -768.318640197127     IErMin= 6 ErrMin= 2.74D-03
 ErrMax= 2.74D-03  0.00D+00 EMaxC= 1.00D-01 BMatC= 3.69D-03 BMatP= 6.26D-02
 IDIUse=3 WtCom= 9.73D-01 WtEn= 2.74D-02
 Coeff-Com: -0.755D-01 0.122D+00 0.149D+00-0.125D-01 0.261D+00 0.556D+00
 Coeff-En:   0.000D+00 0.000D+00 0.000D+00 0.000D+00 0.000D+00 0.100D+01
 Coeff:     -0.734D-01 0.119D+00 0.145D+00-0.121D-01 0.254D+00 0.568D+00
 Gap=     0.125 Goal=   None    Shift=    0.000
 RMSDP=2.23D-04 MaxDP=9.68D-03 DE=-4.86D-02 OVMax= 9.30D-03

 Cycle   7  Pass 1  IDiag  1:
 RMSU=  1.39D-04    CP:  9.89D-01  1.07D+00  6.15D-01 -1.24D-01  6.53D-01
                    CP:  7.93D-01
 E= -768.321390282122     Delta-E=       -0.002750084995 Rises=F Damp=F
 DIIS: error= 4.99D-04 at cycle   7 NSaved=   7.
 NSaved= 7 IEnMin= 7 EnMin= -768.321390282122     IErMin= 7 ErrMin= 4.99D-04
 ErrMax= 4.99D-04  0.00D+00 EMaxC= 1.00D-01 BMatC= 1.38D-04 BMatP= 3.69D-03
 IDIUse=3 WtCom= 9.95D-01 WtEn= 4.99D-03
 Coeff-Com: -0.261D-01 0.333D-01 0.105D-01-0.412D-02 0.570D-01 0.234D+00
 Coeff-Com:  0.696D+00
 Coeff-En:   0.000D+00 0.000D+00 0.000D+00 0.000D+00 0.000D+00 0.000D+00
 Coeff-En:   0.100D+01
 Coeff:     -0.260D-01 0.331D-01 0.105D-01-0.410D-02 0.567D-01 0.233D+00
 Coeff:      0.697D+00
 Gap=     0.124 Goal=   None    Shift=    0.000
 RMSDP=5.51D-05 MaxDP=3.69D-03 DE=-2.75D-03 OVMax= 5.58D-03

 Cycle   8  Pass 1  IDiag  1:
 RMSU=  4.71D-05    CP:  9.89D-01  1.06D+00  6.16D-01 -1.23D-01  6.64D-01
                    CP:  8.49D-01  9.73D-01
 E= -768.321471848718     Delta-E=       -0.000081566595 Rises=F Damp=F
 DIIS: error= 2.96D-04 at cycle   8 NSaved=   8.
 NSaved= 8 IEnMin= 8 EnMin= -768.321471848718     IErMin= 8 ErrMin= 2.96D-04
 ErrMax= 2.96D-04  0.00D+00 EMaxC= 1.00D-01 BMatC= 5.47D-05 BMatP= 1.38D-04
 IDIUse=3 WtCom= 9.97D-01 WtEn= 2.96D-03
 Coeff-Com: -0.701D-02 0.628D-02-0.132D-01-0.602D-03 0.220D-02 0.725D-01
 Coeff-Com:  0.456D+00 0.483D+00
 Coeff-En:   0.000D+00 0.000D+00 0.000D+00 0.000D+00 0.000D+00 0.000D+00
 Coeff-En:   0.215D+00 0.785D+00
 Coeff:     -0.699D-02 0.627D-02-0.131D-01-0.600D-03 0.219D-02 0.723D-01
 Coeff:      0.456D+00 0.484D+00
 Gap=     0.124 Goal=   None    Shift=    0.000
 RMSDP=2.44D-05 MaxDP=1.52D-03 DE=-8.16D-05 OVMax= 1.87D-03

 Cycle   9  Pass 1  IDiag  1:
 RMSU=  1.41D-05    CP:  9.89D-01  1.06D+00  6.17D-01 -1.21D-01  6.68D-01
                    CP:  8.71D-01  1.04D+00  7.05D-01
 E= -768.321514590411     Delta-E=       -0.000042741694 Rises=F Damp=F
 DIIS: error= 5.77D-05 at cycle   9 NSaved=   9.
 NSaved= 9 IEnMin= 9 EnMin= -768.321514590411     IErMin= 9 ErrMin= 5.77D-05
 ErrMax= 5.77D-05  0.00D+00 EMaxC= 1.00D-01 BMatC= 2.07D-06 BMatP= 5.47D-05
 IDIUse=1 WtCom= 1.00D+00 WtEn= 0.00D+00
 Coeff-Com: -0.272D-02 0.275D-02-0.824D-02-0.170D-03-0.483D-02 0.134D-01
 Coeff-Com:  0.161D+00 0.224D+00 0.615D+00
 Coeff:     -0.272D-02 0.275D-02-0.824D-02-0.170D-03-0.483D-02 0.134D-01
 Coeff:      0.161D+00 0.224D+00 0.615D+00
 Gap=     0.124 Goal=   None    Shift=    0.000
 RMSDP=7.49D-06 MaxDP=2.41D-04 DE=-4.27D-05 OVMax= 9.61D-04

 Cycle  10  Pass 1  IDiag  1:
 RMSU=  4.90D-06    CP:  9.89D-01  1.06D+00  6.17D-01 -1.21D-01  6.69D-01
                    CP:  8.76D-01  1.07D+00  7.56D-01  9.29D-01
 E= -768.321516506919     Delta-E=       -0.000001916508 Rises=F Damp=F
 DIIS: error= 2.03D-05 at cycle  10 NSaved=  10.
 NSaved=10 IEnMin=10 EnMin= -768.321516506919     IErMin=10 ErrMin= 2.03D-05
 ErrMax= 2.03D-05  0.00D+00 EMaxC= 1.00D-01 BMatC= 3.88D-07 BMatP= 2.07D-06
 IDIUse=1 WtCom= 1.00D+00 WtEn= 0.00D+00
 Coeff-Com: -0.802D-03 0.119D-02-0.219D-02-0.669D-04-0.235D-02-0.459D-02
 Coeff-Com:  0.241D-02 0.243D-01 0.313D+00 0.669D+00
 Coeff:     -0.802D-03 0.119D-02-0.219D-02-0.669D-04-0.235D-02-0.459D-02
 Coeff:      0.241D-02 0.243D-01 0.313D+00 0.669D+00
 Gap=     0.124 Goal=   None    Shift=    0.000
 RMSDP=3.61D-06 MaxDP=1.00D-04 DE=-1.92D-06 OVMax= 5.52D-04

 Cycle  11  Pass 1  IDiag  1:
 RMSU=  1.61D-06    CP:  9.89D-01  1.06D+00  6.18D-01 -1.21D-01  6.70D-01
                    CP:  8.80D-01  1.08D+00  7.76D-01  1.04D+00  8.83D-01
 E= -768.321516903048     Delta-E=       -0.000000396128 Rises=F Damp=F
 DIIS: error= 5.26D-06 at cycle  11 NSaved=  11.
 NSaved=11 IEnMin=11 EnMin= -768.321516903048     IErMin=11 ErrMin= 5.26D-06
 ErrMax= 5.26D-06  0.00D+00 EMaxC= 1.00D-01 BMatC= 3.15D-08 BMatP= 3.88D-07
 IDIUse=1 WtCom= 1.00D+00 WtEn= 0.00D+00
 Coeff-Com: -0.951D-04 0.184D-03-0.523D-03-0.482D-05-0.657D-03-0.325D-02
 Coeff-Com: -0.117D-01-0.946D-02 0.807D-01 0.269D+00 0.676D+00
 Coeff:     -0.951D-04 0.184D-03-0.523D-03-0.482D-05-0.657D-03-0.325D-02
 Coeff:     -0.117D-01-0.946D-02 0.807D-01 0.269D+00 0.676D+00
 Gap=     0.124 Goal=   None    Shift=    0.000
 RMSDP=1.19D-06 MaxDP=3.10D-05 DE=-3.96D-07 OVMax= 1.54D-04

 Cycle  12  Pass 1  IDiag  1:
 RMSU=  5.08D-07    CP:  9.89D-01  1.06D+00  6.18D-01 -1.21D-01  6.70D-01
                    CP:  8.81D-01  1.08D+00  7.84D-01  1.07D+00  9.24D-01
                    CP:  9.16D-01
 E= -768.321516938105     Delta-E=       -0.000000035057 Rises=F Damp=F
 DIIS: error= 3.06D-06 at cycle  12 NSaved=  12.
 NSaved=12 IEnMin=12 EnMin= -768.321516938105     IErMin=12 ErrMin= 3.06D-06
 ErrMax= 3.06D-06  0.00D+00 EMaxC= 1.00D-01 BMatC= 4.35D-09 BMatP= 3.15D-08
 IDIUse=1 WtCom= 1.00D+00 WtEn= 0.00D+00
 Coeff-Com:  0.288D-04-0.277D-04 0.310D-04-0.284D-05 0.535D-04-0.103D-02
 Coeff-Com: -0.645D-02-0.925D-02-0.359D-02 0.400D-01 0.350D+00 0.631D+00
 Coeff:      0.288D-04-0.277D-04 0.310D-04-0.284D-05 0.535D-04-0.103D-02
 Coeff:     -0.645D-02-0.925D-02-0.359D-02 0.400D-01 0.350D+00 0.631D+00
 Gap=     0.124 Goal=   None    Shift=    0.000
 RMSDP=4.33D-07 MaxDP=1.09D-05 DE=-3.51D-08 OVMax= 6.11D-05

 Cycle  13  Pass 1  IDiag  1:
 RMSU=  1.69D-07    CP:  9.89D-01  1.06D+00  6.18D-01 -1.21D-01  6.70D-01
                    CP:  8.82D-01  1.08D+00  7.86D-01  1.08D+00  9.49D-01
                    CP:  1.01D+00  7.62D-01
 E= -768.321516942791     Delta-E=       -0.000000004686 Rises=F Damp=F
 DIIS: error= 4.26D-07 at cycle  13 NSaved=  13.
 NSaved=13 IEnMin=13 EnMin= -768.321516942791     IErMin=13 ErrMin= 4.26D-07
 ErrMax= 4.26D-07  0.00D+00 EMaxC= 1.00D-01 BMatC= 1.36D-10 BMatP= 4.35D-09
 IDIUse=1 WtCom= 1.00D+00 WtEn= 0.00D+00
 Coeff-Com:  0.323D-04-0.425D-04 0.466D-04 0.552D-06 0.447D-04-0.179D-03
 Coeff-Com: -0.111D-02-0.219D-02-0.615D-02-0.727D-02 0.477D-01 0.194D+00
 Coeff-Com:  0.775D+00
 Coeff:      0.323D-04-0.425D-04 0.466D-04 0.552D-06 0.447D-04-0.179D-03
 Coeff:     -0.111D-02-0.219D-02-0.615D-02-0.727D-02 0.477D-01 0.194D+00
 Coeff:      0.775D+00
 Gap=     0.124 Goal=   None    Shift=    0.000
 RMSDP=9.43D-08 MaxDP=2.37D-06 DE=-4.69D-09 OVMax= 1.27D-05

 Cycle  14  Pass 1  IDiag  1:
 RMSU=  4.18D-08    CP:  9.89D-01  1.06D+00  6.18D-01 -1.21D-01  6.70D-01
                    CP:  8.82D-01  1.08D+00  7.86D-01  1.08D+00  9.52D-01
                    CP:  1.02D+00  8.19D-01  9.21D-01
 E= -768.321516942963     Delta-E=       -0.000000000172 Rises=F Damp=F
 DIIS: error= 1.49D-07 at cycle  14 NSaved=  14.
 NSaved=14 IEnMin=14 EnMin= -768.321516942963     IErMin=14 ErrMin= 1.49D-07
 ErrMax= 1.49D-07  0.00D+00 EMaxC= 1.00D-01 BMatC= 2.61D-11 BMatP= 1.36D-10
 IDIUse=1 WtCom= 1.00D+00 WtEn= 0.00D+00
 Coeff-Com:  0.130D-04-0.178D-04 0.206D-04 0.167D-06 0.179D-04-0.163D-05
 Coeff-Com:  0.355D-04-0.218D-03-0.171D-02-0.498D-02-0.237D-02 0.417D-01
 Coeff-Com:  0.332D+00 0.635D+00
 Coeff:      0.130D-04-0.178D-04 0.206D-04 0.167D-06 0.179D-04-0.163D-05
 Coeff:      0.355D-04-0.218D-03-0.171D-02-0.498D-02-0.237D-02 0.417D-01
 Coeff:      0.332D+00 0.635D+00
 Gap=     0.124 Goal=   None    Shift=    0.000
 RMSDP=2.15D-08 MaxDP=9.65D-07 DE=-1.72D-10 OVMax= 1.38D-06

 Cycle  15  Pass 1  IDiag  1:
 RMSU=  1.40D-08    CP:  9.89D-01  1.06D+00  6.18D-01 -1.21D-01  6.70D-01
                    CP:  8.82D-01  1.08D+00  7.86D-01  1.08D+00  9.53D-01
                    CP:  1.03D+00  8.31D-01  9.64D-01  8.34D-01
 E= -768.321516943011     Delta-E=       -0.000000000048 Rises=F Damp=F
 DIIS: error= 5.72D-08 at cycle  15 NSaved=  15.
 NSaved=15 IEnMin=15 EnMin= -768.321516943011     IErMin=15 ErrMin= 5.72D-08
 ErrMax= 5.72D-08  0.00D+00 EMaxC= 1.00D-01 BMatC= 3.15D-12 BMatP= 2.61D-11
 IDIUse=1 WtCom= 1.00D+00 WtEn= 0.00D+00
 Coeff-Com:  0.302D-05-0.404D-05 0.429D-05 0.594D-07 0.570D-06 0.164D-04
 Coeff-Com:  0.147D-03 0.176D-03 0.900D-04-0.120D-02-0.598D-02-0.724D-02
 Coeff-Com:  0.319D-01 0.233D+00 0.749D+00
 Coeff:      0.302D-05-0.404D-05 0.429D-05 0.594D-07 0.570D-06 0.164D-04
 Coeff:      0.147D-03 0.176D-03 0.900D-04-0.120D-02-0.598D-02-0.724D-02
 Coeff:      0.319D-01 0.233D+00 0.749D+00
 Gap=     0.124 Goal=   None    Shift=    0.000
 RMSDP=9.16D-09 MaxDP=2.96D-07 DE=-4.84D-11 OVMax= 6.60D-07

 Error on total polarization charges =  0.01233
 SCF Done:  E(RB3LYP) =  -768.321516943     A.U. after   15 cycles
            NFock= 15  Conv=0.92D-08     -V/T= 2.0091
 KE= 7.613859390788D+02 PE=-4.088774058983D+03 EE= 1.402083391731D+03
 Leave Link  502 at Fri May 24 08:37:56 2019, MaxMem=   402653184 cpu:            1627.9 elap:             409.3
 (Enter /n/sw/g16_nehalem/g16/l601.exe)
 Copying SCF densities to generalized density rwf, IOpCl= 0 IROHF=0.

 **********************************************************************

            Population analysis using the SCF density.

 **********************************************************************

 Orbital symmetries:
       Occupied  (A) (A) (A) (A) (A) (A) (A) (A) (A) (A) (A) (A)
                 (A) (A) (A) (A) (A) (A) (A) (A) (A) (A) (A) (A)
                 (A) (A) (A) (A) (A) (A) (A) (A) (A) (A) (A) (A)
                 (A) (A) (A) (A) (A) (A) (A) (A) (A) (A) (A) (A)
                 (A) (A) (A) (A) (A) (A) (A) (A) (A) (A) (A)
       Virtual   (A) (A) (A) (A) (A) (A) (A) (A) (A) (A) (A) (A)
                 (A) (A) (A) (A) (A) (A) (A) (A) (A) (A) (A) (A)
                 (A) (A) (A) (A) (A) (A) (A) (A) (A) (A) (A) (A)
                 (A) (A) (A) (A) (A) (A) (A) (A) (A) (A) (A) (A)
                 (A) (A) (A) (A) (A) (A) (A) (A) (A) (A) (A) (A)
                 (A) (A) (A) (A) (A) (A) (A) (A) (A) (A) (A) (A)
                 (A) (A) (A) (A) (A) (A) (A) (A) (A) (A) (A) (A)
                 (A) (A) (A) (A) (A) (A) (A) (A) (A) (A) (A) (A)
                 (A) (A) (A) (A) (A) (A) (A) (A) (A) (A) (A) (A)
                 (A) (A) (A) (A) (A) (A) (A) (A) (A) (A) (A) (A)
                 (A) (A) (A) (A) (A) (A) (A) (A) (A) (A) (A) (A)
                 (A) (A) (A) (A) (A) (A) (A) (A) (A) (A) (A) (A)
                 (A) (A) (A) (A) (A) (A) (A) (A) (A) (A) (A) (A)
                 (A) (A) (A) (A) (A) (A) (A) (A) (A) (A) (A) (A)
                 (A) (A) (A) (A) (A) (A) (A) (A) (A) (A) (A) (A)
                 (A) (A) (A) (A) (A) (A) (A) (A) (A) (A) (A) (A)
                 (A) (A) (A) (A) (A) (A) (A) (A) (A) (A) (A) (A)
 The electronic state is 1-A.
 Alpha  occ. eigenvalues --  -19.33423 -19.20996 -19.19829 -19.18770 -19.18739
 Alpha  occ. eigenvalues --  -10.40036 -10.32232 -10.32224 -10.29822 -10.29545
 Alpha  occ. eigenvalues --  -10.28119 -10.26070 -10.25528 -10.24836 -10.24566
 Alpha  occ. eigenvalues --   -1.22048  -1.09952  -1.08096  -1.07134  -1.06277
 Alpha  occ. eigenvalues --   -0.87379  -0.85999  -0.77914  -0.75096  -0.74311
 Alpha  occ. eigenvalues --   -0.71618  -0.68880  -0.67423  -0.66040  -0.62547
 Alpha  occ. eigenvalues --   -0.60479  -0.59139  -0.55749  -0.54839  -0.54127
 Alpha  occ. eigenvalues --   -0.52690  -0.51810  -0.50926  -0.50741  -0.48999
 Alpha  occ. eigenvalues --   -0.48579  -0.47703  -0.46769  -0.45765  -0.45167
 Alpha  occ. eigenvalues --   -0.44431  -0.43527  -0.42561  -0.41383  -0.40705
 Alpha  occ. eigenvalues --   -0.39615  -0.37235  -0.35976  -0.35503  -0.34990
 Alpha  occ. eigenvalues --   -0.32531  -0.31047  -0.29227  -0.27937
 Alpha virt. eigenvalues --   -0.15533  -0.00808   0.03938   0.04817   0.06687
 Alpha virt. eigenvalues --    0.07150   0.07650   0.08993   0.09652   0.09941
 Alpha virt. eigenvalues --    0.10860   0.12026   0.12814   0.12865   0.13571
 Alpha virt. eigenvalues --    0.13799   0.13964   0.14637   0.14687   0.15128
 Alpha virt. eigenvalues --    0.15634   0.16018   0.16413   0.16899   0.17679
 Alpha virt. eigenvalues --    0.18423   0.18602   0.20125   0.21058   0.22469
 Alpha virt. eigenvalues --    0.23340   0.24455   0.26355   0.27248   0.29323
 Alpha virt. eigenvalues --    0.44276   0.45201   0.46504   0.47452   0.48313
 Alpha virt. eigenvalues --    0.48988   0.49682   0.50551   0.50991   0.52693
 Alpha virt. eigenvalues --    0.52959   0.53378   0.54258   0.54795   0.55662
 Alpha virt. eigenvalues --    0.56726   0.57651   0.58876   0.60752   0.62678
 Alpha virt. eigenvalues --    0.64150   0.65338   0.67275   0.70232   0.72140
 Alpha virt. eigenvalues --    0.73084   0.73281   0.75877   0.77090   0.77655
 Alpha virt. eigenvalues --    0.78493   0.79219   0.81387   0.82079   0.82316
 Alpha virt. eigenvalues --    0.82607   0.83271   0.84018   0.84371   0.85226
 Alpha virt. eigenvalues --    0.85801   0.87093   0.87259   0.89127   0.89480
 Alpha virt. eigenvalues --    0.90496   0.91754   0.93428   0.93634   0.94840
 Alpha virt. eigenvalues --    0.96248   0.97529   0.98009   0.98561   1.01993
 Alpha virt. eigenvalues --    1.03524   1.05528   1.07538   1.10303   1.11913
 Alpha virt. eigenvalues --    1.13738   1.15869   1.16628   1.19145   1.22758
 Alpha virt. eigenvalues --    1.24153   1.26581   1.29127   1.29626   1.31756
 Alpha virt. eigenvalues --    1.32682   1.36753   1.37128   1.40039   1.42844
 Alpha virt. eigenvalues --    1.43685   1.44168   1.45260   1.46555   1.48177
 Alpha virt. eigenvalues --    1.48803   1.55745   1.56228   1.57748   1.62027
 Alpha virt. eigenvalues --    1.63563   1.65498   1.66593   1.69847   1.70698
 Alpha virt. eigenvalues --    1.72593   1.75209   1.77870   1.79378   1.80681
 Alpha virt. eigenvalues --    1.82497   1.83804   1.84816   1.87804   1.88738
 Alpha virt. eigenvalues --    1.91730   1.93533   1.96295   1.97746   2.00659
 Alpha virt. eigenvalues --    2.01122   2.01557   2.02769   2.03546   2.04421
 Alpha virt. eigenvalues --    2.06102   2.06775   2.08101   2.09287   2.10132
 Alpha virt. eigenvalues --    2.11231   2.11635   2.14172   2.16217   2.16999
 Alpha virt. eigenvalues --    2.18449   2.20203   2.22155   2.23744   2.25383
 Alpha virt. eigenvalues --    2.25564   2.28443   2.28927   2.32747   2.34790
 Alpha virt. eigenvalues --    2.36891   2.39508   2.41005   2.43363   2.46285
 Alpha virt. eigenvalues --    2.51679   2.52086   2.55219   2.57883   2.59969
 Alpha virt. eigenvalues --    2.64082   2.65128   2.67126   2.70618   2.73443
 Alpha virt. eigenvalues --    2.77553   2.80395   2.84227   2.88251   2.92797
 Alpha virt. eigenvalues --    2.94185   2.98796   3.01784   3.07152   3.82136
 Alpha virt. eigenvalues --    3.94477   3.95576   4.00918   4.09197   4.14258
 Alpha virt. eigenvalues --    4.21358   4.24098   4.24307   4.24934   4.26132
 Alpha virt. eigenvalues --    4.36822   4.45526   4.51076   4.65995
          Condensed to atoms (all electrons):
               1          2          3          4          5          6
     1  C    5.012652   0.205922  -0.033157  -0.043849   0.292175   0.002868
     2  C    0.205922   5.151283   0.270574   0.000197  -0.040745  -0.040828
     3  C   -0.033157   0.270574   4.860636  -0.036996  -0.001263   0.358869
     4  C   -0.043849   0.000197  -0.036996   5.106335   0.275886   0.002955
     5  C    0.292175  -0.040745  -0.001263   0.275886   5.053330  -0.000353
     6  H    0.002868  -0.040828   0.358869   0.002955  -0.000353   0.420050
     7  H   -0.032393   0.367696  -0.045682   0.001298  -0.005736   0.001418
     8  H    0.381253  -0.043402  -0.003961  -0.001503  -0.048649  -0.000008
     9  H   -0.002246   0.000316   0.000642   0.359708  -0.043194  -0.000127
    10  H   -0.044452  -0.002126   0.000155  -0.048367   0.356071  -0.000005
    11  O    0.001861  -0.026566   0.369360   0.115114  -0.023997  -0.032742
    12  O   -0.028607   0.238278  -0.032554   0.000000   0.002419   0.003717
    13  O    0.264107  -0.038371   0.002665   0.002558  -0.037075  -0.000038
    14  O   -0.039426   0.003115  -0.000054  -0.034381   0.194505   0.000003
    15  C    0.001588   0.000066   0.000448   0.350400  -0.029164  -0.000136
    16  H   -0.000047   0.000006   0.000194  -0.034474   0.005652   0.000009
    17  H   -0.000131  -0.000242   0.001421  -0.035137  -0.011126  -0.000011
    18  O    0.000358  -0.000003  -0.000018  -0.047176   0.007183   0.000001
    19  C   -0.003024  -0.048264  -0.004613   0.000004   0.000132   0.000281
    20  H   -0.002049  -0.003734   0.006295  -0.000029   0.000028   0.000029
    21  H    0.000031   0.005092  -0.000079   0.000000  -0.000003  -0.000085
    22  H    0.005565  -0.008920  -0.000486  -0.000005   0.000137   0.000125
    23  C   -0.043322  -0.005021   0.000247   0.000240  -0.006758  -0.000001
    24  H   -0.003451  -0.002210   0.000086  -0.000411   0.003945  -0.000001
    25  H    0.005184  -0.000005  -0.000005   0.000000  -0.000012   0.000000
    26  H   -0.010659   0.006742   0.000090   0.000032  -0.000524   0.000009
    27  C   -0.001198  -0.000034  -0.000002   0.003833  -0.028215   0.000000
    28  H    0.000953  -0.000055  -0.000002   0.000024  -0.004978   0.000000
    29  H   -0.000138   0.000052  -0.000002  -0.000544  -0.008839   0.000000
    30  H   -0.000139   0.000003   0.000000  -0.000136   0.005022   0.000000
    31  C   -0.000002   0.000000  -0.000001   0.005242  -0.000037   0.000000
    32  H   -0.000001   0.000000   0.000000   0.000180  -0.000138   0.000000
    33  H    0.000000   0.000000   0.000000  -0.000239  -0.000004   0.000000
    34  H    0.000000   0.000000   0.000000  -0.000256   0.000070   0.000000
               7          8          9         10         11         12
     1  C   -0.032393   0.381253  -0.002246  -0.044452   0.001861  -0.028607
     2  C    0.367696  -0.043402   0.000316  -0.002126  -0.026566   0.238278
     3  C   -0.045682  -0.003961   0.000642   0.000155   0.369360  -0.032554
     4  C    0.001298  -0.001503   0.359708  -0.048367   0.115114   0.000000
     5  C   -0.005736  -0.048649  -0.043194   0.356071  -0.023997   0.002419
     6  H    0.001418  -0.000008  -0.000127  -0.000005  -0.032742   0.003717
     7  H    0.482005   0.004214   0.000010   0.004043  -0.000252  -0.035869
     8  H    0.004214   0.543583   0.001421   0.005533   0.001026  -0.003280
     9  H    0.000010   0.001421   0.472181   0.004900  -0.022713   0.000002
    10  H    0.004043   0.005533   0.004900   0.565559   0.001739  -0.000047
    11  O   -0.000252   0.001026  -0.022713   0.001739   7.950642   0.001705
    12  O   -0.035869  -0.003280   0.000002  -0.000047   0.001705   8.185220
    13  O   -0.004933  -0.042455  -0.000045  -0.004281   0.000019   0.003728
    14  O   -0.000004   0.003108   0.007937  -0.031476   0.001034  -0.000008
    15  C    0.000190   0.000007  -0.029487  -0.000992  -0.031142   0.000000
    16  H   -0.000010   0.000004  -0.006763   0.000320   0.001645   0.000000
    17  H    0.000313   0.000004   0.005118   0.002471   0.001241   0.000001
    18  O   -0.000012  -0.000007   0.003495   0.001501   0.000949   0.000000
    19  C    0.005117   0.005201  -0.000002   0.000001  -0.000001   0.230815
    20  H   -0.000274   0.000268   0.000001  -0.000001  -0.000445  -0.036254
    21  H   -0.000131  -0.000019   0.000000   0.000000   0.000001  -0.029796
    22  H   -0.000131  -0.002425   0.000000  -0.000007   0.000027  -0.032510
    23  C    0.006391   0.005647  -0.000003   0.002639   0.000001  -0.003778
    24  H   -0.000723  -0.000348   0.000001   0.003805  -0.000004   0.000290
    25  H   -0.000101  -0.000130   0.000000  -0.000070   0.000000   0.000006
    26  H   -0.000049  -0.000086   0.000000  -0.000218  -0.000003   0.006110
    27  C   -0.000018  -0.000275  -0.000151  -0.006636  -0.000038   0.000000
    28  H    0.000002   0.000059   0.000033   0.000225   0.000003   0.000001
    29  H    0.000001   0.000042   0.000100   0.009274  -0.000005   0.000000
    30  H    0.000000  -0.000014  -0.000053  -0.000038   0.000000   0.000000
    31  C    0.000000   0.000000  -0.000043  -0.000078  -0.000045   0.000000
    32  H    0.000000   0.000000   0.000032  -0.000030   0.000003   0.000000
    33  H    0.000000   0.000000   0.000002   0.000010   0.000000   0.000000
    34  H    0.000000   0.000000  -0.000046   0.000014   0.000000   0.000000
              13         14         15         16         17         18
     1  C    0.264107  -0.039426   0.001588  -0.000047  -0.000131   0.000358
     2  C   -0.038371   0.003115   0.000066   0.000006  -0.000242  -0.000003
     3  C    0.002665  -0.000054   0.000448   0.000194   0.001421  -0.000018
     4  C    0.002558  -0.034381   0.350400  -0.034474  -0.035137  -0.047176
     5  C   -0.037075   0.194505  -0.029164   0.005652  -0.011126   0.007183
     6  H   -0.000038   0.000003  -0.000136   0.000009  -0.000011   0.000001
     7  H   -0.004933  -0.000004   0.000190  -0.000010   0.000313  -0.000012
     8  H   -0.042455   0.003108   0.000007   0.000004   0.000004  -0.000007
     9  H   -0.000045   0.007937  -0.029487  -0.006763   0.005118   0.003495
    10  H   -0.004281  -0.031476  -0.000992   0.000320   0.002471   0.001501
    11  O    0.000019   0.001034  -0.031142   0.001645   0.001241   0.000949
    12  O    0.003728  -0.000008   0.000000   0.000000   0.000001   0.000000
    13  O    8.184950   0.001344  -0.000031   0.000000  -0.000003   0.000000
    14  O    0.001344   8.244632  -0.000568  -0.000193   0.000129   0.000348
    15  C   -0.000031  -0.000568   4.860162   0.360597   0.353574   0.240444
    16  H    0.000000  -0.000193   0.360597   0.578708  -0.051327  -0.035268
    17  H   -0.000003   0.000129   0.353574  -0.051327   0.606180  -0.038980
    18  O    0.000000   0.000348   0.240444  -0.035268  -0.038980   8.195990
    19  C   -0.003893  -0.000002   0.000000   0.000000   0.000000   0.000000
    20  H    0.000237   0.000000   0.000000   0.000000   0.000000   0.000000
    21  H    0.000010   0.000000   0.000000   0.000000   0.000000   0.000000
    22  H    0.006773   0.000004   0.000000   0.000000   0.000000   0.000000
    23  C    0.232382   0.000016  -0.000006   0.000000  -0.000006   0.000000
    24  H   -0.036381  -0.000015   0.000016  -0.000001   0.000009  -0.000002
    25  H   -0.030632  -0.000008   0.000000   0.000000   0.000000   0.000000
    26  H   -0.033951  -0.000002  -0.000002   0.000000   0.000000   0.000000
    27  C   -0.001364   0.234749  -0.000164  -0.000004   0.000040  -0.001215
    28  H    0.005328  -0.035173  -0.000035   0.000000   0.000001   0.000070
    29  H    0.000141  -0.035543   0.000033   0.000038  -0.000058   0.005444
    30  H    0.000043  -0.031607   0.000005   0.000000   0.000000  -0.000022
    31  C    0.000000   0.000081  -0.040259  -0.004765  -0.004465   0.242013
    32  H    0.000000   0.000001  -0.008491  -0.002084   0.011761  -0.035447
    33  H    0.000000  -0.000002   0.005530  -0.000102  -0.000116  -0.031467
    34  H    0.000000  -0.000004  -0.006877   0.010797  -0.002311  -0.035692
              19         20         21         22         23         24
     1  C   -0.003024  -0.002049   0.000031   0.005565  -0.043322  -0.003451
     2  C   -0.048264  -0.003734   0.005092  -0.008920  -0.005021  -0.002210
     3  C   -0.004613   0.006295  -0.000079  -0.000486   0.000247   0.000086
     4  C    0.000004  -0.000029   0.000000  -0.000005   0.000240  -0.000411
     5  C    0.000132   0.000028  -0.000003   0.000137  -0.006758   0.003945
     6  H    0.000281   0.000029  -0.000085   0.000125  -0.000001  -0.000001
     7  H    0.005117  -0.000274  -0.000131  -0.000131   0.006391  -0.000723
     8  H    0.005201   0.000268  -0.000019  -0.002425   0.005647  -0.000348
     9  H   -0.000002   0.000001   0.000000   0.000000  -0.000003   0.000001
    10  H    0.000001  -0.000001   0.000000  -0.000007   0.002639   0.003805
    11  O   -0.000001  -0.000445   0.000001   0.000027   0.000001  -0.000004
    12  O    0.230815  -0.036254  -0.029796  -0.032510  -0.003778   0.000290
    13  O   -0.003893   0.000237   0.000010   0.006773   0.232382  -0.036381
    14  O   -0.000002   0.000000   0.000000   0.000004   0.000016  -0.000015
    15  C    0.000000   0.000000   0.000000   0.000000  -0.000006   0.000016
    16  H    0.000000   0.000000   0.000000   0.000000   0.000000  -0.000001
    17  H    0.000000   0.000000   0.000000   0.000000  -0.000006   0.000009
    18  O    0.000000   0.000000   0.000000   0.000000   0.000000  -0.000002
    19  C    4.944017   0.362192   0.386903   0.369093   0.000429  -0.000022
    20  H    0.362192   0.578928  -0.027565  -0.040905  -0.000019   0.000001
    21  H    0.386903  -0.027565   0.494764  -0.027552   0.000010   0.000000
    22  H    0.369093  -0.040905  -0.027552   0.543260  -0.000426   0.000041
    23  C    0.000429  -0.000019   0.000010  -0.000426   4.947440   0.359238
    24  H   -0.000022   0.000001   0.000000   0.000041   0.359238   0.583331
    25  H    0.000012   0.000000  -0.000001  -0.000045   0.387495  -0.028954
    26  H   -0.000360   0.000044  -0.000028  -0.000229   0.364444  -0.042654
    27  C    0.000000   0.000000   0.000000   0.000000   0.000051   0.000625
    28  H    0.000000   0.000000   0.000000   0.000000  -0.000097  -0.000198
    29  H    0.000000   0.000000   0.000000   0.000000  -0.000064  -0.000081
    30  H    0.000000   0.000000   0.000000   0.000000   0.000006  -0.000007
    31  C    0.000000   0.000000   0.000000   0.000000   0.000000   0.000000
    32  H    0.000000   0.000000   0.000000   0.000000   0.000000   0.000000
    33  H    0.000000   0.000000   0.000000   0.000000   0.000000   0.000000
    34  H    0.000000   0.000000   0.000000   0.000000   0.000000   0.000000
              25         26         27         28         29         30
     1  C    0.005184  -0.010659  -0.001198   0.000953  -0.000138  -0.000139
     2  C   -0.000005   0.006742  -0.000034  -0.000055   0.000052   0.000003
     3  C   -0.000005   0.000090  -0.000002  -0.000002  -0.000002   0.000000
     4  C    0.000000   0.000032   0.003833   0.000024  -0.000544  -0.000136
     5  C   -0.000012  -0.000524  -0.028215  -0.004978  -0.008839   0.005022
     6  H    0.000000   0.000009   0.000000   0.000000   0.000000   0.000000
     7  H   -0.000101  -0.000049  -0.000018   0.000002   0.000001   0.000000
     8  H   -0.000130  -0.000086  -0.000275   0.000059   0.000042  -0.000014
     9  H    0.000000   0.000000  -0.000151   0.000033   0.000100  -0.000053
    10  H   -0.000070  -0.000218  -0.006636   0.000225   0.009274  -0.000038
    11  O    0.000000  -0.000003  -0.000038   0.000003  -0.000005   0.000000
    12  O    0.000006   0.006110   0.000000   0.000001   0.000000   0.000000
    13  O   -0.030632  -0.033951  -0.001364   0.005328   0.000141   0.000043
    14  O   -0.000008  -0.000002   0.234749  -0.035173  -0.035543  -0.031607
    15  C    0.000000  -0.000002  -0.000164  -0.000035   0.000033   0.000005
    16  H    0.000000   0.000000  -0.000004   0.000000   0.000038   0.000000
    17  H    0.000000   0.000000   0.000040   0.000001  -0.000058   0.000000
    18  O    0.000000   0.000000  -0.001215   0.000070   0.005444  -0.000022
    19  C    0.000012  -0.000360   0.000000   0.000000   0.000000   0.000000
    20  H    0.000000   0.000044   0.000000   0.000000   0.000000   0.000000
    21  H   -0.000001  -0.000028   0.000000   0.000000   0.000000   0.000000
    22  H   -0.000045  -0.000229   0.000000   0.000000   0.000000   0.000000
    23  C    0.387495   0.364444   0.000051  -0.000097  -0.000064   0.000006
    24  H   -0.028954  -0.042654   0.000625  -0.000198  -0.000081  -0.000007
    25  H    0.500505  -0.027727   0.000000   0.000005   0.000000   0.000000
    26  H   -0.027727   0.563725   0.000006   0.000108   0.000002   0.000000
    27  C    0.000000   0.000006   4.909033   0.366246   0.364295   0.385041
    28  H    0.000005   0.000108   0.366246   0.575174  -0.042250  -0.030662
    29  H    0.000000   0.000002   0.364295  -0.042250   0.571664  -0.027636
    30  H    0.000000   0.000000   0.385041  -0.030662  -0.027636   0.519935
    31  C    0.000000   0.000000   0.000026   0.000000  -0.000124  -0.000001
    32  H    0.000000   0.000000   0.000010   0.000000  -0.000019   0.000000
    33  H    0.000000   0.000000   0.000016  -0.000001   0.000016   0.000000
    34  H    0.000000   0.000000  -0.000002   0.000000   0.000028   0.000000
              31         32         33         34
     1  C   -0.000002  -0.000001   0.000000   0.000000
     2  C    0.000000   0.000000   0.000000   0.000000
     3  C   -0.000001   0.000000   0.000000   0.000000
     4  C    0.005242   0.000180  -0.000239  -0.000256
     5  C   -0.000037  -0.000138  -0.000004   0.000070
     6  H    0.000000   0.000000   0.000000   0.000000
     7  H    0.000000   0.000000   0.000000   0.000000
     8  H    0.000000   0.000000   0.000000   0.000000
     9  H   -0.000043   0.000032   0.000002  -0.000046
    10  H   -0.000078  -0.000030   0.000010   0.000014
    11  O   -0.000045   0.000003   0.000000   0.000000
    12  O    0.000000   0.000000   0.000000   0.000000
    13  O    0.000000   0.000000   0.000000   0.000000
    14  O    0.000081   0.000001  -0.000002  -0.000004
    15  C   -0.040259  -0.008491   0.005530  -0.006877
    16  H   -0.004765  -0.002084  -0.000102   0.010797
    17  H   -0.004465   0.011761  -0.000116  -0.002311
    18  O    0.242013  -0.035447  -0.031467  -0.035692
    19  C    0.000000   0.000000   0.000000   0.000000
    20  H    0.000000   0.000000   0.000000   0.000000
    21  H    0.000000   0.000000   0.000000   0.000000
    22  H    0.000000   0.000000   0.000000   0.000000
    23  C    0.000000   0.000000   0.000000   0.000000
    24  H    0.000000   0.000000   0.000000   0.000000
    25  H    0.000000   0.000000   0.000000   0.000000
    26  H    0.000000   0.000000   0.000000   0.000000
    27  C    0.000026   0.000010   0.000016  -0.000002
    28  H    0.000000   0.000000  -0.000001   0.000000
    29  H   -0.000124  -0.000019   0.000016   0.000028
    30  H   -0.000001   0.000000   0.000000   0.000000
    31  C    4.893083   0.367071   0.386277   0.368118
[...]
 03018428,-0.01131939,-0.02688233,-0.00078580,-0.00034891,0.00010843,0.
 00015045,0.00020593,0.00002370,0.00010109,0.00002383,-0.00005868,0.000
 35162,-0.00030044,-0.00001522,0.00005258,-0.00000620,0.00007292,-0.000
 00355,0.00000634,-0.00000761,-0.00001026,-0.00000311,-0.00000786,-0.00
 000112,0.00000136,-0.00001327,-0.00002101,0.00001457,0.00006082,-0.000
 03339,-0.00001918,0.00000359,-0.00002979,0.00001519,0.00001966,0.00000
 020,-0.00000172,0.00000100,0.03914745,-0.05985167,0.03900775,0.0104524
 4,-0.00029253,0.01212307,-0.03179658,0.06794740,0.00023403,-0.00055621
 ,-0.00005804,-0.00004586,0.00012771,-0.00005500,0.00002799,0.00016279,
 0.00002651,-0.00009519,0.00033200,0.00035939,0.00234064,0.00183712,0.0
 0018940,-0.00001675,0.00000484,-0.00002667,0.00001420,0.00001440,-0.00
 000449,0.00018670,0.00003262,-0.00006668,-0.00013806,0.00006617,-0.000
 03129,-0.00054152,-0.00024172,0.00062841,0.00000490,-0.00026427,0.0000
 5104,-0.00025083,-0.00013365,0.00003639,-0.00005172,0.00030655,0.00017
 416,-0.01157050,-0.00940383,-0.00888914,-0.00049357,-0.00016219,-0.000
 07708,0.00012481,0.00005753,0.00000417,0.00007643,0.00005826,-0.000033
 19,0.00003176,0.00084811,-0.00093142,0.00006317,0.00000118,0.00009170,
 -0.00000131,0.00000823,-0.00000963,-0.00001463,-0.00000486,-0.00000421
 ,0.00001297,0.00000166,-0.00001332,0.00003741,-0.00003123,-0.00010271,
 0.00002791,-0.00000337,-0.00000517,-0.00002565,0.00002404,0.00001601,-
 0.00000852,-0.00000834,0.00001059,-0.12194743,0.03240255,-0.16890662,0
 .01005754,-0.00147953,0.01076279,0.14064025,-0.02899213,0.18172926,0.0
 0020511,0.00023685,0.00034551,-0.00000720,-0.00012711,0.00000776,-0.00
 002551,0.00014088,0.00007672,-0.00040155,0.00004241,0.00030168,0.00047
 059,-0.00067862,-0.00162894,-0.00002085,0.00000685,-0.00003744,0.00000
 311,0.00006492,-0.00002556,0.00003525,-0.00004242,-0.00002022,0.000005
 65,0.00001230,-0.00000336,-0.00013355,-0.00010049,0.00014245,0.0000760
 8,-0.00024218,-0.00003769,-0.00018024,-0.00007869,-0.00000278,-0.00050
 956,-0.00025318,0.00014645,-0.00513210,-0.01145247,0.00768045,-0.00011
 771,-0.00010450,-0.00008903,0.00005045,0.00000476,0.00001920,0.0000098
 7,0.00000505,0.00000482,0.00000967,0.00016705,0.00009923,0.00005006,-0
 .00000620,0.00007445,-0.00000438,0.00000141,-0.00000751,-0.00001110,-0
 .00000450,-0.00000734,0.00000572,0.00000391,-0.00000179,0.00014868,-0.
 00006507,-0.00027257,-0.00001913,0.00005010,-0.00007001,0.00001321,0.0
 0001490,0.00000544,-0.00003756,-0.00002912,0.00000311,-0.08995654,-0.0
 4463015,0.08051939,-0.00754853,-0.01169396,0.02060182,0.01152181,0.011
 69629,-0.01881493,0.09147930,0.00039963,-0.00139451,0.00046263,-0.0001
 4056,0.00022623,-0.00009433,0.00030036,0.00018037,-0.00004569,-0.00086
 395,0.00045191,0.00083452,-0.00182434,-0.00354040,-0.00298998,-0.00005
 368,0.00001973,-0.00003487,0.00000312,0.00006073,-0.00003579,0.0000044
 0,-0.00001150,-0.00001263,-0.00005057,-0.00001376,-0.00004999,0.000092
 45,-0.00010948,-0.00002083,-0.00020982,-0.00092721,-0.00000138,-0.0003
 8696,-0.00020427,0.00004122,0.00002633,0.00059235,0.00012218,-0.016187
 28,-0.02684986,0.02361976,-0.00016268,-0.00005185,-0.00016430,0.000093
 63,-0.00002938,0.00003355,0.00001345,0.00000989,-0.00000941,0.00024697
 ,-0.00001109,0.00003226,0.00009745,-0.00001673,0.00015142,-0.00000544,
 0.00000826,-0.00001573,-0.00002092,-0.00000502,-0.00001403,0.00000690,
 0.00000630,-0.00002126,-0.00010163,0.00001567,-0.00016795,0.00002480,-
 0.00007472,0.00011252,-0.00002483,0.00001530,0.00003131,0.00004625,-0.
 00000212,0.00004090,-0.04268703,-0.10425742,0.09589839,0.00561025,0.01
 090679,-0.01340278,-0.00124071,-0.00092754,0.00493428,0.05705381,0.125
 94104,0.00001269,-0.00034969,0.00025977,-0.00010072,0.00004705,0.00005
 607,0.00006543,0.00001670,-0.00002348,-0.00027739,0.00004891,0.0004736
 6,-0.00151085,-0.00340167,0.00072247,-0.00001198,0.00000632,-0.0000090
 2,-0.00001595,0.00000515,-0.00001247,0.00005754,-0.00000416,0.00000424
 ,-0.00002945,0.00001121,-0.00004658,0.00001113,-0.00019373,0.00047671,
 0.00001898,-0.00016526,-0.00002149,-0.00002007,-0.00002525,0.00002280,
 0.00026276,0.00025657,-0.00012177,-0.00648364,-0.00891458,0.01293773,-
 0.00003256,-0.00011060,-0.00003739,0.00001033,0.00002512,0.00000357,0.
 00000284,-0.00000317,-0.00000506,-0.00012404,0.00022627,0.00004190,-0.
 00000335,-0.00001259,-0.00000358,-0.00000168,0.00000070,0.00000025,0.0
 0000148,0.00000270,-0.00000407,-0.00000761,0.00000240,-0.00000480,-0.0
 0017576,0.00002246,0.00007682,-0.00000210,-0.00004123,0.00010538,0.000
 00724,-0.00000535,0.00000505,0.00004856,0.00001834,0.00000065,0.085302
 02,0.10780864,-0.23375111,0.00289602,0.00535364,-0.00808000,0.00902128
 ,0.00855835,-0.01495156,-0.08900081,-0.10920074,0.24186444,-0.00073041
 ,0.00037023,0.00011435,-0.00053326,-0.00039298,-0.00000851,-0.00150981
 ,0.00058158,0.00045084,-0.00457116,-0.00281866,-0.00026501,-0.00034845
 ,0.00063691,-0.00025560,0.00014814,-0.00005461,-0.00013971,0.00006427,
 -0.00005124,0.00007936,0.00014440,0.00003531,0.00003747,-0.00008735,0.
 00020636,-0.00033058,-0.00033837,0.00025486,0.00027517,0.00298349,0.00
 055259,-0.00018807,0.00064897,0.00004808,0.00008978,0.00055922,-0.0005
 7909,-0.00035430,0.00063857,-0.00118709,0.00016174,-0.04404680,-0.0065
 4506,-0.01567044,0.00581191,0.00426664,0.00045766,0.00466554,0.0036333
 4,-0.00235707,-0.16999929,0.00125919,-0.05674031,-0.00017757,0.0000337
 9,-0.00027136,-0.00000100,-0.00001974,0.00002122,0.00004689,0.00000948
 ,0.00001721,-0.00002121,-0.00000709,0.00003208,-0.00007182,0.00007998,
 0.00035082,0.00000440,0.00004252,-0.00000223,0.00002773,-0.00004413,-0
 .00003141,0.00000493,0.00001220,-0.00005578,-0.00008993,0.00087010,-0.
 00019871,0.00011531,-0.00018385,0.00002907,-0.00001572,0.00057625,0.00
 014702,0.00002722,-0.00012832,0.00012580,0.50791378,-0.00006463,-0.000
 24971,0.00029632,0.00028575,0.00029536,0.00002958,0.00062828,-0.000815
 21,-0.00040239,-0.00154684,-0.00419516,0.00129108,-0.00030873,-0.00046
 979,0.00001282,-0.00005600,0.00001883,0.00029060,-0.00008584,0.0000080
 6,-0.00004317,0.00005641,0.00000075,-0.00001629,0.00010789,-0.00014839
 ,-0.00004007,0.00000709,0.00013023,0.00013692,-0.00316762,0.00017911,-
 0.00078665,-0.00022131,0.00003690,-0.00005955,-0.00006259,0.00023901,0
 .00003772,0.00058767,-0.00009482,-0.00007214,-0.03118326,-0.00219647,-
 0.01737442,-0.00362030,0.00089814,-0.00080801,-0.00034503,0.00023984,-
 0.00004436,0.03529987,-0.08456999,0.03296746,0.00007229,-0.00002438,0.
 00010163,0.00000252,0.00000426,-0.00000755,-0.00001693,0.00000124,-0.0
 0000828,-0.00000034,0.00000606,-0.00001382,-0.00003564,-0.00004277,-0.
 00006079,0.00000807,-0.00000578,0.00000459,0.00000382,0.00001302,0.000
 00565,0.00000842,0.00000920,0.00001075,0.00008436,0.00025859,0.0000735
 3,-0.00001549,-0.00001010,0.00000171,0.00003342,0.00010054,0.00003582,
 0.00001682,0.00000355,0.00001573,0.04084234,0.60948238,-0.00052165,0.0
 0037751,0.00006486,-0.00046368,-0.00041294,0.00008866,-0.00128704,0.00
 074055,0.00074872,-0.00036480,0.00054997,-0.00234196,0.00000787,0.0008
 5878,-0.00026844,0.00007368,-0.00002554,-0.00031846,0.00003173,-0.0000
 2841,0.00006699,0.00010816,0.00002134,0.00002203,-0.00013448,-0.000011
 35,0.00015900,-0.00025802,0.00018290,0.00021571,0.00325872,0.00047518,
 0.00095003,0.00048115,0.00000507,0.00003314,0.00041570,-0.00055433,-0.
 00032981,0.00007466,-0.00067078,0.00006373,-0.00001221,-0.00452369,-0.
 00131994,0.00096270,0.00262495,0.00015051,0.00562012,0.00252441,0.0024
 6743,-0.07877973,0.01518095,-0.11287318,-0.00013091,0.00003451,-0.0001
 8239,-0.00000248,-0.00002053,0.00000721,0.00003536,0.00000570,0.000011
 34,-0.00001556,-0.00000549,0.00002413,0.00002338,0.00010043,0.00035340
 ,-0.00002568,0.00001173,-0.00001748,0.00000871,-0.00003175,-0.00003028
 ,-0.00000098,0.00000109,-0.00004820,0.00001916,0.00046799,-0.00003347,
 0.00009580,-0.00009767,0.00002440,0.00001153,0.00031836,0.00013152,-0.
 00001268,-0.00007570,0.00004077,-0.06131915,-0.00178567,0.54294283,0.0
 0005508,-0.00002643,0.00001057,0.00003828,0.00003602,0.00000728,0.0001
 0575,-0.00010426,-0.00005406,0.00063378,0.00022599,0.00003318,0.000112
 98,-0.00004039,-0.00008706,-0.00002590,0.00000988,0.00000775,-0.000011
 57,0.00000543,-0.00000712,-0.00000574,-0.00000356,-0.00000076,0.000018
 15,-0.00009966,0.00018274,0.00002294,-0.00000955,-0.00000252,-0.000458
 83,-0.00004687,0.00012142,-0.00004818,-0.00000230,-0.00000644,-0.00004
 275,0.00004474,0.00002685,-0.00015024,0.00016646,0.00000271,0.00526099
 ,0.00379095,-0.00419738,-0.00069566,-0.00038866,0.00028657,0.00031914,
 0.00016389,0.00183825,-0.00608309,0.00040935,-0.04000488,0.00001433,-0
 .00000281,0.00002103,-0.00000012,0.00000100,-0.00000171,-0.00000327,-0
 .00000071,-0.00000140,0.00000134,0.00000093,-0.00000228,0.00000053,-0.
 00000882,-0.00002943,0.00000100,-0.00000057,0.00000071,-0.00000077,0.0
 0000305,0.00000302,-0.00000021,0.,0.00000438,-0.00001874,-0.00013375,-
 0.00000239,-0.00000319,0.00002230,0.00000260,0.00000486,-0.00004465,-0
 .00001807,-0.00000232,0.00001394,-0.00001074,-0.06756344,-0.00271577,0
 .06382396,0.07173494,-0.00004121,0.00003345,-0.00002503,-0.00004492,-0
 .00003355,-0.00000556,-0.00013563,0.00006691,0.00004756,-0.00023009,-0
 .00004402,-0.00004731,-0.00000420,0.00006824,0.00004863,0.00000706,-0.
 00000532,-0.00001557,0.00000698,0.00000072,0.00000598,-0.00000104,0.00
 000114,0.00000211,-0.00001175,-0.00001992,0.00001277,-0.00000616,0.000
 01480,-0.00001873,0.00018440,-0.00002087,-0.00000411,0.00004350,-0.000
 00426,0.00000892,0.00003492,-0.00005716,-0.00003088,0.00001674,-0.0001
 0409,-0.00001290,-0.00008104,-0.00013264,-0.00182819,0.00026000,-0.000
 00567,-0.00007232,0.00055965,0.00044718,0.00016947,0.00069051,0.002200
 30,0.00859707,-0.00001292,0.00000448,-0.00001925,-0.00000002,-0.000001
 31,0.00000111,0.00000302,0.00000055,0.00000149,-0.00000069,-0.00000132
 ,0.00000286,0.00001241,0.00001142,0.00003493,-0.00000293,0.00000273,-0
 .00000489,0.00000094,-0.00000329,-0.00000248,-0.00000367,-0.00000131,-
 0.00000496,0.00004918,0.00007305,0.00003176,0.00000573,-0.00001035,-0.
 00000463,-0.00000550,0.00001267,0.00002378,-0.00001042,-0.00000409,-0.
 00000633,-0.00127723,-0.05501373,0.00161890,-0.00138165,0.04910739,0.0
 0010775,-0.00007075,-0.00000612,0.00008373,0.00008641,-0.00000704,0.00
 028088,-0.00017068,-0.00015232,0.00048144,0.00002557,0.00075585,0.0000
 7978,-0.00011669,-0.00006967,-0.00002995,0.00001136,0.00004229,-0.0000
 0785,0.00000685,-0.00001720,-0.00001606,-0.00000572,-0.00000168,0.0002
 5568,-0.00003651,0.00014553,0.00004818,-0.00002965,-0.00002735,-0.0007
 6191,-0.00006244,-0.00003725,-0.00009518,-0.00000463,0.00000044,-0.000
 09155,0.00011526,0.00008571,-0.00016492,0.00023817,0.00004556,0.003144
 17,0.00307260,0.00083791,-0.00011371,-0.00057372,-0.00016771,-0.001826
 68,-0.00116262,-0.00006603,-0.01429353,0.00284091,-0.02140658,0.000024
 68,-0.00000710,0.00003145,-0.00000003,0.00000515,-0.00000056,-0.000007
 07,-0.00000141,-0.00000210,0.00000342,0.00000068,-0.00000459,-0.000011
 62,-0.00002443,-0.00009082,0.00000932,-0.00000091,0.00000487,-0.000000
 93,0.00000652,0.00000739,0.00000006,-0.00000041,0.00001141,-0.00002339
 ,-0.00018755,-0.00001516,-0.00002476,0.00003474,-0.00000015,0.00000836
 ,-0.00008482,-0.00004292,0.00000912,0.00001219,-0.00000331,0.05979132,
 0.00193410,-0.28765155,-0.05350883,-0.00555078,0.31952487,0.00007906,-
 0.00012460,0.00005446,0.00015847,0.00014743,-0.00000507,0.00041479,-0.
 00034643,-0.00025528,0.00004499,-0.00123236,0.00071542,-0.00004844,-0.
 00032408,0.00005073,-0.00003171,0.00001369,0.00011743,-0.00002976,0.00
 000333,-0.00002041,-0.00000983,-0.00000393,-0.00000780,-0.00000507,-0.
 00002483,-0.00003238,0.00003749,-0.00001333,-0.00000650,-0.00134435,0.
 00001334,-0.00027938,-0.00014125,0.00001300,-0.00002579,-0.00009013,0.
 00017057,0.00006184,0.00011019,0.00029396,-0.00003913,-0.00319992,0.00
 282429,-0.00364394,-0.00004557,-0.00038366,-0.00015877,-0.00004258,0.0
 0007436,0.00016453,-0.02854283,-0.02368462,0.00093145,0.00004229,-0.00
 001417,0.00006146,0.00000088,0.00000417,-0.00000351,-0.00001017,-0.000
 00088,-0.00000432,0.00000222,0.00000344,-0.00000825,-0.00001719,-0.000
 02817,-0.00007376,0.00000481,-0.00000817,0.00000775,-0.00000325,0.0000
 0952,0.00000674,0.00000617,0.00000378,0.00001164,-0.00012673,-0.000169
 36,-0.00012845,0.00002225,0.00002149,0.00002943,0.00002140,-0.00003664
 ,0.00004949,0.00000465,0.00002927,-0.00000601,-0.13953298,-0.11953412,
 0.03549976,-0.00233574,-0.00540758,0.00253166,0.16344041,0.00005711,0.
 00000875,-0.00000511,0.00001083,0.00001192,0.00000038,0.00008340,0.000
 01671,-0.00000335,0.00010221,0.00040336,0.00004593,-0.00006349,-0.0000
 2011,-0.00003244,-0.00000706,0.00000290,-0.00002280,-0.00000238,0.0000
 0028,-0.00000281,-0.00000708,-0.00000373,-0.00000213,-0.00002682,0.000
 00091,0.00000030,0.00000804,-0.00000867,-0.00001520,0.00006124,-0.0000
 0966,0.00010427,-0.00002437,-0.00000667,-0.00000393,-0.00004301,0.0000
 2638,0.00001993,-0.00001832,0.00004897,-0.00001932,0.00213619,0.001766
 94,0.00018504,0.00020829,0.00031098,0.00015061,-0.00001094,-0.00009588
 ,0.00008825,0.00404633,0.00721431,-0.00253779,0.00000700,0.00000032,0.
 00001184,-0.00000010,0.00000015,-0.00000135,-0.00000153,-0.00000091,-0
 .00000061,0.00000131,0.00000038,-0.00000097,0.00000759,-0.00000271,-0.
 00001591,-0.00000155,-0.00000211,-0.00000016,-0.00000209,0.00000211,0.
 00000184,-0.00000104,-0.00000100,0.00000313,0.00000106,-0.00002864,0.0
 0003835,-0.00000180,0.00001074,-0.00000685,0.00000647,-0.00004270,-0.0
 0002512,-0.00000291,0.00001031,-0.00000995,-0.12947551,-0.22327994,0.0
 4722381,0.00157455,0.00169358,-0.00035750,0.13731832,0.23091344,0.0000
 2104,-0.00004782,0.00003730,0.00006629,0.00006817,-0.00000487,0.000163
 88,-0.00017864,-0.00011633,-0.00024244,-0.00059739,0.00080013,-0.00003
 864,-0.00012085,-0.00001852,-0.00001476,0.00000365,0.00007091,-0.00001
 388,0.00000334,-0.00001081,-0.00000114,-0.00000213,-0.00000285,0.00009
 307,-0.00004882,0.00002680,0.00000654,0.00000751,-0.00000242,-0.000763
 68,-0.00002243,-0.00021460,-0.00005784,0.00000529,-0.00001077,-0.00003
 418,0.00006465,0.00001745,0.00005237,0.00006034,-0.00003218,-0.0032150
 5,0.00052315,-0.00168016,0.00009566,0.00012418,-0.00005422,-0.00048683
 ,-0.00016408,0.00030415,-0.01761033,-0.01675766,0.00245349,0.00001815,
 -0.00000506,0.00002560,0.00000055,0.00000113,-0.00000171,-0.00000419,-
 0.00000008,-0.00000188,0.00000071,0.00000140,-0.00000292,-0.00000389,-
 0.00001123,-0.00002295,0.00000191,0.00000061,0.00000075,0.00000068,0.0
 0000319,0.00000288,0.00000013,0.00000141,0.00000359,-0.00000174,-0.000
 02134,-0.00000023,0.00000428,0.00000705,0.00000176,-0.00000424,0.00000
 382,0.00002165,-0.00000521,0.00001531,-0.00000863,0.04212506,0.0523202
 2,-0.06629120,0.01820203,0.02505322,-0.00412835,-0.03234273,-0.0518315
 5,0.06578901,0.00014213,-0.00008509,-0.00010105,0.00008347,0.00005550,
 -0.00003273,0.00017812,-0.00009615,-0.00010956,0.00067647,-0.00001256,
 0.00026825,0.00026913,-0.00005234,0.00018751,-0.00002031,0.00000997,0.
 00004037,0.00000402,0.00000886,-0.00000702,-0.00005168,-0.00000665,-0.
 00000587,0.00002043,0.00000202,0.00002569,0.00007051,-0.00009508,-0.00
 010868,-0.00053438,-0.00013043,-0.00008233,-0.00010417,-0.00001529,-0.
 00000921,-0.00008843,0.00008342,0.00005864,-0.00024465,0.00021022,-0.0
 0001407,0.00363602,0.00652554,0.00033679,0.00011226,-0.00160331,-0.000
 21662,-0.00055750,-0.00050236,0.00023769,-0.02963675,0.02549893,-0.003
 30729,0.00002738,-0.00000252,0.00004436,0.00000083,0.00000308,-0.00000
 351,-0.00000751,-0.00000174,-0.00000230,0.00000463,0.00000040,-0.00000
 474,0.00002228,-0.00001047,-0.00005765,-0.00000340,-0.00000621,-0.0000
 0043,-0.00000570,0.00000677,0.00000478,-0.00000247,-0.00000366,0.00000
 934,0.00001377,-0.00020906,0.00003701,-0.00002605,0.00003585,-0.000010
 05,-0.00000064,-0.00016238,-0.00004270,-0.00000861,0.00002572,-0.00002
 938,-0.09416624,0.08493542,0.03277691,-0.00087432,0.00678362,0.0041184
 2,0.01116741,-0.01593994,-0.00601158,0.10990395,-0.00009125,0.00008065
 ,-0.00000225,-0.00007873,-0.00005627,-0.00000327,-0.00020233,0.0001004
 8,0.00008531,-0.00034507,0.00027181,-0.00010852,-0.00026971,0.00006563
 ,-0.00004790,0.00001889,-0.00000937,-0.00003325,0.00001325,-0.00000983
 ,0.00001118,0.00001717,0.00000182,0.00000335,-0.00000138,0.00000688,-0
 .00001618,-0.00008108,0.00001849,0.00003621,0.00049287,0.00002052,0.00
 004550,0.00009599,0.00000762,0.00001737,0.00006127,-0.00006324,-0.0000
 3363,0.00013381,-0.00012885,0.00005998,-0.00268266,0.00202781,0.001079
 35,0.00197272,0.00074341,-0.00003988,0.00022132,-0.00005594,-0.0003350
 6,0.00863491,-0.00064160,0.00506750,-0.00002760,0.00000372,-0.00004330
 ,-0.00000048,-0.00000176,0.00000423,0.00000684,0.00000108,0.00000279,-
 0.00000266,-0.00000107,0.00000466,-0.00001679,0.00000765,0.00003277,0.
 00000346,0.00000484,0.00000324,0.00000265,-0.00000581,-0.00000317,0.00
 000196,0.00000234,-0.00000580,-0.00004662,0.00010176,-0.00005290,0.000
 02359,-0.00002397,0.00000885,0.00000425,0.00006726,0.00002683,0.000003
 69,-0.00001748,0.00001802,0.08845286,-0.24080885,-0.06508028,-0.001458
 03,0.00172431,0.00005780,0.01039298,-0.01894071,-0.00845860,-0.1052501
 1,0.25550668,0.00008990,-0.00003635,-0.00005105,0.00004315,0.00003702,
 -0.00001233,0.00012299,-0.00005361,-0.00006315,0.00036843,0.00029210,0
 .00018369,0.00000803,-0.00004031,0.00003541,-0.00000958,0.00000498,0.0
 0001588,-0.00000003,0.00000334,-0.00000679,-0.00002596,-0.00000522,-0.
 00000227,-0.00001243,0.00000679,-0.00000146,0.00002743,-0.00004931,-0.
 00005984,-0.00020968,-0.00006641,-0.00003202,-0.00005042,-0.00000385,-
 0.00000076,-0.00005926,0.00006742,0.00005185,-0.00011524,0.00013247,0.
 00000643,0.00190543,0.00287801,0.00044344,0.00061369,-0.00075520,-0.00
 003577,-0.00031101,-0.00052316,-0.00030860,-0.01836090,0.01962056,0.00
 508315,0.00001344,-0.00000274,0.00001956,-0.00000011,0.00000203,-0.000
 00066,-0.00000337,-0.00000125,-0.00000105,0.00000231,0.00000067,-0.000
 00229,-0.00000421,-0.00001322,-0.00005251,0.00000418,-0.00000103,0.000
 00356,-0.00000176,0.00000364,0.00000456,0.00000034,-0.00000035,0.00000
 687,-0.00001655,-0.00012692,-0.00000183,-0.00001441,0.00002104,-0.0000
 0537,-0.00000566,-0.00007659,-0.00002385,0.00000029,0.00001496,-0.0000
 0798,0.03388228,-0.06804309,-0.07686003,0.01336002,-0.02800664,-0.0075
 9482,-0.00325230,0.00702116,0.00305013,-0.02798901,0.06769907,0.076219
 91\\-0.00000858,-0.00000708,0.00001917,-0.00000247,0.00002622,-0.00002
 109,0.00000480,-0.00002688,0.00002353,-0.00000179,0.00003131,-0.000010
 83,0.00000705,-0.00000529,-0.00000315,0.00000283,-0.00000195,-0.000014
 19,0.00000922,-0.00001237,0.00001224,-0.00000650,0.00000059,-0.0000023
 0,0.00000024,-0.00000383,-0.00000475,-0.00000094,0.00000394,0.00000498
 ,-0.00001354,-0.00001048,-0.00001792,0.00000085,-0.00001609,0.00000400
 ,0.00000586,0.00000565,0.00000947,-0.00001136,0.00001754,0.00000032,-0
 .00000037,-0.00001017,-0.00001367,0.00000777,0.00000848,-0.00000568,0.
 00000855,-0.00000394,-0.00000456,0.00000124,0.00000510,-0.00001269,0.0
 0000135,-0.00000209,0.00001449,0.00000172,-0.00000036,0.00000735,-0.00
 000256,-0.00000059,0.00001022,-0.00000721,-0.00000616,0.00000973,-0.00
 000133,-0.00001341,0.00001010,0.00000105,-0.00000361,0.00000687,-0.000
 00375,-0.00000656,0.00001437,0.00000618,-0.00000310,0.00001152,-0.0000
 0314,-0.00000058,0.00000331,-0.00000547,0.00000502,0.00000350,-0.00000
 354,0.00000208,-0.00000115,-0.00001108,0.00000967,0.00000218,0.0000161
 0,0.00000613,-0.00001107,0.00000645,0.00000169,-0.00001417,0.00000080,
 0.00000441,-0.00001315,0.00000159,0.00000671,-0.00001698\\\@


 I SUPPOSE A BABY LLAMA HAS A MMAMA AND A PPOPA.
     -- RICHARD AMOUR
 Job cpu time:       0 days  3 hours 18 minutes 48.0 seconds.
 Elapsed time:       0 days  0 hours 50 minutes 19.0 seconds.
 File lengths (MBytes):  RWF=    376 Int=      0 D2E=      0 Chk=     16 Scr=      1
 Normal termination of Gaussian 16 at Fri May 24 09:29:26 2019.
