 Entering Gaussian System, Link 0=g16
 Input=clay-glucose_cation-045-b3lyp_d3bj-631gd-pcm_thf.gjf
 Output=clay-glucose_cation-045-b3lyp_d3bj-631gd-pcm_thf.out
 Initial command:
 /n/sw/g16_nehalem/g16/l1.exe "/scratch/Gau-14746.inp" -scrdir="/scratch/"
 Entering Link 1 = /n/sw/g16_nehalem/g16/l1.exe PID=     14758.
  
 Copyright (c) 1988,1990,1992,1993,1995,1998,2003,2009,2016,
            Gaussian, Inc.  All Rights Reserved.
  
 This is part of the Gaussian(R) 16 program.  It is based on
 the Gaussian(R) 09 system (copyright 2009, Gaussian, Inc.),
 the Gaussian(R) 03 system (copyright 2003, Gaussian, Inc.),
 the Gaussian(R) 98 system (copyright 1998, Gaussian, Inc.),
 the Gaussian(R) 94 system (copyright 1995, Gaussian, Inc.),
 the Gaussian 92(TM) system (copyright 1992, Gaussian, Inc.),
 the Gaussian 90(TM) system (copyright 1990, Gaussian, Inc.),
 the Gaussian 88(TM) system (copyright 1988, Gaussian, Inc.),
 the Gaussian 86(TM) system (copyright 1986, Carnegie Mellon
 University), and the Gaussian 82(TM) system (copyright 1983,
 Carnegie Mellon University). Gaussian is a federally registered
 trademark of Gaussian, Inc.
  
 This software contains proprietary and confidential information,
 including trade secrets, belonging to Gaussian, Inc.
  
 This software is provided under written license and may be
 used, copied, transmitted, or stored only in accord with that
 written license.
  
 The following legend is applicable only to US Government
 contracts under FAR:
  
                    RESTRICTED RIGHTS LEGEND
  
 Use, reproduction and disclosure by the US Government is
 subject to restrictions as set forth in subparagraphs (a)
 and (c) of the Commercial Computer Software - Restricted
 Rights clause in FAR 52.227-19.
  
 Gaussian, Inc.
 340 Quinnipiac St., Bldg. 40, Wallingford CT 06492
  
  
 ---------------------------------------------------------------
 Warning -- This program may not be used in any manner that
 competes with the business of Gaussian, Inc. or will provide
 assistance to any competitor of Gaussian, Inc.  The licensee
 of this program is prohibited from giving any competitor of
 Gaussian, Inc. access to this program.  By using this program,
 the user acknowledges that Gaussian, Inc. is engaged in the
 business of creating and licensing software in the field of
 computational chemistry and represents and warrants to the
 licensee that it is not a competitor of Gaussian, Inc. and that
 it will not use this program in any manner prohibited above.
 ---------------------------------------------------------------
  

 Cite this work as:
 Gaussian 16, Revision A.03,
 M. J. Frisch, G. W. Trucks, H. B. Schlegel, G. E. Scuseria, 
 M. A. Robb, J. R. Cheeseman, G. Scalmani, V. Barone, 
 G. A. Petersson, H. Nakatsuji, X. Li, M. Caricato, A. V. Marenich, 
 J. Bloino, B. G. Janesko, R. Gomperts, B. Mennucci, H. P. Hratchian, 
 J. V. Ortiz, A. F. Izmaylov, J. L. Sonnenberg, D. Williams-Young, 
 F. Ding, F. Lipparini, F. Egidi, J. Goings, B. Peng, A. Petrone, 
 T. Henderson, D. Ranasinghe, V. G. Zakrzewski, J. Gao, N. Rega, 
 G. Zheng, W. Liang, M. Hada, M. Ehara, K. Toyota, R. Fukuda, 
 J. Hasegawa, M. Ishida, T. Nakajima, Y. Honda, O. Kitao, H. Nakai, 
 T. Vreven, K. Throssell, J. A. Montgomery, Jr., J. E. Peralta, 
 F. Ogliaro, M. J. Bearpark, J. J. Heyd, E. N. Brothers, K. N. Kudin, 
 V. N. Staroverov, T. A. Keith, R. Kobayashi, J. Normand, 
 K. Raghavachari, A. P. Rendell, J. C. Burant, S. S. Iyengar, 
 J. Tomasi, M. Cossi, J. M. Millam, M. Klene, C. Adamo, R. Cammi, 
 J. W. Ochterski, R. L. Martin, K. Morokuma, O. Farkas, 
 J. B. Foresman, and D. J. Fox, Gaussian, Inc., Wallingford CT, 2016.
 
 ******************************************
 Gaussian 16:  ES64L-G16RevA.03 25-Dec-2016
                24-May-2019 
 ******************************************
 %nprocshared=4
 Will use up to    4 processors via shared memory.
 %mem=3GB
 -------------------------------------------------------------------
 #p b3lyp 6-31g* opt freq=noraman scrf=(pcm,solvent=tetrahydrofuran)
 -------------------------------------------------------------------
 1/18=20,19=15,26=3,38=1/1,3;
 2/9=110,12=2,17=6,18=5,40=1/2;
 3/5=1,6=6,7=1,11=2,25=1,30=1,70=2201,71=1,72=20,74=-5/1,2,3;
 4//1;
 5/5=2,38=5,53=20/2;
 6/7=2,8=2,9=2,10=2,28=1/1;
 7//1,2,3,16;
 1/18=20,19=15,26=3/3(2);
 2/9=110/2;
 99//99;
 2/9=110/2;
 3/5=1,6=6,7=1,11=2,25=1,30=1,70=2205,71=1,72=20,74=-5/1,2,3;
 4/5=5,16=3,69=1/1;
 5/5=2,38=5,53=20/2;
 7//1,2,3,16;
 1/18=20,19=15,26=3/3(-5);
 2/9=110/2;
 6/7=2,8=2,9=2,10=2,19=2,28=1/1;
 99/9=1/99;
 Leave Link    1 at Fri May 24 08:30:12 2019, MaxMem=   402653184 cpu:               0.4 elap:               0.1
 (Enter /n/sw/g16_nehalem/g16/l101.exe)
 -----
 title
 -----
 Symbolic Z-matrix:
 Charge =  1 Multiplicity = 1
 6                    -0.9922    0.44585  -0.51639 
 6                    -1.78506  -0.75167   0.08099 
 6                    -1.06506  -2.03253  -0.14239 
 6                     1.13868  -1.00102  -0.3277 
 6                     0.50014   0.38508  -0.11918 
 1                    -1.62854  -2.96504  -0.19893 
 1                    -1.83299  -0.65348   1.18283 
 1                    -1.05048   0.35301  -1.60547 
 1                     1.53632  -1.05953  -1.34139 
 1                     0.62596   0.66966   0.93285 
 8                     0.17204  -2.15209  -0.31601 
 8                    -3.05245  -0.91878  -0.49062 
 8                    -1.60912   1.68178  -0.23652 
 8                     1.26568   1.2299   -0.95746 
 6                     2.18911  -1.38725   0.73815 
 1                     2.66972  -2.33182   0.44852 
 1                     1.67532  -1.5363    1.69374 
 8                     3.12063  -0.35701   0.93509 
 6                    -4.15942  -0.39935   0.26001 
 1                    -4.17718  -0.81473   1.27484 
 1                    -4.12511   0.69352   0.29817 
 1                    -5.05475  -0.71696  -0.27569 
 6                    -1.67252   2.12542   1.1216 
 1                    -2.25736   3.0461    1.09781 
 1                    -2.18242   1.40634   1.77534 
 1                    -0.68368   2.34614   1.5371 
 6                     1.55676   2.52908  -0.43667 
 1                     0.65466   3.14603  -0.37395 
 1                     2.03426   2.45642   0.54822 
 1                     2.25503   2.98421  -1.14157 
 6                     4.1424   -0.27537  -0.06129 
 1                     4.87028   0.44982   0.3073 
 1                     4.63497  -1.24721  -0.19695 
 1                     3.74477   0.07396  -1.02134 
 
 ITRead=  0  0  0  0  0  0  0  0  0  0  0  0  0  0  0  0  0  0  0  0
 ITRead=  0  0  0  0  0  0  0  0  0  0  0  0  0  0
 MicOpt= -1 -1 -1 -1 -1 -1 -1 -1 -1 -1 -1 -1 -1 -1 -1 -1 -1 -1 -1 -1
 MicOpt= -1 -1 -1 -1 -1 -1 -1 -1 -1 -1 -1 -1 -1 -1
 NAtoms=     34 NQM=       34 NQMF=       0 NMMI=      0 NMMIF=      0
                NMic=       0 NMicF=      0.
                    Isotopes and Nuclear Properties:
 (Nuclear quadrupole moments (NQMom) in fm**2, nuclear magnetic moments (NMagM)
  in nuclear magnetons)

  Atom         1           2           3           4           5           6           7           8           9          10
 IAtWgt=          12          12          12          12          12           1           1           1           1           1
 AtmWgt=  12.0000000  12.0000000  12.0000000  12.0000000  12.0000000   1.0078250   1.0078250   1.0078250   1.0078250   1.0078250
 NucSpn=           0           0           0           0           0           1           1           1           1           1
 AtZEff=   0.0000000   0.0000000   0.0000000   0.0000000   0.0000000   0.0000000   0.0000000   0.0000000   0.0000000   0.0000000
 NQMom=    0.0000000   0.0000000   0.0000000   0.0000000   0.0000000   0.0000000   0.0000000   0.0000000   0.0000000   0.0000000
 NMagM=    0.0000000   0.0000000   0.0000000   0.0000000   0.0000000   2.7928460   2.7928460   2.7928460   2.7928460   2.7928460
 AtZNuc=   6.0000000   6.0000000   6.0000000   6.0000000   6.0000000   1.0000000   1.0000000   1.0000000   1.0000000   1.0000000

  Atom        11          12          13          14          15          16          17          18          19          20
 IAtWgt=          16          16          16          16          12           1           1          16          12           1
 AtmWgt=  15.9949146  15.9949146  15.9949146  15.9949146  12.0000000   1.0078250   1.0078250  15.9949146  12.0000000   1.0078250
 NucSpn=           0           0           0           0           0           1           1           0           0           1
 AtZEff=   0.0000000   0.0000000   0.0000000   0.0000000   0.0000000   0.0000000   0.0000000   0.0000000   0.0000000   0.0000000
 NQMom=    0.0000000   0.0000000   0.0000000   0.0000000   0.0000000   0.0000000   0.0000000   0.0000000   0.0000000   0.0000000
 NMagM=    0.0000000   0.0000000   0.0000000   0.0000000   0.0000000   2.7928460   2.7928460   0.0000000   0.0000000   2.7928460
 AtZNuc=   8.0000000   8.0000000   8.0000000   8.0000000   6.0000000   1.0000000   1.0000000   8.0000000   6.0000000   1.0000000

  Atom        21          22          23          24          25          26          27          28          29          30
 IAtWgt=           1           1          12           1           1           1          12           1           1           1
 AtmWgt=   1.0078250   1.0078250  12.0000000   1.0078250   1.0078250   1.0078250  12.0000000   1.0078250   1.0078250   1.0078250
 NucSpn=           1           1           0           1           1           1           0           1           1           1
 AtZEff=   0.0000000   0.0000000   0.0000000   0.0000000   0.0000000   0.0000000   0.0000000   0.0000000   0.0000000   0.0000000
 NQMom=    0.0000000   0.0000000   0.0000000   0.0000000   0.0000000   0.0000000   0.0000000   0.0000000   0.0000000   0.0000000
 NMagM=    2.7928460   2.7928460   0.0000000   2.7928460   2.7928460   2.7928460   0.0000000   2.7928460   2.7928460   2.7928460
 AtZNuc=   1.0000000   1.0000000   6.0000000   1.0000000   1.0000000   1.0000000   6.0000000   1.0000000   1.0000000   1.0000000

  Atom        31          32          33          34
 IAtWgt=          12           1           1           1
 AtmWgt=  12.0000000   1.0078250   1.0078250   1.0078250
 NucSpn=           0           1           1           1
 AtZEff=   0.0000000   0.0000000   0.0000000   0.0000000
 NQMom=    0.0000000   0.0000000   0.0000000   0.0000000
 NMagM=    0.0000000   2.7928460   2.7928460   2.7928460
 AtZNuc=   6.0000000   1.0000000   1.0000000   1.0000000
 Leave Link  101 at Fri May 24 08:30:13 2019, MaxMem=   402653184 cpu:               2.7 elap:               0.9
 (Enter /n/sw/g16_nehalem/g16/l103.exe)

 GradGradGradGradGradGradGradGradGradGradGradGradGradGradGradGradGradGrad
 Berny optimization.
 Initialization pass.
                           ----------------------------
                           !    Initial Parameters    !
                           ! (Angstroms and Degrees)  !
 --------------------------                            --------------------------
 ! Name  Definition              Value          Derivative Info.                !
 --------------------------------------------------------------------------------
 ! R1    R(1,2)                  1.5555         estimate D2E/DX2                !
 ! R2    R(1,5)                  1.5455         estimate D2E/DX2                !
 ! R3    R(1,8)                  1.0946         estimate D2E/DX2                !
 ! R4    R(1,13)                 1.4094         estimate D2E/DX2                !
 ! R5    R(2,3)                  1.4862         estimate D2E/DX2                !
 ! R6    R(2,7)                  1.1072         estimate D2E/DX2                !
 ! R7    R(2,12)                 1.4003         estimate D2E/DX2                !
 ! R8    R(3,6)                  1.091          estimate D2E/DX2                !
 ! R9    R(3,11)                 1.2549         estimate D2E/DX2                !
 ! R10   R(4,5)                  1.5403         estimate D2E/DX2                !
 ! R11   R(4,9)                  1.0905         estimate D2E/DX2                !
 ! R12   R(4,11)                 1.5032         estimate D2E/DX2                !
 ! R13   R(4,15)                 1.5455         estimate D2E/DX2                !
 ! R14   R(5,10)                 1.0971         estimate D2E/DX2                !
 ! R15   R(5,14)                 1.4151         estimate D2E/DX2                !
 ! R16   R(12,19)                1.4348         estimate D2E/DX2                !
 ! R17   R(13,23)                1.4301         estimate D2E/DX2                !
 ! R18   R(14,27)                1.4296         estimate D2E/DX2                !
 ! R19   R(15,16)                1.0987         estimate D2E/DX2                !
 ! R20   R(15,17)                1.0951         estimate D2E/DX2                !
 ! R21   R(15,18)                1.4028         estimate D2E/DX2                !
 ! R22   R(18,31)                1.4295         estimate D2E/DX2                !
 ! R23   R(19,20)                1.0967         estimate D2E/DX2                !
 ! R24   R(19,21)                1.0941         estimate D2E/DX2                !
 ! R25   R(19,22)                1.0906         estimate D2E/DX2                !
 ! R26   R(23,24)                1.091          estimate D2E/DX2                !
 ! R27   R(23,25)                1.0975         estimate D2E/DX2                !
 ! R28   R(23,26)                1.0951         estimate D2E/DX2                !
 ! R29   R(27,28)                1.0947         estimate D2E/DX2                !
 ! R30   R(27,29)                1.097          estimate D2E/DX2                !
 ! R31   R(27,30)                1.0916         estimate D2E/DX2                !
 ! R32   R(31,32)                1.0916         estimate D2E/DX2                !
 ! R33   R(31,33)                1.098          estimate D2E/DX2                !
 ! R34   R(31,34)                1.0963         estimate D2E/DX2                !
 ! A1    A(2,1,5)              111.2972         estimate D2E/DX2                !
 ! A2    A(2,1,8)              106.8387         estimate D2E/DX2                !
 ! A3    A(2,1,13)             112.0698         estimate D2E/DX2                !
 ! A4    A(5,1,8)              107.686          estimate D2E/DX2                !
 ! A5    A(5,1,13)             113.9602         estimate D2E/DX2                !
 ! A6    A(8,1,13)             104.3978         estimate D2E/DX2                !
 ! A7    A(1,2,3)              111.0285         estimate D2E/DX2                !
 ! A8    A(1,2,7)              109.6313         estimate D2E/DX2                !
 ! A9    A(1,2,12)             113.355          estimate D2E/DX2                !
 ! A10   A(3,2,7)              104.2977         estimate D2E/DX2                !
 ! A11   A(3,2,12)             105.9175         estimate D2E/DX2                !
 ! A12   A(7,2,12)             112.1861         estimate D2E/DX2                !
 ! A13   A(2,3,6)              119.6174         estimate D2E/DX2                !
 ! A14   A(2,3,11)             125.4828         estimate D2E/DX2                !
 ! A15   A(6,3,11)             114.8685         estimate D2E/DX2                !
 ! A16   A(5,4,9)              108.9838         estimate D2E/DX2                !
 ! A17   A(5,4,11)             114.9271         estimate D2E/DX2                !
 ! A18   A(5,4,15)             114.4113         estimate D2E/DX2                !
 ! A19   A(9,4,11)             101.5743         estimate D2E/DX2                !
 ! A20   A(9,4,15)             112.3239         estimate D2E/DX2                !
 ! A21   A(11,4,15)            103.9068         estimate D2E/DX2                !
 ! A22   A(1,5,4)              113.6341         estimate D2E/DX2                !
 ! A23   A(1,5,10)             110.3041         estimate D2E/DX2                !
 ! A24   A(1,5,14)             110.2826         estimate D2E/DX2                !
 ! A25   A(4,5,10)             108.4037         estimate D2E/DX2                !
 ! A26   A(4,5,14)             103.4609         estimate D2E/DX2                !
 ! A27   A(10,5,14)            110.5573         estimate D2E/DX2                !
 ! A28   A(3,11,4)             124.198          estimate D2E/DX2                !
 ! A29   A(2,12,19)            116.2004         estimate D2E/DX2                !
 ! A30   A(1,13,23)            118.6855         estimate D2E/DX2                !
 ! A31   A(5,14,27)            115.9058         estimate D2E/DX2                !
 ! A32   A(4,15,16)            109.2907         estimate D2E/DX2                !
 ! A33   A(4,15,17)            108.476          estimate D2E/DX2                !
 ! A34   A(4,15,18)            111.3834         estimate D2E/DX2                !
 ! A35   A(16,15,17)           108.5565         estimate D2E/DX2                !
 ! A36   A(16,15,18)           112.2049         estimate D2E/DX2                !
 ! A37   A(17,15,18)           106.798          estimate D2E/DX2                !
 ! A38   A(15,18,31)           114.7548         estimate D2E/DX2                !
 ! A39   A(12,19,20)           111.0684         estimate D2E/DX2                !
 ! A40   A(12,19,21)           110.8355         estimate D2E/DX2                !
 ! A41   A(12,19,22)           105.7217         estimate D2E/DX2                !
 ! A42   A(20,19,21)           110.2777         estimate D2E/DX2                !
 ! A43   A(20,19,22)           109.3247         estimate D2E/DX2                !
 ! A44   A(21,19,22)           109.4981         estimate D2E/DX2                !
 ! A45   A(13,23,24)           105.3571         estimate D2E/DX2                !
 ! A46   A(13,23,25)           112.5208         estimate D2E/DX2                !
 ! A47   A(13,23,26)           112.5078         estimate D2E/DX2                !
 ! A48   A(24,23,25)           108.4735         estimate D2E/DX2                !
 ! A49   A(24,23,26)           108.799          estimate D2E/DX2                !
 ! A50   A(25,23,26)           109.0014         estimate D2E/DX2                !
 ! A51   A(14,27,28)           111.4234         estimate D2E/DX2                !
 ! A52   A(14,27,29)           110.8245         estimate D2E/DX2                !
 ! A53   A(14,27,30)           105.8971         estimate D2E/DX2                !
 ! A54   A(28,27,29)           110.1576         estimate D2E/DX2                !
 ! A55   A(28,27,30)           109.217          estimate D2E/DX2                !
 ! A56   A(29,27,30)           109.2041         estimate D2E/DX2                !
 ! A57   A(18,31,32)           106.2126         estimate D2E/DX2                !
 ! A58   A(18,31,33)           110.869          estimate D2E/DX2                !
 ! A59   A(18,31,34)           111.6747         estimate D2E/DX2                !
 ! A60   A(32,31,33)           109.306          estimate D2E/DX2                !
 ! A61   A(32,31,34)           109.0181         estimate D2E/DX2                !
 ! A62   A(33,31,34)           109.6682         estimate D2E/DX2                !
 ! D1    D(5,1,2,3)            -46.9761         estimate D2E/DX2                !
 ! D2    D(5,1,2,7)             67.7345         estimate D2E/DX2                !
 ! D3    D(5,1,2,12)          -166.0569         estimate D2E/DX2                !
 ! D4    D(8,1,2,3)             70.3244         estimate D2E/DX2                !
 ! D5    D(8,1,2,7)           -174.965          estimate D2E/DX2                !
 ! D6    D(8,1,2,12)           -48.7564         estimate D2E/DX2                !
 ! D7    D(13,1,2,3)          -175.9071         estimate D2E/DX2                !
 ! D8    D(13,1,2,7)           -61.1965         estimate D2E/DX2                !
 ! D9    D(13,1,2,12)           65.0121         estimate D2E/DX2                !
 ! D10   D(2,1,5,4)             47.641          estimate D2E/DX2                !
 ! D11   D(2,1,5,10)           -74.3209         estimate D2E/DX2                !
 ! D12   D(2,1,5,14)           163.2745         estimate D2E/DX2                !
 ! D13   D(8,1,5,4)            -69.1437         estimate D2E/DX2                !
 ! D14   D(8,1,5,10)           168.8944         estimate D2E/DX2                !
 ! D15   D(8,1,5,14)            46.4897         estimate D2E/DX2                !
 ! D16   D(13,1,5,4)           175.5597         estimate D2E/DX2                !
 ! D17   D(13,1,5,10)           53.5978         estimate D2E/DX2                !
 ! D18   D(13,1,5,14)          -68.8068         estimate D2E/DX2                !
 ! D19   D(2,1,13,23)           66.141          estimate D2E/DX2                !
 ! D20   D(5,1,13,23)          -61.3805         estimate D2E/DX2                !
 ! D21   D(8,1,13,23)         -178.5942         estimate D2E/DX2                !
 ! D22   D(1,2,3,6)           -153.1621         estimate D2E/DX2                !
 ! D23   D(1,2,3,11)            24.6947         estimate D2E/DX2                !
 ! D24   D(7,2,3,6)             88.8415         estimate D2E/DX2                !
 ! D25   D(7,2,3,11)           -93.3017         estimate D2E/DX2                !
 ! D26   D(12,2,3,6)           -29.7072         estimate D2E/DX2                !
 ! D27   D(12,2,3,11)          148.1496         estimate D2E/DX2                !
 ! D28   D(1,2,12,19)          -99.816          estimate D2E/DX2                !
 ! D29   D(3,2,12,19)          138.2066         estimate D2E/DX2                !
 ! D30   D(7,2,12,19)           25.0253         estimate D2E/DX2                !
 ! D31   D(2,3,11,4)            -0.0774         estimate D2E/DX2                !
 ! D32   D(6,3,11,4)           177.869          estimate D2E/DX2                !
 ! D33   D(9,4,5,1)             89.0006         estimate D2E/DX2                !
 ! D34   D(9,4,5,10)          -147.9891         estimate D2E/DX2                !
 ! D35   D(9,4,5,14)           -30.5913         estimate D2E/DX2                !
 ! D36   D(11,4,5,1)           -24.1942         estimate D2E/DX2                !
 ! D37   D(11,4,5,10)           98.8162         estimate D2E/DX2                !
 ! D38   D(11,4,5,14)         -143.7861         estimate D2E/DX2                !
 ! D39   D(15,4,5,1)          -144.3257         estimate D2E/DX2                !
 ! D40   D(15,4,5,10)          -21.3154         estimate D2E/DX2                !
 ! D41   D(15,4,5,14)           96.0824         estimate D2E/DX2                !
 ! D42   D(5,4,11,3)            -0.5277         estimate D2E/DX2                !
 ! D43   D(9,4,11,3)          -118.0018         estimate D2E/DX2                !
 ! D44   D(15,4,11,3)          125.2453         estimate D2E/DX2                !
 ! D45   D(5,4,15,16)         -173.6336         estimate D2E/DX2                !
 ! D46   D(5,4,15,17)           68.1734         estimate D2E/DX2                !
 ! D47   D(5,4,15,18)          -49.0887         estimate D2E/DX2                !
 ! D48   D(9,4,15,16)          -48.706          estimate D2E/DX2                !
 ! D49   D(9,4,15,17)         -166.899          estimate D2E/DX2                !
 ! D50   D(9,4,15,18)           75.8389         estimate D2E/DX2                !
 ! D51   D(11,4,15,16)          60.2665         estimate D2E/DX2                !
 ! D52   D(11,4,15,17)         -57.9265         estimate D2E/DX2                !
 ! D53   D(11,4,15,18)        -175.1886         estimate D2E/DX2                !
 ! D54   D(1,5,14,27)           97.015          estimate D2E/DX2                !
 ! D55   D(4,5,14,27)         -141.1195         estimate D2E/DX2                !
 ! D56   D(10,5,14,27)         -25.2406         estimate D2E/DX2                !
 ! D57   D(2,12,19,20)         -55.3046         estimate D2E/DX2                !
 ! D58   D(2,12,19,21)          67.6514         estimate D2E/DX2                !
 ! D59   D(2,12,19,22)        -173.7846         estimate D2E/DX2                !
 ! D60   D(1,13,23,24)        -175.3947         estimate D2E/DX2                !
 ! D61   D(1,13,23,25)         -57.3862         estimate D2E/DX2                !
 ! D62   D(1,13,23,26)          66.2108         estimate D2E/DX2                !
 ! D63   D(5,14,27,28)         -68.7967         estimate D2E/DX2                !
 ! D64   D(5,14,27,29)          54.2479         estimate D2E/DX2                !
 ! D65   D(5,14,27,30)         172.5581         estimate D2E/DX2                !
 ! D66   D(4,15,18,31)         -78.9667         estimate D2E/DX2                !
 ! D67   D(16,15,18,31)         43.9238         estimate D2E/DX2                !
 ! D68   D(17,15,18,31)        162.758          estimate D2E/DX2                !
 ! D69   D(15,18,31,32)       -170.9625         estimate D2E/DX2                !
 ! D70   D(15,18,31,33)        -52.3208         estimate D2E/DX2                !
 ! D71   D(15,18,31,34)         70.3035         estimate D2E/DX2                !
 --------------------------------------------------------------------------------
 Trust Radius=3.00D-01 FncErr=1.00D-07 GrdErr=1.00D-06 EigMax=2.50D+02 EigMin=1.00D-04
 Number of steps in this run=    177 maximum allowed number of steps=    204.
 GradGradGradGradGradGradGradGradGradGradGradGradGradGradGradGradGradGrad

 Leave Link  103 at Fri May 24 08:30:13 2019, MaxMem=   402653184 cpu:               0.1 elap:               0.0
 (Enter /n/sw/g16_nehalem/g16/l202.exe)
                          Input orientation:                          
 ---------------------------------------------------------------------
 Center     Atomic      Atomic             Coordinates (Angstroms)
 Number     Number       Type             X           Y           Z
 ---------------------------------------------------------------------
      1          6           0       -0.992204    0.445849   -0.516394
      2          6           0       -1.785061   -0.751671    0.080993
      3          6           0       -1.065063   -2.032531   -0.142387
      4          6           0        1.138679   -1.001022   -0.327701
      5          6           0        0.500136    0.385077   -0.119180
      6          1           0       -1.628536   -2.965039   -0.198929
      7          1           0       -1.832985   -0.653480    1.182831
      8          1           0       -1.050484    0.353005   -1.605465
      9          1           0        1.536320   -1.059530   -1.341393
     10          1           0        0.625958    0.669664    0.932850
     11          8           0        0.172043   -2.152088   -0.316014
     12          8           0       -3.052445   -0.918782   -0.490622
     13          8           0       -1.609119    1.681783   -0.236520
     14          8           0        1.265678    1.229903   -0.957455
     15          6           0        2.189107   -1.387248    0.738154
     16          1           0        2.669720   -2.331823    0.448521
     17          1           0        1.675320   -1.536302    1.693736
     18          8           0        3.120634   -0.357011    0.935085
     19          6           0       -4.159418   -0.399346    0.260008
     20          1           0       -4.177178   -0.814729    1.274841
     21          1           0       -4.125112    0.693517    0.298171
     22          1           0       -5.054746   -0.716960   -0.275689
     23          6           0       -1.672521    2.125422    1.121601
     24          1           0       -2.257360    3.046105    1.097806
     25          1           0       -2.182417    1.406342    1.775335
     26          1           0       -0.683682    2.346136    1.537096
     27          6           0        1.556756    2.529076   -0.436673
     28          1           0        0.654663    3.146033   -0.373948
     29          1           0        2.034265    2.456419    0.548216
     30          1           0        2.255029    2.984214   -1.141566
     31          6           0        4.142402   -0.275369   -0.061290
     32          1           0        4.870278    0.449821    0.307302
     33          1           0        4.634970   -1.247212   -0.196947
     34          1           0        3.744767    0.073964   -1.021338
 ---------------------------------------------------------------------
                    Distance matrix (angstroms):
                    1          2          3          4          5
     1  C    0.000000
     2  C    1.555490   0.000000
     3  C    2.507500   1.486236   0.000000
     4  C    2.582577   2.962678   2.440252   0.000000
     5  C    1.545494   2.560154   2.880141   1.540288   0.000000
     6  H    3.484230   2.236483   1.090995   3.395795   3.969998
     7  H    2.191530   1.107242   2.060992   3.351608   2.866581
     8  H    1.094574   2.145706   2.798498   2.873761   2.148137
     9  H    3.056178   3.626228   3.025151   1.090465   2.157399
    10  H    2.183770   2.925554   3.364156   2.154777   1.097082
    11  O    2.853927   2.439065   1.254939   1.503155   2.565852
    12  O    2.471331   1.400333   2.304646   4.195096   3.802479
    13  O    1.409414   2.460380   3.755128   3.841374   2.478744
    14  O    2.430495   3.783123   4.091475   2.321582   1.415094
    15  C    3.880061   4.077969   3.432399   1.545515   2.593989
    16  H    4.696404   4.740995   3.793066   2.172013   3.522914
    17  H    3.991150   3.897541   3.335759   2.158869   2.891266
    18  O    4.434728   4.995105   4.635555   2.436704   2.920476
    19  C    3.368739   2.407021   3.521966   5.364443   4.740311
    20  H    3.865442   2.674224   3.629991   5.555284   5.025942
    21  H    3.246532   2.758908   4.121811   5.565130   4.654271
    22  H    4.232530   3.289265   4.203102   6.200154   5.665306
    23  C    2.442708   3.061567   4.388080   4.447243   3.047749
    24  H    3.311736   3.959808   5.362107   5.472147   4.020685
    25  H    2.755209   2.772311   4.092919   4.609538   3.439224
    26  H    2.814800   3.595786   4.705193   4.242869   2.826734
    27  C    3.292930   4.711584   5.269611   3.556439   2.411219
    28  H    3.165984   4.620749   5.461557   4.175461   2.776988
    29  H    3.786199   5.009730   5.498494   3.677391   2.662598
    30  H    4.168772   5.636827   6.098287   4.217905   3.298551
    31  C    5.204945   5.948271   5.496534   3.101596   3.702113
    32  H    5.920066   6.766708   6.449230   4.053764   4.391380
    33  H    5.885031   6.445123   5.754136   3.507386   4.446040
    34  H    4.778301   5.698755   5.323940   2.903174   3.382057
                    6          7          8          9         10
     6  H    0.000000
     7  H    2.700808   0.000000
     8  H    3.649918   3.065928   0.000000
     9  H    3.866847   4.229515   2.959146   0.000000
    10  H    4.424334   2.803498   3.058394   2.998508   0.000000
    11  O    1.979061   2.917619   3.071278   2.026410   3.118972
    12  O    2.509934   2.087561   2.620718   4.669088   4.252068
    13  O    4.647015   2.741920   1.987897   4.316171   2.717974
    14  O    5.152609   4.210661   2.559975   2.337126   2.072767
    15  C    4.235794   4.112588   4.360732   2.204097   2.590797
    16  H    4.392625   4.861111   5.026637   2.471258   3.663395
    17  H    4.066809   3.653574   4.678057   3.075490   2.558592
    18  O    5.535559   4.968663   4.935255   2.861107   2.697680
    19  C    3.633011   2.515646   3.702903   5.953298   4.949275
    20  H    3.645738   2.351533   4.408626   6.288773   5.038898
    21  H    4.457021   2.801940   3.632233   6.149240   4.793334
    22  H    4.098618   3.537097   4.352843   6.685449   5.971071
    23  C    5.259138   2.784204   3.311387   5.148487   2.727245
    24  H    6.181488   3.724816   4.002126   6.099011   3.740081
    25  H    4.828403   2.171642   3.717607   5.442750   3.023152
    26  H    5.667020   3.231733   3.739359   4.981232   2.211522
    27  C    6.355148   4.923596   3.591526   3.700950   2.489858
    28  H    6.526012   4.800860   3.496450   4.404546   2.800169
    29  H    6.585328   5.002982   4.310263   4.022495   2.307329
    30  H    7.166886   5.945376   4.250280   4.111975   3.509162
    31  C    6.368437   6.115231   5.453934   3.007530   3.774491
    32  H    7.358813   6.849639   6.222819   4.013927   4.295800
    33  H    6.494801   6.640086   6.071985   3.308567   4.585088
    34  H    6.227703   6.041428   4.838750   2.502895   3.728361
                   11         12         13         14         15
    11  O    0.000000
    12  O    3.456712   0.000000
    13  O    4.228170   2.985079   0.000000
    14  O    3.611834   4.845716   2.998066   0.000000
    15  C    2.400999   5.404000   4.979504   3.252275   0.000000
    16  H    2.618245   5.968404   5.906503   4.078479   1.098680
    17  H    2.584208   5.244474   4.986933   3.853376   1.095140
    18  O    3.671749   6.360435   5.282036   3.088829   1.402823
    19  C    4.708021   1.434799   3.328913   5.793819   6.442697
    20  H    4.820277   2.095880   3.887378   6.228029   6.414468
    21  H    5.190398   2.091009   2.755501   5.561018   6.662772
    22  H    5.420382   2.023892   4.198553   6.648522   7.345105
    23  C    4.875064   3.710880   1.430150   3.709103   5.234315
    24  H    5.909492   4.344605   2.015445   4.464805   6.289280
    25  H    4.751805   3.361207   2.110000   4.403252   5.290568
    26  H    4.939666   4.514684   2.107964   3.356898   4.778010
    27  C    4.883163   5.756333   3.283402   1.429612   4.137352
    28  H    5.320373   5.502634   2.699560   2.094128   4.913443
    29  H    5.045107   6.192397   3.806589   2.088567   3.851471
    30  H    5.603746   6.620150   4.176970   2.022454   4.758926
    31  C    4.398944   7.236306   6.077923   3.368159   2.385529
    32  H    5.406650   8.079560   6.617859   3.898882   3.278587
    33  H    4.555293   7.700030   6.897045   4.250482   2.622264
    34  H    4.268155   6.889796   5.644920   2.736084   2.766050
                   16         17         18         19         20
    16  H    0.000000
    17  H    1.781080   0.000000
    18  O    2.083255   2.013755   0.000000
    19  C    7.099798   6.114934   7.311407   0.000000
    20  H    7.061472   5.911673   7.320041   1.096697   0.000000
    21  H    7.439424   6.369043   7.349157   1.094067   1.797610
    22  H    7.924622   7.060010   8.272386   1.090625   1.784328
    23  C    6.259004   4.994357   5.401074   3.647116   3.865395
    24  H    7.322554   6.067912   6.366357   4.023787   4.315447
    25  H    6.267180   4.852623   5.651352   3.076566   3.026999
    26  H    5.857781   4.545630   4.705554   4.609703   4.718512
    27  C    5.064642   4.591296   3.557658   6.460315   6.854802
    28  H    5.894389   5.219322   4.479497   6.012237   6.461643
    29  H    4.831253   4.169278   3.040601   6.826431   7.057650
    30  H    5.564225   5.367501   4.028093   7.386340   7.851387
    31  C    2.580252   3.279720   1.429489   8.308960   8.443433
    32  H    3.549640   4.009319   2.026411   9.069660   9.186494
    33  H    2.335641   3.523888   2.089777   8.846974   8.944672
    34  H    3.017287   3.774546   2.098302   8.021347   8.295747
                   21         22         23         24         25
    21  H    0.000000
    22  H    1.784091   0.000000
    23  C    2.956956   4.633681   0.000000
    24  H    3.108470   4.885951   1.090990   0.000000
    25  H    2.542478   4.118906   1.097469   1.775805   0.000000
    26  H    4.013667   5.636927   1.095059   1.777469   1.784987
    27  C    6.016053   7.367131   3.608238   4.143601   4.487196
    28  H    5.414132   6.894180   2.948576   3.264341   3.961687
    29  H    6.411573   7.810456   3.765447   4.366672   4.515406
    30  H    6.930104   8.239007   4.613578   5.037884   5.539758
    31  C    8.331851   9.210239   6.401278   7.302920   6.797402
    32  H    8.998695  10.010363   6.802863   7.626848   7.267087
    33  H    8.986134   9.704533   7.273079   8.222723   7.576807
    34  H    8.003746   8.866396   6.176381   7.024950   6.687909
                   26         27         28         29         30
    26  H    0.000000
    27  C    2.991453   0.000000
    28  H    2.466392   1.094688   0.000000
    29  H    2.894353   1.096950   1.797013   0.000000
    30  H    4.027207   1.091609   1.782300   1.784003   0.000000
    31  C    5.719984   3.832935   4.895720   3.504055   3.918425
    32  H    5.996238   3.981988   5.050255   3.482448   3.919425
    33  H    6.648843   4.877830   5.930833   4.586482   4.945846
    34  H    5.596384   3.340180   4.405163   3.326471   3.271594
                   31         32         33         34
    31  C    0.000000
    32  H    1.091588   0.000000
    33  H    1.097955   1.785933   0.000000
    34  H    1.096284   1.781384   1.793764   0.000000
 Stoichiometry    C10H19O5(1+)
 Framework group  C1[X(C10H19O5)]
 Deg. of freedom    96
 Full point group                 C1      NOp   1
 Largest Abelian subgroup         C1      NOp   1
 Largest concise Abelian subgroup C1      NOp   1
                         Standard orientation:                         
 ---------------------------------------------------------------------
 Center     Atomic      Atomic             Coordinates (Angstroms)
 Number     Number       Type             X           Y           Z
 ---------------------------------------------------------------------
      1          6           0       -0.992204    0.445849   -0.516394
      2          6           0       -1.785061   -0.751671    0.080993
      3          6           0       -1.065063   -2.032531   -0.142387
      4          6           0        1.138679   -1.001022   -0.327701
      5          6           0        0.500136    0.385077   -0.119180
      6          1           0       -1.628536   -2.965039   -0.198929
      7          1           0       -1.832985   -0.653480    1.182831
      8          1           0       -1.050484    0.353005   -1.605465
      9          1           0        1.536320   -1.059530   -1.341393
     10          1           0        0.625958    0.669664    0.932850
     11          8           0        0.172043   -2.152088   -0.316014
     12          8           0       -3.052445   -0.918782   -0.490622
     13          8           0       -1.609119    1.681783   -0.236520
     14          8           0        1.265678    1.229903   -0.957455
     15          6           0        2.189107   -1.387248    0.738154
     16          1           0        2.669720   -2.331823    0.448521
     17          1           0        1.675320   -1.536302    1.693736
     18          8           0        3.120634   -0.357011    0.935085
     19          6           0       -4.159418   -0.399346    0.260008
     20          1           0       -4.177178   -0.814729    1.274841
     21          1           0       -4.125112    0.693517    0.298171
     22          1           0       -5.054746   -0.716960   -0.275689
     23          6           0       -1.672521    2.125422    1.121601
     24          1           0       -2.257360    3.046105    1.097806
     25          1           0       -2.182417    1.406342    1.775335
     26          1           0       -0.683682    2.346136    1.537096
     27          6           0        1.556756    2.529076   -0.436673
     28          1           0        0.654663    3.146033   -0.373948
     29          1           0        2.034265    2.456419    0.548216
     30          1           0        2.255029    2.984214   -1.141566
     31          6           0        4.142402   -0.275369   -0.061290
     32          1           0        4.870278    0.449820    0.307302
     33          1           0        4.634970   -1.247213   -0.196947
     34          1           0        3.744767    0.073964   -1.021338
 ---------------------------------------------------------------------
 Rotational constants (GHZ):           0.9388193           0.4094059           0.3156169
 Leave Link  202 at Fri May 24 08:30:13 2019, MaxMem=   402653184 cpu:               0.6 elap:               0.2
 (Enter /n/sw/g16_nehalem/g16/l301.exe)
 Standard basis: 6-31G(d) (6D, 7F)
 Ernie: Thresh=  0.10000D-02 Tol=  0.10000D-05 Strict=F.
 There are   263 symmetry adapted cartesian basis functions of A   symmetry.
 There are   263 symmetry adapted basis functions of A   symmetry.
   263 basis functions,   496 primitive gaussians,   263 cartesian basis functions
    59 alpha electrons       59 beta electrons
       nuclear repulsion energy      1160.1565178239 Hartrees.
 IExCor=  402 DFT=T Ex+Corr=B3LYP ExCW=0 ScaHFX=  0.200000
 ScaDFX=  0.800000  0.720000  1.000000  0.810000 ScalE2=  1.000000  1.000000
 IRadAn=      5 IRanWt=     -1 IRanGd=            0 ICorTp=0 IEmpDi=  4
 NAtoms=   34 NActive=   34 NUniq=   34 SFac= 1.00D+00 NAtFMM=   60 NAOKFM=F Big=F
 Integral buffers will be    131072 words long.
 Raffenetti 2 integral format.
 Two-electron integral symmetry is turned on.
 ------------------------------------------------------------------------------
 Polarizable Continuum Model (PCM)
 =================================
 Model                : PCM.
 Atomic radii         : UFF (Universal Force Field).
 Polarization charges : Total charges.
 Charge compensation  : None.
 Solution method      : On-the-fly selection.
 Cavity type          : Scaled VdW (van der Waals Surface) (Alpha=1.100).
 Cavity algorithm     : GePol (No added spheres)
                        Default sphere list used, NSphG=   34.
                        Lebedev-Laikov grids with approx.  5.0 points / Ang**2.
                        Smoothing algorithm: York/Karplus (Gamma=1.0000).
                        Polarization charges: spherical gaussians, with
                                              point-specific exponents (IZeta= 3).
                        Self-potential: point-specific (ISelfS= 7).
                        Self-field    : sphere-specific E.n sum rule (ISelfD= 2).
 1st derivatives      : Analytical E(r).r(x)/FMM algorithm (CHGder, D1EAlg=3).
                        Cavity 1st derivative terms included.
 Solvent              : TetraHydroFuran, Eps=   7.425700 Eps(inf)=   1.974025
 ------------------------------------------------------------------------------
 GePol: Number of generator spheres                  =      34
 GePol: Total number of spheres                      =      34
 GePol: Number of exposed spheres                    =      34 (100.00%)
 GePol: Number of points                             =    2242
 GePol: Average weight of points                     =       0.13
 GePol: Minimum weight of points                     =   0.20D-11
 GePol: Maximum weight of points                     =    0.20577
 GePol: Number of points with low weight             =     120
 GePol: Fraction of low-weight points (<1% of avg)   =       5.35%
 GePol: Cavity surface area                          =    294.157 Ang**2
 GePol: Cavity volume                                =    319.833 Ang**3
 Leave Link  301 at Fri May 24 08:30:14 2019, MaxMem=   402653184 cpu:               0.4 elap:               0.2
 (Enter /n/sw/g16_nehalem/g16/l302.exe)
 NPDir=0 NMtPBC=     1 NCelOv=     1 NCel=       1 NClECP=     1 NCelD=      1
         NCelK=      1 NCelE2=     1 NClLst=     1 CellRange=     0.0.
 One-electron integrals computed using PRISM.
 One-electron integral symmetry used in STVInt
 NBasis=   263 RedAO= T EigKep=  1.58D-03  NBF=   263
 NBsUse=   263 1.00D-06 EigRej= -1.00D+00 NBFU=   263
 Precomputing XC quadrature grid using
 IXCGrd= 4 IRadAn=           5 IRanWt=          -1 IRanGd=           0 AccXCQ= 0.00D+00.
 Generated NRdTot=       0 NPtTot=           0 NUsed=           0 NTot=          32
 NSgBfM=   262   262   262   262   262 MxSgAt=    34 MxSgA2=    34.
 Leave Link  302 at Fri May 24 08:30:15 2019, MaxMem=   402653184 cpu:               7.0 elap:               1.8
 (Enter /n/sw/g16_nehalem/g16/l303.exe)
 DipDrv:  MaxL=1.
 Leave Link  303 at Fri May 24 08:30:16 2019, MaxMem=   402653184 cpu:               0.6 elap:               0.2
 (Enter /n/sw/g16_nehalem/g16/l401.exe)
 ExpMin= 1.61D-01 ExpMax= 5.48D+03 ExpMxC= 8.25D+02 IAcc=3 IRadAn=         5 AccDes= 0.00D+00
 Harris functional with IExCor=  402 and IRadAn=       5 diagonalized for initial guess.
 HarFok:  IExCor=  402 AccDes= 0.00D+00 IRadAn=         5 IDoV= 1 UseB2=F ITyADJ=14
 ICtDFT=  3500011 ScaDFX=  1.000000  1.000000  1.000000  1.000000
 FoFCou: FMM=F IPFlag=           0 FMFlag=      100000 FMFlg1=           0
         NFxFlg=           0 DoJE=T BraDBF=F KetDBF=T FulRan=T
         wScrn=  0.000000 ICntrl=       500 IOpCl=  0 I1Cent=   200000004 NGrid=           0
         NMat0=    1 NMatS0=      1 NMatT0=    0 NMatD0=    1 NMtDS0=    0 NMtDT0=    0
 Petite list used in FoFCou.
 Harris En= -768.256131974641    
 JPrj=0 DoOrth=F DoCkMO=F.
 Leave Link  401 at Fri May 24 08:30:27 2019, MaxMem=   402653184 cpu:              43.4 elap:              10.9
 (Enter /n/sw/g16_nehalem/g16/l502.exe)
 Integral symmetry usage will be decided dynamically.
 Closed shell SCF:
 Using DIIS extrapolation, IDIIS=  1040.
 NGot=   402653184 LenX=   402510103 LenY=   402440493
 Requested convergence on RMS density matrix=1.00D-08 within 128 cycles.
 Requested convergence on MAX density matrix=1.00D-06.
 Requested convergence on             energy=1.00D-06.
 No special actions if energy rises.
 Fock matrices will be formed incrementally for  20 cycles.

 Cycle   1  Pass 1  IDiag  1:
 FoFJK:  IHMeth= 1 ICntrl=       0 DoSepK=F KAlg= 0 I1Cent=           0 FoldK=F
 IRaf= 880000000 NMat=       1 IRICut=       1 DoRegI=T DoRafI=F ISym2E= 0 IDoP0=0 IntGTp=1.
 FoFCou: FMM=F IPFlag=           0 FMFlag=      100000 FMFlg1=           0
         NFxFlg=           0 DoJE=F BraDBF=F KetDBF=F FulRan=T
         wScrn=  0.000000 ICntrl=         0 IOpCl=  0 I1Cent=           0 NGrid=           0
         NMat0=    1 NMatS0=      1 NMatT0=    0 NMatD0=    1 NMtDS0=    0 NMtDT0=    0
 Symmetry not used in FoFCou.
 Inv3:  Mode=1 IEnd=    15079692.
 Iteration    1 A*A^-1 deviation from unit magnitude is 4.22D-15 for   1677.
 Iteration    1 A*A^-1 deviation from orthogonality  is 2.64D-15 for   2211   1437.
 Iteration    1 A^-1*A deviation from unit magnitude is 4.22D-15 for   1115.
 Iteration    1 A^-1*A deviation from orthogonality  is 1.61D-15 for   1671    347.
 E= -768.080729884920    
 DIIS: error= 1.99D-02 at cycle   1 NSaved=   1.
 NSaved= 1 IEnMin= 1 EnMin= -768.080729884920     IErMin= 1 ErrMin= 1.99D-02
 ErrMax= 1.99D-02  0.00D+00 EMaxC= 1.00D-01 BMatC= 2.55D-01 BMatP= 2.55D-01
 IDIUse=3 WtCom= 8.01D-01 WtEn= 1.99D-01
 Coeff-Com:  0.100D+01
 Coeff-En:   0.100D+01
 Coeff:      0.100D+01
 Gap=     0.005 Goal=   None    Shift=    0.000
 GapD=    0.005 DampG=0.250 DampE=0.500 DampFc=0.2500 IDamp=-1.
 Damping current iteration by 2.50D-01
 RMSDP=5.21D-03 MaxDP=1.82D-01              OVMax= 4.21D-01

 Cycle   2  Pass 1  IDiag  1:
 RMSU=  1.30D-03    CP:  9.94D-01
 E= -768.149060749092     Delta-E=       -0.068330864171 Rises=F Damp=T
 DIIS: error= 9.88D-03 at cycle   2 NSaved=   2.
 NSaved= 2 IEnMin= 2 EnMin= -768.149060749092     IErMin= 2 ErrMin= 9.88D-03
 ErrMax= 9.88D-03  0.00D+00 EMaxC= 1.00D-01 BMatC= 6.76D-02 BMatP= 2.55D-01
 IDIUse=3 WtCom= 9.01D-01 WtEn= 9.88D-02
 Coeff-Com: -0.588D+00 0.159D+01
 Coeff-En:   0.000D+00 0.100D+01
 Coeff:     -0.529D+00 0.153D+01
 Gap=     0.106 Goal=   None    Shift=    0.000
 RMSDP=1.55D-03 MaxDP=5.42D-02 DE=-6.83D-02 OVMax= 5.14D-01

 Cycle   3  Pass 1  IDiag  1:
 RMSU=  1.54D-03    CP:  9.85D-01  9.83D-01
 E= -768.270272904586     Delta-E=       -0.121212155495 Rises=F Damp=F
 DIIS: error= 7.83D-03 at cycle   3 NSaved=   3.
 NSaved= 3 IEnMin= 3 EnMin= -768.270272904586     IErMin= 3 ErrMin= 7.83D-03
 ErrMax= 7.83D-03  0.00D+00 EMaxC= 1.00D-01 BMatC= 5.70D-02 BMatP= 6.76D-02
 IDIUse=3 WtCom= 9.22D-01 WtEn= 7.83D-02
 Coeff-Com: -0.490D+00 0.101D+01 0.477D+00
 Coeff-En:   0.000D+00 0.000D+00 0.100D+01
 Coeff:     -0.451D+00 0.933D+00 0.518D+00
 Gap=     0.137 Goal=   None    Shift=    0.000
 RMSDP=9.25D-04 MaxDP=3.41D-02 DE=-1.21D-01 OVMax= 4.66D-02

 Cycle   4  Pass 1  IDiag  1:
 RMSU=  6.74D-04    CP:  9.90D-01  1.23D+00  6.48D-01
 E= -768.318500075699     Delta-E=       -0.048227171113 Rises=F Damp=F
 DIIS: error= 2.42D-03 at cycle   4 NSaved=   4.
 NSaved= 4 IEnMin= 4 EnMin= -768.318500075699     IErMin= 4 ErrMin= 2.42D-03
 ErrMax= 2.42D-03  0.00D+00 EMaxC= 1.00D-01 BMatC= 3.49D-03 BMatP= 5.70D-02
 IDIUse=3 WtCom= 9.76D-01 WtEn= 2.42D-02
 Coeff-Com: -0.236D+00 0.405D+00 0.204D+00 0.627D+00
 Coeff-En:   0.000D+00 0.000D+00 0.000D+00 0.100D+01
 Coeff:     -0.230D+00 0.395D+00 0.199D+00 0.636D+00
 Gap=     0.127 Goal=   None    Shift=    0.000
 RMSDP=2.32D-04 MaxDP=1.56D-02 DE=-4.82D-02 OVMax= 1.11D-02

 Cycle   5  Pass 1  IDiag  1:
 RMSU=  2.16D-04    CP:  9.89D-01  1.26D+00  6.88D-01  9.41D-01
 E= -768.320664920344     Delta-E=       -0.002164844645 Rises=F Damp=F
 DIIS: error= 1.87D-03 at cycle   5 NSaved=   5.
 NSaved= 5 IEnMin= 5 EnMin= -768.320664920344     IErMin= 5 ErrMin= 1.87D-03
 ErrMax= 1.87D-03  0.00D+00 EMaxC= 1.00D-01 BMatC= 1.47D-03 BMatP= 3.49D-03
 IDIUse=3 WtCom= 9.81D-01 WtEn= 1.87D-02
 Coeff-Com: -0.108D+00 0.160D+00 0.323D-01 0.379D+00 0.536D+00
 Coeff-En:   0.000D+00 0.000D+00 0.000D+00 0.184D+00 0.816D+00
 Coeff:     -0.106D+00 0.157D+00 0.317D-01 0.376D+00 0.542D+00
 Gap=     0.127 Goal=   None    Shift=    0.000
 RMSDP=1.19D-04 MaxDP=8.44D-03 DE=-2.16D-03 OVMax= 6.41D-03

 Cycle   6  Pass 1  IDiag  1:
 RMSU=  8.21D-05    CP:  9.89D-01  1.29D+00  6.86D-01  1.03D+00  7.62D-01
 E= -768.321636166130     Delta-E=       -0.000971245786 Rises=F Damp=F
 DIIS: error= 5.95D-04 at cycle   6 NSaved=   6.
 NSaved= 6 IEnMin= 6 EnMin= -768.321636166130     IErMin= 6 ErrMin= 5.95D-04
 ErrMax= 5.95D-04  0.00D+00 EMaxC= 1.00D-01 BMatC= 1.80D-04 BMatP= 1.47D-03
 IDIUse=3 WtCom= 9.94D-01 WtEn= 5.95D-03
 Coeff-Com: -0.413D-01 0.525D-01-0.200D-01 0.140D+00 0.329D+00 0.540D+00
 Coeff-En:   0.000D+00 0.000D+00 0.000D+00 0.000D+00 0.000D+00 0.100D+01
 Coeff:     -0.410D-01 0.522D-01-0.199D-01 0.139D+00 0.327D+00 0.543D+00
 Gap=     0.126 Goal=   None    Shift=    0.000
 RMSDP=4.27D-05 MaxDP=2.54D-03 DE=-9.71D-04 OVMax= 2.38D-03

 Cycle   7  Pass 1  IDiag  1:
 RMSU=  3.01D-05    CP:  9.89D-01  1.29D+00  6.83D-01  1.06D+00  8.35D-01
                    CP:  8.50D-01
 E= -768.321777915636     Delta-E=       -0.000141749506 Rises=F Damp=F
 DIIS: error= 1.63D-04 at cycle   7 NSaved=   7.
 NSaved= 7 IEnMin= 7 EnMin= -768.321777915636     IErMin= 7 ErrMin= 1.63D-04
 ErrMax= 1.63D-04  0.00D+00 EMaxC= 1.00D-01 BMatC= 1.72D-05 BMatP= 1.80D-04
 IDIUse=3 WtCom= 9.98D-01 WtEn= 1.63D-03
 Coeff-Com: -0.904D-02 0.878D-02-0.207D-01 0.172D-01 0.102D+00 0.277D+00
 Coeff-Com:  0.625D+00
 Coeff-En:   0.000D+00 0.000D+00 0.000D+00 0.000D+00 0.000D+00 0.000D+00
 Coeff-En:   0.100D+01
 Coeff:     -0.903D-02 0.877D-02-0.207D-01 0.171D-01 0.102D+00 0.276D+00
 Coeff:      0.625D+00
 Gap=     0.125 Goal=   None    Shift=    0.000
 RMSDP=1.85D-05 MaxDP=7.76D-04 DE=-1.42D-04 OVMax= 1.04D-03

 Cycle   8  Pass 1  IDiag  1:
 RMSU=  9.86D-06    CP:  9.89D-01  1.30D+00  6.82D-01  1.08D+00  8.69D-01
                    CP:  9.21D-01  8.38D-01
 E= -768.321794709577     Delta-E=       -0.000016793941 Rises=F Damp=F
 DIIS: error= 4.01D-05 at cycle   8 NSaved=   8.
 NSaved= 8 IEnMin= 8 EnMin= -768.321794709577     IErMin= 8 ErrMin= 4.01D-05
 ErrMax= 4.01D-05  0.00D+00 EMaxC= 1.00D-01 BMatC= 1.17D-06 BMatP= 1.72D-05
 IDIUse=1 WtCom= 1.00D+00 WtEn= 0.00D+00
 Coeff-Com: -0.498D-03 0.474D-04-0.604D-02-0.879D-02 0.121D-02 0.362D-01
 Coeff-Com:  0.250D+00 0.728D+00
 Coeff:     -0.498D-03 0.474D-04-0.604D-02-0.879D-02 0.121D-02 0.362D-01
 Coeff:      0.250D+00 0.728D+00
 Gap=     0.125 Goal=   None    Shift=    0.000
 RMSDP=6.27D-06 MaxDP=2.00D-04 DE=-1.68D-05 OVMax= 7.71D-04

 Cycle   9  Pass 1  IDiag  1:
 RMSU=  3.68D-06    CP:  9.89D-01  1.29D+00  6.82D-01  1.08D+00  8.78D-01
                    CP:  9.48D-01  9.26D-01  9.86D-01
 E= -768.321795727421     Delta-E=       -0.000001017845 Rises=F Damp=F
 DIIS: error= 1.33D-05 at cycle   9 NSaved=   9.
 NSaved= 9 IEnMin= 9 EnMin= -768.321795727421     IErMin= 9 ErrMin= 1.33D-05
 ErrMax= 1.33D-05  0.00D+00 EMaxC= 1.00D-01 BMatC= 1.96D-07 BMatP= 1.17D-06
 IDIUse=1 WtCom= 1.00D+00 WtEn= 0.00D+00
 Coeff-Com:  0.369D-03-0.495D-03-0.143D-02-0.624D-02-0.902D-02-0.697D-02
 Coeff-Com:  0.761D-01 0.411D+00 0.536D+00
 Coeff:      0.369D-03-0.495D-03-0.143D-02-0.624D-02-0.902D-02-0.697D-02
 Coeff:      0.761D-01 0.411D+00 0.536D+00
 Gap=     0.125 Goal=   None    Shift=    0.000
 RMSDP=2.04D-06 MaxDP=5.98D-05 DE=-1.02D-06 OVMax= 2.20D-04

 Cycle  10  Pass 1  IDiag  1:
 RMSU=  1.17D-06    CP:  9.89D-01  1.29D+00  6.83D-01  1.08D+00  8.80D-01
                    CP:  9.56D-01  9.46D-01  1.06D+00  7.28D-01
 E= -768.321795909463     Delta-E=       -0.000000182042 Rises=F Damp=F
 DIIS: error= 2.12D-06 at cycle  10 NSaved=  10.
 NSaved=10 IEnMin=10 EnMin= -768.321795909463     IErMin=10 ErrMin= 2.12D-06
 ErrMax= 2.12D-06  0.00D+00 EMaxC= 1.00D-01 BMatC= 5.43D-09 BMatP= 1.96D-07
 IDIUse=1 WtCom= 1.00D+00 WtEn= 0.00D+00
 Coeff-Com:  0.266D-03-0.333D-03-0.603D-05-0.140D-02-0.351D-02-0.538D-02
 Coeff-Com: -0.517D-03 0.582D-01 0.150D+00 0.803D+00
 Coeff:      0.266D-03-0.333D-03-0.603D-05-0.140D-02-0.351D-02-0.538D-02
 Coeff:     -0.517D-03 0.582D-01 0.150D+00 0.803D+00
 Gap=     0.125 Goal=   None    Shift=    0.000
 RMSDP=7.12D-07 MaxDP=1.86D-05 DE=-1.82D-07 OVMax= 1.01D-04

 Cycle  11  Pass 1  IDiag  1:
 RMSU=  3.04D-07    CP:  9.89D-01  1.29D+00  6.83D-01  1.08D+00  8.81D-01
                    CP:  9.60D-01  9.55D-01  1.08D+00  7.75D-01  1.02D+00
 E= -768.321795917291     Delta-E=       -0.000000007828 Rises=F Damp=F
 DIIS: error= 8.47D-07 at cycle  11 NSaved=  11.
 NSaved=11 IEnMin=11 EnMin= -768.321795917291     IErMin=11 ErrMin= 8.47D-07
 ErrMax= 8.47D-07  0.00D+00 EMaxC= 1.00D-01 BMatC= 1.17D-09 BMatP= 5.43D-09
 IDIUse=1 WtCom= 1.00D+00 WtEn= 0.00D+00
 Coeff-Com:  0.637D-04-0.737D-04 0.104D-03-0.695D-04-0.843D-03-0.152D-02
 Coeff-Com: -0.613D-02-0.337D-02 0.291D-01 0.398D+00 0.585D+00
 Coeff:      0.637D-04-0.737D-04 0.104D-03-0.695D-04-0.843D-03-0.152D-02
 Coeff:     -0.613D-02-0.337D-02 0.291D-01 0.398D+00 0.585D+00
 Gap=     0.125 Goal=   None    Shift=    0.000
 RMSDP=2.12D-07 MaxDP=4.96D-06 DE=-7.83D-09 OVMax= 2.66D-05

 Cycle  12  Pass 1  IDiag  1:
 RMSU=  1.23D-07    CP:  9.89D-01  1.29D+00  6.83D-01  1.08D+00  8.81D-01
                    CP:  9.60D-01  9.56D-01  1.09D+00  7.94D-01  1.08D+00
                    CP:  7.60D-01
 E= -768.321795918548     Delta-E=       -0.000000001257 Rises=F Damp=F
 DIIS: error= 3.22D-07 at cycle  12 NSaved=  12.
 NSaved=12 IEnMin=12 EnMin= -768.321795918548     IErMin=12 ErrMin= 3.22D-07
 ErrMax= 3.22D-07  0.00D+00 EMaxC= 1.00D-01 BMatC= 1.21D-10 BMatP= 1.17D-09
 IDIUse=1 WtCom= 1.00D+00 WtEn= 0.00D+00
 Coeff-Com:  0.968D-05-0.115D-04 0.467D-04 0.129D-03 0.204D-04 0.762D-04
 Coeff-Com: -0.300D-02-0.950D-02-0.852D-02 0.603D-01 0.269D+00 0.692D+00
 Coeff:      0.968D-05-0.115D-04 0.467D-04 0.129D-03 0.204D-04 0.762D-04
 Coeff:     -0.300D-02-0.950D-02-0.852D-02 0.603D-01 0.269D+00 0.692D+00
 Gap=     0.125 Goal=   None    Shift=    0.000
 RMSDP=7.42D-08 MaxDP=1.96D-06 DE=-1.26D-09 OVMax= 9.73D-06

 Cycle  13  Pass 1  IDiag  1:
 RMSU=  3.25D-08    CP:  9.89D-01  1.29D+00  6.83D-01  1.08D+00  8.81D-01
                    CP:  9.61D-01  9.56D-01  1.09D+00  7.97D-01  1.11D+00
                    CP:  8.51D-01  8.41D-01
 E= -768.321795918675     Delta-E=       -0.000000000127 Rises=F Damp=F
 DIIS: error= 1.03D-07 at cycle  13 NSaved=  13.
 NSaved=13 IEnMin=13 EnMin= -768.321795918675     IErMin=13 ErrMin= 1.03D-07
 ErrMax= 1.03D-07  0.00D+00 EMaxC= 1.00D-01 BMatC= 4.72D-12 BMatP= 1.21D-10
 IDIUse=1 WtCom= 1.00D+00 WtEn= 0.00D+00
 Coeff-Com: -0.132D-05 0.144D-05 0.956D-05 0.546D-04 0.643D-04 0.152D-03
 Coeff-Com: -0.662D-03-0.303D-02-0.511D-02-0.620D-02 0.577D-01 0.241D+00
 Coeff-Com:  0.716D+00
 Coeff:     -0.132D-05 0.144D-05 0.956D-05 0.546D-04 0.643D-04 0.152D-03
 Coeff:     -0.662D-03-0.303D-02-0.511D-02-0.620D-02 0.577D-01 0.241D+00
 Coeff:      0.716D+00
 Gap=     0.125 Goal=   None    Shift=    0.000
 RMSDP=1.58D-08 MaxDP=4.70D-07 DE=-1.27D-10 OVMax= 1.70D-06

 Cycle  14  Pass 1  IDiag  1:
 RMSU=  8.87D-09    CP:  9.89D-01  1.29D+00  6.83D-01  1.08D+00  8.81D-01
                    CP:  9.61D-01  9.57D-01  1.09D+00  7.98D-01  1.11D+00
                    CP:  8.71D-01  8.91D-01  9.50D-01
 E= -768.321795918665     Delta-E=        0.000000000010 Rises=F Damp=F
 DIIS: error= 4.19D-08 at cycle  14 NSaved=  14.
 NSaved=14 IEnMin=13 EnMin= -768.321795918675     IErMin=14 ErrMin= 4.19D-08
 ErrMax= 4.19D-08  0.00D+00 EMaxC= 1.00D-01 BMatC= 7.30D-13 BMatP= 4.72D-12
 IDIUse=1 WtCom= 1.00D+00 WtEn= 0.00D+00
 Coeff-Com: -0.822D-06 0.798D-06-0.111D-05 0.678D-05 0.185D-04 0.514D-04
 Coeff-Com:  0.403D-04-0.189D-03-0.122D-02-0.897D-02-0.347D-02 0.311D-01
 Coeff-Com:  0.319D+00 0.664D+00
 Coeff:     -0.822D-06 0.798D-06-0.111D-05 0.678D-05 0.185D-04 0.514D-04
 Coeff:      0.403D-04-0.189D-03-0.122D-02-0.897D-02-0.347D-02 0.311D-01
 Coeff:      0.319D+00 0.664D+00
 Gap=     0.125 Goal=   None    Shift=    0.000
 RMSDP=4.48D-09 MaxDP=1.43D-07 DE= 1.05D-11 OVMax= 3.37D-07

 Error on total polarization charges =  0.01244
 SCF Done:  E(RB3LYP) =  -768.321795919     A.U. after   14 cycles
            NFock= 14  Conv=0.45D-08     -V/T= 2.0091
 KE= 7.613840524128D+02 PE=-4.095090340185D+03 EE= 1.405227974029D+03
 Leave Link  502 at Fri May 24 08:35:07 2019, MaxMem=   402653184 cpu:            1091.0 elap:             280.2
 (Enter /n/sw/g16_nehalem/g16/l601.exe)
 Copying SCF densities to generalized density rwf, IOpCl= 0 IROHF=0.

 **********************************************************************

            Population analysis using the SCF density.

 **********************************************************************

 Orbital symmetries:
       Occupied  (A) (A) (A) (A) (A) (A) (A) (A) (A) (A) (A) (A)
                 (A) (A) (A) (A) (A) (A) (A) (A) (A) (A) (A) (A)
                 (A) (A) (A) (A) (A) (A) (A) (A) (A) (A) (A) (A)
                 (A) (A) (A) (A) (A) (A) (A) (A) (A) (A) (A) (A)
                 (A) (A) (A) (A) (A) (A) (A) (A) (A) (A) (A)
       Virtual   (A) (A) (A) (A) (A) (A) (A) (A) (A) (A) (A) (A)
                 (A) (A) (A) (A) (A) (A) (A) (A) (A) (A) (A) (A)
                 (A) (A) (A) (A) (A) (A) (A) (A) (A) (A) (A) (A)
                 (A) (A) (A) (A) (A) (A) (A) (A) (A) (A) (A) (A)
                 (A) (A) (A) (A) (A) (A) (A) (A) (A) (A) (A) (A)
                 (A) (A) (A) (A) (A) (A) (A) (A) (A) (A) (A) (A)
                 (A) (A) (A) (A) (A) (A) (A) (A) (A) (A) (A) (A)
                 (A) (A) (A) (A) (A) (A) (A) (A) (A) (A) (A) (A)
                 (A) (A) (A) (A) (A) (A) (A) (A) (A) (A) (A) (A)
                 (A) (A) (A) (A) (A) (A) (A) (A) (A) (A) (A) (A)
                 (A) (A) (A) (A) (A) (A) (A) (A) (A) (A) (A) (A)
                 (A) (A) (A) (A) (A) (A) (A) (A) (A) (A) (A) (A)
                 (A) (A) (A) (A) (A) (A) (A) (A) (A) (A) (A) (A)
                 (A) (A) (A) (A) (A) (A) (A) (A) (A) (A) (A) (A)
                 (A) (A) (A) (A) (A) (A) (A) (A) (A) (A) (A) (A)
                 (A) (A) (A) (A) (A) (A) (A) (A) (A) (A) (A) (A)
                 (A) (A) (A) (A) (A) (A) (A) (A) (A) (A) (A) (A)
 The electronic state is 1-A.
 Alpha  occ. eigenvalues --  -19.33314 -19.20766 -19.19806 -19.19104 -19.18874
 Alpha  occ. eigenvalues --  -10.39773 -10.32001 -10.31966 -10.29520 -10.29497
 Alpha  occ. eigenvalues --  -10.28051 -10.25861 -10.25762 -10.24792 -10.24636
 Alpha  occ. eigenvalues --   -1.21965  -1.09692  -1.08090  -1.06990  -1.06284
 Alpha  occ. eigenvalues --   -0.87228  -0.85912  -0.77503  -0.75150  -0.74433
 Alpha  occ. eigenvalues --   -0.71343  -0.69185  -0.67609  -0.65447  -0.62339
 Alpha  occ. eigenvalues --   -0.60634  -0.59273  -0.55780  -0.55021  -0.53670
 Alpha  occ. eigenvalues --   -0.52818  -0.51794  -0.50754  -0.50361  -0.49094
 Alpha  occ. eigenvalues --   -0.48385  -0.47639  -0.46567  -0.45746  -0.45551
 Alpha  occ. eigenvalues --   -0.44740  -0.43119  -0.42234  -0.41793  -0.40621
 Alpha  occ. eigenvalues --   -0.39840  -0.37099  -0.35776  -0.35223  -0.34700
 Alpha  occ. eigenvalues --   -0.32566  -0.31175  -0.29679  -0.27822
 Alpha virt. eigenvalues --   -0.15312  -0.00456   0.04202   0.04889   0.06430
 Alpha virt. eigenvalues --    0.06759   0.08320   0.08713   0.09976   0.10621
 Alpha virt. eigenvalues --    0.10999   0.11559   0.11865   0.12538   0.13175
 Alpha virt. eigenvalues --    0.13220   0.14092   0.14428   0.14734   0.15208
 Alpha virt. eigenvalues --    0.15698   0.16072   0.16912   0.17170   0.18105
 Alpha virt. eigenvalues --    0.18839   0.19352   0.19887   0.21911   0.23121
 Alpha virt. eigenvalues --    0.24155   0.25164   0.25667   0.27919   0.28202
 Alpha virt. eigenvalues --    0.43740   0.44997   0.46676   0.47105   0.47646
 Alpha virt. eigenvalues --    0.48518   0.49156   0.49818   0.51163   0.51985
 Alpha virt. eigenvalues --    0.52616   0.53124   0.54085   0.54973   0.56615
 Alpha virt. eigenvalues --    0.57002   0.60135   0.60351   0.61441   0.63567
 Alpha virt. eigenvalues --    0.64287   0.65229   0.66512   0.69995   0.71765
 Alpha virt. eigenvalues --    0.72484   0.73991   0.75122   0.75746   0.78743
 Alpha virt. eigenvalues --    0.79176   0.79876   0.80201   0.81304   0.82540
 Alpha virt. eigenvalues --    0.82611   0.83270   0.83966   0.85460   0.85883
 Alpha virt. eigenvalues --    0.86087   0.87445   0.88331   0.88824   0.90074
 Alpha virt. eigenvalues --    0.91237   0.91512   0.93361   0.94444   0.94969
 Alpha virt. eigenvalues --    0.96829   0.97261   0.97916   0.99898   1.00975
 Alpha virt. eigenvalues --    1.04314   1.06674   1.07562   1.11176   1.12293
 Alpha virt. eigenvalues --    1.14536   1.15235   1.16758   1.18361   1.22384
 Alpha virt. eigenvalues --    1.22992   1.25631   1.27945   1.28734   1.31889
 Alpha virt. eigenvalues --    1.32541   1.34609   1.38730   1.39182   1.43995
 Alpha virt. eigenvalues --    1.44387   1.45241   1.45860   1.48076   1.49129
 Alpha virt. eigenvalues --    1.53603   1.54310   1.57475   1.59161   1.61179
 Alpha virt. eigenvalues --    1.62714   1.64809   1.67155   1.68770   1.70133
 Alpha virt. eigenvalues --    1.73089   1.76924   1.77802   1.79024   1.80578
 Alpha virt. eigenvalues --    1.82276   1.83474   1.84436   1.86374   1.90000
 Alpha virt. eigenvalues --    1.90806   1.93581   1.96712   1.97327   1.99496
 Alpha virt. eigenvalues --    2.00760   2.01784   2.02418   2.03098   2.03995
 Alpha virt. eigenvalues --    2.05257   2.08332   2.09035   2.09992   2.11028
 Alpha virt. eigenvalues --    2.11931   2.13553   2.13962   2.14796   2.16381
 Alpha virt. eigenvalues --    2.18310   2.19668   2.22048   2.22992   2.23943
 Alpha virt. eigenvalues --    2.26286   2.28569   2.31469   2.32457   2.36339
 Alpha virt. eigenvalues --    2.38187   2.38751   2.39607   2.41224   2.46880
 Alpha virt. eigenvalues --    2.52368   2.53024   2.55034   2.58423   2.60457
 Alpha virt. eigenvalues --    2.61160   2.63895   2.69245   2.72803   2.76202
 Alpha virt. eigenvalues --    2.77922   2.80063   2.81345   2.85747   2.90938
 Alpha virt. eigenvalues --    2.92919   2.98285   3.02413   3.08174   3.80170
 Alpha virt. eigenvalues --    3.93248   3.96812   3.98278   4.10107   4.16072
 Alpha virt. eigenvalues --    4.21222   4.22612   4.24272   4.25629   4.26237
 Alpha virt. eigenvalues --    4.38623   4.45517   4.52772   4.66215
          Condensed to atoms (all electrons):
               1          2          3          4          5          6
     1  C    4.993897   0.227802  -0.033634  -0.039108   0.257500   0.002798
     2  C    0.227802   5.180739   0.298626  -0.001554  -0.045571  -0.040306
     3  C   -0.033634   0.298626   4.783497  -0.036037   0.002978   0.356140
     4  C   -0.039108  -0.001554  -0.036037   5.184260   0.281514   0.002894
     5  C    0.257500  -0.045571   0.002978   0.281514   5.092967  -0.000357
     6  H    0.002798  -0.040306   0.356140   0.002894  -0.000357   0.425160
     7  H   -0.034320   0.335099  -0.034458   0.000878  -0.001732   0.001014
     8  H    0.375682  -0.043703  -0.004066  -0.002569  -0.041560  -0.000105
     9  H   -0.002892   0.000689   0.000078   0.367393  -0.042678  -0.000141
    10  H   -0.045052  -0.000760   0.000224  -0.048434   0.355499  -0.000003
    11  O    0.003279  -0.031601   0.387752   0.108088  -0.024529  -0.033418
    12  O   -0.033660   0.180752  -0.030502  -0.000014   0.003161   0.006042
    13  O    0.274807  -0.040342   0.002476   0.002400  -0.037269  -0.000040
    14  O   -0.035463   0.003435  -0.000088  -0.030697   0.188670   0.000003
    15  C    0.001775  -0.000135   0.000978   0.304684  -0.032692  -0.000101
    16  H   -0.000042   0.000000   0.000088  -0.050796   0.005619   0.000016
    17  H    0.000092  -0.000095   0.001631  -0.046482  -0.008204  -0.000010
    18  O    0.000437  -0.000009   0.000003  -0.055542   0.009339   0.000001
    19  C   -0.000758  -0.026731   0.002741  -0.000009  -0.000049   0.000103
    20  H   -0.000101  -0.009939   0.000136  -0.000002   0.000046  -0.000076
    21  H    0.001080  -0.004048   0.000128  -0.000001  -0.000041   0.000035
    22  H   -0.000124   0.004632  -0.000151   0.000000   0.000003  -0.000048
    23  C   -0.044435  -0.007150   0.000324   0.000215  -0.006514  -0.000004
    24  H    0.004962  -0.000010  -0.000002  -0.000001   0.000037   0.000000
    25  H   -0.007079   0.005535  -0.000497   0.000044  -0.001184   0.000013
    26  H   -0.004974  -0.001109   0.000062  -0.000260   0.003757   0.000000
    27  C   -0.001532  -0.000016  -0.000003   0.004268  -0.028970   0.000000
    28  H    0.001465  -0.000071  -0.000001  -0.000015  -0.004180   0.000000
    29  H   -0.000142   0.000053  -0.000002  -0.000513  -0.010282   0.000000
    30  H   -0.000136   0.000005   0.000000  -0.000144   0.004830   0.000000
    31  C   -0.000017   0.000000   0.000004  -0.002354  -0.001848   0.000000
    32  H    0.000000   0.000000   0.000000  -0.000148   0.000008   0.000000
    33  H    0.000003   0.000000   0.000001  -0.002048   0.000288   0.000000
    34  H   -0.000026  -0.000001   0.000002   0.005526  -0.001281   0.000000
               7          8          9         10         11         12
     1  C   -0.034320   0.375682  -0.002892  -0.045052   0.003279  -0.033660
     2  C    0.335099  -0.043703   0.000689  -0.000760  -0.031601   0.180752
     3  C   -0.034458  -0.004066   0.000078   0.000224   0.387752  -0.030502
     4  C    0.000878  -0.002569   0.367393  -0.048434   0.108088  -0.000014
     5  C   -0.001732  -0.041560  -0.042678   0.355499  -0.024529   0.003161
     6  H    0.001014  -0.000105  -0.000141  -0.000003  -0.033418   0.006042
     7  H    0.515472   0.004905  -0.000006   0.002313  -0.000433  -0.026129
     8  H    0.004905   0.539263   0.001624   0.005212   0.001203   0.000718
     9  H   -0.000006   0.001624   0.474529   0.005148  -0.024985   0.000001
    10  H    0.002313   0.005212   0.005148   0.566455   0.001498  -0.000055
    11  O   -0.000433   0.001203  -0.024985   0.001498   7.944956   0.001394
    12  O   -0.026129   0.000718   0.000001  -0.000055   0.001394   8.240956
    13  O   -0.005029  -0.039810  -0.000044  -0.004513   0.000025   0.002360
    14  O   -0.000040   0.001904   0.005484  -0.032419   0.001055  -0.000011
    15  C    0.000076  -0.000007  -0.029819  -0.001765  -0.027746  -0.000001
    16  H   -0.000001   0.000004  -0.005220   0.000364   0.002652   0.000000
    17  H    0.000019   0.000001   0.004090   0.002939   0.000652   0.000001
    18  O   -0.000005  -0.000007  -0.000372   0.002674   0.001025   0.000000
    19  C   -0.006925  -0.000210   0.000000  -0.000005  -0.000045   0.227214
    20  H    0.009063   0.000030   0.000000  -0.000001  -0.000012  -0.032519
    21  H   -0.000177   0.000012   0.000000   0.000003   0.000004  -0.034608
    22  H   -0.000067  -0.000015   0.000000   0.000000   0.000001  -0.030409
    23  C    0.003314   0.005556  -0.000001   0.003604   0.000000   0.000027
    24  H   -0.000108  -0.000112   0.000000  -0.000043   0.000000  -0.000012
    25  H    0.005085  -0.000203   0.000000  -0.000262   0.000004  -0.000190
    26  H   -0.000434  -0.000191  -0.000001   0.002897  -0.000002   0.000014
    27  C   -0.000010  -0.000159  -0.000170  -0.006824  -0.000039   0.000000
    28  H    0.000002  -0.000064   0.000003  -0.000974   0.000003   0.000001
    29  H    0.000000   0.000054   0.000118   0.011181  -0.000003   0.000000
    30  H    0.000000  -0.000023  -0.000041  -0.000013   0.000000   0.000000
    31  C    0.000000  -0.000001   0.002345  -0.000176  -0.000009   0.000000
    32  H    0.000000   0.000000  -0.000054  -0.000004   0.000001   0.000000
    33  H    0.000000   0.000000  -0.000020   0.000023   0.000008   0.000000
    34  H    0.000000   0.000004   0.000975   0.000010  -0.000038   0.000000
              13         14         15         16         17         18
     1  C    0.274807  -0.035463   0.001775  -0.000042   0.000092   0.000437
     2  C   -0.040342   0.003435  -0.000135   0.000000  -0.000095  -0.000009
     3  C    0.002476  -0.000088   0.000978   0.000088   0.001631   0.000003
     4  C    0.002400  -0.030697   0.304684  -0.050796  -0.046482  -0.055542
     5  C   -0.037269   0.188670  -0.032692   0.005619  -0.008204   0.009339
     6  H   -0.000040   0.000003  -0.000101   0.000016  -0.000010   0.000001
     7  H   -0.005029  -0.000040   0.000076  -0.000001   0.000019  -0.000005
     8  H   -0.039810   0.001904  -0.000007   0.000004   0.000001  -0.000007
     9  H   -0.000044   0.005484  -0.029819  -0.005220   0.004090  -0.000372
    10  H   -0.004513  -0.032419  -0.001765   0.000364   0.002939   0.002674
    11  O    0.000025   0.001055  -0.027746   0.002652   0.000652   0.001025
    12  O    0.002360  -0.000011  -0.000001   0.000000   0.000001   0.000000
    13  O    8.184041   0.001784  -0.000028   0.000000  -0.000002   0.000000
    14  O    0.001784   8.246923  -0.001865  -0.000226   0.000088  -0.000297
    15  C   -0.000028  -0.001865   4.871406   0.364781   0.381943   0.268864
    16  H    0.000000  -0.000226   0.364781   0.562039  -0.031653  -0.030108
    17  H   -0.000002   0.000088   0.381943  -0.031653   0.539978  -0.034698
    18  O    0.000000  -0.000297   0.268864  -0.030108  -0.034698   8.162134
    19  C   -0.001571   0.000000   0.000000   0.000000   0.000000   0.000000
    20  H    0.000128   0.000000   0.000000   0.000000   0.000000   0.000000
    21  H    0.005339   0.000000   0.000000   0.000000   0.000000   0.000000
    22  H    0.000041   0.000000   0.000000   0.000000   0.000000   0.000000
    23  C    0.230275  -0.000023  -0.000008   0.000000  -0.000003   0.000000
    24  H   -0.031190  -0.000008   0.000000   0.000000   0.000000   0.000000
    25  H   -0.036091   0.000020  -0.000005   0.000000   0.000001   0.000000
    26  H   -0.035808  -0.000106   0.000017   0.000000  -0.000003  -0.000006
    27  C   -0.001248   0.230800  -0.000110   0.000004   0.000013  -0.000621
    28  H    0.005774  -0.034691  -0.000028   0.000000   0.000000   0.000042
    29  H    0.000141  -0.034314   0.000072   0.000023  -0.000025   0.003564
    30  H    0.000060  -0.032119   0.000006   0.000000   0.000000  -0.000050
    31  C    0.000000  -0.002070  -0.046933  -0.007979   0.005814   0.238606
    32  H    0.000000  -0.000041   0.005038  -0.000018  -0.000182  -0.031488
    33  H    0.000000   0.000065  -0.007958   0.011985   0.000095  -0.034071
    34  H    0.000000   0.008504  -0.004606  -0.001443  -0.000348  -0.038103
              19         20         21         22         23         24
     1  C   -0.000758  -0.000101   0.001080  -0.000124  -0.044435   0.004962
     2  C   -0.026731  -0.009939  -0.004048   0.004632  -0.007150  -0.000010
     3  C    0.002741   0.000136   0.000128  -0.000151   0.000324  -0.000002
     4  C   -0.000009  -0.000002  -0.000001   0.000000   0.000215  -0.000001
     5  C   -0.000049   0.000046  -0.000041   0.000003  -0.006514   0.000037
     6  H    0.000103  -0.000076   0.000035  -0.000048  -0.000004   0.000000
     7  H   -0.006925   0.009063  -0.000177  -0.000067   0.003314  -0.000108
     8  H   -0.000210   0.000030   0.000012  -0.000015   0.005556  -0.000112
     9  H    0.000000   0.000000   0.000000   0.000000  -0.000001   0.000000
    10  H   -0.000005  -0.000001   0.000003   0.000000   0.003604  -0.000043
    11  O   -0.000045  -0.000012   0.000004   0.000001   0.000000   0.000000
    12  O    0.227214  -0.032519  -0.034608  -0.030409   0.000027  -0.000012
    13  O   -0.001571   0.000128   0.005339   0.000041   0.230275  -0.031190
    14  O    0.000000   0.000000   0.000000   0.000000  -0.000023  -0.000008
    15  C    0.000000   0.000000   0.000000   0.000000  -0.000008   0.000000
    16  H    0.000000   0.000000   0.000000   0.000000   0.000000   0.000000
    17  H    0.000000   0.000000   0.000000   0.000000  -0.000003   0.000000
    18  O    0.000000   0.000000   0.000000   0.000000   0.000000   0.000000
    19  C    4.914073   0.368757   0.369698   0.385068  -0.000302  -0.000009
    20  H    0.368757   0.561714  -0.040213  -0.026938  -0.000179  -0.000001
    21  H    0.369698  -0.040213   0.549887  -0.028545  -0.000671   0.000092
    22  H    0.385068  -0.026938  -0.028545   0.502822   0.000034  -0.000002
    23  C   -0.000302  -0.000179  -0.000671   0.000034   4.945862   0.387777
    24  H   -0.000009  -0.000001   0.000092  -0.000002   0.387777   0.500613
    25  H    0.001457   0.000064  -0.000725  -0.000009   0.361174  -0.028442
    26  H    0.000018   0.000005   0.000183   0.000000   0.366899  -0.029586
    27  C    0.000000   0.000000   0.000000   0.000000  -0.000820  -0.000004
    28  H    0.000000   0.000000   0.000000   0.000000  -0.000831   0.000031
    29  H    0.000000   0.000000   0.000000   0.000000  -0.000298   0.000008
    30  H    0.000000   0.000000   0.000000   0.000000   0.000051  -0.000001
    31  C    0.000000   0.000000   0.000000   0.000000   0.000000   0.000000
    32  H    0.000000   0.000000   0.000000   0.000000   0.000000   0.000000
    33  H    0.000000   0.000000   0.000000   0.000000   0.000000   0.000000
    34  H    0.000000   0.000000   0.000000   0.000000   0.000000   0.000000
              25         26         27         28         29         30
     1  C   -0.007079  -0.004974  -0.001532   0.001465  -0.000142  -0.000136
     2  C    0.005535  -0.001109  -0.000016  -0.000071   0.000053   0.000005
     3  C   -0.000497   0.000062  -0.000003  -0.000001  -0.000002   0.000000
     4  C    0.000044  -0.000260   0.004268  -0.000015  -0.000513  -0.000144
     5  C   -0.001184   0.003757  -0.028970  -0.004180  -0.010282   0.004830
     6  H    0.000013   0.000000   0.000000   0.000000   0.000000   0.000000
     7  H    0.005085  -0.000434  -0.000010   0.000002   0.000000   0.000000
     8  H   -0.000203  -0.000191  -0.000159  -0.000064   0.000054  -0.000023
     9  H    0.000000  -0.000001  -0.000170   0.000003   0.000118  -0.000041
    10  H   -0.000262   0.002897  -0.006824  -0.000974   0.011181  -0.000013
    11  O    0.000004  -0.000002  -0.000039   0.000003  -0.000003   0.000000
    12  O   -0.000190   0.000014   0.000000   0.000001   0.000000   0.000000
    13  O   -0.036091  -0.035808  -0.001248   0.005774   0.000141   0.000060
    14  O    0.000020  -0.000106   0.230800  -0.034691  -0.034314  -0.032119
    15  C   -0.000005   0.000017  -0.000110  -0.000028   0.000072   0.000006
    16  H    0.000000   0.000000   0.000004   0.000000   0.000023   0.000000
    17  H    0.000001  -0.000003   0.000013   0.000000  -0.000025   0.000000
    18  O    0.000000  -0.000006  -0.000621   0.000042   0.003564  -0.000050
    19  C    0.001457   0.000018   0.000000   0.000000   0.000000   0.000000
    20  H    0.000064   0.000005   0.000000   0.000000   0.000000   0.000000
    21  H   -0.000725   0.000183   0.000000   0.000000   0.000000   0.000000
    22  H   -0.000009   0.000000   0.000000   0.000000   0.000000   0.000000
    23  C    0.361174   0.366899  -0.000820  -0.000831  -0.000298   0.000051
    24  H   -0.028442  -0.029586  -0.000004   0.000031   0.000008  -0.000001
    25  H    0.588393  -0.045425   0.000033   0.000213   0.000007   0.000000
    26  H   -0.045425   0.574019   0.001778  -0.000723   0.000289  -0.000035
    27  C    0.000033   0.001778   4.912525   0.367656   0.366266   0.384233
    28  H    0.000213  -0.000723   0.367656   0.569071  -0.042000  -0.030854
    29  H    0.000007   0.000289   0.366266  -0.042000   0.568375  -0.027426
    30  H    0.000000  -0.000035   0.384233  -0.030854  -0.027426   0.520039
    31  C    0.000000   0.000000   0.000603  -0.000003  -0.000324   0.000134
    32  H    0.000000   0.000000   0.000069  -0.000001   0.000046   0.000005
    33  H    0.000000   0.000000  -0.000001   0.000000   0.000028  -0.000003
    34  H    0.000000   0.000000  -0.000793   0.000057  -0.000430  -0.000062
              31         32         33         34
     1  C   -0.000017   0.000000   0.000003  -0.000026
     2  C    0.000000   0.000000   0.000000  -0.000001
     3  C    0.000004   0.000000   0.000001   0.000002
     4  C   -0.002354  -0.000148  -0.002048   0.005526
     5  C   -0.001848   0.000008   0.000288  -0.001281
     6  H    0.000000   0.000000   0.000000   0.000000
     7  H    0.000000   0.000000   0.000000   0.000000
     8  H   -0.000001   0.000000   0.000000   0.000004
     9  H    0.002345  -0.000054  -0.000020   0.000975
    10  H   -0.000176  -0.000004   0.000023   0.000010
    11  O   -0.000009   0.000001   0.000008  -0.000038
    12  O    0.000000   0.000000   0.000000   0.000000
    13  O    0.000000   0.000000   0.000000   0.000000
    14  O   -0.002070  -0.000041   0.000065   0.008504
    15  C   -0.046933   0.005038  -0.007958  -0.004606
    16  H   -0.007979  -0.000018   0.011985  -0.001443
    17  H    0.005814  -0.000182   0.000095  -0.000348
    18  O    0.238606  -0.031488  -0.034071  -0.038103
    19  C    0.000000   0.000000   0.000000   0.000000
    20  H    0.000000   0.000000   0.000000   0.000000
    21  H    0.000000   0.000000   0.000000   0.000000
    22  H    0.000000   0.000000   0.000000   0.000000
    23  C    0.000000   0.000000   0.000000   0.000000
    24  H    0.000000   0.000000   0.000000   0.000000
    25  H    0.000000   0.000000   0.000000   0.000000
    26  H    0.000000   0.000000   0.000000   0.000000
    27  C    0.000603   0.000069  -0.000001  -0.000793
    28  H   -0.000003  -0.000001   0.000000   0.000057
    29  H   -0.000324   0.000046   0.000028  -0.000430
    30  H    0.000134   0.000005  -0.000003  -0.000062
    31  C    4.924969   0.386856   0.365733   0.362745
    32  H    0.386856   0.518558  -0.027880  -0.031884
    33  H    0.365733  -0.027880   0.576917  -0.042547
    34  H    0.362745  -0.031884  -0.042547   0.579523
 Mulliken charges:
               1
     1  C    0.137916
     2  C    0.015781
     3  C    0.301573
     4  C    0.054561
     5  C    0.082726
     6  H    0.280392
     7  H    0.232633
     8  H    0.196633
     9  H    0.243969
    10  H    0.181262
    11  O   -0.310739
    12  O   -0.474532
    13  O   -0.476665
    14  O   -0.484258
    15  C   -0.045834
    16  H    0.179912
    17  H    0.184349
    18  O   -0.461312
    19  C   -0.232514
    20  H    0.170039
    21  H    0.182569
    22  H    0.193706
    23  C   -0.243872
    24  H    0.196012
    25  H    0.158068
    26  H    0.168725
    27  C   -0.226927
    28  H    0.170117
    29  H    0.165534
    30  H    0.181548
    31  C   -0.226093
    32  H    0.181119
    33  H    0.159383
    34  H    0.164219
 Sum of Mulliken charges =   1.00000
 Mulliken charges with hydrogens summed into heavy atoms:
               1
     1  C    0.334550
     2  C    0.248415
[...]
 35359,-0.00003810,0.00010218,0.00013813,0.00009568,0.00006644,-0.00001
 716,0.00001247,0.00009265,0.00068878,-0.00009658,0.00005983,-0.0000620
 8,-0.00005132,-0.00000963,0.00000649,0.00000941,-0.00000023,0.00001315
 ,0.00000945,-0.00001676,0.00000591,0.00000707,-0.00003682,0.00005064,0
 .00016047,-0.00004328,0.00000886,0.00000629,-0.00000633,-0.00000658,-0
 .00001364,-0.00016022,-0.00001217,-0.00008794,0.01460346,-0.05405768,0
 .03283576,0.00585488,0.00102467,0.01597970,-0.00949235,0.06238909,0.00
 024240,-0.00042130,0.00005607,-0.00003687,0.00012525,-0.00000340,0.000
 04330,0.00013966,0.00000643,-0.00008508,0.00052427,0.00038580,0.002355
 63,0.00222485,0.00087091,-0.00000957,0.00000165,-0.00004299,-0.0000020
 0,-0.00000583,0.00001169,0.00022853,0.00003350,-0.00001216,-0.00014688
 ,0.00015719,-0.00005277,-0.00096212,-0.00105437,0.00040497,-0.00004279
 ,-0.00026991,0.00012351,-0.00025404,-0.00007960,0.00002895,-0.00024009
 ,0.00024520,0.00031766,-0.00670520,-0.01229928,-0.01163040,-0.00043011
 ,-0.00022806,-0.00017752,0.00009362,0.00003930,0.00004727,0.00005119,0
 .00002070,0.00000989,0.00007076,0.00069119,0.00007709,0.00008600,-0.00
 005755,-0.00007024,-0.00000897,0.00000283,0.00001838,0.00000244,0.0000
 0805,0.00000706,-0.00001970,0.00000440,0.00000643,-0.00008979,-0.00017
 729,-0.00036182,0.00003538,0.00003482,0.00002105,0.00003123,-0.0000070
 9,0.00002368,-0.00010131,0.00001262,0.00014329,-0.09867097,0.02613419,
 -0.25732755,0.00175723,0.00097552,0.00351430,0.11216296,-0.01945598,0.
 28003580,0.00010937,0.00045463,0.00027379,0.00003465,-0.00015041,0.000
 00949,-0.00009251,0.00012718,0.00005894,-0.00021795,0.00008368,0.00011
 988,0.00140823,0.00074218,-0.00170764,-0.00000396,-0.00000120,-0.00003
 795,0.00001264,0.00005746,-0.00000805,0.00001930,-0.00003855,-0.000010
 01,0.00000064,0.00000272,0.00001350,-0.00012608,-0.00004752,0.00007600
 ,0.00008329,-0.00016485,0.00000915,-0.00016271,-0.00003390,0.00001231,
 -0.00062060,-0.00033267,0.00020769,-0.00342420,-0.00816221,0.00236877,
 -0.00005657,-0.00002143,-0.00010871,0.00003892,-0.00001533,0.00002555,
 -0.00000569,0.00000441,0.00001072,0.00005720,0.00001784,0.00004476,0.0
 0005480,-0.00002114,-0.00004965,-0.00000652,0.00000454,0.00001090,0.00
 001689,-0.00000254,0.00000800,-0.00001763,-0.00000577,0.00000376,0.000
 29345,-0.00011625,-0.00019841,-0.00001646,0.00002126,-0.00000608,-0.00
 009995,-0.00006342,-0.00001456,-0.00010739,0.00002865,-0.00021103,-0.1
 6498861,-0.06803879,0.11579952,-0.01538850,-0.01064423,0.01885105,0.01
 156066,0.00689304,-0.00957072,0.17172083,0.00021879,-0.00150016,0.0005
 3700,-0.00013225,0.00028697,-0.00009276,0.00031403,0.00018065,-0.00001
 893,-0.00105760,0.00050824,0.00071372,-0.00116989,-0.00393983,-0.00338
 645,-0.00004159,0.00001654,-0.00004247,0.00001057,0.00002578,-0.000009
 75,0.00000153,0.00000658,0.00000964,-0.00003022,-0.00000996,-0.0000696
 6,0.00013036,-0.00004760,-0.00000599,-0.00020548,-0.00094495,-0.000017
 15,-0.00041247,-0.00015762,0.00004188,0.00003747,0.00065008,0.00005914
 ,-0.02446324,-0.02638742,0.02017462,-0.00021762,-0.00010391,-0.0002332
 5,0.00008946,-0.00002716,0.00005623,0.00001207,0.00001318,0.00000429,0
 .00032366,0.00007714,-0.00006587,0.00013900,-0.00010800,-0.00011439,-0
 .00001537,0.00000797,0.00002429,-0.00000812,0.00002440,0.00001535,-0.0
 0003320,0.00001346,0.00001458,-0.00015564,0.00000121,-0.00032365,0.000
 00817,0.00001170,0.00004010,0.00012382,0.00003798,0.00005594,0.0000717
 3,-0.00003615,0.00027872,-0.06184141,-0.08729941,0.06608122,0.01033211
 ,0.00994156,-0.01178554,-0.00125121,0.00034272,0.00282910,0.07938569,0
 .10845355,-0.00002608,-0.00022908,0.00028876,-0.00011009,-0.00001430,0
 .00002658,0.00002137,0.00005438,0.00001471,-0.00039541,0.00006384,0.00
 045791,-0.00127275,-0.00283565,0.00007751,-0.00000910,0.00000658,-0.00
 002049,0.00000198,0.00001508,-0.00001829,0.00003889,-0.00001108,0.0000
 1185,-0.00000149,0.00003799,-0.00004867,-0.00009416,-0.00021757,0.0004
 4264,0.00008016,-0.00013929,-0.00003025,-0.00003211,-0.00002766,0.0000
 0294,0.00003672,0.00014428,-0.00000521,-0.01056998,-0.00900892,0.01049
 060,0.00000113,-0.00009228,-0.00002848,0.00000955,0.00001287,0.0000115
 8,-0.00000836,-0.00000921,-0.00000370,-0.00012488,0.00015862,0.0000414
 7,0.00000519,-0.00002291,-0.00000875,-0.00000220,-0.00000010,0.0000004
 3,-0.00000520,0.00000669,-0.00000076,-0.00000339,0.00000588,0.00000432
 ,-0.00022021,-0.00006741,-0.00018864,0.00006112,0.00001043,0.00001905,
 0.00007717,0.00002480,0.00002309,-0.00005343,0.00004571,0.00018378,0.1
 1987860,0.07657770,-0.17543805,-0.00066576,0.00002208,0.00072072,0.019
 29431,0.01037477,-0.01628019,-0.12600746,-0.07491350,0.17929302,-0.000
 80596,0.00045672,-0.00015611,-0.00052010,-0.00059099,-0.00015562,-0.00
 136174,0.00122125,0.00011497,-0.00233242,-0.00026987,-0.00024525,-0.00
 078085,0.00090616,0.00000511,0.00022208,-0.00007750,-0.00036600,0.0001
 0669,-0.00004683,0.00007949,0.00010561,0.00000002,0.00002494,0.0000495
 5,0.00013102,-0.00008429,-0.00044508,0.00018088,0.00013631,0.00400898,
 -0.00010873,0.00164515,0.00076241,0.00002525,-0.00000210,0.00065353,-0
 .00065913,-0.00020169,-0.00012851,-0.00092570,0.00076178,-0.03696490,-
 0.01061286,0.01874489,0.00530464,0.00402940,0.00015543,0.00056156,0.00
 008546,-0.00171861,-0.13600916,-0.02069125,0.06109304,-0.00034316,0.00
 008774,0.00027184,0.00000626,-0.00001482,-0.00005831,0.00002532,-0.000
 02797,-0.00005251,0.00006803,-0.00000504,-0.00001063,-0.00010951,0.000
 11587,0.00031364,0.00004338,-0.00004568,-0.00002448,-0.00001106,0.0000
 0185,-0.00003791,-0.00002517,0.00003400,-0.00001176,-0.00009900,0.0013
 5643,-0.00016141,0.00005508,-0.00017083,0.00001950,0.00003270,0.000354
 82,0.00015749,-0.00003861,-0.00016169,0.00012492,0.52454401,-0.0000844
 7,0.00006701,0.00020683,0.00003538,-0.00000987,0.00007096,0.00009907,-
 0.00004929,0.00000581,0.00009724,0.00052966,-0.00094651,0.00071439,-0.
 00021053,-0.00058756,0.00000677,0.00002742,-0.00005262,-0.00001671,0.0
 0001567,-0.00001158,0.00007756,-0.00000360,0.00002426,0.00013726,0.000
 25979,0.00004767,-0.00022918,0.00017157,0.00024418,0.00050558,0.000285
 47,0.00031475,-0.00003715,-0.00000046,-0.00000409,-0.00002744,0.000015
 41,0.00000098,0.00021910,-0.00002096,0.00015855,-0.02654430,-0.0108925
 9,0.02293594,-0.00324386,0.00175675,0.00289336,-0.00439136,-0.00350209
 ,-0.00085455,0.00487240,-0.07716972,-0.02113268,0.00002255,0.00000287,
 -0.00002086,0.00000152,0.,0.00000503,-0.00000427,0.00000032,0.00000393
 ,-0.00000391,0.00000128,0.00000018,-0.00001024,-0.00001140,-0.00001572
 ,0.00000525,0.00000274,0.00000205,-0.00000440,-0.00000081,-0.00000070,
 0.00000021,0.00001199,-0.00000917,0.00007381,-0.00015335,0.00011414,-0
 .00004200,0.00004886,-0.00001796,0.00006055,0.00003199,-0.00013333,0.0
 0001456,-0.00003700,0.00003272,0.01512319,0.60872957,0.00045802,-0.000
 31574,0.00002917,0.00042292,0.00053390,0.00009843,0.00159833,-0.001080
 38,-0.00053606,0.00011239,-0.00220276,0.00548122,-0.00064015,-0.001464
 99,0.00077077,-0.00020332,0.00002004,0.00043088,-0.00003041,-0.0000207
 9,-0.00002359,-0.00013639,0.00000502,-0.00004696,0.00001472,-0.0006427
 9,-0.00047523,0.00054194,-0.00028563,-0.00035235,-0.00489993,-0.000478
 65,-0.00216196,-0.00041675,0.00001200,-0.00002780,-0.00035637,0.000464
 36,0.00004958,0.00163757,0.00048495,-0.00130789,0.00140825,0.00604075,
 0.00076012,-0.00319522,-0.00299058,-0.00018246,-0.00175578,-0.00130749
 ,0.00163091,0.08295239,0.00219480,-0.14974050,0.00019371,-0.00003623,-
 0.00014823,0.00000111,0.00000991,0.00002845,-0.00002086,0.00001532,0.0
 0003322,-0.00003861,0.00000073,0.00000427,0.00003882,-0.00006312,-0.00
 012336,-0.00002232,0.00002549,0.00001151,0.00002266,0.00001438,0.00001
 458,0.00000935,-0.00002162,0.00002252,-0.00002733,0.00037883,0.0005650
 8,0.00002172,-0.00003550,-0.00012500,0.00001837,-0.00033618,-0.0001905
 5,-0.00006115,0.00025642,-0.00010791,0.07694903,0.01619027,0.52675325,
 0.00009760,-0.00008950,0.00004252,0.00010893,0.00009950,0.00004651,0.0
 0030755,-0.00022978,-0.00009237,0.00040487,-0.00025875,0.00044693,-0.0
 0000830,-0.00025318,0.00002212,-0.00002713,0.00001535,0.00007791,-0.00
 002115,0.00001014,-0.00001674,-0.00000915,0.00000102,-0.00000633,0.000
 03206,0.00004228,-0.00000598,0.00004385,-0.00003966,0.00000242,-0.0006
 5983,0.00003373,-0.00033396,-0.00013630,0.00000589,-0.00000002,-0.0000
 9743,0.00014283,0.00003603,-0.00003985,0.00036950,0.00001549,-0.001631
 70,0.00240262,0.00321818,0.00005063,-0.00026766,-0.00007540,-0.0009149
 1,-0.00083967,-0.00016107,-0.02446046,-0.02017443,-0.00073976,0.000065
 00,-0.00001636,-0.00005272,-0.00000084,0.00000220,0.00001100,-0.000007
 22,0.00000622,0.00000975,-0.00001224,0.00000140,0.00000224,-0.00000276
 ,-0.00003047,-0.00005946,-0.00000518,0.00000821,0.00000523,0.00000607,
 0.00000473,0.00000633,0.00000616,-0.00000386,0.00000790,-0.00010918,-0
 .00025626,-0.00014926,0.00002819,0.00005438,0.00004520,0.00000478,-0.0
 0000956,0.00010010,-0.00000059,0.00004642,-0.00004013,-0.16317390,-0.1
 1427938,-0.06460779,0.18445443,0.00005526,-0.00002156,0.00000728,0.000
 01301,0.00004024,-0.00000048,0.00017551,-0.00003595,-0.00001803,0.0000
 8778,0.00006435,0.00018996,-0.00006667,-0.00000908,-0.00001620,-0.0000
 1404,-0.00000099,0.00000316,0.00000127,-0.00000532,-0.00000061,-0.0000
 0670,-0.00000058,-0.00000116,-0.00005116,-0.00006426,-0.00005338,0.000
 02375,-0.00001594,-0.00002026,-0.00030175,-0.00006334,-0.00004294,-0.0
 0003427,-0.00000371,0.00000113,-0.00004354,0.00003202,0.00001656,0.000
 02325,-0.00001854,-0.00006131,0.00054826,0.00141095,0.00074039,0.00009
 283,0.00049996,0.00002387,-0.00042870,0.00008399,-0.00000162,-0.002374
 49,-0.00049880,0.00183846,0.00001469,-0.00000368,-0.00001189,-0.000000
 24,0.00000024,0.00000272,-0.00000043,0.00000099,0.00000196,-0.00000266
 ,0.,0.00000038,0.00000870,-0.00000510,-0.00002010,-0.00000282,0.000002
 28,0.00000141,-0.00000038,-0.00000127,0.00000280,0.00000181,-0.0000021
 7,0.00000009,0.00002906,-0.00003258,0.00001862,-0.00000669,-0.00001101
 ,-0.00000468,0.00002205,-0.00002521,-0.00001550,0.00001433,-0.00000163
 ,0.00000725,-0.12000846,-0.17583044,-0.06586188,0.13290513,0.18209047,
 0.00000895,0.00002612,-0.00000835,-0.00003532,-0.00004945,-0.00000771,
 -0.00013131,0.00008719,0.00005557,0.00000788,0.00041743,-0.00091185,0.
 00014043,0.00015518,-0.00001533,0.00001092,0.00000340,-0.00006880,0.00
 000131,0.00000461,0.00000134,0.00000617,-0.00000220,0.00000482,0.00024
 760,0.00009111,0.00030372,-0.00005401,0.00003841,0.00001263,0.00043330
 ,0.00005693,0.00043433,0.00001681,-0.00000315,0.00000492,0.00000684,-0
 .00002630,0.00000054,-0.00034416,0.00018459,0.00008924,0.00444015,0.00
 015586,-0.00261879,-0.00012025,0.00006175,-0.00008582,0.00096272,0.000
 73663,0.00011579,0.02420037,0.02122005,0.00628729,-0.00000959,-0.00000
 116,0.00000785,-0.00000095,-0.00000013,-0.00000140,0.00000232,-0.00000
 043,-0.00000183,0.00000173,-0.00000016,0.,0.00000526,0.00000587,0.0000
 0249,-0.00000106,-0.00000110,-0.00000020,-0.00000172,-0.00000216,0.000
 00018,-0.00000132,-0.00000161,-0.00000109,-0.00007405,-0.00018290,-0.0
 0004122,0.00002244,0.00005811,0.00002609,-0.00000645,0.00001922,0.0000
 5686,-0.00000574,0.00001778,-0.00003264,-0.07363405,-0.07320561,-0.088
 97975,0.06315339,0.07030182,0.09311971,0.00009943,-0.00012723,-0.00006
 033,0.00007937,0.00005223,-0.00000125,0.00001519,-0.00014414,-0.000012
 60,-0.00010194,-0.00034234,0.00005371,0.00016921,0.00000322,0.00015435
 ,-0.00001786,0.00001070,0.00007941,-0.00001198,0.00001422,-0.00000841,
 -0.00003373,0.00000558,-0.00001123,-0.00005062,0.00004253,-0.00005325,
 0.00012280,-0.00008825,-0.00007030,-0.00037699,0.00003282,-0.00035993,
 -0.00011625,-0.00000684,0.00000462,-0.00005880,0.00007292,0.00003177,-
 0.00030856,0.00022944,0.00004078,0.00314330,0.00663204,0.00100149,0.00
 015915,-0.00158738,-0.00070587,0.00021641,-0.00029968,-0.00007009,-0.0
 2317202,0.01776189,0.01535240,0.00004880,-0.00001632,-0.00003900,-0.00
 000195,0.00000283,0.00000852,-0.00000278,0.00000429,0.00000742,-0.0000
 1060,0.00000124,0.00000207,0.00002163,-0.00001264,-0.00003616,-0.00000
 726,0.00000616,0.00000195,0.00000145,-0.00000156,0.00000481,0.00000280
 ,-0.00000746,-0.00000020,0.00000752,-0.00027799,-0.00001858,-0.0000028
 8,0.00005124,0.00000764,0.00001444,-0.00008706,0.00001365,0.00000418,0
 .00001704,-0.00003041,-0.09672418,0.09353476,0.00602095,0.01230884,-0.
 01888234,-0.00179335,0.10806076,-0.00011144,0.00004391,-0.00005548,-0.
 00004998,-0.00005022,-0.00001447,-0.00015154,0.00007518,0.00002593,0.0
 0005754,-0.00040729,-0.00008712,-0.00026335,0.00000257,0.00015586,0.00
 001815,-0.00001011,-0.00001824,0.00000769,-0.00000961,0.00000635,0.000
 00203,-0.00000010,-0.00000251,0.00004930,-0.00006346,-0.00000401,-0.00
 008026,0.00000842,-0.00004487,0.00026399,-0.00000663,0.00006132,0.0000
 9978,0.00001244,-0.00000377,0.00009428,-0.00005769,-0.00002959,0.00037
 010,-0.00016386,-0.00004615,-0.00264028,0.00349252,0.00095666,0.001757
 86,0.00057941,-0.00009957,0.00009049,0.00045558,0.00004375,0.00033860,
 0.00654100,-0.00333591,-0.00004177,0.00001129,0.00003392,0.00000115,-0
 .00000197,-0.00000762,0.00000136,-0.00000273,-0.00000626,0.00000899,-0
 .00000080,-0.00000145,-0.00002470,0.00001142,0.00004203,0.00000554,-0.
 00000603,-0.00000300,0.00000282,0.00000427,-0.00000517,-0.00000250,0.0
 0000391,0.00000480,-0.00002702,0.00018371,-0.00001388,0.00004746,-0.00
 002849,0.00001200,-0.00000927,0.00002824,0.00005365,-0.00002155,0.0000
 1691,-0.00001748,0.09713042,-0.26144379,-0.02061341,0.00928688,-0.0167
 0455,-0.00039796,-0.10917521,0.27541826,-0.00011515,0.00005171,0.00007
 457,-0.00007166,-0.00007085,-0.00001536,-0.00018594,0.00014283,0.00005
 861,-0.00010220,0.00032267,-0.00044262,0.00025701,0.00031318,-0.000426
 55,0.00002023,-0.00000383,-0.00005731,0.00000806,0.00000094,0.00000478
 ,0.00004189,-0.00000123,0.00001138,-0.00001615,0.00007655,-0.00000048,
 -0.00011983,0.00005715,0.00013029,0.00052337,-0.00000269,0.00027558,0.
 00005754,-0.00000734,0.00000122,0.00004340,-0.00007649,-0.00001099,-0.
 00071314,0.00011933,0.00023602,-0.00330807,-0.00361107,0.00018745,-0.0
 0024662,0.00120790,0.00056498,-0.00021982,0.00005210,-0.00004168,0.024
 00137,-0.02171616,-0.01082545,-0.00002955,0.00000473,0.00002262,-0.000
 00018,-0.00000118,-0.00000487,0.00000342,-0.00000232,-0.00000483,0.000
 00510,-0.00000005,-0.00000041,-0.00000725,0.00000675,0.00001485,0.0000
 0399,-0.00000335,-0.00000122,-0.00000405,-0.00000212,-0.00000178,-0.00
 000081,0.00000474,-0.00000612,-0.00000201,-0.00018125,-0.00013580,-0.0
 0002244,0.00001637,0.00002035,0.00002029,0.00007974,0.00000195,0.00002
 298,-0.00005758,0.00004367,0.00661041,-0.01605539,-0.05403897,0.004883
 32,-0.01077973,-0.00005723,-0.01958030,0.02473667,0.05862590,0.0000144
 5,0.00009218,-0.00012972,0.00004584,-0.00004590,0.00004968,-0.00016129
 ,0.00000186,0.00009573,-0.00155281,-0.00036087,-0.00100342,-0.00030653
 ,-0.00065563,0.00036218,0.00004517,0.00000811,0.00001859,-0.00001981,0
 .00001316,-0.00001762,-0.00001125,-0.00000022,-0.00000580,-0.00118560,
 -0.00030457,0.00007197,0.00012730,0.00002726,-0.00004056,0.00090718,0.
 00059792,-0.00016173,0.00004295,0.00003826,-0.00000889,0.00003800,-0.0
 0000061,-0.00001771,-0.00003702,0.00009370,-0.00040515,0.00450031,0.00
 159945,0.00244824,-0.00058055,-0.00027170,-0.00009289,-0.00051471,-0.0
 0031591,-0.00024103,0.00478108,-0.01073742,0.03362980,-0.00000802,0.00
 001302,0.00000676,0.00000262,-0.00000051,-0.00000200,-0.00000596,-0.00
 000094,0.00000049,0.00000292,-0.00000003,-0.00000102,-0.00003272,0.000
 00123,0.00004421,0.00000511,-0.00000262,-0.00000183,0.00000698,0.00001
 047,-0.00000550,-0.00000081,0.00000451,0.00000639,0.00030260,0.0005966
 4,0.00009666,-0.00003843,-0.00021125,-0.00007628,-0.00003620,-0.000055
 61,-0.00005570,-0.00004051,-0.00006495,0.00004152,-0.09667653,0.033317
 51,-0.09600987,-0.00660082,0.00820865,-0.01745527,-0.00347690,0.002964
 46,-0.01175719,0.10046396,-0.00005136,-0.00004556,0.00003005,-0.000047
 67,0.00001332,-0.00003922,-0.00008791,0.00016763,0.00004259,-0.0003266
 1,0.00016487,0.00024989,0.00012340,0.00038093,-0.00016923,0.00002185,-
 0.00001633,-0.00002053,0.00001704,-0.00001120,0.00001704,-0.00000702,0
 .00000470,0.00000170,-0.00073676,-0.00003675,-0.00024203,0.00002174,-0
 .00009332,0.00001161,0.00036252,-0.00010538,-0.00012573,0.00002157,-0.
 00002483,-0.00000145,0.00003017,-0.00006180,-0.00000495,0.00005850,-0.
 00042681,0.00013087,0.00097408,0.00036300,0.00107772,0.00026434,-0.000
 22421,0.00004893,-0.00017808,-0.00002214,-0.00009513,-0.00315823,0.002
 76337,0.00206685,-0.00001877,-0.00000070,0.00001780,-0.00000088,0.0000
 0009,-0.00000356,0.00000551,-0.00000176,-0.00000340,0.00000264,-0.0000
 0045,-0.00000040,0.00001908,0.00001257,0.00000781,-0.00000111,-0.00000
 162,-0.00000193,-0.00000454,-0.00000652,-0.00000024,-0.00000259,-0.000
 00197,-0.00000690,0.00013048,-0.00029588,-0.00004884,-0.00001354,0.000
 03771,-0.00000676,0.00004399,-0.00003653,-0.00005284,0.00002958,-0.000
 01583,0.00000479,0.03317689,-0.08262248,0.07111059,-0.00868993,0.00913
 021,-0.01976775,0.01258127,-0.00793171,0.02537928,-0.03455964,0.078945
 37,-0.00004711,0.00002833,0.00004821,-0.00007256,-0.00011656,-0.000010
 43,-0.00023285,0.00022614,0.00000656,0.00018285,0.00061508,-0.00053840
 ,0.00060428,0.00059910,-0.00050007,0.00003084,0.00000914,-0.00012263,0
 .00000484,0.00001902,0.00000110,0.00003346,-0.00000297,0.00001347,0.00
 000238,0.00005720,0.00069175,-0.00010283,0.00004862,0.00014206,0.00080
 471,-0.00003254,0.00069098,-0.00001249,-0.00002276,0.00001754,-0.00000
 254,-0.00006574,0.00002671,-0.00184301,0.00051886,0.00052942,-0.003505
 74,-0.00338381,-0.00095260,0.00032114,0.00050050,0.00019775,0.00070506
 ,0.00037014,0.00009345,0.00846879,0.00862658,-0.02834859,-0.00000284,-
 0.00001006,-0.00000222,-0.00000317,-0.00000050,0.00000174,0.00000550,0
 .00000026,-0.00000250,-0.00000076,0.00000110,0.00000158,0.00002163,0.0
 0000048,-0.00002884,-0.00000120,0.00000036,0.00000077,-0.00001126,-0.0
 0001113,0.00000331,0.00000196,0.00000084,-0.00001340,-0.00005443,-0.00
 064414,-0.00022893,-0.00003561,0.00008952,0.00003265,0.00006666,0.0000
 3504,-0.00001946,0.00007038,-0.00007307,0.00005739,-0.09028720,0.06979
 672,-0.23811540,-0.00579155,0.00375191,-0.00769137,0.00006570,-0.00132
 502,0.00579746,0.09061697,-0.07960663,0.26822094\\0.00003991,-0.000021
 10,-0.00000386,0.00000163,0.00000229,0.00003162,-0.00001710,0.00000012
 ,-0.00003463,-0.00000008,-0.00001581,0.00000635,-0.00002636,0.00001360
 ,0.00000344,-0.00000525,-0.00000124,0.00003343,-0.00001235,0.00001700,
 -0.00000417,-0.00000173,-0.00001031,-0.00000132,0.00000029,-0.00001039
 ,0.00000401,0.00000355,0.00000236,0.00000252,0.00000476,0.00000529,0.0
 0002244,-0.00000272,-0.00000045,0.00000255,-0.00001198,0.00001737,0.00
 000238,0.00001759,-0.00001869,-0.00001281,-0.00000441,-0.00000976,0.00
 000523,-0.00000748,-0.00000182,0.00001325,-0.00001121,0.00000570,0.000
 01176,-0.00000962,0.00000838,0.00001628,0.00000249,0.00001108,-0.00000
 084,-0.00000412,0.00001449,0.00000257,0.00000530,0.00001042,-0.0000061
 8,-0.00000219,0.00000578,0.00000304,-0.00000131,0.00000648,-0.00002007
 ,0.00000595,0.00001176,-0.00001586,0.00000095,0.00001356,-0.00000477,0
 .00000668,0.00000934,-0.00000996,0.00000271,0.00000149,-0.00000337,0.0
 0000895,-0.00000450,-0.00001686,0.00000683,-0.00000358,-0.00001407,0.0
 0000305,-0.00001141,-0.00001829,0.00000812,-0.00000818,-0.00001331,0.0
 0000270,-0.00001270,0.00000376,-0.00000218,-0.00001226,0.00001019,-0.0
 0000139,-0.00001431,0.00000555\\\@


 OF ALL THE WONDERS OF THE UNIVERSE, THE GREATEST IS MAN.

                                    -- ARISTOTLE
 Job cpu time:       0 days  2 hours 27 minutes 11.2 seconds.
 Elapsed time:       0 days  0 hours 37 minutes 43.5 seconds.
 File lengths (MBytes):  RWF=    373 Int=      0 D2E=      0 Chk=     16 Scr=      1
 Normal termination of Gaussian 16 at Fri May 24 09:13:45 2019.
