 Entering Gaussian System, Link 0=g16
 Input=clay-glucose_cation-021-b3lyp_d3bj-631gd-pcm_thf.gjf
 Output=clay-glucose_cation-021-b3lyp_d3bj-631gd-pcm_thf.out
 Initial command:
 /n/sw/g16_nehalem/g16/l1.exe "/scratch/Gau-47023.inp" -scrdir="/scratch/"
 Entering Link 1 = /n/sw/g16_nehalem/g16/l1.exe PID=     47027.
  
 Copyright (c) 1988,1990,1992,1993,1995,1998,2003,2009,2016,
            Gaussian, Inc.  All Rights Reserved.
  
 This is part of the Gaussian(R) 16 program.  It is based on
 the Gaussian(R) 09 system (copyright 2009, Gaussian, Inc.),
 the Gaussian(R) 03 system (copyright 2003, Gaussian, Inc.),
 the Gaussian(R) 98 system (copyright 1998, Gaussian, Inc.),
 the Gaussian(R) 94 system (copyright 1995, Gaussian, Inc.),
 the Gaussian 92(TM) system (copyright 1992, Gaussian, Inc.),
 the Gaussian 90(TM) system (copyright 1990, Gaussian, Inc.),
 the Gaussian 88(TM) system (copyright 1988, Gaussian, Inc.),
 the Gaussian 86(TM) system (copyright 1986, Carnegie Mellon
 University), and the Gaussian 82(TM) system (copyright 1983,
 Carnegie Mellon University). Gaussian is a federally registered
 trademark of Gaussian, Inc.
  
 This software contains proprietary and confidential information,
 including trade secrets, belonging to Gaussian, Inc.
  
 This software is provided under written license and may be
 used, copied, transmitted, or stored only in accord with that
 written license.
  
 The following legend is applicable only to US Government
 contracts under FAR:
  
                    RESTRICTED RIGHTS LEGEND
  
 Use, reproduction and disclosure by the US Government is
 subject to restrictions as set forth in subparagraphs (a)
 and (c) of the Commercial Computer Software - Restricted
 Rights clause in FAR 52.227-19.
  
 Gaussian, Inc.
 340 Quinnipiac St., Bldg. 40, Wallingford CT 06492
  
  
 ---------------------------------------------------------------
 Warning -- This program may not be used in any manner that
 competes with the business of Gaussian, Inc. or will provide
 assistance to any competitor of Gaussian, Inc.  The licensee
 of this program is prohibited from giving any competitor of
 Gaussian, Inc. access to this program.  By using this program,
 the user acknowledges that Gaussian, Inc. is engaged in the
 business of creating and licensing software in the field of
 computational chemistry and represents and warrants to the
 licensee that it is not a competitor of Gaussian, Inc. and that
 it will not use this program in any manner prohibited above.
 ---------------------------------------------------------------
  

 Cite this work as:
 Gaussian 16, Revision A.03,
 M. J. Frisch, G. W. Trucks, H. B. Schlegel, G. E. Scuseria, 
 M. A. Robb, J. R. Cheeseman, G. Scalmani, V. Barone, 
 G. A. Petersson, H. Nakatsuji, X. Li, M. Caricato, A. V. Marenich, 
 J. Bloino, B. G. Janesko, R. Gomperts, B. Mennucci, H. P. Hratchian, 
 J. V. Ortiz, A. F. Izmaylov, J. L. Sonnenberg, D. Williams-Young, 
 F. Ding, F. Lipparini, F. Egidi, J. Goings, B. Peng, A. Petrone, 
 T. Henderson, D. Ranasinghe, V. G. Zakrzewski, J. Gao, N. Rega, 
 G. Zheng, W. Liang, M. Hada, M. Ehara, K. Toyota, R. Fukuda, 
 J. Hasegawa, M. Ishida, T. Nakajima, Y. Honda, O. Kitao, H. Nakai, 
 T. Vreven, K. Throssell, J. A. Montgomery, Jr., J. E. Peralta, 
 F. Ogliaro, M. J. Bearpark, J. J. Heyd, E. N. Brothers, K. N. Kudin, 
 V. N. Staroverov, T. A. Keith, R. Kobayashi, J. Normand, 
 K. Raghavachari, A. P. Rendell, J. C. Burant, S. S. Iyengar, 
 J. Tomasi, M. Cossi, J. M. Millam, M. Klene, C. Adamo, R. Cammi, 
 J. W. Ochterski, R. L. Martin, K. Morokuma, O. Farkas, 
 J. B. Foresman, and D. J. Fox, Gaussian, Inc., Wallingford CT, 2016.
 
 ******************************************
 Gaussian 16:  ES64L-G16RevA.03 25-Dec-2016
                24-May-2019 
 ******************************************
 %nprocshared=4
 Will use up to    4 processors via shared memory.
 %mem=3GB
 -------------------------------------------------------------------
 #p b3lyp 6-31g* opt freq=noraman scrf=(pcm,solvent=tetrahydrofuran)
 -------------------------------------------------------------------
 1/18=20,19=15,26=3,38=1/1,3;
 2/9=110,12=2,17=6,18=5,40=1/2;
 3/5=1,6=6,7=1,11=2,25=1,30=1,70=2201,71=1,72=20,74=-5/1,2,3;
 4//1;
 5/5=2,38=5,53=20/2;
 6/7=2,8=2,9=2,10=2,28=1/1;
 7//1,2,3,16;
 1/18=20,19=15,26=3/3(2);
 2/9=110/2;
 99//99;
 2/9=110/2;
 3/5=1,6=6,7=1,11=2,25=1,30=1,70=2205,71=1,72=20,74=-5/1,2,3;
 4/5=5,16=3,69=1/1;
 5/5=2,38=5,53=20/2;
 7//1,2,3,16;
 1/18=20,19=15,26=3/3(-5);
 2/9=110/2;
 6/7=2,8=2,9=2,10=2,19=2,28=1/1;
 99/9=1/99;
 Leave Link    1 at Fri May 24 08:30:08 2019, MaxMem=   402653184 cpu:               0.6 elap:               0.2
 (Enter /n/sw/g16_nehalem/g16/l101.exe)
 -----
 title
 -----
 Symbolic Z-matrix:
 Charge =  1 Multiplicity = 1
 6                    -0.95515   0.55896  -0.27622 
 6                    -1.71998  -0.70526   0.19616 
 6                    -1.04731  -1.93256  -0.32163 
 6                     1.15581  -0.88885  -0.44544 
 6                     0.53196   0.41314   0.08519 
 1                    -1.62337  -2.83303  -0.54086 
 1                    -1.66697  -0.7281    1.29897 
 1                    -1.05623   0.64629  -1.36589 
 1                     1.50026  -0.73032  -1.46787 
 1                     0.62556   0.44905   1.17794 
 8                     0.16908  -2.01169  -0.62837 
 8                    -3.04002  -0.70273  -0.27842 
 8                    -1.45359   1.69443   0.37749 
 8                     1.28285   1.44673  -0.51758 
 6                     2.2544   -1.49899   0.4522 
 1                     2.68417  -2.37775  -0.04845 
 1                     1.79584  -1.82222   1.39204 
 8                     3.23272  -0.54915   0.78278 
 6                    -4.02091  -1.19195   0.64811 
 1                    -4.00426  -0.60239   1.57237 
 1                    -4.98525  -1.07852   0.15225 
 1                    -3.85746  -2.25041   0.88556 
 6                    -2.38578   2.47586  -0.37851 
 1                    -2.6514    3.32413   0.25487 
 1                    -3.28446   1.89903  -0.61816 
 1                    -1.92534   2.84331  -1.30407 
 6                     1.6959    2.48972   0.37298 
 1                     2.34735   2.08888   1.15818 
 1                     2.25676   3.19985  -0.23777 
 1                     0.83181   2.99024   0.81997 
 6                     4.18419  -0.28784  -0.25121 
 1                     4.96737   0.32272   0.20194 
 1                     4.62286  -1.22242  -0.62482 
 1                     3.73568   0.26764  -1.08321 
 
 ITRead=  0  0  0  0  0  0  0  0  0  0  0  0  0  0  0  0  0  0  0  0
 ITRead=  0  0  0  0  0  0  0  0  0  0  0  0  0  0
 MicOpt= -1 -1 -1 -1 -1 -1 -1 -1 -1 -1 -1 -1 -1 -1 -1 -1 -1 -1 -1 -1
 MicOpt= -1 -1 -1 -1 -1 -1 -1 -1 -1 -1 -1 -1 -1 -1
 NAtoms=     34 NQM=       34 NQMF=       0 NMMI=      0 NMMIF=      0
                NMic=       0 NMicF=      0.
                    Isotopes and Nuclear Properties:
 (Nuclear quadrupole moments (NQMom) in fm**2, nuclear magnetic moments (NMagM)
  in nuclear magnetons)

  Atom         1           2           3           4           5           6           7           8           9          10
 IAtWgt=          12          12          12          12          12           1           1           1           1           1
 AtmWgt=  12.0000000  12.0000000  12.0000000  12.0000000  12.0000000   1.0078250   1.0078250   1.0078250   1.0078250   1.0078250
 NucSpn=           0           0           0           0           0           1           1           1           1           1
 AtZEff=   0.0000000   0.0000000   0.0000000   0.0000000   0.0000000   0.0000000   0.0000000   0.0000000   0.0000000   0.0000000
 NQMom=    0.0000000   0.0000000   0.0000000   0.0000000   0.0000000   0.0000000   0.0000000   0.0000000   0.0000000   0.0000000
 NMagM=    0.0000000   0.0000000   0.0000000   0.0000000   0.0000000   2.7928460   2.7928460   2.7928460   2.7928460   2.7928460
 AtZNuc=   6.0000000   6.0000000   6.0000000   6.0000000   6.0000000   1.0000000   1.0000000   1.0000000   1.0000000   1.0000000

  Atom        11          12          13          14          15          16          17          18          19          20
 IAtWgt=          16          16          16          16          12           1           1          16          12           1
 AtmWgt=  15.9949146  15.9949146  15.9949146  15.9949146  12.0000000   1.0078250   1.0078250  15.9949146  12.0000000   1.0078250
 NucSpn=           0           0           0           0           0           1           1           0           0           1
 AtZEff=   0.0000000   0.0000000   0.0000000   0.0000000   0.0000000   0.0000000   0.0000000   0.0000000   0.0000000   0.0000000
 NQMom=    0.0000000   0.0000000   0.0000000   0.0000000   0.0000000   0.0000000   0.0000000   0.0000000   0.0000000   0.0000000
 NMagM=    0.0000000   0.0000000   0.0000000   0.0000000   0.0000000   2.7928460   2.7928460   0.0000000   0.0000000   2.7928460
 AtZNuc=   8.0000000   8.0000000   8.0000000   8.0000000   6.0000000   1.0000000   1.0000000   8.0000000   6.0000000   1.0000000

  Atom        21          22          23          24          25          26          27          28          29          30
 IAtWgt=           1           1          12           1           1           1          12           1           1           1
 AtmWgt=   1.0078250   1.0078250  12.0000000   1.0078250   1.0078250   1.0078250  12.0000000   1.0078250   1.0078250   1.0078250
 NucSpn=           1           1           0           1           1           1           0           1           1           1
 AtZEff=   0.0000000   0.0000000   0.0000000   0.0000000   0.0000000   0.0000000   0.0000000   0.0000000   0.0000000   0.0000000
 NQMom=    0.0000000   0.0000000   0.0000000   0.0000000   0.0000000   0.0000000   0.0000000   0.0000000   0.0000000   0.0000000
 NMagM=    2.7928460   2.7928460   0.0000000   2.7928460   2.7928460   2.7928460   0.0000000   2.7928460   2.7928460   2.7928460
 AtZNuc=   1.0000000   1.0000000   6.0000000   1.0000000   1.0000000   1.0000000   6.0000000   1.0000000   1.0000000   1.0000000

  Atom        31          32          33          34
 IAtWgt=          12           1           1           1
 AtmWgt=  12.0000000   1.0078250   1.0078250   1.0078250
 NucSpn=           0           1           1           1
 AtZEff=   0.0000000   0.0000000   0.0000000   0.0000000
 NQMom=    0.0000000   0.0000000   0.0000000   0.0000000
 NMagM=    0.0000000   2.7928460   2.7928460   2.7928460
 AtZNuc=   6.0000000   1.0000000   1.0000000   1.0000000
 Leave Link  101 at Fri May 24 08:30:08 2019, MaxMem=   402653184 cpu:               0.9 elap:               0.3
 (Enter /n/sw/g16_nehalem/g16/l103.exe)

 GradGradGradGradGradGradGradGradGradGradGradGradGradGradGradGradGradGrad
 Berny optimization.
 Initialization pass.
                           ----------------------------
                           !    Initial Parameters    !
                           ! (Angstroms and Degrees)  !
 --------------------------                            --------------------------
 ! Name  Definition              Value          Derivative Info.                !
 --------------------------------------------------------------------------------
 ! R1    R(1,2)                  1.5512         estimate D2E/DX2                !
 ! R2    R(1,5)                  1.5373         estimate D2E/DX2                !
 ! R3    R(1,8)                  1.0978         estimate D2E/DX2                !
 ! R4    R(1,13)                 1.4018         estimate D2E/DX2                !
 ! R5    R(2,3)                  1.4923         estimate D2E/DX2                !
 ! R6    R(2,7)                  1.1043         estimate D2E/DX2                !
 ! R7    R(2,12)                 1.4028         estimate D2E/DX2                !
 ! R8    R(3,6)                  1.0912         estimate D2E/DX2                !
 ! R9    R(3,11)                 1.257          estimate D2E/DX2                !
 ! R10   R(4,5)                  1.5382         estimate D2E/DX2                !
 ! R11   R(4,9)                  1.0905         estimate D2E/DX2                !
 ! R12   R(4,11)                 1.5059         estimate D2E/DX2                !
 ! R13   R(4,15)                 1.5443         estimate D2E/DX2                !
 ! R14   R(5,10)                 1.0973         estimate D2E/DX2                !
 ! R15   R(5,14)                 1.4126         estimate D2E/DX2                !
 ! R16   R(12,19)                1.4352         estimate D2E/DX2                !
 ! R17   R(13,23)                1.4322         estimate D2E/DX2                !
 ! R18   R(14,27)                1.4323         estimate D2E/DX2                !
 ! R19   R(15,16)                1.0989         estimate D2E/DX2                !
 ! R20   R(15,17)                1.0946         estimate D2E/DX2                !
 ! R21   R(15,18)                1.4031         estimate D2E/DX2                !
 ! R22   R(18,31)                1.4292         estimate D2E/DX2                !
 ! R23   R(19,20)                1.0964         estimate D2E/DX2                !
 ! R24   R(19,21)                1.0903         estimate D2E/DX2                !
 ! R25   R(19,22)                1.097          estimate D2E/DX2                !
 ! R26   R(23,24)                1.0915         estimate D2E/DX2                !
 ! R27   R(23,25)                1.0944         estimate D2E/DX2                !
 ! R28   R(23,26)                1.0971         estimate D2E/DX2                !
 ! R29   R(27,28)                1.0962         estimate D2E/DX2                !
 ! R30   R(27,29)                1.0917         estimate D2E/DX2                !
 ! R31   R(27,30)                1.0941         estimate D2E/DX2                !
 ! R32   R(31,32)                1.0916         estimate D2E/DX2                !
 ! R33   R(31,33)                1.0979         estimate D2E/DX2                !
 ! R34   R(31,34)                1.0963         estimate D2E/DX2                !
 ! A1    A(2,1,5)              109.1505         estimate D2E/DX2                !
 ! A2    A(2,1,8)              108.7653         estimate D2E/DX2                !
 ! A3    A(2,1,13)             110.0477         estimate D2E/DX2                !
 ! A4    A(5,1,8)              109.2663         estimate D2E/DX2                !
 ! A5    A(5,1,13)             108.1288         estimate D2E/DX2                !
 ! A6    A(8,1,13)             111.4502         estimate D2E/DX2                !
 ! A7    A(1,2,3)              110.0201         estimate D2E/DX2                !
 ! A8    A(1,2,7)              107.2951         estimate D2E/DX2                !
 ! A9    A(1,2,12)             111.0682         estimate D2E/DX2                !
 ! A10   A(3,2,7)              107.9305         estimate D2E/DX2                !
 ! A11   A(3,2,12)             107.9554         estimate D2E/DX2                !
 ! A12   A(7,2,12)             112.5236         estimate D2E/DX2                !
 ! A13   A(2,3,6)              120.6921         estimate D2E/DX2                !
 ! A14   A(2,3,11)             124.9365         estimate D2E/DX2                !
 ! A15   A(6,3,11)             114.198          estimate D2E/DX2                !
 ! A16   A(5,4,9)              109.1779         estimate D2E/DX2                !
 ! A17   A(5,4,11)             114.0343         estimate D2E/DX2                !
 ! A18   A(5,4,15)             114.9879         estimate D2E/DX2                !
 ! A19   A(9,4,11)             101.6232         estimate D2E/DX2                !
 ! A20   A(9,4,15)             112.1921         estimate D2E/DX2                !
 ! A21   A(11,4,15)            104.0126         estimate D2E/DX2                !
 ! A22   A(1,5,4)              113.0491         estimate D2E/DX2                !
 ! A23   A(1,5,10)             108.2715         estimate D2E/DX2                !
 ! A24   A(1,5,14)             110.1505         estimate D2E/DX2                !
 ! A25   A(4,5,10)             109.6719         estimate D2E/DX2                !
 ! A26   A(4,5,14)             104.8651         estimate D2E/DX2                !
 ! A27   A(10,5,14)            110.8322         estimate D2E/DX2                !
 ! A28   A(3,11,4)             123.8825         estimate D2E/DX2                !
 ! A29   A(2,12,19)            115.0948         estimate D2E/DX2                !
 ! A30   A(1,13,23)            115.2919         estimate D2E/DX2                !
 ! A31   A(5,14,27)            114.8846         estimate D2E/DX2                !
 ! A32   A(4,15,16)            109.2286         estimate D2E/DX2                !
 ! A33   A(4,15,17)            108.526          estimate D2E/DX2                !
 ! A34   A(4,15,18)            111.4387         estimate D2E/DX2                !
 ! A35   A(16,15,17)           108.596          estimate D2E/DX2                !
 ! A36   A(16,15,18)           112.0867         estimate D2E/DX2                !
 ! A37   A(17,15,18)           106.8417         estimate D2E/DX2                !
 ! A38   A(15,18,31)           114.6774         estimate D2E/DX2                !
 ! A39   A(12,19,20)           110.5196         estimate D2E/DX2                !
 ! A40   A(12,19,21)           105.9881         estimate D2E/DX2                !
 ! A41   A(12,19,22)           111.5172         estimate D2E/DX2                !
 ! A42   A(20,19,21)           109.9312         estimate D2E/DX2                !
 ! A43   A(20,19,22)           109.5165         estimate D2E/DX2                !
 ! A44   A(21,19,22)           109.3058         estimate D2E/DX2                !
 ! A45   A(13,23,24)           106.0296         estimate D2E/DX2                !
 ! A46   A(13,23,25)           111.2527         estimate D2E/DX2                !
 ! A47   A(13,23,26)           110.7875         estimate D2E/DX2                !
 ! A48   A(24,23,25)           109.6852         estimate D2E/DX2                !
 ! A49   A(24,23,26)           109.3536         estimate D2E/DX2                !
 ! A50   A(25,23,26)           109.6576         estimate D2E/DX2                !
 ! A51   A(14,27,28)           110.5166         estimate D2E/DX2                !
 ! A52   A(14,27,29)           105.9016         estimate D2E/DX2                !
 ! A53   A(14,27,30)           111.0632         estimate D2E/DX2                !
 ! A54   A(28,27,29)           109.4681         estimate D2E/DX2                !
 ! A55   A(28,27,30)           110.1208         estimate D2E/DX2                !
 ! A56   A(29,27,30)           109.6775         estimate D2E/DX2                !
 ! A57   A(18,31,32)           106.2352         estimate D2E/DX2                !
 ! A58   A(18,31,33)           110.8879         estimate D2E/DX2                !
 ! A59   A(18,31,34)           111.6734         estimate D2E/DX2                !
 ! A60   A(32,31,33)           109.3125         estimate D2E/DX2                !
 ! A61   A(32,31,34)           108.9758         estimate D2E/DX2                !
 ! A62   A(33,31,34)           109.6636         estimate D2E/DX2                !
 ! D1    D(5,1,2,3)            -52.1359         estimate D2E/DX2                !
 ! D2    D(5,1,2,7)             65.0341         estimate D2E/DX2                !
 ! D3    D(5,1,2,12)          -171.6061         estimate D2E/DX2                !
 ! D4    D(8,1,2,3)             67.0001         estimate D2E/DX2                !
 ! D5    D(8,1,2,7)           -175.8299         estimate D2E/DX2                !
 ! D6    D(8,1,2,12)           -52.4702         estimate D2E/DX2                !
 ! D7    D(13,1,2,3)          -170.6483         estimate D2E/DX2                !
 ! D8    D(13,1,2,7)           -53.4783         estimate D2E/DX2                !
 ! D9    D(13,1,2,12)           69.8814         estimate D2E/DX2                !
 ! D10   D(2,1,5,4)             53.8107         estimate D2E/DX2                !
 ! D11   D(2,1,5,10)           -67.9077         estimate D2E/DX2                !
 ! D12   D(2,1,5,14)           170.7542         estimate D2E/DX2                !
 ! D13   D(8,1,5,4)            -65.0135         estimate D2E/DX2                !
 ! D14   D(8,1,5,10)           173.2681         estimate D2E/DX2                !
 ! D15   D(8,1,5,14)            51.93           estimate D2E/DX2                !
 ! D16   D(13,1,5,4)           173.5158         estimate D2E/DX2                !
 ! D17   D(13,1,5,10)           51.7974         estimate D2E/DX2                !
 ! D18   D(13,1,5,14)          -69.5407         estimate D2E/DX2                !
 ! D19   D(2,1,13,23)          -99.3535         estimate D2E/DX2                !
 ! D20   D(5,1,13,23)          141.5078         estimate D2E/DX2                !
 ! D21   D(8,1,13,23)           21.3971         estimate D2E/DX2                !
 ! D22   D(1,2,3,6)           -149.5995         estimate D2E/DX2                !
 ! D23   D(1,2,3,11)            25.3308         estimate D2E/DX2                !
 ! D24   D(7,2,3,6)             93.6269         estimate D2E/DX2                !
 ! D25   D(7,2,3,11)           -91.4428         estimate D2E/DX2                !
 ! D26   D(12,2,3,6)           -28.2496         estimate D2E/DX2                !
 ! D27   D(12,2,3,11)          146.6807         estimate D2E/DX2                !
 ! D28   D(1,2,12,19)         -141.2302         estimate D2E/DX2                !
 ! D29   D(3,2,12,19)           98.073          estimate D2E/DX2                !
 ! D30   D(7,2,12,19)          -20.922          estimate D2E/DX2                !
 ! D31   D(2,3,11,4)             3.5446         estimate D2E/DX2                !
 ! D32   D(6,3,11,4)           178.7658         estimate D2E/DX2                !
 ! D33   D(9,4,5,1)             86.2218         estimate D2E/DX2                !
 ! D34   D(9,4,5,10)          -152.851          estimate D2E/DX2                !
 ! D35   D(9,4,5,14)           -33.7964         estimate D2E/DX2                !
 ! D36   D(11,4,5,1)           -26.6496         estimate D2E/DX2                !
 ! D37   D(11,4,5,10)           94.2777         estimate D2E/DX2                !
 ! D38   D(11,4,5,14)         -146.6677         estimate D2E/DX2                !
 ! D39   D(15,4,5,1)          -146.6717         estimate D2E/DX2                !
 ! D40   D(15,4,5,10)          -25.7444         estimate D2E/DX2                !
 ! D41   D(15,4,5,14)           93.3102         estimate D2E/DX2                !
 ! D42   D(5,4,11,3)            -3.2055         estimate D2E/DX2                !
 ! D43   D(9,4,11,3)          -120.5245         estimate D2E/DX2                !
 ! D44   D(15,4,11,3)          122.81           estimate D2E/DX2                !
 ! D45   D(5,4,15,16)         -175.8264         estimate D2E/DX2                !
 ! D46   D(5,4,15,17)           65.9395         estimate D2E/DX2                !
 ! D47   D(5,4,15,18)          -51.4387         estimate D2E/DX2                !
 ! D48   D(9,4,15,16)          -50.2675         estimate D2E/DX2                !
 ! D49   D(9,4,15,17)         -168.5016         estimate D2E/DX2                !
 ! D50   D(9,4,15,18)           74.1202         estimate D2E/DX2                !
 ! D51   D(11,4,15,16)          58.7629         estimate D2E/DX2                !
 ! D52   D(11,4,15,17)         -59.4712         estimate D2E/DX2                !
 ! D53   D(11,4,15,18)        -176.8494         estimate D2E/DX2                !
 ! D54   D(1,5,14,27)          104.3522         estimate D2E/DX2                !
 ! D55   D(4,5,14,27)         -133.7175         estimate D2E/DX2                !
 ! D56   D(10,5,14,27)         -15.4461         estimate D2E/DX2                !
 ! D57   D(2,12,19,20)          58.1799         estimate D2E/DX2                !
 ! D58   D(2,12,19,21)         177.2493         estimate D2E/DX2                !
 ! D59   D(2,12,19,22)         -63.8927         estimate D2E/DX2                !
 ! D60   D(1,13,23,24)        -178.5207         estimate D2E/DX2                !
 ! D61   D(1,13,23,25)          62.2834         estimate D2E/DX2                !
 ! D62   D(1,13,23,26)         -59.9739         estimate D2E/DX2                !
 ! D63   D(5,14,27,28)          61.5475         estimate D2E/DX2                !
 ! D64   D(5,14,27,29)        -179.9876         estimate D2E/DX2                !
 ! D65   D(5,14,27,30)         -60.981          estimate D2E/DX2                !
 ! D66   D(4,15,18,31)         -78.2826         estimate D2E/DX2                !
 ! D67   D(16,15,18,31)         44.4816         estimate D2E/DX2                !
 ! D68   D(17,15,18,31)        163.3243         estimate D2E/DX2                !
 ! D69   D(15,18,31,32)       -170.3274         estimate D2E/DX2                !
 ! D70   D(15,18,31,33)        -51.6543         estimate D2E/DX2                !
 ! D71   D(15,18,31,34)         70.9766         estimate D2E/DX2                !
 --------------------------------------------------------------------------------
 Trust Radius=3.00D-01 FncErr=1.00D-07 GrdErr=1.00D-06 EigMax=2.50D+02 EigMin=1.00D-04
 Number of steps in this run=    177 maximum allowed number of steps=    204.
 GradGradGradGradGradGradGradGradGradGradGradGradGradGradGradGradGradGrad

 Leave Link  103 at Fri May 24 08:30:09 2019, MaxMem=   402653184 cpu:               0.1 elap:               0.1
 (Enter /n/sw/g16_nehalem/g16/l202.exe)
                          Input orientation:                          
 ---------------------------------------------------------------------
 Center     Atomic      Atomic             Coordinates (Angstroms)
 Number     Number       Type             X           Y           Z
 ---------------------------------------------------------------------
      1          6           0       -0.955147    0.558955   -0.276222
      2          6           0       -1.719981   -0.705256    0.196162
      3          6           0       -1.047315   -1.932558   -0.321632
      4          6           0        1.155808   -0.888851   -0.445441
      5          6           0        0.531955    0.413140    0.085189
      6          1           0       -1.623374   -2.833030   -0.540855
      7          1           0       -1.666972   -0.728096    1.298967
      8          1           0       -1.056232    0.646291   -1.365894
      9          1           0        1.500262   -0.730315   -1.467868
     10          1           0        0.625560    0.449046    1.177938
     11          8           0        0.169083   -2.011689   -0.628371
     12          8           0       -3.040017   -0.702730   -0.278416
     13          8           0       -1.453593    1.694425    0.377494
     14          8           0        1.282852    1.446727   -0.517575
     15          6           0        2.254401   -1.498992    0.452201
     16          1           0        2.684167   -2.377751   -0.048448
     17          1           0        1.795843   -1.822218    1.392039
     18          8           0        3.232720   -0.549149    0.782776
     19          6           0       -4.020914   -1.191945    0.648105
     20          1           0       -4.004261   -0.602392    1.572368
     21          1           0       -4.985248   -1.078525    0.152249
     22          1           0       -3.857458   -2.250408    0.885564
     23          6           0       -2.385775    2.475858   -0.378506
     24          1           0       -2.651400    3.324127    0.254871
     25          1           0       -3.284465    1.899029   -0.618161
     26          1           0       -1.925338    2.843308   -1.304071
     27          6           0        1.695903    2.489717    0.372975
     28          1           0        2.347348    2.088878    1.158184
     29          1           0        2.256757    3.199851   -0.237768
     30          1           0        0.831811    2.990237    0.819965
     31          6           0        4.184187   -0.287841   -0.251207
     32          1           0        4.967372    0.322719    0.201942
     33          1           0        4.622861   -1.222418   -0.624820
     34          1           0        3.735677    0.267637   -1.083207
 ---------------------------------------------------------------------
                    Distance matrix (angstroms):
                    1          2          3          4          5
     1  C    0.000000
     2  C    1.551241   0.000000
     3  C    2.493631   1.492267   0.000000
     4  C    2.565328   2.952207   2.440984   0.000000
     5  C    1.537320   2.516812   2.856903   1.538162   0.000000
     6  H    3.467293   2.253874   1.091216   3.393050   3.946517
     7  H    2.155091   1.104314   2.112119   3.322181   2.758796
     8  H    1.097830   2.169622   2.782270   2.845526   2.163871
     9  H    3.018488   3.624857   3.041282   1.090477   2.158030
    10  H    2.150650   2.792465   3.274028   2.169445   1.097338
    11  O    2.827740   2.440325   1.256970   1.505940   2.553554
    12  O    2.436911   1.402756   2.342052   4.203271   3.759835
    13  O    1.401815   2.421221   3.716025   3.762913   2.381078
    14  O    2.419717   3.762640   4.109457   2.340143   1.412612
    15  C    3.881616   4.060946   3.418790   1.544325   2.599571
    16  H    4.681958   4.717371   3.767862   2.170324   3.526889
    17  H    4.002627   3.877982   3.321504   2.158043   2.881336
    18  O    4.459552   4.989763   4.631656   2.436694   2.950722
    19  C    3.649515   2.394872   3.214217   5.299638   4.860225
    20  H    3.750081   2.668794   3.755011   5.547966   4.880601
    21  H    4.371115   3.286826   4.057247   6.172988   5.715688
    22  H    4.203056   2.726092   3.074940   5.362672   5.196348
    23  C    2.394092   3.300456   4.607477   4.885546   3.603188
    24  H    3.287174   4.136051   5.526136   5.721403   4.316988
    25  H    2.708956   3.145319   4.446777   5.245773   4.155434
    26  H    2.686264   3.858131   4.954292   4.915253   3.724788
    27  C    3.343257   4.680532   5.250166   3.517987   2.397867
    28  H    3.912117   5.027508   5.466767   3.585840   2.693523
    29  H    4.158382   5.590403   6.104551   4.239422   3.293175
    30  H    3.210292   4.534031   5.391500   4.093110   2.696523
    31  C    5.208689   5.935788   5.484402   3.093545   3.734078
    32  H    5.946485   6.765904   6.444910   4.051546   4.437875
    33  H    5.865917   6.416628   5.722510   3.487678   4.462586
    34  H    4.768639   5.687487   5.319574   2.898264   3.413232
                    6          7          8          9         10
     6  H    0.000000
     7  H    2.795996   0.000000
     8  H    3.620499   3.059972   0.000000
     9  H    3.877869   4.205562   2.905358   0.000000
    10  H    4.334048   2.579925   3.055881   3.025935   0.000000
    11  O    1.973617   2.955223   3.018310   2.029461   3.086477
    12  O    2.571756   2.091419   2.633983   4.693580   4.109016
    13  O    4.622774   2.600625   2.072651   4.243817   2.552363
    14  O    5.173298   4.090372   2.613744   2.385338   2.074166
    15  C    4.219355   4.085151   4.343731   2.201421   2.640960
    16  H    4.359433   4.844512   4.987091   2.475970   3.705761
    17  H    4.055720   3.632747   4.672693   3.075498   2.563989
    18  O    5.527184   4.930056   4.943781   2.845985   2.819544
    19  C    3.139265   2.485924   4.027982   5.930753   4.956137
    20  H    3.887169   2.356580   4.345511   6.289608   4.764068
    21  H    3.854981   3.528274   4.551584   6.693868   5.904801
    22  H    2.713900   2.699364   4.615928   6.046031   5.241182
    23  C    5.365809   3.687264   2.467779   5.154371   3.949509
    24  H    6.292901   4.298808   3.513153   6.053315   4.456076
    25  H    5.015733   3.632279   2.663359   5.525311   4.540564
    26  H    5.735372   4.426905   2.363483   4.953014   4.289515
    27  C    6.339110   4.745599   3.741140   3.714241   2.440889
    28  H    6.548171   4.906111   4.476202   3.944813   2.377813
    29  H    7.179341   5.760727   4.332347   4.187080   3.497421
    30  H    6.464534   4.505481   3.719781   4.418542   2.574555
    31  C    6.347413   6.069014   5.438485   2.979849   3.905033
    32  H    7.344960   6.806041   6.232705   3.989737   4.451950
    33  H    6.451091   6.596007   6.024397   3.271623   4.692776
    34  H    6.215119   5.987892   4.815151   2.478095   3.849482
                   11         12         13         14         15
    11  O    0.000000
    12  O    3.483413   0.000000
    13  O    4.168947   2.948442   0.000000
    14  O    3.635024   4.833690   2.889746   0.000000
    15  C    2.403964   5.403582   4.894151   3.249867   0.000000
    16  H    2.606906   5.968657   5.821091   4.100048   1.098893
    17  H    2.600828   5.237291   4.894376   3.820443   1.094553
    18  O    3.676443   6.363721   5.211469   3.078379   1.403064
    19  C    4.456169   1.435246   3.872402   6.037494   6.285876
    20  H    4.924040   2.089315   3.634419   6.043204   6.421021
    21  H    5.295969   2.027466   4.495840   6.790776   7.258049
    22  H    4.308366   2.101991   4.647409   6.485398   6.173107
    23  C    5.169895   3.246763   1.432179   3.812778   6.166096
    24  H    6.099686   4.080563   2.026254   4.427148   6.882463
    25  H    5.217357   2.635210   2.094107   4.590760   6.585686
    26  H    5.330494   3.856016   2.090487   3.586293   6.277761
    27  C    4.857626   5.748475   3.248359   1.432312   4.028399
    28  H    4.975065   6.235431   3.900285   2.086547   3.657849
    29  H    5.627708   6.579332   4.051117   2.024902   4.749230
    30  H    5.249395   5.462188   2.664204   2.091620   4.723578
    31  C    4.385768   7.236159   6.009094   3.390785   2.384480
    32  H    5.400228   8.087062   6.568195   3.918774   3.277419
    33  H    4.523174   7.688288   6.814389   4.276856   2.616500
    34  H    4.257088   6.891976   5.576549   2.779666   2.769952
                   16         17         18         19         20
    16  H    0.000000
    17  H    1.781218   0.000000
    18  O    2.082217   2.014081   0.000000
    19  C    6.844665   5.897910   7.283305   0.000000
    20  H    7.107321   5.929730   7.280123   1.096409   0.000000
    21  H    7.781272   6.933495   8.259104   1.090265   1.790468
    22  H    6.609195   5.692071   7.292151   1.097018   1.791426
    23  C    7.026434   6.252537   6.485887   4.144923   3.987609
    24  H    7.814838   6.896085   7.064264   4.735516   4.357015
    25  H    7.364780   6.610455   7.101401   3.420513   3.402004
    26  H    7.076976   6.548536   6.516844   4.948302   4.946582
    27  C    4.984627   4.431846   3.429934   6.805316   6.594812
    28  H    4.638985   3.956705   2.807846   7.181834   6.910674
    29  H    5.597157   5.299990   4.006122   7.712444   7.545462
    30  H    5.744620   4.941290   4.277032   6.408519   6.071300
    31  C    2.580483   3.280054   1.429228   8.303605   8.394942
    32  H    3.545174   4.009449   2.026460   9.125928   9.122724
    33  H    2.329277   3.524133   2.089763   8.737054   8.924085
    34  H    3.028940   3.775883   2.098094   8.080379   8.228953
                   21         22         23         24         25
    21  H    0.000000
    22  H    1.784088   0.000000
    23  C    4.435380   5.108945   0.000000
    24  H    4.984047   5.738274   1.091459   0.000000
    25  H    3.514544   4.450543   1.094445   1.787138   0.000000
    26  H    5.183116   5.871417   1.097129   1.785680   1.791469
    27  C    7.577523   7.319245   4.150303   4.428231   5.112272
    28  H    8.050547   7.576499   4.991355   5.227743   5.908364
    29  H    8.420407   8.267456   4.700753   4.934384   5.704558
    30  H    7.130136   7.032632   3.471855   3.544513   4.494738
    31  C    9.212301   8.355356   7.128719   7.747753   7.790880
    32  H   10.050900   9.217697   7.683860   8.188830   8.440980
    33  H    9.640555   8.674897   7.928360   8.623213   8.501134
    34  H    8.910277   8.238465   6.545611   7.206062   7.222195
                   26         27         28         29         30
    26  H    0.000000
    27  C    4.006357   0.000000
    28  H    4.988758   1.096178   0.000000
    29  H    4.330594   1.091721   1.786379   0.000000
    30  H    3.483531   1.094064   1.795464   1.786955   0.000000
    31  C    6.945424   3.781004   3.318004   3.984867   4.809535
    32  H    7.492055   3.927804   3.301249   3.977269   4.959886
    33  H    7.737598   4.831421   4.395651   5.030380   5.848583
    34  H    6.223339   3.349445   3.204405   3.391143   4.412148
                   31         32         33         34
    31  C    0.000000
    32  H    1.091561   0.000000
    33  H    1.097932   1.785965   0.000000
    34  H    1.096331   1.780931   1.793733   0.000000
 Stoichiometry    C10H19O5(1+)
 Framework group  C1[X(C10H19O5)]
 Deg. of freedom    96
 Full point group                 C1      NOp   1
 Largest Abelian subgroup         C1      NOp   1
 Largest concise Abelian subgroup C1      NOp   1
                         Standard orientation:                         
 ---------------------------------------------------------------------
 Center     Atomic      Atomic             Coordinates (Angstroms)
 Number     Number       Type             X           Y           Z
 ---------------------------------------------------------------------
      1          6           0       -0.955147    0.558955   -0.276222
      2          6           0       -1.719981   -0.705256    0.196162
      3          6           0       -1.047315   -1.932558   -0.321632
      4          6           0        1.155808   -0.888851   -0.445441
      5          6           0        0.531955    0.413140    0.085189
      6          1           0       -1.623374   -2.833030   -0.540855
      7          1           0       -1.666972   -0.728096    1.298967
      8          1           0       -1.056232    0.646291   -1.365894
      9          1           0        1.500262   -0.730315   -1.467868
     10          1           0        0.625560    0.449046    1.177938
     11          8           0        0.169083   -2.011689   -0.628371
     12          8           0       -3.040017   -0.702730   -0.278416
     13          8           0       -1.453593    1.694425    0.377494
     14          8           0        1.282852    1.446727   -0.517575
     15          6           0        2.254401   -1.498992    0.452201
     16          1           0        2.684167   -2.377751   -0.048448
     17          1           0        1.795843   -1.822218    1.392039
     18          8           0        3.232720   -0.549149    0.782776
     19          6           0       -4.020914   -1.191945    0.648105
     20          1           0       -4.004261   -0.602392    1.572368
     21          1           0       -4.985248   -1.078525    0.152249
     22          1           0       -3.857458   -2.250408    0.885564
     23          6           0       -2.385775    2.475858   -0.378506
     24          1           0       -2.651400    3.324127    0.254871
     25          1           0       -3.284465    1.899029   -0.618161
     26          1           0       -1.925338    2.843308   -1.304071
     27          6           0        1.695903    2.489717    0.372975
     28          1           0        2.347348    2.088878    1.158184
     29          1           0        2.256757    3.199851   -0.237768
     30          1           0        0.831811    2.990237    0.819965
     31          6           0        4.184187   -0.287841   -0.251207
     32          1           0        4.967372    0.322718    0.201942
     33          1           0        4.622861   -1.222419   -0.624820
     34          1           0        3.735677    0.267637   -1.083207
 ---------------------------------------------------------------------
 Rotational constants (GHZ):           0.9210155           0.4039203           0.3005217
 Leave Link  202 at Fri May 24 08:30:09 2019, MaxMem=   402653184 cpu:               0.2 elap:               0.1
 (Enter /n/sw/g16_nehalem/g16/l301.exe)
 Standard basis: 6-31G(d) (6D, 7F)
 Ernie: Thresh=  0.10000D-02 Tol=  0.10000D-05 Strict=F.
 There are   263 symmetry adapted cartesian basis functions of A   symmetry.
 There are   263 symmetry adapted basis functions of A   symmetry.
   263 basis functions,   496 primitive gaussians,   263 cartesian basis functions
    59 alpha electrons       59 beta electrons
       nuclear repulsion energy      1153.0636377826 Hartrees.
 IExCor=  402 DFT=T Ex+Corr=B3LYP ExCW=0 ScaHFX=  0.200000
 ScaDFX=  0.800000  0.720000  1.000000  0.810000 ScalE2=  1.000000  1.000000
 IRadAn=      5 IRanWt=     -1 IRanGd=            0 ICorTp=0 IEmpDi=  4
 NAtoms=   34 NActive=   34 NUniq=   34 SFac= 1.00D+00 NAtFMM=   60 NAOKFM=F Big=F
 Integral buffers will be    131072 words long.
 Raffenetti 2 integral format.
 Two-electron integral symmetry is turned on.
 ------------------------------------------------------------------------------
 Polarizable Continuum Model (PCM)
 =================================
 Model                : PCM.
 Atomic radii         : UFF (Universal Force Field).
 Polarization charges : Total charges.
 Charge compensation  : None.
 Solution method      : On-the-fly selection.
 Cavity type          : Scaled VdW (van der Waals Surface) (Alpha=1.100).
 Cavity algorithm     : GePol (No added spheres)
                        Default sphere list used, NSphG=   34.
                        Lebedev-Laikov grids with approx.  5.0 points / Ang**2.
                        Smoothing algorithm: York/Karplus (Gamma=1.0000).
                        Polarization charges: spherical gaussians, with
                                              point-specific exponents (IZeta= 3).
                        Self-potential: point-specific (ISelfS= 7).
                        Self-field    : sphere-specific E.n sum rule (ISelfD= 2).
 1st derivatives      : Analytical E(r).r(x)/FMM algorithm (CHGder, D1EAlg=3).
                        Cavity 1st derivative terms included.
 Solvent              : TetraHydroFuran, Eps=   7.425700 Eps(inf)=   1.974025
 ------------------------------------------------------------------------------
 GePol: Number of generator spheres                  =      34
 GePol: Total number of spheres                      =      34
 GePol: Number of exposed spheres                    =      34 (100.00%)
 GePol: Number of points                             =    2309
 GePol: Average weight of points                     =       0.13
 GePol: Minimum weight of points                     =   0.21D-11
 GePol: Maximum weight of points                     =    0.20577
 GePol: Number of points with low weight             =     156
 GePol: Fraction of low-weight points (<1% of avg)   =       6.76%
 GePol: Cavity surface area                          =    304.498 Ang**2
 GePol: Cavity volume                                =    323.257 Ang**3
 Leave Link  301 at Fri May 24 08:30:09 2019, MaxMem=   402653184 cpu:               0.6 elap:               0.2
 (Enter /n/sw/g16_nehalem/g16/l302.exe)
 NPDir=0 NMtPBC=     1 NCelOv=     1 NCel=       1 NClECP=     1 NCelD=      1
         NCelK=      1 NCelE2=     1 NClLst=     1 CellRange=     0.0.
 One-electron integrals computed using PRISM.
 One-electron integral symmetry used in STVInt
 NBasis=   263 RedAO= T EigKep=  1.53D-03  NBF=   263
 NBsUse=   263 1.00D-06 EigRej= -1.00D+00 NBFU=   263
 Precomputing XC quadrature grid using
 IXCGrd= 4 IRadAn=           5 IRanWt=          -1 IRanGd=           0 AccXCQ= 0.00D+00.
 Generated NRdTot=       0 NPtTot=           0 NUsed=           0 NTot=          32
 NSgBfM=   262   262   262   262   262 MxSgAt=    34 MxSgA2=    34.
 Leave Link  302 at Fri May 24 08:30:11 2019, MaxMem=   402653184 cpu:               5.7 elap:               1.5
 (Enter /n/sw/g16_nehalem/g16/l303.exe)
 DipDrv:  MaxL=1.
 Leave Link  303 at Fri May 24 08:30:11 2019, MaxMem=   402653184 cpu:               0.3 elap:               0.2
 (Enter /n/sw/g16_nehalem/g16/l401.exe)
 ExpMin= 1.61D-01 ExpMax= 5.48D+03 ExpMxC= 8.25D+02 IAcc=3 IRadAn=         5 AccDes= 0.00D+00
 Harris functional with IExCor=  402 and IRadAn=       5 diagonalized for initial guess.
 HarFok:  IExCor=  402 AccDes= 0.00D+00 IRadAn=         5 IDoV= 1 UseB2=F ITyADJ=14
 ICtDFT=  3500011 ScaDFX=  1.000000  1.000000  1.000000  1.000000
 FoFCou: FMM=F IPFlag=           0 FMFlag=      100000 FMFlg1=           0
         NFxFlg=           0 DoJE=T BraDBF=F KetDBF=T FulRan=T
         wScrn=  0.000000 ICntrl=       500 IOpCl=  0 I1Cent=   200000004 NGrid=           0
         NMat0=    1 NMatS0=      1 NMatT0=    0 NMatD0=    1 NMtDS0=    0 NMtDT0=    0
 Petite list used in FoFCou.
 Harris En= -768.262623436634    
 JPrj=0 DoOrth=F DoCkMO=F.
 Leave Link  401 at Fri May 24 08:30:22 2019, MaxMem=   402653184 cpu:              44.8 elap:              11.3
 (Enter /n/sw/g16_nehalem/g16/l502.exe)
 Integral symmetry usage will be decided dynamically.
 Closed shell SCF:
 Using DIIS extrapolation, IDIIS=  1040.
 NGot=   402653184 LenX=   402510103 LenY=   402440493
 Requested convergence on RMS density matrix=1.00D-08 within 128 cycles.
 Requested convergence on MAX density matrix=1.00D-06.
 Requested convergence on             energy=1.00D-06.
 No special actions if energy rises.
 Fock matrices will be formed incrementally for  20 cycles.

 Cycle   1  Pass 1  IDiag  1:
 FoFJK:  IHMeth= 1 ICntrl=       0 DoSepK=F KAlg= 0 I1Cent=           0 FoldK=F
 IRaf= 870000000 NMat=       1 IRICut=       1 DoRegI=T DoRafI=F ISym2E= 0 IDoP0=0 IntGTp=1.
 FoFCou: FMM=F IPFlag=           0 FMFlag=      100000 FMFlg1=           0
         NFxFlg=           0 DoJE=F BraDBF=F KetDBF=F FulRan=T
         wScrn=  0.000000 ICntrl=         0 IOpCl=  0 I1Cent=           0 NGrid=           0
         NMat0=    1 NMatS0=      1 NMatT0=    0 NMatD0=    1 NMtDS0=    0 NMtDT0=    0
 Symmetry not used in FoFCou.
 Inv3:  Mode=1 IEnd=    15994443.
 Iteration    1 A*A^-1 deviation from unit magnitude is 4.11D-15 for   2291.
 Iteration    1 A*A^-1 deviation from orthogonality  is 2.09D-15 for   1713   1159.
 Iteration    1 A^-1*A deviation from unit magnitude is 4.11D-15 for   2291.
 Iteration    1 A^-1*A deviation from orthogonality  is 1.89D-15 for   2309    821.
 E= -768.087366720012    
 DIIS: error= 1.88D-02 at cycle   1 NSaved=   1.
 NSaved= 1 IEnMin= 1 EnMin= -768.087366720012     IErMin= 1 ErrMin= 1.88D-02
 ErrMax= 1.88D-02  0.00D+00 EMaxC= 1.00D-01 BMatC= 2.55D-01 BMatP= 2.55D-01
 IDIUse=3 WtCom= 8.12D-01 WtEn= 1.88D-01
 Coeff-Com:  0.100D+01
 Coeff-En:   0.100D+01
 Coeff:      0.100D+01
 Gap=     0.006 Goal=   None    Shift=    0.000
 GapD=    0.006 DampG=0.250 DampE=0.500 DampFc=0.2500 IDamp=-1.
 Damping current iteration by 2.50D-01
 RMSDP=5.26D-03 MaxDP=1.78D-01              OVMax= 3.60D-01

 Cycle   2  Pass 1  IDiag  1:
 RMSU=  1.31D-03    CP:  9.94D-01
 E= -768.155929252398     Delta-E=       -0.068562532386 Rises=F Damp=T
 DIIS: error= 9.41D-03 at cycle   2 NSaved=   2.
 NSaved= 2 IEnMin= 2 EnMin= -768.155929252398     IErMin= 2 ErrMin= 9.41D-03
 ErrMax= 9.41D-03  0.00D+00 EMaxC= 1.00D-01 BMatC= 6.68D-02 BMatP= 2.55D-01
 IDIUse=3 WtCom= 9.06D-01 WtEn= 9.41D-02
 Coeff-Com: -0.581D+00 0.158D+01
 Coeff-En:   0.000D+00 0.100D+01
 Coeff:     -0.526D+00 0.153D+01
 Gap=     0.102 Goal=   None    Shift=    0.000
 RMSDP=1.54D-03 MaxDP=5.31D-02 DE=-6.86D-02 OVMax= 5.45D-01

 Cycle   3  Pass 1  IDiag  1:
 RMSU=  1.53D-03    CP:  9.85D-01  9.67D-01
 E= -768.276608933808     Delta-E=       -0.120679681411 Rises=F Damp=F
 DIIS: error= 8.71D-03 at cycle   3 NSaved=   3.
 NSaved= 3 IEnMin= 3 EnMin= -768.276608933808     IErMin= 3 ErrMin= 8.71D-03
 ErrMax= 8.71D-03  0.00D+00 EMaxC= 1.00D-01 BMatC= 5.85D-02 BMatP= 6.68D-02
 IDIUse=3 WtCom= 9.13D-01 WtEn= 8.71D-02
 Coeff-Com: -0.490D+00 0.102D+01 0.472D+00
 Coeff-En:   0.000D+00 0.000D+00 0.100D+01
 Coeff:     -0.447D+00 0.929D+00 0.518D+00
 Gap=     0.139 Goal=   None    Shift=    0.000
 RMSDP=9.66D-04 MaxDP=3.40D-02 DE=-1.21D-01 OVMax= 4.72D-02

 Cycle   4  Pass 1  IDiag  1:
 RMSU=  7.17D-04    CP:  9.90D-01  1.23D+00  6.47D-01
 E= -768.326029145334     Delta-E=       -0.049420211526 Rises=F Damp=F
 DIIS: error= 2.30D-03 at cycle   4 NSaved=   4.
 NSaved= 4 IEnMin= 4 EnMin= -768.326029145334     IErMin= 4 ErrMin= 2.30D-03
 ErrMax= 2.30D-03  0.00D+00 EMaxC= 1.00D-01 BMatC= 3.62D-03 BMatP= 5.85D-02
 IDIUse=3 WtCom= 9.77D-01 WtEn= 2.30D-02
 Coeff-Com: -0.232D+00 0.397D+00 0.209D+00 0.625D+00
 Coeff-En:   0.000D+00 0.000D+00 0.000D+00 0.100D+01
 Coeff:     -0.226D+00 0.388D+00 0.205D+00 0.634D+00
 Gap=     0.128 Goal=   None    Shift=    0.000
 RMSDP=2.36D-04 MaxDP=1.48D-02 DE=-4.94D-02 OVMax= 1.14D-02

 Cycle   5  Pass 1  IDiag  1:
 RMSU=  2.17D-04    CP:  9.89D-01  1.26D+00  6.94D-01  9.44D-01
 E= -768.328311795097     Delta-E=       -0.002282649763 Rises=F Damp=F
 DIIS: error= 1.43D-03 at cycle   5 NSaved=   5.
 NSaved= 5 IEnMin= 5 EnMin= -768.328311795097     IErMin= 5 ErrMin= 1.43D-03
 ErrMax= 1.43D-03  0.00D+00 EMaxC= 1.00D-01 BMatC= 1.43D-03 BMatP= 3.62D-03
 IDIUse=3 WtCom= 9.86D-01 WtEn= 1.43D-02
 Coeff-Com: -0.107D+00 0.159D+00 0.386D-01 0.372D+00 0.537D+00
 Coeff-En:   0.000D+00 0.000D+00 0.000D+00 0.176D+00 0.824D+00
 Coeff:     -0.106D+00 0.157D+00 0.380D-01 0.369D+00 0.541D+00
 Gap=     0.128 Goal=   None    Shift=    0.000
 RMSDP=1.19D-04 MaxDP=8.20D-03 DE=-2.28D-03 OVMax= 6.86D-03

 Cycle   6  Pass 1  IDiag  1:
 RMSU=  8.29D-05    CP:  9.89D-01  1.28D+00  6.91D-01  1.02D+00  7.51D-01
 E= -768.329253785636     Delta-E=       -0.000941990539 Rises=F Damp=F
 DIIS: error= 5.49D-04 at cycle   6 NSaved=   6.
 NSaved= 6 IEnMin= 6 EnMin= -768.329253785636     IErMin= 6 ErrMin= 5.49D-04
 ErrMax= 5.49D-04  0.00D+00 EMaxC= 1.00D-01 BMatC= 1.91D-04 BMatP= 1.43D-03
 IDIUse=3 WtCom= 9.95D-01 WtEn= 5.49D-03
 Coeff-Com: -0.411D-01 0.525D-01-0.177D-01 0.134D+00 0.333D+00 0.540D+00
 Coeff-En:   0.000D+00 0.000D+00 0.000D+00 0.000D+00 0.000D+00 0.100D+01
 Coeff:     -0.408D-01 0.522D-01-0.176D-01 0.133D+00 0.331D+00 0.542D+00
 Gap=     0.127 Goal=   None    Shift=    0.000
 RMSDP=4.59D-05 MaxDP=2.44D-03 DE=-9.42D-04 OVMax= 2.48D-03

 Cycle   7  Pass 1  IDiag  1:
 RMSU=  3.16D-05    CP:  9.89D-01  1.29D+00  6.88D-01  1.05D+00  8.30D-01
                    CP:  8.46D-01
 E= -768.329402560673     Delta-E=       -0.000148775038 Rises=F Damp=F
 DIIS: error= 1.53D-04 at cycle   7 NSaved=   7.
 NSaved= 7 IEnMin= 7 EnMin= -768.329402560673     IErMin= 7 ErrMin= 1.53D-04
 ErrMax= 1.53D-04  0.00D+00 EMaxC= 1.00D-01 BMatC= 1.78D-05 BMatP= 1.91D-04
 IDIUse=3 WtCom= 9.98D-01 WtEn= 1.53D-03
 Coeff-Com: -0.877D-02 0.846D-02-0.206D-01 0.138D-01 0.103D+00 0.278D+00
 Coeff-Com:  0.627D+00
 Coeff-En:   0.000D+00 0.000D+00 0.000D+00 0.000D+00 0.000D+00 0.000D+00
 Coeff-En:   0.100D+01
 Coeff:     -0.875D-02 0.844D-02-0.205D-01 0.138D-01 0.103D+00 0.277D+00
 Coeff:      0.627D+00
 Gap=     0.126 Goal=   None    Shift=    0.000
 RMSDP=1.89D-05 MaxDP=7.60D-04 DE=-1.49D-04 OVMax= 1.09D-03

 Cycle   8  Pass 1  IDiag  1:
 RMSU=  9.52D-06    CP:  9.89D-01  1.29D+00  6.87D-01  1.07D+00  8.64D-01
                    CP:  9.15D-01  8.35D-01
 E= -768.329420042751     Delta-E=       -0.000017482078 Rises=F Damp=F
 DIIS: error= 3.75D-05 at cycle   8 NSaved=   8.
 NSaved= 8 IEnMin= 8 EnMin= -768.329420042751     IErMin= 8 ErrMin= 3.75D-05
 ErrMax= 3.75D-05  0.00D+00 EMaxC= 1.00D-01 BMatC= 9.92D-07 BMatP= 1.78D-05
 IDIUse=1 WtCom= 1.00D+00 WtEn= 0.00D+00
 Coeff-Com: -0.334D-03-0.152D-03-0.590D-02-0.902D-02 0.110D-02 0.349D-01
 Coeff-Com:  0.228D+00 0.751D+00
 Coeff:     -0.334D-03-0.152D-03-0.590D-02-0.902D-02 0.110D-02 0.349D-01
 Coeff:      0.228D+00 0.751D+00
 Gap=     0.126 Goal=   None    Shift=    0.000
 RMSDP=6.12D-06 MaxDP=1.84D-04 DE=-1.75D-05 OVMax= 7.03D-04

 Cycle   9  Pass 1  IDiag  1:
 RMSU=  3.36D-06    CP:  9.89D-01  1.29D+00  6.87D-01  1.08D+00  8.72D-01
                    CP:  9.41D-01  9.19D-01  1.02D+00
 E= -768.329420900147     Delta-E=       -0.000000857396 Rises=F Damp=F
 DIIS: error= 1.65D-05 at cycle   9 NSaved=   9.
 NSaved= 9 IEnMin= 9 EnMin= -768.329420900147     IErMin= 9 ErrMin= 1.65D-05
 ErrMax= 1.65D-05  0.00D+00 EMaxC= 1.00D-01 BMatC= 1.90D-07 BMatP= 9.92D-07
 IDIUse=1 WtCom= 1.00D+00 WtEn= 0.00D+00
 Coeff-Com:  0.321D-03-0.426D-03-0.145D-02-0.589D-02-0.839D-02-0.574D-02
 Coeff-Com:  0.701D-01 0.431D+00 0.521D+00
 Coeff:      0.321D-03-0.426D-03-0.145D-02-0.589D-02-0.839D-02-0.574D-02
 Coeff:      0.701D-01 0.431D+00 0.521D+00
 Gap=     0.126 Goal=   None    Shift=    0.000
 RMSDP=1.87D-06 MaxDP=6.91D-05 DE=-8.57D-07 OVMax= 1.97D-04

 Cycle  10  Pass 1  IDiag  1:
 RMSU=  1.12D-06    CP:  9.89D-01  1.29D+00  6.88D-01  1.08D+00  8.73D-01
                    CP:  9.49D-01  9.35D-01  1.08D+00  7.08D-01
 E= -768.329421067272     Delta-E=       -0.000000167125 Rises=F Damp=F
 DIIS: error= 1.87D-06 at cycle  10 NSaved=  10.
 NSaved=10 IEnMin=10 EnMin= -768.329421067272     IErMin=10 ErrMin= 1.87D-06
 ErrMax= 1.87D-06  0.00D+00 EMaxC= 1.00D-01 BMatC= 4.77D-09 BMatP= 1.90D-07
 IDIUse=1 WtCom= 1.00D+00 WtEn= 0.00D+00
 Coeff-Com:  0.228D-03-0.284D-03-0.331D-04-0.122D-02-0.315D-02-0.458D-02
 Coeff-Com: -0.121D-03 0.557D-01 0.139D+00 0.814D+00
 Coeff:      0.228D-03-0.284D-03-0.331D-04-0.122D-02-0.315D-02-0.458D-02
 Coeff:     -0.121D-03 0.557D-01 0.139D+00 0.814D+00
 Gap=     0.126 Goal=   None    Shift=    0.000
 RMSDP=6.77D-07 MaxDP=1.57D-05 DE=-1.67D-07 OVMax= 9.43D-05

 Cycle  11  Pass 1  IDiag  1:
 RMSU=  2.90D-07    CP:  9.89D-01  1.29D+00  6.88D-01  1.08D+00  8.74D-01
                    CP:  9.52D-01  9.43D-01  1.10D+00  7.60D-01  1.03D+00
 E= -768.329421073816     Delta-E=       -0.000000006544 Rises=F Damp=F
 DIIS: error= 9.89D-07 at cycle  11 NSaved=  11.
 NSaved=11 IEnMin=11 EnMin= -768.329421073816     IErMin=11 ErrMin= 9.89D-07
 ErrMax= 9.89D-07  0.00D+00 EMaxC= 1.00D-01 BMatC= 1.24D-09 BMatP= 4.77D-09
 IDIUse=1 WtCom= 1.00D+00 WtEn= 0.00D+00
 Coeff-Com:  0.590D-04-0.681D-04 0.983D-04-0.488D-04-0.822D-03-0.141D-02
 Coeff-Com: -0.565D-02-0.659D-02 0.278D-01 0.429D+00 0.558D+00
 Coeff:      0.590D-04-0.681D-04 0.983D-04-0.488D-04-0.822D-03-0.141D-02
 Coeff:     -0.565D-02-0.659D-02 0.278D-01 0.429D+00 0.558D+00
 Gap=     0.126 Goal=   None    Shift=    0.000
 RMSDP=1.96D-07 MaxDP=5.52D-06 DE=-6.54D-09 OVMax= 2.35D-05

 Cycle  12  Pass 1  IDiag  1:
 RMSU=  1.06D-07    CP:  9.89D-01  1.29D+00  6.88D-01  1.08D+00  8.74D-01
                    CP:  9.52D-01  9.43D-01  1.11D+00  7.77D-01  1.09D+00
                    CP:  7.07D-01
 E= -768.329421075100     Delta-E=       -0.000000001284 Rises=F Damp=F
 DIIS: error= 2.94D-07 at cycle  12 NSaved=  12.
 NSaved=12 IEnMin=12 EnMin= -768.329421075100     IErMin=12 ErrMin= 2.94D-07
 ErrMax= 2.94D-07  0.00D+00 EMaxC= 1.00D-01 BMatC= 7.23D-11 BMatP= 1.24D-09
 IDIUse=1 WtCom= 1.00D+00 WtEn= 0.00D+00
 Coeff-Com:  0.759D-05-0.956D-05 0.366D-04 0.107D-03 0.185D-04 0.112D-03
 Coeff-Com: -0.219D-02-0.922D-02-0.787D-02 0.446D-01 0.207D+00 0.767D+00
 Coeff:      0.759D-05-0.956D-05 0.366D-04 0.107D-03 0.185D-04 0.112D-03
 Coeff:     -0.219D-02-0.922D-02-0.787D-02 0.446D-01 0.207D+00 0.767D+00
 Gap=     0.126 Goal=   None    Shift=    0.000
 RMSDP=6.62D-08 MaxDP=1.27D-06 DE=-1.28D-09 OVMax= 9.42D-06

 Cycle  13  Pass 1  IDiag  1:
 RMSU=  2.53D-08    CP:  9.89D-01  1.29D+00  6.88D-01  1.08D+00  8.74D-01
                    CP:  9.53D-01  9.44D-01  1.11D+00  7.80D-01  1.11D+00
                    CP:  8.00D-01  9.28D-01
 E= -768.329421075157     Delta-E=       -0.000000000057 Rises=F Damp=F
 DIIS: error= 7.16D-08 at cycle  13 NSaved=  13.
 NSaved=13 IEnMin=13 EnMin= -768.329421075157     IErMin=13 ErrMin= 7.16D-08
 ErrMax= 7.16D-08  0.00D+00 EMaxC= 1.00D-01 BMatC= 4.75D-12 BMatP= 7.23D-11
 IDIUse=1 WtCom= 1.00D+00 WtEn= 0.00D+00
 Coeff-Com: -0.138D-05 0.147D-05 0.886D-05 0.502D-04 0.592D-04 0.154D-03
 Coeff-Com: -0.536D-03-0.331D-02-0.484D-02-0.764D-02 0.525D-01 0.309D+00
 Coeff-Com:  0.654D+00
 Coeff:     -0.138D-05 0.147D-05 0.886D-05 0.502D-04 0.592D-04 0.154D-03
 Coeff:     -0.536D-03-0.331D-02-0.484D-02-0.764D-02 0.525D-01 0.309D+00
 Coeff:      0.654D+00
 Gap=     0.126 Goal=   None    Shift=    0.000
 RMSDP=1.30D-08 MaxDP=3.89D-07 DE=-5.71D-11 OVMax= 1.30D-06

 Cycle  14  Pass 1  IDiag  1:
 RMSU=  8.17D-09    CP:  9.89D-01  1.29D+00  6.88D-01  1.08D+00  8.74D-01
                    CP:  9.53D-01  9.44D-01  1.11D+00  7.81D-01  1.11D+00
                    CP:  8.12D-01  9.74D-01  8.92D-01
 E= -768.329421075154     Delta-E=        0.000000000002 Rises=F Damp=F
 DIIS: error= 2.49D-08 at cycle  14 NSaved=  14.
 NSaved=14 IEnMin=13 EnMin= -768.329421075157     IErMin=14 ErrMin= 2.49D-08
 ErrMax= 2.49D-08  0.00D+00 EMaxC= 1.00D-01 BMatC= 5.49D-13 BMatP= 4.75D-12
 IDIUse=1 WtCom= 1.00D+00 WtEn= 0.00D+00
 Coeff-Com: -0.815D-06 0.845D-06-0.148D-05 0.343D-05 0.140D-04 0.411D-04
 Coeff-Com:  0.784D-04-0.484D-04-0.831D-03-0.875D-02-0.611D-02 0.240D-01
 Coeff-Com:  0.273D+00 0.719D+00
 Coeff:     -0.815D-06 0.845D-06-0.148D-05 0.343D-05 0.140D-04 0.411D-04
 Coeff:      0.784D-04-0.484D-04-0.831D-03-0.875D-02-0.611D-02 0.240D-01
 Coeff:      0.273D+00 0.719D+00
 Gap=     0.126 Goal=   None    Shift=    0.000
 RMSDP=3.99D-09 MaxDP=1.15D-07 DE= 2.27D-12 OVMax= 3.40D-07

 Error on total polarization charges =  0.01232
 SCF Done:  E(RB3LYP) =  -768.329421075     A.U. after   14 cycles
            NFock= 14  Conv=0.40D-08     -V/T= 2.0091
 KE= 7.613941074057D+02 PE=-4.081290442135D+03 EE= 1.398503275871D+03
 Leave Link  502 at Fri May 24 08:35:36 2019, MaxMem=   402653184 cpu:            1255.9 elap:             314.1
 (Enter /n/sw/g16_nehalem/g16/l601.exe)
 Copying SCF densities to generalized density rwf, IOpCl= 0 IROHF=0.

 **********************************************************************

            Population analysis using the SCF density.

 **********************************************************************

 Orbital symmetries:
       Occupied  (A) (A) (A) (A) (A) (A) (A) (A) (A) (A) (A) (A)
                 (A) (A) (A) (A) (A) (A) (A) (A) (A) (A) (A) (A)
                 (A) (A) (A) (A) (A) (A) (A) (A) (A) (A) (A) (A)
                 (A) (A) (A) (A) (A) (A) (A) (A) (A) (A) (A) (A)
                 (A) (A) (A) (A) (A) (A) (A) (A) (A) (A) (A)
       Virtual   (A) (A) (A) (A) (A) (A) (A) (A) (A) (A) (A) (A)
                 (A) (A) (A) (A) (A) (A) (A) (A) (A) (A) (A) (A)
                 (A) (A) (A) (A) (A) (A) (A) (A) (A) (A) (A) (A)
                 (A) (A) (A) (A) (A) (A) (A) (A) (A) (A) (A) (A)
                 (A) (A) (A) (A) (A) (A) (A) (A) (A) (A) (A) (A)
                 (A) (A) (A) (A) (A) (A) (A) (A) (A) (A) (A) (A)
                 (A) (A) (A) (A) (A) (A) (A) (A) (A) (A) (A) (A)
                 (A) (A) (A) (A) (A) (A) (A) (A) (A) (A) (A) (A)
                 (A) (A) (A) (A) (A) (A) (A) (A) (A) (A) (A) (A)
                 (A) (A) (A) (A) (A) (A) (A) (A) (A) (A) (A) (A)
                 (A) (A) (A) (A) (A) (A) (A) (A) (A) (A) (A) (A)
                 (A) (A) (A) (A) (A) (A) (A) (A) (A) (A) (A) (A)
                 (A) (A) (A) (A) (A) (A) (A) (A) (A) (A) (A) (A)
                 (A) (A) (A) (A) (A) (A) (A) (A) (A) (A) (A) (A)
                 (A) (A) (A) (A) (A) (A) (A) (A) (A) (A) (A) (A)
                 (A) (A) (A) (A) (A) (A) (A) (A) (A) (A) (A) (A)
                 (A) (A) (A) (A) (A) (A) (A) (A) (A) (A) (A) (A)
 The electronic state is 1-A.
 Alpha  occ. eigenvalues --  -19.33160 -19.21293 -19.19036 -19.18855 -19.18824
 Alpha  occ. eigenvalues --  -10.39594 -10.31788 -10.31658 -10.29352 -10.29203
 Alpha  occ. eigenvalues --  -10.27983 -10.26224 -10.24735 -10.24631 -10.24368
 Alpha  occ. eigenvalues --   -1.21722  -1.09898  -1.07945  -1.06900  -1.05950
 Alpha  occ. eigenvalues --   -0.86986  -0.85866  -0.77081  -0.74963  -0.73561
 Alpha  occ. eigenvalues --   -0.71292  -0.68664  -0.67248  -0.65423  -0.62979
 Alpha  occ. eigenvalues --   -0.60225  -0.59019  -0.55619  -0.54972  -0.53496
 Alpha  occ. eigenvalues --   -0.51903  -0.51619  -0.50654  -0.50148  -0.49053
 Alpha  occ. eigenvalues --   -0.48551  -0.47721  -0.46169  -0.45815  -0.45244
 Alpha  occ. eigenvalues --   -0.44025  -0.43481  -0.41627  -0.41134  -0.40110
 Alpha  occ. eigenvalues --   -0.39796  -0.37420  -0.35663  -0.35455  -0.34661
 Alpha  occ. eigenvalues --   -0.32384  -0.30351  -0.29665  -0.27861
 Alpha virt. eigenvalues --   -0.15234  -0.00507   0.04352   0.05705   0.06713
 Alpha virt. eigenvalues --    0.07245   0.08107   0.08789   0.09975   0.11205
 Alpha virt. eigenvalues --    0.11317   0.11567   0.11792   0.12506   0.13489
 Alpha virt. eigenvalues --    0.13879   0.14242   0.14549   0.15103   0.15379
 Alpha virt. eigenvalues --    0.16147   0.16526   0.16860   0.16959   0.18068
 Alpha virt. eigenvalues --    0.18461   0.19371   0.19627   0.19749   0.23479
 Alpha virt. eigenvalues --    0.23835   0.24983   0.26452   0.27918   0.29081
 Alpha virt. eigenvalues --    0.44491   0.46174   0.47212   0.47417   0.47721
 Alpha virt. eigenvalues --    0.48764   0.49425   0.49993   0.51367   0.52679
 Alpha virt. eigenvalues --    0.52840   0.53700   0.53766   0.54519   0.56115
 Alpha virt. eigenvalues --    0.57785   0.57912   0.59189   0.59885   0.61394
 Alpha virt. eigenvalues --    0.63831   0.64966   0.65626   0.69149   0.72141
 Alpha virt. eigenvalues --    0.72496   0.73608   0.75308   0.76611   0.78172
 Alpha virt. eigenvalues --    0.78924   0.79982   0.80280   0.81714   0.82183
 Alpha virt. eigenvalues --    0.82479   0.82897   0.83785   0.84553   0.85222
 Alpha virt. eigenvalues --    0.85907   0.87191   0.87657   0.88477   0.88823
 Alpha virt. eigenvalues --    0.89760   0.91809   0.93056   0.93320   0.94750
 Alpha virt. eigenvalues --    0.95778   0.96588   0.98796   0.99840   1.01271
 Alpha virt. eigenvalues --    1.03405   1.07402   1.08140   1.11706   1.13325
 Alpha virt. eigenvalues --    1.15479   1.15858   1.16873   1.19189   1.22275
 Alpha virt. eigenvalues --    1.24002   1.25098   1.26184   1.29763   1.32667
 Alpha virt. eigenvalues --    1.34782   1.36462   1.38371   1.40815   1.44409
 Alpha virt. eigenvalues --    1.44688   1.44940   1.46592   1.47051   1.51491
 Alpha virt. eigenvalues --    1.53272   1.56794   1.57272   1.59327   1.62007
 Alpha virt. eigenvalues --    1.64682   1.65023   1.67640   1.68534   1.70499
 Alpha virt. eigenvalues --    1.72463   1.74194   1.76867   1.79226   1.81084
 Alpha virt. eigenvalues --    1.82272   1.84986   1.85397   1.87643   1.89531
 Alpha virt. eigenvalues --    1.90800   1.95628   1.97077   1.98435   2.00327
 Alpha virt. eigenvalues --    2.01277   2.01962   2.02913   2.03951   2.04119
 Alpha virt. eigenvalues --    2.05980   2.07393   2.08550   2.11014   2.11866
 Alpha virt. eigenvalues --    2.12470   2.12677   2.13530   2.14051   2.15711
 Alpha virt. eigenvalues --    2.17000   2.17382   2.19328   2.21975   2.24202
 Alpha virt. eigenvalues --    2.26478   2.27932   2.30924   2.35033   2.35987
 Alpha virt. eigenvalues --    2.36956   2.39345   2.42536   2.42971   2.47053
 Alpha virt. eigenvalues --    2.50007   2.53114   2.56981   2.59761   2.60337
 Alpha virt. eigenvalues --    2.61974   2.66033   2.68324   2.72528   2.74497
 Alpha virt. eigenvalues --    2.78373   2.80079   2.82388   2.87763   2.91404
 Alpha virt. eigenvalues --    2.94163   3.00695   3.03421   3.07358   3.81395
 Alpha virt. eigenvalues --    3.94317   3.96641   3.98418   4.10585   4.15390
 Alpha virt. eigenvalues --    4.21984   4.22917   4.23359   4.24546   4.26185
 Alpha virt. eigenvalues --    4.37701   4.45430   4.53191   4.64519
          Condensed to atoms (all electrons):
               1          2          3          4          5          6
     1  C    4.988229   0.252135  -0.029951  -0.047850   0.304162   0.002365
     2  C    0.252135   5.187521   0.247389   0.000735  -0.044893  -0.037852
     3  C   -0.029951   0.247389   4.841422  -0.037692   0.002290   0.359730
     4  C   -0.047850   0.000735  -0.037692   5.199450   0.276253   0.002899
     5  C    0.304162  -0.044893   0.002290   0.276253   5.008493  -0.000345
     6  H    0.002365  -0.037852   0.359730   0.002899  -0.000345   0.425862
     7  H   -0.025684   0.339186  -0.043887   0.001378  -0.005310   0.001411
     8  H    0.355791  -0.052970  -0.001164  -0.001940  -0.038996  -0.000096
     9  H   -0.004103   0.000789   0.000274   0.366288  -0.039782  -0.000160
    10  H   -0.045849  -0.003405   0.000557  -0.046666   0.354781  -0.000014
    11  O    0.000597  -0.028379   0.388852   0.105743  -0.022096  -0.034350
    12  O   -0.030639   0.183535  -0.029313  -0.000012   0.002480   0.001635
    13  O    0.226649  -0.043415   0.003376   0.002778  -0.039266  -0.000043
    14  O   -0.037663   0.003423  -0.000117  -0.030269   0.198451   0.000002
    15  C    0.002610  -0.000442   0.001101   0.304502  -0.032771  -0.000092
    16  H   -0.000065   0.000008   0.000135  -0.051741   0.005564   0.000016
    17  H    0.000044  -0.000056   0.001662  -0.046393  -0.008045  -0.000015
    18  O    0.000390  -0.000008  -0.000005  -0.054547   0.009961   0.000001
    19  C    0.002475  -0.028276  -0.002445   0.000007  -0.000127   0.001883
    20  H    0.000138  -0.009049  -0.000321   0.000001  -0.000001   0.000052
    21  H   -0.000145   0.004792  -0.000152   0.000000   0.000001  -0.000073
    22  H   -0.000043  -0.003850   0.002896  -0.000003   0.000019   0.000199
    23  C   -0.029272  -0.001923  -0.000030  -0.000170   0.003653   0.000003
    24  H    0.005145  -0.000208   0.000003   0.000001  -0.000164   0.000000
    25  H   -0.005501   0.001700  -0.000131   0.000022  -0.000103   0.000005
    26  H   -0.009514  -0.000463   0.000059  -0.000011   0.000432   0.000000
    27  C   -0.000672  -0.000069   0.000000   0.003604  -0.028016   0.000000
    28  H   -0.000215   0.000059  -0.000003  -0.000621  -0.007782   0.000000
    29  H   -0.000156   0.000003   0.000000  -0.000151   0.005184   0.000000
    30  H    0.000669  -0.000090  -0.000001   0.000143  -0.006188   0.000000
    31  C   -0.000019   0.000000   0.000005  -0.002595  -0.001840   0.000000
    32  H    0.000000   0.000000   0.000000  -0.000137   0.000001   0.000000
    33  H    0.000003   0.000000   0.000001  -0.002064   0.000276   0.000000
    34  H   -0.000024  -0.000001   0.000002   0.005323  -0.001024   0.000000
               7          8          9         10         11         12
     1  C   -0.025684   0.355791  -0.004103  -0.045849   0.000597  -0.030639
     2  C    0.339186  -0.052970   0.000789  -0.003405  -0.028379   0.183535
     3  C   -0.043887  -0.001164   0.000274   0.000557   0.388852  -0.029313
     4  C    0.001378  -0.001940   0.366288  -0.046666   0.105743  -0.000012
     5  C   -0.005310  -0.038996  -0.039782   0.354781  -0.022096   0.002480
     6  H    0.001411  -0.000096  -0.000160  -0.000014  -0.034350   0.001635
     7  H    0.511380   0.005639   0.000005   0.004585   0.000714  -0.027341
     8  H    0.005639   0.573416   0.001880   0.006110   0.000802   0.000006
     9  H    0.000005   0.001880   0.478580   0.005021  -0.025026   0.000003
    10  H    0.004585   0.006110   0.005021   0.566944   0.001287  -0.000057
    11  O    0.000714   0.000802  -0.025026   0.001287   7.945447   0.001424
    12  O   -0.027341   0.000006   0.000003  -0.000057   0.001424   8.236577
    13  O   -0.000332  -0.033643  -0.000057  -0.000131   0.000033   0.002275
    14  O   -0.000013   0.001052   0.004434  -0.030651   0.001079  -0.000009
    15  C    0.000043   0.000020  -0.030663  -0.002121  -0.027189  -0.000001
    16  H   -0.000001   0.000002  -0.005219   0.000232   0.002695   0.000000
    17  H    0.000032   0.000003   0.004149   0.003178   0.000682   0.000001
    18  O   -0.000005  -0.000006  -0.000568   0.000746   0.001038   0.000000
    19  C   -0.005147  -0.000189   0.000000   0.000000   0.000002   0.221168
    20  H    0.010151   0.000048   0.000000   0.000000   0.000006  -0.032987
    21  H   -0.000021   0.000004   0.000000   0.000000   0.000001  -0.029344
    22  H   -0.000909   0.000001   0.000000  -0.000001  -0.000067  -0.034160
    23  C   -0.000410  -0.006648  -0.000001  -0.000238   0.000003  -0.003020
    24  H   -0.000010  -0.000030   0.000000   0.000001   0.000000   0.000083
    25  H    0.000266   0.000418   0.000000   0.000002  -0.000002   0.007800
    26  H    0.000021   0.009237  -0.000001   0.000056   0.000000   0.000136
    27  C   -0.000023  -0.000375  -0.000184  -0.006123  -0.000036   0.000000
    28  H    0.000001   0.000021   0.000099   0.008093  -0.000005   0.000000
    29  H    0.000000   0.000004  -0.000023  -0.000014   0.000000   0.000000
    30  H    0.000007   0.000194   0.000011   0.001297   0.000003   0.000001
    31  C    0.000000  -0.000001   0.002526  -0.000088  -0.000013   0.000000
    32  H    0.000000   0.000000  -0.000059   0.000002   0.000001   0.000000
    33  H    0.000000   0.000000  -0.000025   0.000011   0.000009   0.000000
    34  H    0.000000   0.000003   0.001195   0.000041  -0.000040   0.000000
              13         14         15         16         17         18
     1  C    0.226649  -0.037663   0.002610  -0.000065   0.000044   0.000390
     2  C   -0.043415   0.003423  -0.000442   0.000008  -0.000056  -0.000008
     3  C    0.003376  -0.000117   0.001101   0.000135   0.001662  -0.000005
     4  C    0.002778  -0.030269   0.304502  -0.051741  -0.046393  -0.054547
     5  C   -0.039266   0.198451  -0.032771   0.005564  -0.008045   0.009961
     6  H   -0.000043   0.000002  -0.000092   0.000016  -0.000015   0.000001
     7  H   -0.000332  -0.000013   0.000043  -0.000001   0.000032  -0.000005
     8  H   -0.033643   0.001052   0.000020   0.000002   0.000003  -0.000006
     9  H   -0.000057   0.004434  -0.030663  -0.005219   0.004149  -0.000568
    10  H   -0.000131  -0.030651  -0.002121   0.000232   0.003178   0.000746
    11  O    0.000033   0.001079  -0.027189   0.002695   0.000682   0.001038
    12  O    0.002275  -0.000009  -0.000001   0.000000   0.000001   0.000000
    13  O    8.228041   0.001965  -0.000032   0.000000  -0.000003   0.000000
    14  O    0.001965   8.244518  -0.001874  -0.000204   0.000074  -0.000094
    15  C   -0.000032  -0.001874   4.868773   0.364200   0.382066   0.270085
    16  H    0.000000  -0.000204   0.364200   0.565808  -0.031814  -0.030402
    17  H   -0.000003   0.000074   0.382066  -0.031814   0.539190  -0.034437
    18  O    0.000000  -0.000094   0.270085  -0.030402  -0.034437   8.158278
    19  C   -0.000454   0.000000   0.000000   0.000000   0.000000   0.000000
    20  H    0.000298   0.000000   0.000000   0.000000   0.000000   0.000000
    21  H   -0.000004   0.000000   0.000000   0.000000   0.000000   0.000000
    22  H    0.000011   0.000000   0.000000   0.000000   0.000000   0.000000
    23  C    0.232301  -0.000466   0.000001   0.000000   0.000000   0.000000
    24  H   -0.031379  -0.000008   0.000000   0.000000   0.000000   0.000000
    25  H   -0.033768   0.000011   0.000000   0.000000   0.000000   0.000000
    26  H   -0.034499   0.000355   0.000000   0.000000   0.000000   0.000000
    27  C   -0.003294   0.230959   0.000084  -0.000005   0.000024  -0.002322
    28  H    0.000161  -0.036411   0.000043   0.000052  -0.000051   0.007181
    29  H    0.000077  -0.031788  -0.000002   0.000000   0.000000  -0.000015
    30  H    0.008568  -0.033411  -0.000051   0.000000  -0.000001   0.000075
    31  C    0.000000  -0.001890  -0.046868  -0.008245   0.005835   0.237491
    32  H    0.000000  -0.000050   0.005033  -0.000010  -0.000179  -0.031512
    33  H    0.000000   0.000057  -0.008018   0.012249   0.000091  -0.033755
    34  H    0.000000   0.007842  -0.004654  -0.001462  -0.000346  -0.038185
              19         20         21         22         23         24
     1  C    0.002475   0.000138  -0.000145  -0.000043  -0.029272   0.005145
     2  C   -0.028276  -0.009049   0.004792  -0.003850  -0.001923  -0.000208
     3  C   -0.002445  -0.000321  -0.000152   0.002896  -0.000030   0.000003
     4  C    0.000007   0.000001   0.000000  -0.000003  -0.000170   0.000001
     5  C   -0.000127  -0.000001   0.000001   0.000019   0.003653  -0.000164
     6  H    0.001883   0.000052  -0.000073   0.000199   0.000003   0.000000
     7  H   -0.005147   0.010151  -0.000021  -0.000909  -0.000410  -0.000010
     8  H   -0.000189   0.000048   0.000004   0.000001  -0.006648  -0.000030
     9  H    0.000000   0.000000   0.000000   0.000000  -0.000001   0.000000
    10  H    0.000000   0.000000   0.000000  -0.000001  -0.000238   0.000001
    11  O    0.000002   0.000006   0.000001  -0.000067   0.000003   0.000000
    12  O    0.221168  -0.032987  -0.029344  -0.034160  -0.003020   0.000083
    13  O   -0.000454   0.000298  -0.000004   0.000011   0.232301  -0.031379
    14  O    0.000000   0.000000   0.000000   0.000000  -0.000466  -0.000008
    15  C    0.000000   0.000000   0.000000   0.000000   0.000001   0.000000
    16  H    0.000000   0.000000   0.000000   0.000000   0.000000   0.000000
    17  H    0.000000   0.000000   0.000000   0.000000   0.000000   0.000000
    18  O    0.000000   0.000000   0.000000   0.000000   0.000000   0.000000
    19  C    4.919509   0.371952   0.386091   0.367149   0.000262  -0.000007
    20  H    0.371952   0.546163  -0.026001  -0.041174   0.000054  -0.000001
    21  H    0.386091  -0.026001   0.496736  -0.029377   0.000036  -0.000002
    22  H    0.367149  -0.041174  -0.029377   0.568563  -0.000007   0.000000
    23  C    0.000262   0.000054   0.000036  -0.000007   4.911071   0.383860
    24  H   -0.000007  -0.000001  -0.000002   0.000000   0.383860   0.520449
    25  H    0.000079  -0.000204  -0.000095   0.000048   0.366406  -0.029396
    26  H   -0.000011   0.000000   0.000000   0.000000   0.369336  -0.028519
    27  C    0.000000   0.000000   0.000000   0.000000   0.000286   0.000035
    28  H    0.000000   0.000000   0.000000   0.000000  -0.000011   0.000000
    29  H    0.000000   0.000000   0.000000   0.000000  -0.000005  -0.000002
    30  H    0.000000   0.000000   0.000000   0.000000  -0.000038  -0.000076
    31  C    0.000000   0.000000   0.000000   0.000000   0.000000   0.000000
    32  H    0.000000   0.000000   0.000000   0.000000   0.000000   0.000000
    33  H    0.000000   0.000000   0.000000   0.000000   0.000000   0.000000
    34  H    0.000000   0.000000   0.000000   0.000000   0.000000   0.000000
              25         26         27         28         29         30
     1  C   -0.005501  -0.009514  -0.000672  -0.000215  -0.000156   0.000669
     2  C    0.001700  -0.000463  -0.000069   0.000059   0.000003  -0.000090
     3  C   -0.000131   0.000059   0.000000  -0.000003   0.000000  -0.000001
     4  C    0.000022  -0.000011   0.003604  -0.000621  -0.000151   0.000143
     5  C   -0.000103   0.000432  -0.028016  -0.007782   0.005184  -0.006188
     6  H    0.000005   0.000000   0.000000   0.000000   0.000000   0.000000
     7  H    0.000266   0.000021  -0.000023   0.000001   0.000000   0.000007
     8  H    0.000418   0.009237  -0.000375   0.000021   0.000004   0.000194
     9  H    0.000000  -0.000001  -0.000184   0.000099  -0.000023   0.000011
    10  H    0.000002   0.000056  -0.006123   0.008093  -0.000014   0.001297
    11  O   -0.000002   0.000000  -0.000036  -0.000005   0.000000   0.000003
    12  O    0.007800   0.000136   0.000000   0.000000   0.000000   0.000001
    13  O   -0.033768  -0.034499  -0.003294   0.000161   0.000077   0.008568
    14  O    0.000011   0.000355   0.230959  -0.036411  -0.031788  -0.033411
    15  C    0.000000   0.000000   0.000084   0.000043  -0.000002  -0.000051
    16  H    0.000000   0.000000  -0.000005   0.000052   0.000000   0.000000
    17  H    0.000000   0.000000   0.000024  -0.000051   0.000000  -0.000001
    18  O    0.000000   0.000000  -0.002322   0.007181  -0.000015   0.000075
    19  C    0.000079  -0.000011   0.000000   0.000000   0.000000   0.000000
    20  H   -0.000204   0.000000   0.000000   0.000000   0.000000   0.000000
    21  H   -0.000095   0.000000   0.000000   0.000000   0.000000   0.000000
    22  H    0.000048   0.000000   0.000000   0.000000   0.000000   0.000000
    23  C    0.366406   0.369336   0.000286  -0.000011  -0.000005  -0.000038
    24  H   -0.029396  -0.028519   0.000035   0.000000  -0.000002  -0.000076
    25  H    0.564054  -0.041504  -0.000007   0.000000   0.000000   0.000047
    26  H   -0.041504   0.570084   0.000030   0.000000  -0.000003  -0.000196
    27  C   -0.000007   0.000030   4.917422   0.363787   0.383292   0.366525
    28  H    0.000000   0.000000   0.363787   0.570600  -0.028649  -0.040758
    29  H    0.000000  -0.000003   0.383292  -0.028649   0.525139  -0.029328
    30  H    0.000047  -0.000196   0.366525  -0.040758  -0.029328   0.563507
    31  C    0.000000   0.000000   0.000791  -0.000706   0.000076  -0.000003
    32  H    0.000000   0.000000   0.000106   0.000028   0.000001  -0.000001
    33  H    0.000000   0.000000  -0.000013   0.000063  -0.000001   0.000000
    34  H    0.000000   0.000000  -0.000638  -0.000698  -0.000044   0.000055
              31         32         33         34
     1  C   -0.000019   0.000000   0.000003  -0.000024
     2  C    0.000000   0.000000   0.000000  -0.000001
     3  C    0.000005   0.000000   0.000001   0.000002
     4  C   -0.002595  -0.000137  -0.002064   0.005323
     5  C   -0.001840   0.000001   0.000276  -0.001024
     6  H    0.000000   0.000000   0.000000   0.000000
     7  H    0.000000   0.000000   0.000000   0.000000
     8  H   -0.000001   0.000000   0.000000   0.000003
     9  H    0.002526  -0.000059  -0.000025   0.001195
    10  H   -0.000088   0.000002   0.000011   0.000041
    11  O   -0.000013   0.000001   0.000009  -0.000040
    12  O    0.000000   0.000000   0.000000   0.000000
    13  O    0.000000   0.000000   0.000000   0.000000
    14  O   -0.001890  -0.000050   0.000057   0.007842
    15  C   -0.046868   0.005033  -0.008018  -0.004654
    16  H   -0.008245  -0.000010   0.012249  -0.001462
    17  H    0.005835  -0.000179   0.000091  -0.000346
    18  O    0.237491  -0.031512  -0.033755  -0.038185
    19  C    0.000000   0.000000   0.000000   0.000000
    20  H    0.000000   0.000000   0.000000   0.000000
    21  H    0.000000   0.000000   0.000000   0.000000
    22  H    0.000000   0.000000   0.000000   0.000000
    23  C    0.000000   0.000000   0.000000   0.000000
    24  H    0.000000   0.000000   0.000000   0.000000
    25  H    0.000000   0.000000   0.000000   0.000000
    26  H    0.000000   0.000000   0.000000   0.000000
    27  C    0.000791   0.000106  -0.000013  -0.000638
    28  H   -0.000706   0.000028   0.000063  -0.000698
    29  H    0.000076   0.000001  -0.000001  -0.000044
    30  H   -0.000003  -0.000001   0.000000   0.000055
    31  C    4.925718   0.386941   0.365927   0.362898
    32  H    0.386941   0.517947  -0.027689  -0.032061
    33  H    0.365927  -0.027689   0.575995  -0.042605
    34  H    0.362898  -0.032061  -0.042605   0.580897
 Mulliken charges:
               1
     1  C    0.125960
     2  C    0.034077
     3  C    0.295459
     4  C    0.053735
     5  C    0.104750
     6  H    0.276977
     7  H    0.234275
     8  H    0.181408
     9  H    0.240617
    10  H    0.182413
    11  O   -0.313216
    12  O   -0.470240
    13  O   -0.486212
    14  O   -0.489303
    15  C   -0.043783
    16  H    0.178208
    17  H    0.184310
    18  O   -0.459383
    19  C   -0.233921
    20  H    0.180877
    21  H    0.197553
    22  H    0.170705
    23  C   -0.225032
    24  H    0.180224
    25  H    0.169853
    26  H    0.164975
    27  C   -0.225169
    28  H    0.165723
    29  H    0.176405
    30  H    0.169039
    31  C   -0.225937
    32  H    0.181639
    33  H    0.159488
    34  H    0.163526
 Sum of Mulliken charges =   1.00000
 Mulliken charges with hydrogens summed into heavy atoms:
               1
     1  C    0.307368
     2  C    0.268352
[...]
 0007524,-0.00005005,0.00003055,0.00000999,0.00000819,0.00001485,0.0003
 4763,-0.00005818,-0.00009026,0.00008346,0.00003289,-0.00014310,-0.0000
 0271,-0.00000074,0.00002139,-0.00003075,-0.00000870,0.00001940,-0.0000
 0656,-0.00001487,0.00002122,0.00007660,-0.00005227,0.00012735,-0.00003
 240,0.00003024,-0.00001294,-0.00000121,-0.00000945,-0.00001079,-0.0000
 0041,0.00000367,-0.00002018,-0.08375547,-0.15661133,0.09840957,-0.0061
 3180,-0.00613525,0.00779333,0.10142716,0.17856902,0.00007332,-0.000726
 66,0.00034889,-0.00012137,0.00009046,-0.00000351,0.00016547,0.00009986
 ,-0.00000888,-0.00073991,0.00010480,0.00068390,-0.00170280,-0.00413823
 ,-0.00182510,-0.00002830,0.00002024,-0.00002956,-0.00001441,0.00003200
 ,-0.00001054,0.00007548,0.00001270,0.00000518,-0.00003173,0.00003855,-
 0.00005030,-0.00011915,-0.00027115,0.00039038,-0.00005511,-0.00053401,
 -0.00012508,-0.00013752,-0.00009337,0.00004122,0.00027695,0.00028684,0
 .00008982,-0.01505753,-0.02104538,0.01232497,-0.00013552,-0.00013350,-
 0.00012082,0.00004326,0.00001262,0.00003513,0.00000325,-0.00000840,0.0
 0000128,-0.00007849,0.00029572,0.00011018,0.00001381,0.00000618,-0.000
 06158,-0.00000079,0.00000121,0.00000902,-0.00001190,-0.00000422,0.0000
 1122,-0.00000198,-0.00000407,0.00000628,-0.00006681,0.00010853,-0.0000
 1907,-0.00000946,0.00000550,-0.00000831,0.00002785,-0.00001814,0.00002
 068,-0.00000231,-0.00001160,0.00001161,0.08670219,0.10951248,-0.147996
 09,0.01277026,0.01277332,-0.01071340,-0.08622611,-0.10445338,0.1524816
 8,0.00101306,-0.00005598,-0.00056252,-0.00002059,-0.00018898,0.0000161
 0,0.00014346,-0.00008192,-0.00005222,0.00017781,0.00004440,-0.00005638
 ,0.00146070,-0.00020227,0.00013340,-0.00000741,0.00001164,0.00003430,-
 0.00000108,-0.00000719,-0.00000390,-0.00009950,0.00008852,0.00000499,-
 0.00013666,-0.00013780,0.00006619,0.00000751,0.00013349,-0.00011796,-0
 .00020695,-0.00018715,0.00005733,0.00011254,0.00010366,-0.00003028,-0.
 00127889,0.00006843,-0.00012686,0.01411250,-0.00859957,-0.00782164,-0.
 00017355,-0.00009017,-0.00001295,0.00002635,0.00002972,0.00001691,0.00
 002041,0.00000925,-0.00000219,0.00001722,0.00034611,0.00007432,-0.0000
 4108,-0.00001204,0.00006172,-0.00000047,-0.00000216,-0.00000793,0.0000
 0971,0.00000356,-0.00000658,0.00000471,0.00000764,-0.00000927,-0.00043
 622,0.00020988,-0.00022108,0.00001472,-0.00005149,-0.00003036,0.000065
 83,-0.00005232,0.00004497,-0.00001024,-0.00002103,0.00003840,-0.231712
 83,0.09667652,0.08648780,-0.01313041,0.00649002,0.00802123,-0.01090648
 ,0.00695230,0.00427915,0.24091722,0.00038176,-0.00140456,-0.00042610,-
 0.00002856,0.00040323,0.00000190,0.00060156,-0.00016098,-0.00023235,0.
 00020912,0.00041319,0.00037062,0.00364288,0.00300362,-0.00242202,-0.00
 005678,0.00001801,0.00007570,-0.00003235,-0.00005417,0.00001107,0.0000
 3192,0.00011770,0.00011986,-0.00026228,0.00008368,0.00018503,-0.000168
 59,-0.00047364,0.00066324,-0.00078395,-0.00076705,0.00010662,-0.000155
 93,0.00001717,0.00002446,0.00060129,0.00097526,0.00064314,0.01155471,-
 0.02319983,-0.02128170,0.00008479,0.00023006,-0.00007727,0.00002187,-0
 .00004824,-0.00001020,0.00000765,-0.00002341,0.00002531,0.00017762,-0.
 00030251,-0.00003851,0.00001455,-0.00002106,-0.00003799,-0.00000464,-0
 .00000108,0.00000748,-0.00000664,-0.00000231,0.00000559,-0.00000423,0.
 00000024,0.00000487,-0.00038526,0.00062813,-0.00024191,0.00000170,-0.0
 0003599,-0.00000943,0.00016849,-0.00010830,0.00010496,0.00003159,-0.00
 006758,0.00007908,0.09128898,-0.10011646,-0.03739658,0.01186869,-0.003
 38135,-0.00423000,-0.01703062,0.01245008,0.00803162,-0.10147795,0.1117
 6910,0.00013135,-0.00125694,-0.00007068,-0.00006318,0.00033350,-0.0000
 5823,0.00042283,0.00000355,-0.00012827,0.00001040,0.00025023,0.0000673
 5,0.00146493,0.00300616,-0.00117119,-0.00004318,0.00001635,0.00003000,
 -0.00001237,-0.00000274,-0.00000568,0.00002711,0.00002305,0.00002154,-
 0.00013664,0.00013981,0.00012507,-0.00044862,-0.00005137,0.00038723,-0
 .00046605,-0.00068283,0.00008828,-0.00027032,-0.00007465,0.00004186,0.
 00067846,0.00104877,0.00027008,0.01179062,-0.02161002,-0.01449418,-0.0
 0037512,-0.00000557,-0.00017456,0.00009699,0.00000106,0.00004385,0.000
 03230,-0.00000173,0.00002976,0.00015694,0.00043032,0.00018188,0.000039
 68,0.00000717,-0.00007549,-0.00000167,-0.00000285,0.00001267,-0.000019
 34,-0.00000645,0.00001050,-0.00000518,-0.00000747,0.00001157,-0.000340
 51,0.00010307,-0.00008491,-0.00003903,0.00000244,0.00000997,0.00006029
 ,-0.00002178,0.00002063,-0.00004498,-0.00003509,-0.00003574,0.08090597
 ,-0.03991149,-0.09144083,-0.01877570,0.01056781,0.01181899,0.01545005,
 -0.00800013,-0.00555772,-0.09021699,0.05575090,0.10016879,-0.00057961,
 0.00046858,-0.00008538,-0.00049591,-0.00046883,0.00000026,-0.00121149,
 0.00105183,0.00033662,-0.00241124,-0.00036585,0.00020896,-0.00096506,0
 .00072096,0.00041618,0.00019349,0.00001307,-0.00038175,0.00009632,-0.0
 0003223,0.00007150,0.00007204,-0.00003640,0.00004102,-0.00045263,0.000
 14472,-0.00008015,-0.00023954,0.00013284,0.00010069,0.00369178,-0.0004
 8715,0.00116225,0.00069902,-0.00000440,-0.00008260,0.00066081,-0.00072
 898,0.00000249,0.00019011,-0.00102535,0.00031152,-0.03676031,-0.013738
 53,0.01971424,0.00495306,0.00374072,0.00065101,0.00010930,0.00014694,-
 0.00166307,-0.12668573,-0.03033667,0.05367863,-0.00028136,-0.00007995,
 0.00023723,0.00002739,0.00000815,-0.00003784,0.00006080,0.00000755,-0.
 00002295,0.00001377,0.00002343,-0.00004357,-0.00025382,0.00031562,-0.0
 0032808,0.00005025,-0.00006920,0.00001795,0.00005522,-0.00002177,0.000
 05746,0.00000766,-0.00002784,0.00006679,-0.00022867,0.00129792,0.00012
 592,0.00001968,0.00055355,0.00037112,0.00001355,-0.00021015,0.00013535
 ,0.00008540,-0.00020594,0.00002465,0.53759510,-0.00007371,0.00005552,0
 .00016985,-0.00002386,-0.00009711,0.00004196,-0.00014034,0.00007973,0.
 00014984,-0.00006637,0.00145488,-0.00198410,0.00059744,0.00012786,-0.0
 0062400,0.00002685,0.00005965,-0.00012802,-0.00002078,0.00001981,-0.00
 000758,0.00008670,-0.00001286,0.00002635,0.00008058,0.00013827,0.00021
 937,-0.00020798,0.00013321,0.00034528,0.00142078,0.00021754,0.00075301
 ,-0.00000565,-0.00000419,0.00001270,-0.00001107,-0.00005207,0.00000559
 ,-0.00010973,-0.00014839,0.00033169,-0.02419412,-0.01546881,0.02072049
 ,-0.00244632,0.00172404,0.00351228,-0.00411218,-0.00273464,-0.00142162
 ,-0.01155374,-0.07588855,-0.00618399,0.00000714,0.00001334,-0.00001242
 ,-0.00000175,-0.00000043,0.00000125,-0.00000077,0.,0.00000214,0.000001
 21,-0.00000496,0.00000018,0.00000286,0.00002306,-0.00002505,0.00000251
 ,-0.00000188,0.00000053,-0.00000094,-0.00000362,0.00000342,0.00000173,
 -0.00000225,0.00000868,0.00002563,-0.00032135,-0.00007978,0.00019668,0
 .00024399,-0.00008957,0.00004940,-0.00008002,0.00002950,-0.00004557,0.
 00007496,0.00001907,0.00330323,0.59940124,0.00034838,-0.00040036,0.000
 10443,0.00048978,0.00049552,0.00000562,0.00171743,-0.00097263,-0.00087
 733,0.00063474,-0.00302408,0.00470173,-0.00017406,-0.00156626,0.000110
 00,-0.00019806,-0.00007345,0.00046651,-0.00003562,-0.00002327,-0.00003
 612,-0.00009782,0.00003480,-0.00005933,-0.00017430,-0.00062795,-0.0007
 8014,0.00036683,-0.00014907,-0.00030837,-0.00521899,0.00006428,-0.0017
 6445,-0.00049833,0.00006496,0.00002313,-0.00043199,0.00063760,-0.00001
 947,0.00135884,0.00087758,-0.00116913,-0.00080500,0.00334605,0.0045047
 4,-0.00415380,-0.00282412,-0.00003929,-0.00260904,-0.00220593,0.001305
 67,0.08080501,0.01835811,-0.16082979,0.00021081,0.00003847,-0.00014612
 ,-0.00002204,-0.00000703,0.00002291,-0.00004292,-0.00000379,0.00001209
 ,-0.00001294,-0.00000974,0.00003163,0.00015009,-0.00023131,0.00026040,
 -0.00003492,0.00004836,-0.00001774,-0.00003227,0.00001857,-0.00004142,
 -0.00000709,0.00002502,-0.00005862,0.00016417,0.00002303,0.00075647,-0
 .00005938,-0.00045261,-0.00038665,-0.00006426,0.00025751,-0.00009406,-
 0.00005087,0.00008590,-0.00016962,0.07905064,0.02949767,0.52465999,0.0
 0007781,-0.00009586,0.00002487,0.00011385,0.00007808,0.00000488,0.0003
 0858,-0.00018765,-0.00014606,0.00042328,-0.00031508,0.00031512,0.00001
 816,-0.00026759,-0.00003928,-0.00002449,-0.00000251,0.00007867,-0.0000
 2053,0.00000535,-0.00001238,-0.00000641,0.00000751,-0.00000836,0.00005
 665,0.00004077,0.00001189,0.00002581,-0.00003705,-0.00000564,-0.000655
 72,0.00009365,-0.00022155,-0.00013242,0.00001577,0.00001719,-0.0001058
 9,0.00015472,0.00001202,-0.00003602,0.00037790,0.00012878,-0.00104598,
 0.00188130,0.00352990,0.00004826,-0.00022360,-0.00012088,-0.00088601,-
 0.00071748,-0.00024757,-0.02339274,-0.01758641,-0.00221838,0.00005638,
 0.00001446,-0.00004538,-0.00000661,-0.00000157,0.00000783,-0.00001139,
 -0.00000125,0.00000440,-0.00000284,-0.00000367,0.00000784,0.00003785,-
 0.00005016,0.00005390,-0.00001017,0.00001299,-0.00000300,-0.00000627,0
 .00000411,-0.00000928,-0.00000211,0.00000424,-0.00001248,-0.00015098,-
 0.00019892,-0.00026306,-0.00001048,-0.00005275,0.00012056,-0.00000805,
 0.00005515,-0.00001804,0.00004165,0.00002992,0.00006629,-0.18320538,-0
 .10355668,-0.08458742,0.20486730,0.00003561,-0.00002409,0.00000410,0.0
 0001661,0.00004218,0.00000107,0.00019327,-0.00003363,-0.00004647,0.000
 10817,-0.00008831,0.00034940,-0.00008455,-0.00002050,-0.00003077,-0.00
 001438,-0.00000623,0.00001666,0.00000162,-0.00000560,-0.00000341,-0.00
 000654,0.00000153,-0.00000257,-0.00011366,-0.00005936,-0.00013200,0.00
 002697,-0.00001707,-0.00002199,-0.00037359,-0.00004668,-0.00011075,-0.
 00003169,-0.00000045,0.00000261,-0.00004043,0.00003839,0.00000258,0.00
 008215,-0.00005526,-0.00009556,-0.00024440,0.00100448,0.00146164,0.000
 11535,0.00046411,0.00011700,-0.00060608,-0.00003568,0.00000620,-0.0069
 0355,-0.00431050,0.00011385,0.00001322,0.00000149,-0.00001132,-0.00000
 057,0.00000001,0.00000174,-0.00000249,-0.00000050,0.00000067,-0.000001
 17,-0.00000120,0.00000224,0.00001240,-0.00001787,0.00001724,-0.0000022
 4,0.00000378,-0.00000110,-0.00000361,0.00000154,-0.00000353,-0.0000005
 2,0.00000155,-0.00000300,0.00005889,0.00001047,0.00005316,0.00002310,-
 0.00003070,-0.00006534,0.00001398,-0.00000882,0.00000581,-0.00001505,-
 0.00001525,-0.00002327,-0.10666160,-0.13760879,-0.06702294,0.12138418,
 0.14264793,0.00002113,0.00003092,-0.00001089,-0.00004332,-0.00003991,0
 .00000400,-0.00011025,0.00006902,0.00007803,-0.00005484,0.00062347,-0.
 00081035,0.00011712,0.00014963,0.00002579,0.00000353,0.00001925,-0.000
 07232,0.00000208,0.00000459,0.00000141,0.00000491,-0.00000403,0.000005
 92,0.00023871,-0.00002978,0.00025598,-0.00005037,0.00003842,0.00001697
 ,0.00042996,-0.00005205,0.00041147,0.00002191,-0.00001191,0.00000270,0
 .00000227,-0.00002982,-0.00000252,-0.00030422,0.00012041,0.00011756,0.
 00439749,0.00064737,-0.00287803,-0.00011659,0.00018484,-0.00003453,0.0
 0095427,0.00074230,0.00022192,0.02632624,0.01959187,0.00900443,-0.0000
 1123,-0.00000036,0.00000386,0.00000213,0.00000039,-0.00000033,0.000001
 83,-0.00000032,-0.00000034,0.00000086,-0.00000042,-0.00000133,-0.00000
 006,0.00000469,-0.00000667,0.00000035,-0.00000130,0.00000141,-0.000000
 30,-0.00000038,0.00000036,0.00000033,-0.00000182,0.00000140,-0.0000533
 9,-0.00014698,-0.00008197,0.00001472,-0.00000759,0.00005829,-0.0000100
 7,0.00002141,-0.00001622,0.00002322,0.00003448,0.00003637,-0.09474229,
 -0.07425025,-0.10690436,0.08588654,0.07056517,0.11209588,0.00005995,-0
 .00009821,-0.00006341,0.00007457,0.00004195,-0.00002781,0.00000053,-0.
 00011979,-0.00003052,-0.00010450,-0.00034063,-0.00001679,0.00025121,0.
 00000989,0.00009755,-0.00001231,-0.00000846,0.00007755,-0.00000925,0.0
 0000909,-0.00000650,-0.00002662,0.00001062,-0.00001094,-0.00003932,0.0
 0009636,-0.00000459,0.00007130,-0.00006483,-0.00006930,-0.00034871,0.0
 0010056,-0.00029007,-0.00010103,-0.00000995,0.00001482,-0.00006408,0.0
 0007221,-0.00000080,-0.00033376,0.00018594,0.00014246,0.00307495,0.006
 06473,0.00206088,0.00016592,-0.00122625,-0.00091022,0.00018754,-0.0002
 6297,-0.00013593,-0.01950985,0.01368088,0.01912310,0.00003613,0.000015
 22,-0.00003252,-0.00000442,-0.00000160,0.00000523,-0.00000911,-0.00000
 090,0.00000411,-0.00000131,-0.00000347,0.00000594,0.00003897,-0.000040
 24,0.00003970,-0.00000578,0.00000859,-0.00000161,-0.00000702,0.0000018
 2,-0.00000677,-0.00000098,0.00000373,-0.00000812,0.00003101,-0.0002167
 1,-0.00009909,-0.00000683,-0.00013213,-0.00002977,-0.00001321,0.000029
 77,-0.00002781,-0.00000279,0.00004311,0.00002080,-0.08783691,0.0809316
 6,0.02525994,0.01196302,-0.01979955,-0.00700871,0.09601578,-0.00008249
 ,0.00004369,-0.00005423,-0.00003872,-0.00003124,-0.00000056,-0.0001302
 2,0.00004467,0.00003429,0.00005838,-0.00044998,-0.00008910,-0.00030899
 ,-0.00010961,0.00022408,0.00001588,-0.00000709,-0.00001238,0.00000723,
 -0.00000824,0.00000786,-0.00000544,-0.00000222,-0.00000020,0.00003319,
 -0.00008968,-0.00004614,-0.00004068,0.00001292,-0.00007058,0.00017455,
 -0.00001415,-0.00001601,0.00009082,0.00001610,-0.00001480,0.00010264,-
 0.00006344,0.00000661,0.00048343,-0.00014997,-0.00015727,-0.00186237,0
 .00387372,0.00183379,0.00185645,0.00025425,-0.00048923,0.00015449,0.00
 041140,0.00012201,-0.00363913,0.01053761,0.00108062,-0.00003348,-0.000
 01406,0.00003295,0.00000278,0.00000109,-0.00000482,0.00000819,0.000001
 09,-0.00000372,0.00000134,0.00000457,-0.00000580,-0.00003995,0.0000418
 7,-0.00004111,0.00000540,-0.00000857,0.00000248,0.00001053,-0.00000229
 ,0.00000767,-0.00000014,-0.00000337,0.00000649,-0.00003328,0.00020338,
 0.00003914,-0.00002073,0.00000905,0.00008026,-0.00002274,0.00002146,-0
 .00000651,0.00005361,-0.00003499,0.00000234,0.08411529,-0.24965313,-0.
 06927311,0.00706634,-0.01334858,-0.00375031,-0.09267526,0.26128909,-0.
 00010281,0.00006251,0.00005535,-0.00008795,-0.00007112,0.00000134,-0.0
 0021391,0.00014064,0.00010722,-0.00010436,0.00034795,-0.00039005,0.000
 08716,0.00036788,-0.00027186,0.00002178,0.00000871,-0.00006809,0.00000
 842,-0.00000008,0.00000678,0.00003471,-0.00000710,0.00001022,0.0000087
 7,0.00007386,0.00003435,-0.00008852,0.00002223,0.00011629,0.00060779,-
 0.00006838,0.00024446,0.00008511,-0.00001126,-0.00000857,0.00006535,-0
 .00010898,-0.00000430,-0.00050909,0.00000787,0.00025942,-0.00408103,-0
 .00323436,0.00001082,0.00022125,0.00100927,0.00071088,-0.00022154,0.00
 018860,0.00003095,0.02329697,-0.01886213,-0.01848778,-0.00003799,-0.00
 000960,0.00002712,0.00000397,0.00000108,-0.00000460,0.00000711,0.00000
 084,-0.00000206,0.00000210,0.00000266,-0.00000529,-0.00002643,0.000037
 49,-0.00003993,0.00000580,-0.00000835,0.00000222,0.00000486,-0.0000025
 7,0.00000721,0.00000228,-0.00000353,0.00000935,-0.00005978,-0.00008080
 ,-0.00016735,0.00003967,0.00014737,0.00004884,0.00002748,-0.00005859,0
 .00003477,-0.00000435,-0.00000940,0.00002521,0.02675667,-0.06454264,-0
 .07495590,0.00517220,-0.01234965,-0.00305083,-0.04171281,0.07624710,0.
 08505475,0.00001683,0.00007873,-0.00008790,0.00004600,-0.00004346,0.00
 002074,-0.00016073,0.00000561,0.00012253,-0.00168857,-0.00011040,-0.00
 101161,-0.00028879,-0.00063841,0.00012762,0.00004908,0.00000831,0.0000
 0336,-0.00002201,0.00000837,-0.00000505,-0.00000289,0.00000130,0.00000
 018,-0.00083456,-0.00036406,0.00006943,0.00010412,0.00004046,-0.000007
 11,0.00098568,0.00059592,-0.00002526,0.00002144,0.00004686,-0.00000527
 ,0.00002267,-0.00000049,0.00003531,-0.00007653,0.00001884,-0.00025831,
 0.00445729,0.00077663,0.00233614,-0.00055971,-0.00021976,-0.00007482,-
 0.00050733,-0.00022665,-0.00024529,0.00714628,-0.01660181,0.02818400,0
 .00000320,0.00000267,0.00001204,-0.00000271,-0.00000133,-0.00000100,0.
 00000206,0.00000149,-0.00000160,0.00000091,0.00000160,-0.00000178,-0.0
 0002687,0.00002242,-0.00002136,0.00000395,-0.00000438,0.00000083,0.000
 00753,-0.00000018,0.00000420,0.00000050,-0.00000136,0.00000241,0.00032
 547,0.00047438,0.00022762,-0.00002818,-0.00005146,-0.00008398,-0.00002
 029,-0.00006618,0.00002070,-0.00006563,-0.00015848,-0.00012078,-0.1069
 8711,0.05983717,-0.09124555,-0.00831809,0.01282015,-0.01594399,-0.0035
 3310,0.00469309,-0.00920891,0.10993009,-0.00005156,-0.00003909,0.00001
 316,-0.00003675,0.00004318,-0.00000872,-0.00002651,0.00010135,0.000059
 99,-0.00026839,-0.00008075,0.00042449,0.00002472,0.00028449,0.00000734
 ,0.00001638,-0.00001834,0.00000105,0.00001687,-0.00001320,0.00000699,-
 0.00001241,0.00000452,-0.00000088,-0.00069590,0.00004307,-0.00029843,0
 .00002953,-0.00009413,-0.00004548,0.00013381,-0.00004265,-0.00031393,0
 .00002686,-0.00002047,-0.00001001,0.00003454,-0.00004955,-0.00001797,0
 .00032617,-0.00044115,-0.00025678,0.00169652,0.00072728,0.00130157,0.0
 0020247,-0.00029602,-0.00008720,-0.00032571,-0.00005255,-0.00009407,-0
 .00447070,-0.00023041,0.00753268,-0.00001758,-0.00000833,0.00001348,0.
 00000321,0.00000021,-0.00000291,0.00000249,0.00000012,-0.00000155,-0.0
 0000023,0.00000160,-0.00000073,0.00000048,0.00000446,-0.00000541,0.000
 00227,-0.00000270,0.,-0.00000130,-0.00000160,0.00000171,0.00000060,-0.
 00000018,0.00000269,0.00007479,-0.00011721,0.00000611,0.00000813,-0.00
 003388,-0.00007222,0.00002985,0.00000349,-0.00001933,-0.00000011,0.000
 03432,-0.00001123,0.05845642,-0.12168406,0.09499419,-0.00792822,0.0115
 1760,-0.01452101,0.01369485,-0.01277539,0.02076251,-0.06094561,0.12323
 597,-0.00003144,0.00003361,0.00004439,-0.00010051,-0.00010082,-0.00000
 558,-0.00023166,0.00024126,0.00006913,0.00016862,0.00070694,-0.0002574
 3,0.00058912,0.00080547,-0.00030302,0.00002185,0.00003342,-0.00012911,
 0.00001001,0.00001667,0.00000213,0.00002254,-0.00000763,0.00001002,0.0
 0005807,-0.00005593,0.00044003,-0.00008394,-0.00002551,0.00013553,0.00
 083049,-0.00024994,0.00056088,0.00001157,-0.00005682,0.00001633,-0.000
 00784,-0.00010488,-0.00002241,-0.00154923,0.00013191,0.00066694,-0.003
 73308,-0.00299945,-0.00134494,0.00044038,0.00041889,0.00025595,0.00070
 434,0.00034005,0.00011143,0.00557239,0.01571999,-0.02767689,-0.0000186
 8,0.00000668,-0.00000767,0.00000302,0.00000122,0.00000062,0.00000038,-
 0.00000116,0.00000303,0.00000159,-0.00000365,-0.00000107,0.00002124,0.
 00000353,-0.00000898,0.00000080,-0.00000003,0.00000095,-0.00000569,-0.
 00000257,0.00000036,0.00000208,-0.00000143,0.00000630,-0.00009242,-0.0
 0059794,-0.00043244,0.00008599,0.00008261,-0.00004078,0.00006682,-0.00
 006494,0.00003403,-0.00002570,0.00008162,0.00006547,-0.08607150,0.0934
 9819,-0.18830742,-0.00748411,0.00720254,-0.00847305,0.00364202,-0.0056
 9179,0.01065904,0.08718247,-0.10936013,0.21392823\\-0.00000278,0.00000
 496,-0.00000299,-0.00000452,-0.00000225,-0.00000362,-0.00000419,0.0000
 0345,0.00001431,-0.00000508,-0.00000336,0.00000425,0.00000096,0.000008
 49,-0.00000231,-0.00000668,0.00000091,0.00001015,-0.00000228,0.0000072
 5,0.00000344,0.00000226,-0.00000412,-0.00000372,0.00000073,-0.00001064
 ,0.00000670,0.00000067,0.00000445,0.00000004,-0.00000023,-0.00000401,0
 .00001251,-0.00000344,0.00000365,0.00000268,0.00000779,0.00000522,-0.0
 0001458,0.00000516,-0.00001372,-0.00000227,0.00000103,0.00000224,0.000
 01473,-0.00000484,-0.00000645,0.00001701,-0.00000610,0.00000372,0.0000
 1261,-0.00000298,-0.00000627,0.00000672,0.00000034,0.00001325,0.000000
 72,-0.00000368,0.00001504,-0.00000313,-0.00000236,0.00000989,-0.000002
 76,-0.00000520,0.00001215,0.00000517,0.00000455,-0.00000082,-0.0000138
 6,0.00000464,0.00000498,-0.00002000,0.00000441,0.00000243,-0.00001565,
 0.00000856,-0.00000275,-0.00001711,0.00000211,-0.00000070,-0.00000897,
 0.00000184,-0.00000054,-0.00000730,0.00000425,-0.00000558,-0.00001346,
 0.00000491,0.00000125,-0.00001327,0.00000041,-0.00000948,0.00000940,-0
 .00000042,-0.00000802,0.00000581,-0.00000149,-0.00001194,0.00001397,0.
 00000166,-0.00001268,0.00000476\\\@


 Once you get people laughing, they're
 listening and you can tell them almost anything.
                                 -- Herb Gardner
 Job cpu time:       0 days  2 hours 59 minutes 21.1 seconds.
 Elapsed time:       0 days  0 hours 44 minutes 51.1 seconds.
 File lengths (MBytes):  RWF=    378 Int=      0 D2E=      0 Chk=     17 Scr=      1
 Normal termination of Gaussian 16 at Fri May 24 09:21:25 2019.
