 Entering Gaussian System, Link 0=g16
 Input=clay-glucose_cation-179-b3lyp_d3bj-631gd-pcm_thf.gjf
 Output=clay-glucose_cation-179-b3lyp_d3bj-631gd-pcm_thf.out
 Initial command:
 /n/sw/g16_nehalem/g16/l1.exe "/scratch/Gau-188411.inp" -scrdir="/scratch/"
 Entering Link 1 = /n/sw/g16_nehalem/g16/l1.exe PID=    188414.
  
 Copyright (c) 1988,1990,1992,1993,1995,1998,2003,2009,2016,
            Gaussian, Inc.  All Rights Reserved.
  
 This is part of the Gaussian(R) 16 program.  It is based on
 the Gaussian(R) 09 system (copyright 2009, Gaussian, Inc.),
 the Gaussian(R) 03 system (copyright 2003, Gaussian, Inc.),
 the Gaussian(R) 98 system (copyright 1998, Gaussian, Inc.),
 the Gaussian(R) 94 system (copyright 1995, Gaussian, Inc.),
 the Gaussian 92(TM) system (copyright 1992, Gaussian, Inc.),
 the Gaussian 90(TM) system (copyright 1990, Gaussian, Inc.),
 the Gaussian 88(TM) system (copyright 1988, Gaussian, Inc.),
 the Gaussian 86(TM) system (copyright 1986, Carnegie Mellon
 University), and the Gaussian 82(TM) system (copyright 1983,
 Carnegie Mellon University). Gaussian is a federally registered
 trademark of Gaussian, Inc.
  
 This software contains proprietary and confidential information,
 including trade secrets, belonging to Gaussian, Inc.
  
 This software is provided under written license and may be
 used, copied, transmitted, or stored only in accord with that
 written license.
  
 The following legend is applicable only to US Government
 contracts under FAR:
  
                    RESTRICTED RIGHTS LEGEND
  
 Use, reproduction and disclosure by the US Government is
 subject to restrictions as set forth in subparagraphs (a)
 and (c) of the Commercial Computer Software - Restricted
 Rights clause in FAR 52.227-19.
  
 Gaussian, Inc.
 340 Quinnipiac St., Bldg. 40, Wallingford CT 06492
  
  
 ---------------------------------------------------------------
 Warning -- This program may not be used in any manner that
 competes with the business of Gaussian, Inc. or will provide
 assistance to any competitor of Gaussian, Inc.  The licensee
 of this program is prohibited from giving any competitor of
 Gaussian, Inc. access to this program.  By using this program,
 the user acknowledges that Gaussian, Inc. is engaged in the
 business of creating and licensing software in the field of
 computational chemistry and represents and warrants to the
 licensee that it is not a competitor of Gaussian, Inc. and that
 it will not use this program in any manner prohibited above.
 ---------------------------------------------------------------
  

 Cite this work as:
 Gaussian 16, Revision A.03,
 M. J. Frisch, G. W. Trucks, H. B. Schlegel, G. E. Scuseria, 
 M. A. Robb, J. R. Cheeseman, G. Scalmani, V. Barone, 
 G. A. Petersson, H. Nakatsuji, X. Li, M. Caricato, A. V. Marenich, 
 J. Bloino, B. G. Janesko, R. Gomperts, B. Mennucci, H. P. Hratchian, 
 J. V. Ortiz, A. F. Izmaylov, J. L. Sonnenberg, D. Williams-Young, 
 F. Ding, F. Lipparini, F. Egidi, J. Goings, B. Peng, A. Petrone, 
 T. Henderson, D. Ranasinghe, V. G. Zakrzewski, J. Gao, N. Rega, 
 G. Zheng, W. Liang, M. Hada, M. Ehara, K. Toyota, R. Fukuda, 
 J. Hasegawa, M. Ishida, T. Nakajima, Y. Honda, O. Kitao, H. Nakai, 
 T. Vreven, K. Throssell, J. A. Montgomery, Jr., J. E. Peralta, 
 F. Ogliaro, M. J. Bearpark, J. J. Heyd, E. N. Brothers, K. N. Kudin, 
 V. N. Staroverov, T. A. Keith, R. Kobayashi, J. Normand, 
 K. Raghavachari, A. P. Rendell, J. C. Burant, S. S. Iyengar, 
 J. Tomasi, M. Cossi, J. M. Millam, M. Klene, C. Adamo, R. Cammi, 
 J. W. Ochterski, R. L. Martin, K. Morokuma, O. Farkas, 
 J. B. Foresman, and D. J. Fox, Gaussian, Inc., Wallingford CT, 2016.
 
 ******************************************
 Gaussian 16:  ES64L-G16RevA.03 25-Dec-2016
                24-May-2019 
 ******************************************
 %nprocshared=4
 Will use up to    4 processors via shared memory.
 %mem=3GB
 -------------------------------------------------------------------
 #p b3lyp 6-31g* opt freq=noraman scrf=(pcm,solvent=tetrahydrofuran)
 -------------------------------------------------------------------
 1/18=20,19=15,26=3,38=1/1,3;
 2/9=110,12=2,17=6,18=5,40=1/2;
 3/5=1,6=6,7=1,11=2,25=1,30=1,70=2201,71=1,72=20,74=-5/1,2,3;
 4//1;
 5/5=2,38=5,53=20/2;
 6/7=2,8=2,9=2,10=2,28=1/1;
 7//1,2,3,16;
 1/18=20,19=15,26=3/3(2);
 2/9=110/2;
 99//99;
 2/9=110/2;
 3/5=1,6=6,7=1,11=2,25=1,30=1,70=2205,71=1,72=20,74=-5/1,2,3;
 4/5=5,16=3,69=1/1;
 5/5=2,38=5,53=20/2;
 7//1,2,3,16;
 1/18=20,19=15,26=3/3(-5);
 2/9=110/2;
 6/7=2,8=2,9=2,10=2,19=2,28=1/1;
 99/9=1/99;
 Leave Link    1 at Fri May 24 08:32:13 2019, MaxMem=   402653184 cpu:               0.3 elap:               0.1
 (Enter /n/sw/g16_nehalem/g16/l101.exe)
 -----
 title
 -----
 Symbolic Z-matrix:
 Charge =  1 Multiplicity = 1
 6                     0.99971   0.94256  -0.38311 
 6                     1.91466  -0.27906  -0.58348 
 6                     1.02267  -1.30856  -1.24149 
 6                    -0.55896  -0.91262   0.52786 
 6                    -0.22395   0.59559   0.50746 
 1                     1.26721  -1.86346  -2.14818 
 1                     2.75177  -0.0283   -1.24117 
 1                     1.57702   1.74838   0.08765 
 1                     0.02134  -1.39376   1.31486 
 1                    -1.09201   1.13175   0.10639 
 8                    -0.08821  -1.60005  -0.73843 
 8                     2.32872  -0.784     0.66516 
 8                     0.60672   1.25456  -1.7089 
 8                    -0.02207   0.90221   1.87235 
 6                    -2.02853  -1.24481   0.63871 
 1                    -2.36432  -0.88373   1.62406 
 1                    -2.16637  -2.33625   0.61585 
 8                    -2.71295  -0.61319  -0.41675 
 6                     3.56346  -1.52107   0.64812 
 1                     3.80121  -1.71697   1.69409 
 1                     3.46302  -2.47243   0.1144 
 1                     4.36059  -0.92312   0.19271 
 6                     0.18267   2.60168  -1.92124 
 1                    -0.04237   2.68797  -2.9853 
 1                    -0.7178    2.8436   -1.34353 
 1                     0.98325   3.30424  -1.65664 
 6                    -0.39298   2.23084   2.23942 
 1                    -0.23323   2.30577   3.31641 
 1                     0.2262    2.98271   1.73329 
 1                    -1.44964   2.42279   2.01149 
 6                    -4.11718  -0.84008  -0.37881 
 1                    -4.35005  -1.91049  -0.46622 
 1                    -4.54508  -0.30688  -1.2298 
 1                    -4.55782  -0.45482   0.55155 
 
 ITRead=  0  0  0  0  0  0  0  0  0  0  0  0  0  0  0  0  0  0  0  0
 ITRead=  0  0  0  0  0  0  0  0  0  0  0  0  0  0
 MicOpt= -1 -1 -1 -1 -1 -1 -1 -1 -1 -1 -1 -1 -1 -1 -1 -1 -1 -1 -1 -1
 MicOpt= -1 -1 -1 -1 -1 -1 -1 -1 -1 -1 -1 -1 -1 -1
 NAtoms=     34 NQM=       34 NQMF=       0 NMMI=      0 NMMIF=      0
                NMic=       0 NMicF=      0.
                    Isotopes and Nuclear Properties:
 (Nuclear quadrupole moments (NQMom) in fm**2, nuclear magnetic moments (NMagM)
  in nuclear magnetons)

  Atom         1           2           3           4           5           6           7           8           9          10
 IAtWgt=          12          12          12          12          12           1           1           1           1           1
 AtmWgt=  12.0000000  12.0000000  12.0000000  12.0000000  12.0000000   1.0078250   1.0078250   1.0078250   1.0078250   1.0078250
 NucSpn=           0           0           0           0           0           1           1           1           1           1
 AtZEff=   0.0000000   0.0000000   0.0000000   0.0000000   0.0000000   0.0000000   0.0000000   0.0000000   0.0000000   0.0000000
 NQMom=    0.0000000   0.0000000   0.0000000   0.0000000   0.0000000   0.0000000   0.0000000   0.0000000   0.0000000   0.0000000
 NMagM=    0.0000000   0.0000000   0.0000000   0.0000000   0.0000000   2.7928460   2.7928460   2.7928460   2.7928460   2.7928460
 AtZNuc=   6.0000000   6.0000000   6.0000000   6.0000000   6.0000000   1.0000000   1.0000000   1.0000000   1.0000000   1.0000000

  Atom        11          12          13          14          15          16          17          18          19          20
 IAtWgt=          16          16          16          16          12           1           1          16          12           1
 AtmWgt=  15.9949146  15.9949146  15.9949146  15.9949146  12.0000000   1.0078250   1.0078250  15.9949146  12.0000000   1.0078250
 NucSpn=           0           0           0           0           0           1           1           0           0           1
 AtZEff=   0.0000000   0.0000000   0.0000000   0.0000000   0.0000000   0.0000000   0.0000000   0.0000000   0.0000000   0.0000000
 NQMom=    0.0000000   0.0000000   0.0000000   0.0000000   0.0000000   0.0000000   0.0000000   0.0000000   0.0000000   0.0000000
 NMagM=    0.0000000   0.0000000   0.0000000   0.0000000   0.0000000   2.7928460   2.7928460   0.0000000   0.0000000   2.7928460
 AtZNuc=   8.0000000   8.0000000   8.0000000   8.0000000   6.0000000   1.0000000   1.0000000   8.0000000   6.0000000   1.0000000

  Atom        21          22          23          24          25          26          27          28          29          30
 IAtWgt=           1           1          12           1           1           1          12           1           1           1
 AtmWgt=   1.0078250   1.0078250  12.0000000   1.0078250   1.0078250   1.0078250  12.0000000   1.0078250   1.0078250   1.0078250
 NucSpn=           1           1           0           1           1           1           0           1           1           1
 AtZEff=   0.0000000   0.0000000   0.0000000   0.0000000   0.0000000   0.0000000   0.0000000   0.0000000   0.0000000   0.0000000
 NQMom=    0.0000000   0.0000000   0.0000000   0.0000000   0.0000000   0.0000000   0.0000000   0.0000000   0.0000000   0.0000000
 NMagM=    2.7928460   2.7928460   0.0000000   2.7928460   2.7928460   2.7928460   0.0000000   2.7928460   2.7928460   2.7928460
 AtZNuc=   1.0000000   1.0000000   6.0000000   1.0000000   1.0000000   1.0000000   6.0000000   1.0000000   1.0000000   1.0000000

  Atom        31          32          33          34
 IAtWgt=          12           1           1           1
 AtmWgt=  12.0000000   1.0078250   1.0078250   1.0078250
 NucSpn=           0           1           1           1
 AtZEff=   0.0000000   0.0000000   0.0000000   0.0000000
 NQMom=    0.0000000   0.0000000   0.0000000   0.0000000
 NMagM=    0.0000000   2.7928460   2.7928460   2.7928460
 AtZNuc=   6.0000000   1.0000000   1.0000000   1.0000000
 Leave Link  101 at Fri May 24 08:32:14 2019, MaxMem=   402653184 cpu:               0.6 elap:               0.2
 (Enter /n/sw/g16_nehalem/g16/l103.exe)

 GradGradGradGradGradGradGradGradGradGradGradGradGradGradGradGradGradGrad
 Berny optimization.
 Initialization pass.
                           ----------------------------
                           !    Initial Parameters    !
                           ! (Angstroms and Degrees)  !
 --------------------------                            --------------------------
 ! Name  Definition              Value          Derivative Info.                !
 --------------------------------------------------------------------------------
 ! R1    R(1,2)                  1.5394         estimate D2E/DX2                !
 ! R2    R(1,5)                  1.5527         estimate D2E/DX2                !
 ! R3    R(1,8)                  1.0974         estimate D2E/DX2                !
 ! R4    R(1,13)                 1.4176         estimate D2E/DX2                !
 ! R5    R(2,3)                  1.5128         estimate D2E/DX2                !
 ! R6    R(2,7)                  1.0937         estimate D2E/DX2                !
 ! R7    R(2,12)                 1.4091         estimate D2E/DX2                !
 ! R8    R(3,6)                  1.0908         estimate D2E/DX2                !
 ! R9    R(3,11)                 1.2538         estimate D2E/DX2                !
 ! R10   R(4,5)                  1.5451         estimate D2E/DX2                !
 ! R11   R(4,9)                  1.0898         estimate D2E/DX2                !
 ! R12   R(4,11)                 1.5158         estimate D2E/DX2                !
 ! R13   R(4,15)                 1.5107         estimate D2E/DX2                !
 ! R14   R(5,10)                 1.0963         estimate D2E/DX2                !
 ! R15   R(5,14)                 1.4134         estimate D2E/DX2                !
 ! R16   R(12,19)                1.4381         estimate D2E/DX2                !
 ! R17   R(13,23)                1.4282         estimate D2E/DX2                !
 ! R18   R(14,27)                1.4274         estimate D2E/DX2                !
 ! R19   R(15,16)                1.1018         estimate D2E/DX2                !
 ! R20   R(15,17)                1.1003         estimate D2E/DX2                !
 ! R21   R(15,18)                1.4076         estimate D2E/DX2                !
 ! R22   R(18,31)                1.423          estimate D2E/DX2                !
 ! R23   R(19,20)                1.0904         estimate D2E/DX2                !
 ! R24   R(19,21)                1.0955         estimate D2E/DX2                !
 ! R25   R(19,22)                1.0956         estimate D2E/DX2                !
 ! R26   R(23,24)                1.091          estimate D2E/DX2                !
 ! R27   R(23,25)                1.0969         estimate D2E/DX2                !
 ! R28   R(23,26)                1.0975         estimate D2E/DX2                !
 ! R29   R(27,28)                1.0914         estimate D2E/DX2                !
 ! R30   R(27,29)                1.0977         estimate D2E/DX2                !
 ! R31   R(27,30)                1.0979         estimate D2E/DX2                !
 ! R32   R(31,32)                1.0989         estimate D2E/DX2                !
 ! R33   R(31,33)                1.0916         estimate D2E/DX2                !
 ! R34   R(31,34)                1.0992         estimate D2E/DX2                !
 ! A1    A(2,1,5)              111.4525         estimate D2E/DX2                !
 ! A2    A(2,1,8)              109.0198         estimate D2E/DX2                !
 ! A3    A(2,1,13)             102.5742         estimate D2E/DX2                !
 ! A4    A(5,1,8)              109.4292         estimate D2E/DX2                !
 ! A5    A(5,1,13)             111.5388         estimate D2E/DX2                !
 ! A6    A(8,1,13)             112.671          estimate D2E/DX2                !
 ! A7    A(1,2,3)              104.2542         estimate D2E/DX2                !
 ! A8    A(1,2,7)              110.5637         estimate D2E/DX2                !
 ! A9    A(1,2,12)             110.1022         estimate D2E/DX2                !
 ! A10   A(3,2,7)              110.2285         estimate D2E/DX2                !
 ! A11   A(3,2,12)             108.3512         estimate D2E/DX2                !
 ! A12   A(7,2,12)             112.9617         estimate D2E/DX2                !
 ! A13   A(2,3,6)              125.1403         estimate D2E/DX2                !
 ! A14   A(2,3,11)             120.4044         estimate D2E/DX2                !
 ! A15   A(6,3,11)             114.4477         estimate D2E/DX2                !
 ! A16   A(5,4,9)              108.9683         estimate D2E/DX2                !
 ! A17   A(5,4,11)             111.365          estimate D2E/DX2                !
 ! A18   A(5,4,15)             115.2471         estimate D2E/DX2                !
 ! A19   A(9,4,11)             103.7505         estimate D2E/DX2                !
 ! A20   A(9,4,15)             111.5873         estimate D2E/DX2                !
 ! A21   A(11,4,15)            105.2885         estimate D2E/DX2                !
 ! A22   A(1,5,4)              113.3647         estimate D2E/DX2                !
 ! A23   A(1,5,10)             107.7522         estimate D2E/DX2                !
 ! A24   A(1,5,14)             113.131          estimate D2E/DX2                !
 ! A25   A(4,5,10)             108.0916         estimate D2E/DX2                !
 ! A26   A(4,5,14)             103.2957         estimate D2E/DX2                !
 ! A27   A(10,5,14)            111.1175         estimate D2E/DX2                !
 ! A28   A(3,11,4)             120.3248         estimate D2E/DX2                !
 ! A29   A(2,12,19)            115.18           estimate D2E/DX2                !
 ! A30   A(1,13,23)            115.4024         estimate D2E/DX2                !
 ! A31   A(5,14,27)            114.4022         estimate D2E/DX2                !
 ! A32   A(4,15,16)            106.8584         estimate D2E/DX2                !
 ! A33   A(4,15,17)            109.7818         estimate D2E/DX2                !
 ! A34   A(4,15,18)            108.6203         estimate D2E/DX2                !
 ! A35   A(16,15,17)           107.7865         estimate D2E/DX2                !
 ! A36   A(16,15,18)           112.0439         estimate D2E/DX2                !
 ! A37   A(17,15,18)           111.6292         estimate D2E/DX2                !
 ! A38   A(15,18,31)           112.848          estimate D2E/DX2                !
 ! A39   A(12,19,20)           105.541          estimate D2E/DX2                !
 ! A40   A(12,19,21)           111.849          estimate D2E/DX2                !
 ! A41   A(12,19,22)           110.4803         estimate D2E/DX2                !
 ! A42   A(20,19,21)           109.3497         estimate D2E/DX2                !
 ! A43   A(20,19,22)           109.7636         estimate D2E/DX2                !
 ! A44   A(21,19,22)           109.765          estimate D2E/DX2                !
 ! A45   A(13,23,24)           106.3115         estimate D2E/DX2                !
 ! A46   A(13,23,25)           111.9307         estimate D2E/DX2                !
 ! A47   A(13,23,26)           110.5719         estimate D2E/DX2                !
 ! A48   A(24,23,25)           109.0802         estimate D2E/DX2                !
 ! A49   A(24,23,26)           109.571          estimate D2E/DX2                !
 ! A50   A(25,23,26)           109.3094         estimate D2E/DX2                !
 ! A51   A(14,27,28)           106.2388         estimate D2E/DX2                !
 ! A52   A(14,27,29)           111.8644         estimate D2E/DX2                !
 ! A53   A(14,27,30)           111.066          estimate D2E/DX2                !
 ! A54   A(28,27,29)           108.9916         estimate D2E/DX2                !
 ! A55   A(28,27,30)           109.497          estimate D2E/DX2                !
 ! A56   A(29,27,30)           109.1126         estimate D2E/DX2                !
 ! A57   A(18,31,32)           111.2425         estimate D2E/DX2                !
 ! A58   A(18,31,33)           106.748          estimate D2E/DX2                !
 ! A59   A(18,31,34)           111.2407         estimate D2E/DX2                !
 ! A60   A(32,31,33)           109.3118         estimate D2E/DX2                !
 ! A61   A(32,31,34)           108.8926         estimate D2E/DX2                !
 ! A62   A(33,31,34)           109.3598         estimate D2E/DX2                !
 ! D1    D(5,1,2,3)             59.537          estimate D2E/DX2                !
 ! D2    D(5,1,2,7)            177.9832         estimate D2E/DX2                !
 ! D3    D(5,1,2,12)           -56.4962         estimate D2E/DX2                !
 ! D4    D(8,1,2,3)           -179.5659         estimate D2E/DX2                !
 ! D5    D(8,1,2,7)            -61.1197         estimate D2E/DX2                !
 ! D6    D(8,1,2,12)            64.4009         estimate D2E/DX2                !
 ! D7    D(13,1,2,3)           -59.9221         estimate D2E/DX2                !
 ! D8    D(13,1,2,7)            58.524          estimate D2E/DX2                !
 ! D9    D(13,1,2,12)         -175.9554         estimate D2E/DX2                !
 ! D10   D(2,1,5,4)            -22.5476         estimate D2E/DX2                !
 ! D11   D(2,1,5,10)          -142.118          estimate D2E/DX2                !
 ! D12   D(2,1,5,14)            94.6437         estimate D2E/DX2                !
 ! D13   D(8,1,5,4)           -143.205          estimate D2E/DX2                !
 ! D14   D(8,1,5,10)            97.2246         estimate D2E/DX2                !
 ! D15   D(8,1,5,14)           -26.0137         estimate D2E/DX2                !
 ! D16   D(13,1,5,4)            91.4417         estimate D2E/DX2                !
 ! D17   D(13,1,5,10)          -28.1287         estimate D2E/DX2                !
 ! D18   D(13,1,5,14)         -151.3671         estimate D2E/DX2                !
 ! D19   D(2,1,13,23)         -157.1218         estimate D2E/DX2                !
 ! D20   D(5,1,13,23)           83.4793         estimate D2E/DX2                !
 ! D21   D(8,1,13,23)          -40.0545         estimate D2E/DX2                !
 ! D22   D(1,2,3,6)            129.4348         estimate D2E/DX2                !
 ! D23   D(1,2,3,11)           -51.6249         estimate D2E/DX2                !
 ! D24   D(7,2,3,6)             10.7597         estimate D2E/DX2                !
 ! D25   D(7,2,3,11)          -170.3            estimate D2E/DX2                !
 ! D26   D(12,2,3,6)          -113.3146         estimate D2E/DX2                !
 ! D27   D(12,2,3,11)           65.6257         estimate D2E/DX2                !
 ! D28   D(1,2,12,19)         -155.3445         estimate D2E/DX2                !
 ! D29   D(3,2,12,19)           91.2243         estimate D2E/DX2                !
 ! D30   D(7,2,12,19)          -31.1997         estimate D2E/DX2                !
 ! D31   D(2,3,11,4)             0.6989         estimate D2E/DX2                !
 ! D32   D(6,3,11,4)           179.747          estimate D2E/DX2                !
 ! D33   D(9,4,5,1)             87.644          estimate D2E/DX2                !
 ! D34   D(9,4,5,10)          -152.9798         estimate D2E/DX2                !
 ! D35   D(9,4,5,14)           -35.1622         estimate D2E/DX2                !
 ! D36   D(11,4,5,1)           -26.2062         estimate D2E/DX2                !
 ! D37   D(11,4,5,10)           93.1701         estimate D2E/DX2                !
 ! D38   D(11,4,5,14)         -149.0123         estimate D2E/DX2                !
 ! D39   D(15,4,5,1)          -146.0417         estimate D2E/DX2                !
 ! D40   D(15,4,5,10)          -26.6655         estimate D2E/DX2                !
 ! D41   D(15,4,5,14)           91.1521         estimate D2E/DX2                !
 ! D42   D(5,4,11,3)            40.827          estimate D2E/DX2                !
 ! D43   D(9,4,11,3)           -76.2416         estimate D2E/DX2                !
 ! D44   D(15,4,11,3)          166.3995         estimate D2E/DX2                !
 ! D45   D(5,4,15,16)          -65.0092         estimate D2E/DX2                !
 ! D46   D(5,4,15,17)          178.3629         estimate D2E/DX2                !
 ! D47   D(5,4,15,18)           56.0506         estimate D2E/DX2                !
 ! D48   D(9,4,15,16)           59.9553         estimate D2E/DX2                !
 ! D49   D(9,4,15,17)          -56.6726         estimate D2E/DX2                !
 ! D50   D(9,4,15,18)         -178.9849         estimate D2E/DX2                !
 ! D51   D(11,4,15,16)         171.866          estimate D2E/DX2                !
 ! D52   D(11,4,15,17)          55.2381         estimate D2E/DX2                !
 ! D53   D(11,4,15,18)         -67.0742         estimate D2E/DX2                !
 ! D54   D(1,5,14,27)           88.7671         estimate D2E/DX2                !
 ! D55   D(4,5,14,27)         -148.2714         estimate D2E/DX2                !
 ! D56   D(10,5,14,27)         -32.5925         estimate D2E/DX2                !
 ! D57   D(2,12,19,20)         172.5327         estimate D2E/DX2                !
 ! D58   D(2,12,19,21)         -68.6495         estimate D2E/DX2                !
 ! D59   D(2,12,19,22)          53.9439         estimate D2E/DX2                !
 ! D60   D(1,13,23,24)         177.7004         estimate D2E/DX2                !
 ! D61   D(1,13,23,25)         -63.2876         estimate D2E/DX2                !
 ! D62   D(1,13,23,26)          58.8432         estimate D2E/DX2                !
 ! D63   D(5,14,27,28)         177.1371         estimate D2E/DX2                !
 ! D64   D(5,14,27,29)         -64.0403         estimate D2E/DX2                !
 ! D65   D(5,14,27,30)          58.1434         estimate D2E/DX2                !
 ! D66   D(4,15,18,31)        -178.5099         estimate D2E/DX2                !
 ! D67   D(16,15,18,31)        -60.6966         estimate D2E/DX2                !
 ! D68   D(17,15,18,31)         60.3064         estimate D2E/DX2                !
 ! D69   D(15,18,31,32)        -61.1018         estimate D2E/DX2                !
 ! D70   D(15,18,31,33)        179.721          estimate D2E/DX2                !
 ! D71   D(15,18,31,34)         60.4867         estimate D2E/DX2                !
 --------------------------------------------------------------------------------
 Trust Radius=3.00D-01 FncErr=1.00D-07 GrdErr=1.00D-06 EigMax=2.50D+02 EigMin=1.00D-04
 Number of steps in this run=    177 maximum allowed number of steps=    204.
 GradGradGradGradGradGradGradGradGradGradGradGradGradGradGradGradGradGrad

 Leave Link  103 at Fri May 24 08:32:14 2019, MaxMem=   402653184 cpu:               0.1 elap:               0.1
 (Enter /n/sw/g16_nehalem/g16/l202.exe)
                          Input orientation:                          
 ---------------------------------------------------------------------
 Center     Atomic      Atomic             Coordinates (Angstroms)
 Number     Number       Type             X           Y           Z
 ---------------------------------------------------------------------
      1          6           0        0.999708    0.942562   -0.383111
      2          6           0        1.914655   -0.279060   -0.583480
      3          6           0        1.022672   -1.308556   -1.241492
      4          6           0       -0.558958   -0.912622    0.527864
      5          6           0       -0.223948    0.595586    0.507456
      6          1           0        1.267207   -1.863464   -2.148181
      7          1           0        2.751767   -0.028304   -1.241167
      8          1           0        1.577017    1.748380    0.087649
      9          1           0        0.021342   -1.393764    1.314864
     10          1           0       -1.092014    1.131745    0.106389
     11          8           0       -0.088207   -1.600048   -0.738426
     12          8           0        2.328719   -0.784004    0.665162
     13          8           0        0.606715    1.254560   -1.708903
     14          8           0       -0.022068    0.902212    1.872346
     15          6           0       -2.028530   -1.244814    0.638713
     16          1           0       -2.364316   -0.883728    1.624058
     17          1           0       -2.166367   -2.336252    0.615845
     18          8           0       -2.712949   -0.613186   -0.416746
     19          6           0        3.563455   -1.521072    0.648124
     20          1           0        3.801213   -1.716967    1.694094
     21          1           0        3.463017   -2.472430    0.114403
     22          1           0        4.360591   -0.923121    0.192710
     23          6           0        0.182673    2.601680   -1.921242
     24          1           0       -0.042373    2.687973   -2.985297
     25          1           0       -0.717801    2.843602   -1.343533
     26          1           0        0.983250    3.304236   -1.656635
     27          6           0       -0.392980    2.230836    2.239416
     28          1           0       -0.233227    2.305767    3.316408
     29          1           0        0.226201    2.982707    1.733286
     30          1           0       -1.449636    2.422789    2.011489
     31          6           0       -4.117183   -0.840084   -0.378808
     32          1           0       -4.350052   -1.910485   -0.466222
     33          1           0       -4.545080   -0.306879   -1.229796
     34          1           0       -4.557819   -0.454815    0.551545
 ---------------------------------------------------------------------
                    Distance matrix (angstroms):
                    1          2          3          4          5
     1  C    0.000000
     2  C    1.539362   0.000000
     3  C    2.409331   1.512771   0.000000
     4  C    2.588633   2.784825   2.406021   0.000000
     5  C    1.552687   2.555146   2.870303   1.545102   0.000000
     6  H    3.325780   2.319011   1.090782   3.376418   3.914445
     7  H    2.179117   1.093703   2.151468   3.856474   3.507392
     8  H    1.097380   2.162158   3.379167   3.440510   2.179139
     9  H    3.049383   2.903603   2.746794   1.089777   2.160923
    10  H    2.156548   3.392101   3.499107   2.154351   1.096294
    11  O    2.788310   2.404262   1.253832   1.515801   2.528133
    12  O    2.417887   1.409086   2.369861   2.893799   2.905899
    13  O    1.417572   2.308522   2.638381   3.325447   2.456928
    14  O    2.476437   3.343259   3.959162   2.321531   1.413400
    15  C    3.872850   4.239710   3.584560   1.510722   2.580856
    16  H    4.322120   4.852674   4.456854   2.112296   2.831315
    17  H    4.666108   4.724951   3.830905   2.149006   3.518581
    18  O    4.025581   4.642646   3.888266   2.370997   2.917260
    19  C    3.702126   2.403744   3.173545   4.168808   4.341019
    20  H    4.385921   3.288468   4.062604   4.584556   4.791444
    21  H    4.239998   2.774047   3.024622   4.333617   4.812580
    22  H    3.886885   2.645730   3.653382   4.930963   4.839787
    23  C    2.405424   3.617738   4.056797   4.347235   3.176213
    24  H    3.302085   4.289752   4.488588   5.057019   4.075583
    25  H    2.736092   4.154338   4.503340   4.199592   2.953579
    26  H    2.683214   3.854762   4.631603   4.993229   3.671158
    27  C    3.236801   4.426454   5.162178   3.583056   2.387949
    28  H    4.130968   5.148189   5.951056   4.270844   3.288619
    29  H    3.039678   4.342511   5.281913   4.152482   2.720963
    30  H    3.731550   5.035107   5.533275   3.757581   2.665164
    31  C    5.418526   6.061329   5.232762   3.672640   4.243099
    32  H    6.063556   6.474709   5.461641   4.044296   4.924751
    33  H    5.746534   6.492047   5.657151   4.398348   4.743909
    34  H    5.806234   6.573590   5.923321   4.025051   4.459565
                    6          7          8          9         10
     6  H    0.000000
     7  H    2.528716   0.000000
     8  H    4.259147   2.510457   0.000000
     9  H    3.710186   3.981582   3.714734   0.000000
    10  H    4.429479   4.235124   2.739401   3.013000   0.000000
    11  O    1.973308   3.284597   3.829796   2.066532   3.030517
    12  O    3.194830   2.093834   2.703987   2.473441   3.960270
    13  O    3.217342   2.542787   2.100701   4.061951   2.489186
    14  O    5.047359   4.272468   2.541302   2.363086   2.077516
    15  C    4.360205   5.278739   4.718353   2.163641   2.609303
    16  H    5.327066   5.925839   4.982234   2.459086   2.825633
    17  H    4.433148   5.741355   5.565621   2.482535   3.666167
    18  O    4.516935   5.557416   4.922928   3.329283   2.438418
    19  C    3.634461   2.540987   3.866443   3.606565   5.385565
    20  H    4.604967   3.545233   4.419994   3.812571   5.880445
    21  H    3.211185   2.883955   4.623089   3.801283   5.808481
    22  H    3.991621   2.333456   3.859565   4.506641   5.827592
    23  C    4.600568   3.738925   2.589973   5.144121   2.810129
    24  H    4.809505   4.269352   3.598369   5.929251   3.616921
    25  H    5.171478   4.505133   2.917873   5.056548   2.274371
    26  H    5.198786   3.795535   2.411592   5.641478   3.483488
    27  C    6.226598   5.206496   2.956984   3.763533   2.499291
    28  H    7.035305   5.927020   3.743334   4.213966   3.524211
    29  H    6.295622   4.928696   2.460973   4.401198   2.794735
    30  H    6.561711   5.851446   3.649194   4.149113   2.328968
    31  C    5.759309   6.970303   6.272292   4.505827   3.643511
    32  H    5.863855   7.387759   6.987433   4.748511   4.494203
    33  H    6.086795   7.302172   6.590889   5.339365   3.972240
    34  H    6.572955   7.538287   6.534943   4.736348   3.837596
                   11         12         13         14         15
    11  O    0.000000
    12  O    2.911618   0.000000
    13  O    3.094112   3.571726   0.000000
    14  O    3.616878   3.134775   3.653062   0.000000
    15  C    2.405734   4.381628   4.324660   3.187077   0.000000
    16  H    3.357844   4.791034   4.950548   2.955902   1.101835
    17  H    2.587430   4.755807   5.097879   4.082213   1.100345
    18  O    2.822525   5.159275   4.022227   3.844114   1.407614
    19  C    3.906839   1.438100   4.690631   4.497444   5.598813
    20  H    4.588944   2.024194   5.533098   4.637817   5.943287
    21  H    3.754938   2.107309   5.037198   5.159883   5.651463
    22  H    4.595329   2.090710   4.738144   5.035943   6.412743
    23  C    4.373437   4.770519   1.428157   4.161901   5.122334
    24  H    4.841245   5.567994   2.026122   5.175524   5.704830
    25  H    4.528639   5.145451   2.100689   3.820329   4.728896
    26  H    5.103247   4.890269   2.084630   4.385669   5.918893
    27  C    4.861697   4.356051   4.188285   1.427430   4.161420
    28  H    5.631882   4.810339   5.202335   2.024814   4.795810
    29  H    5.216307   4.444050   3.870394   2.099865   4.914655
    30  H    5.059520   5.135376   4.408475   2.090327   3.958654
    31  C    4.115765   6.530136   5.335907   4.987310   2.358310
    32  H    4.281797   6.866948   6.010932   5.666711   2.655836
    33  H    4.666631   7.146162   5.404501   5.616300   3.271708
    34  H    4.790931   6.895338   5.891010   4.915188   2.651226
                   16         17         18         19         20
    16  H    0.000000
    17  H    1.779186   0.000000
    18  O    2.087970   2.081815   0.000000
    19  C    6.041285   5.787609   6.430509   0.000000
    20  H    6.221972   6.095748   6.936014   1.090393   0.000000
    21  H    6.225821   5.653313   6.471589   1.095458   1.783403
    22  H    6.875659   6.691574   7.106509   1.095615   1.788085
    23  C    5.586088   6.028099   4.580775   5.918481   6.694415
    24  H    6.276513   6.536238   4.962568   6.627202   7.488214
    25  H    5.040892   5.724368   4.097430   6.430103   7.102637
    26  H    6.285554   6.848311   5.526790   5.937421   6.661890
    27  C    3.737023   5.161315   4.530553   5.680000   5.785653
    28  H    4.192668   5.707750   5.348434   6.014917   5.923765
    29  H    4.655323   5.938382   5.117781   5.709542   5.905013
    30  H    3.452506   5.010988   4.087717   6.522567   6.694007
    31  C    2.661939   2.652082   1.422953   7.778852   8.232062
    32  H    3.060498   2.473990   2.089387   8.001063   8.434900
    33  H    3.637715   3.630843   2.027703   8.411254   8.955339
    34  H    2.479053   3.043515   2.089549   8.191540   8.530643
                   21         22         23         24         25
    21  H    0.000000
    22  H    1.792241   0.000000
    23  C    6.375821   5.860718   0.000000
    24  H    6.966036   6.521182   1.091011   0.000000
    25  H    6.918455   6.506790   1.096872   1.782081   0.000000
    26  H    6.531132   5.718134   1.097509   1.788023   1.789914
    27  C    6.442446   6.060766   4.216631   5.256379   3.649454
    28  H    6.837121   6.425447   5.262463   6.316169   4.715838
    29  H    6.546471   5.892542   3.674595   4.735401   3.221382
    30  H    7.190011   6.947072   4.261785   5.197940   3.459601
    31  C    7.769636   8.497422   5.719581   5.987073   5.104511
    32  H    7.854741   8.791154   6.559140   6.785842   6.046839
    33  H    8.403934   9.039594   5.593698   5.685534   4.958481
    34  H    8.282251   8.937903   6.158661   6.540307   5.405239
                   26         27         28         29         30
    26  H    0.000000
    27  C    4.269123   0.000000
    28  H    5.216121   1.091351   0.000000
    29  H    3.488276   1.097662   1.782021   0.000000
    30  H    4.488988   1.097870   1.787780   1.788668   0.000000
    31  C    6.694972   5.491387   6.215796   6.159518   4.845169
    32  H    7.553443   6.334780   7.002380   7.051472   5.773104
    33  H    6.617007   5.976233   6.788665   6.508944   5.247741
    34  H    7.050530   5.235219   5.828154   6.008321   4.480273
                   31         32         33         34
    31  C    0.000000
    32  H    1.098921   0.000000
    33  H    1.091597   1.786794   0.000000
    34  H    1.099158   1.788293   1.787519   0.000000
 Stoichiometry    C10H19O5(1+)
 Framework group  C1[X(C10H19O5)]
 Deg. of freedom    96
 Full point group                 C1      NOp   1
 Largest Abelian subgroup         C1      NOp   1
 Largest concise Abelian subgroup C1      NOp   1
                         Standard orientation:                         
 ---------------------------------------------------------------------
 Center     Atomic      Atomic             Coordinates (Angstroms)
 Number     Number       Type             X           Y           Z
 ---------------------------------------------------------------------
      1          6           0        0.999708    0.942562   -0.383111
      2          6           0        1.914655   -0.279060   -0.583480
      3          6           0        1.022672   -1.308556   -1.241492
      4          6           0       -0.558958   -0.912622    0.527864
      5          6           0       -0.223948    0.595586    0.507456
      6          1           0        1.267207   -1.863464   -2.148181
      7          1           0        2.751767   -0.028304   -1.241167
      8          1           0        1.577017    1.748380    0.087649
      9          1           0        0.021342   -1.393764    1.314864
     10          1           0       -1.092014    1.131745    0.106389
     11          8           0       -0.088207   -1.600048   -0.738426
     12          8           0        2.328719   -0.784004    0.665162
     13          8           0        0.606715    1.254560   -1.708903
     14          8           0       -0.022068    0.902212    1.872346
     15          6           0       -2.028530   -1.244814    0.638713
     16          1           0       -2.364316   -0.883728    1.624058
     17          1           0       -2.166367   -2.336252    0.615845
     18          8           0       -2.712949   -0.613186   -0.416746
     19          6           0        3.563455   -1.521072    0.648124
     20          1           0        3.801213   -1.716967    1.694094
     21          1           0        3.463017   -2.472430    0.114403
     22          1           0        4.360591   -0.923121    0.192710
     23          6           0        0.182673    2.601680   -1.921242
     24          1           0       -0.042373    2.687973   -2.985297
     25          1           0       -0.717801    2.843602   -1.343533
     26          1           0        0.983250    3.304236   -1.656635
     27          6           0       -0.392980    2.230836    2.239416
     28          1           0       -0.233227    2.305767    3.316408
     29          1           0        0.226201    2.982707    1.733286
     30          1           0       -1.449636    2.422789    2.011489
     31          6           0       -4.117183   -0.840084   -0.378808
     32          1           0       -4.350052   -1.910485   -0.466222
     33          1           0       -4.545080   -0.306879   -1.229796
     34          1           0       -4.557819   -0.454815    0.551545
 ---------------------------------------------------------------------
 Rotational constants (GHZ):           0.6925252           0.4431561           0.4081235
 Leave Link  202 at Fri May 24 08:32:14 2019, MaxMem=   402653184 cpu:               0.2 elap:               0.1
 (Enter /n/sw/g16_nehalem/g16/l301.exe)
 Standard basis: 6-31G(d) (6D, 7F)
 Ernie: Thresh=  0.10000D-02 Tol=  0.10000D-05 Strict=F.
 There are   263 symmetry adapted cartesian basis functions of A   symmetry.
 There are   263 symmetry adapted basis functions of A   symmetry.
   263 basis functions,   496 primitive gaussians,   263 cartesian basis functions
    59 alpha electrons       59 beta electrons
       nuclear repulsion energy      1170.8448733733 Hartrees.
 IExCor=  402 DFT=T Ex+Corr=B3LYP ExCW=0 ScaHFX=  0.200000
 ScaDFX=  0.800000  0.720000  1.000000  0.810000 ScalE2=  1.000000  1.000000
 IRadAn=      5 IRanWt=     -1 IRanGd=            0 ICorTp=0 IEmpDi=  4
 NAtoms=   34 NActive=   34 NUniq=   34 SFac= 1.00D+00 NAtFMM=   60 NAOKFM=F Big=F
 Integral buffers will be    131072 words long.
 Raffenetti 2 integral format.
 Two-electron integral symmetry is turned on.
 ------------------------------------------------------------------------------
 Polarizable Continuum Model (PCM)
 =================================
 Model                : PCM.
 Atomic radii         : UFF (Universal Force Field).
 Polarization charges : Total charges.
 Charge compensation  : None.
 Solution method      : On-the-fly selection.
 Cavity type          : Scaled VdW (van der Waals Surface) (Alpha=1.100).
 Cavity algorithm     : GePol (No added spheres)
                        Default sphere list used, NSphG=   34.
                        Lebedev-Laikov grids with approx.  5.0 points / Ang**2.
                        Smoothing algorithm: York/Karplus (Gamma=1.0000).
                        Polarization charges: spherical gaussians, with
                                              point-specific exponents (IZeta= 3).
                        Self-potential: point-specific (ISelfS= 7).
                        Self-field    : sphere-specific E.n sum rule (ISelfD= 2).
 1st derivatives      : Analytical E(r).r(x)/FMM algorithm (CHGder, D1EAlg=3).
                        Cavity 1st derivative terms included.
 Solvent              : TetraHydroFuran, Eps=   7.425700 Eps(inf)=   1.974025
 ------------------------------------------------------------------------------
 GePol: Number of generator spheres                  =      34
 GePol: Total number of spheres                      =      34
 GePol: Number of exposed spheres                    =      34 (100.00%)
 GePol: Number of points                             =    2373
 GePol: Average weight of points                     =       0.13
 GePol: Minimum weight of points                     =   0.16D-11
 GePol: Maximum weight of points                     =    0.20577
 GePol: Number of points with low weight             =     161
 GePol: Fraction of low-weight points (<1% of avg)   =       6.78%
 GePol: Cavity surface area                          =    311.036 Ang**2
 GePol: Cavity volume                                =    323.247 Ang**3
 Leave Link  301 at Fri May 24 08:32:14 2019, MaxMem=   402653184 cpu:               0.4 elap:               0.1
 (Enter /n/sw/g16_nehalem/g16/l302.exe)
 NPDir=0 NMtPBC=     1 NCelOv=     1 NCel=       1 NClECP=     1 NCelD=      1
         NCelK=      1 NCelE2=     1 NClLst=     1 CellRange=     0.0.
 One-electron integrals computed using PRISM.
 One-electron integral symmetry used in STVInt
 NBasis=   263 RedAO= T EigKep=  1.43D-03  NBF=   263
 NBsUse=   263 1.00D-06 EigRej= -1.00D+00 NBFU=   263
 Precomputing XC quadrature grid using
 IXCGrd= 4 IRadAn=           5 IRanWt=          -1 IRanGd=           0 AccXCQ= 0.00D+00.
 Generated NRdTot=       0 NPtTot=           0 NUsed=           0 NTot=          32
 NSgBfM=   262   262   262   262   262 MxSgAt=    34 MxSgA2=    34.
 Leave Link  302 at Fri May 24 08:32:15 2019, MaxMem=   402653184 cpu:               2.5 elap:               0.7
 (Enter /n/sw/g16_nehalem/g16/l303.exe)
 DipDrv:  MaxL=1.
 Leave Link  303 at Fri May 24 08:32:15 2019, MaxMem=   402653184 cpu:               0.2 elap:               0.1
 (Enter /n/sw/g16_nehalem/g16/l401.exe)
 ExpMin= 1.61D-01 ExpMax= 5.48D+03 ExpMxC= 8.25D+02 IAcc=3 IRadAn=         5 AccDes= 0.00D+00
 Harris functional with IExCor=  402 and IRadAn=       5 diagonalized for initial guess.
 HarFok:  IExCor=  402 AccDes= 0.00D+00 IRadAn=         5 IDoV= 1 UseB2=F ITyADJ=14
 ICtDFT=  3500011 ScaDFX=  1.000000  1.000000  1.000000  1.000000
 FoFCou: FMM=F IPFlag=           0 FMFlag=      100000 FMFlg1=           0
         NFxFlg=           0 DoJE=T BraDBF=F KetDBF=T FulRan=T
         wScrn=  0.000000 ICntrl=       500 IOpCl=  0 I1Cent=   200000004 NGrid=           0
         NMat0=    1 NMatS0=      1 NMatT0=    0 NMatD0=    1 NMtDS0=    0 NMtDT0=    0
 Petite list used in FoFCou.
 Harris En= -768.257953868536    
 JPrj=0 DoOrth=F DoCkMO=F.
 Leave Link  401 at Fri May 24 08:32:20 2019, MaxMem=   402653184 cpu:              20.0 elap:               5.1
 (Enter /n/sw/g16_nehalem/g16/l502.exe)
 Integral symmetry usage will be decided dynamically.
 Closed shell SCF:
 Using DIIS extrapolation, IDIIS=  1040.
 NGot=   402653184 LenX=   402510103 LenY=   402440493
 Requested convergence on RMS density matrix=1.00D-08 within 128 cycles.
 Requested convergence on MAX density matrix=1.00D-06.
 Requested convergence on             energy=1.00D-06.
 No special actions if energy rises.
 Fock matrices will be formed incrementally for  20 cycles.

 Cycle   1  Pass 1  IDiag  1:
 FoFJK:  IHMeth= 1 ICntrl=       0 DoSepK=F KAlg= 0 I1Cent=           0 FoldK=F
 IRaf= 880000000 NMat=       1 IRICut=       1 DoRegI=T DoRafI=F ISym2E= 0 IDoP0=0 IntGTp=1.
 FoFCou: FMM=F IPFlag=           0 FMFlag=      100000 FMFlg1=           0
         NFxFlg=           0 DoJE=F BraDBF=F KetDBF=F FulRan=T
         wScrn=  0.000000 ICntrl=         0 IOpCl=  0 I1Cent=           0 NGrid=           0
         NMat0=    1 NMatS0=      1 NMatT0=    0 NMatD0=    1 NMtDS0=    0 NMtDT0=    0
 Symmetry not used in FoFCou.
 Inv3:  Mode=1 IEnd=    16893387.
 Iteration    1 A*A^-1 deviation from unit magnitude is 6.66D-15 for   2359.
 Iteration    1 A*A^-1 deviation from orthogonality  is 2.51D-15 for   2068    808.
 Iteration    1 A^-1*A deviation from unit magnitude is 6.66D-15 for   2359.
 Iteration    1 A^-1*A deviation from orthogonality  is 1.35D-15 for   1781   1130.
 E= -768.093899983907    
 DIIS: error= 2.45D-02 at cycle   1 NSaved=   1.
 NSaved= 1 IEnMin= 1 EnMin= -768.093899983907     IErMin= 1 ErrMin= 2.45D-02
 ErrMax= 2.45D-02  0.00D+00 EMaxC= 1.00D-01 BMatC= 2.51D-01 BMatP= 2.51D-01
 IDIUse=3 WtCom= 7.55D-01 WtEn= 2.45D-01
 Coeff-Com:  0.100D+01
 Coeff-En:   0.100D+01
 Coeff:      0.100D+01
 Gap=     0.016 Goal=   None    Shift=    0.000
 GapD=    0.016 DampG=0.250 DampE=0.500 DampFc=0.2500 IDamp=-1.
 Damping current iteration by 2.50D-01
 RMSDP=4.14D-03 MaxDP=9.80D-02              OVMax= 2.32D-01

 Cycle   2  Pass 1  IDiag  1:
 RMSU=  1.03D-03    CP:  9.95D-01
 E= -768.174310711863     Delta-E=       -0.080410727956 Rises=F Damp=T
 DIIS: error= 1.24D-02 at cycle   2 NSaved=   2.
 NSaved= 2 IEnMin= 2 EnMin= -768.174310711863     IErMin= 2 ErrMin= 1.24D-02
 ErrMax= 1.24D-02  0.00D+00 EMaxC= 1.00D-01 BMatC= 7.14D-02 BMatP= 2.51D-01
 IDIUse=3 WtCom= 8.76D-01 WtEn= 1.24D-01
 Coeff-Com: -0.860D+00 0.186D+01
 Coeff-En:   0.000D+00 0.100D+01
 Coeff:     -0.753D+00 0.175D+01
 Gap=     0.137 Goal=   None    Shift=    0.000
 RMSDP=1.25D-03 MaxDP=2.87D-02 DE=-8.04D-02 OVMax= 2.07D-01

 Cycle   3  Pass 1  IDiag  1:
 RMSU=  1.02D-03    CP:  9.86D-01  1.68D+00
 E= -768.317146767946     Delta-E=       -0.142836056083 Rises=F Damp=F
 DIIS: error= 4.10D-03 at cycle   3 NSaved=   3.
 NSaved= 3 IEnMin= 3 EnMin= -768.317146767946     IErMin= 3 ErrMin= 4.10D-03
 ErrMax= 4.10D-03  0.00D+00 EMaxC= 1.00D-01 BMatC= 1.48D-02 BMatP= 7.14D-02
 IDIUse=3 WtCom= 9.59D-01 WtEn= 4.10D-02
 Coeff-Com: -0.450D+00 0.866D+00 0.584D+00
 Coeff-En:   0.000D+00 0.000D+00 0.100D+01
 Coeff:     -0.431D+00 0.830D+00 0.601D+00
 Gap=     0.129 Goal=   None    Shift=    0.000
 RMSDP=5.20D-04 MaxDP=1.96D-02 DE=-1.43D-01 OVMax= 2.55D-02

 Cycle   4  Pass 1  IDiag  1:
 RMSU=  3.82D-04    CP:  9.89D-01  1.78D+00  6.75D-01
 E= -768.327299853639     Delta-E=       -0.010153085692 Rises=F Damp=F
 DIIS: error= 1.79D-03 at cycle   4 NSaved=   4.
 NSaved= 4 IEnMin= 4 EnMin= -768.327299853639     IErMin= 4 ErrMin= 1.79D-03
 ErrMax= 1.79D-03  0.00D+00 EMaxC= 1.00D-01 BMatC= 2.52D-03 BMatP= 1.48D-02
 IDIUse=3 WtCom= 9.82D-01 WtEn= 1.79D-02
 Coeff-Com: -0.144D+00 0.246D+00 0.307D+00 0.591D+00
 Coeff-En:   0.000D+00 0.000D+00 0.941D-01 0.906D+00
 Coeff:     -0.141D+00 0.241D+00 0.303D+00 0.597D+00
 Gap=     0.125 Goal=   None    Shift=    0.000
 RMSDP=1.79D-04 MaxDP=8.06D-03 DE=-1.02D-02 OVMax= 9.88D-03

 Cycle   5  Pass 1  IDiag  1:
 RMSU=  1.18D-04    CP:  9.88D-01  1.79D+00  7.54D-01  7.28D-01
 E= -768.329247178622     Delta-E=       -0.001947324983 Rises=F Damp=F
 DIIS: error= 5.56D-04 at cycle   5 NSaved=   5.
 NSaved= 5 IEnMin= 5 EnMin= -768.329247178622     IErMin= 5 ErrMin= 5.56D-04
 ErrMax= 5.56D-04  0.00D+00 EMaxC= 1.00D-01 BMatC= 1.90D-04 BMatP= 2.52D-03
 IDIUse=3 WtCom= 9.94D-01 WtEn= 5.56D-03
 Coeff-Com: -0.413D-01 0.632D-01 0.922D-01 0.285D+00 0.601D+00
 Coeff-En:   0.000D+00 0.000D+00 0.000D+00 0.000D+00 0.100D+01
 Coeff:     -0.411D-01 0.629D-01 0.917D-01 0.284D+00 0.603D+00
 Gap=     0.128 Goal=   None    Shift=    0.000
 RMSDP=5.77D-05 MaxDP=2.68D-03 DE=-1.95D-03 OVMax= 2.49D-03

 Cycle   6  Pass 1  IDiag  1:
 RMSU=  4.40D-05    CP:  9.88D-01  1.79D+00  7.57D-01  7.71D-01  7.19D-01
 E= -768.329374154343     Delta-E=       -0.000126975721 Rises=F Damp=F
 DIIS: error= 1.61D-04 at cycle   6 NSaved=   6.
 NSaved= 6 IEnMin= 6 EnMin= -768.329374154343     IErMin= 6 ErrMin= 1.61D-04
 ErrMax= 1.61D-04  0.00D+00 EMaxC= 1.00D-01 BMatC= 2.59D-05 BMatP= 1.90D-04
 IDIUse=3 WtCom= 9.98D-01 WtEn= 1.61D-03
 Coeff-Com: -0.115D-01 0.147D-01 0.237D-01 0.114D+00 0.348D+00 0.511D+00
 Coeff-En:   0.000D+00 0.000D+00 0.000D+00 0.000D+00 0.259D-01 0.974D+00
 Coeff:     -0.115D-01 0.147D-01 0.237D-01 0.114D+00 0.347D+00 0.512D+00
 Gap=     0.128 Goal=   None    Shift=    0.000
 RMSDP=1.92D-05 MaxDP=6.91D-04 DE=-1.27D-04 OVMax= 9.49D-04

 Cycle   7  Pass 1  IDiag  1:
 RMSU=  1.24D-05    CP:  9.88D-01  1.79D+00  7.58D-01  7.81D-01  7.94D-01
                    CP:  7.52D-01
 E= -768.329393942574     Delta-E=       -0.000019788231 Rises=F Damp=F
 DIIS: error= 5.46D-05 at cycle   7 NSaved=   7.
 NSaved= 7 IEnMin= 7 EnMin= -768.329393942574     IErMin= 7 ErrMin= 5.46D-05
 ErrMax= 5.46D-05  0.00D+00 EMaxC= 1.00D-01 BMatC= 1.97D-06 BMatP= 2.59D-05
 IDIUse=1 WtCom= 1.00D+00 WtEn= 0.00D+00
 Coeff-Com: -0.290D-02 0.283D-02 0.363D-02 0.377D-01 0.140D+00 0.281D+00
 Coeff-Com:  0.538D+00
 Coeff:     -0.290D-02 0.283D-02 0.363D-02 0.377D-01 0.140D+00 0.281D+00
 Coeff:      0.538D+00
 Gap=     0.127 Goal=   None    Shift=    0.000
 RMSDP=6.13D-06 MaxDP=3.32D-04 DE=-1.98D-05 OVMax= 5.13D-04

 Cycle   8  Pass 1  IDiag  1:
 RMSU=  4.39D-06    CP:  9.88D-01  1.79D+00  7.59D-01  7.88D-01  8.11D-01
                    CP:  7.78D-01  8.32D-01
 E= -768.329395593637     Delta-E=       -0.000001651063 Rises=F Damp=F
 DIIS: error= 1.70D-05 at cycle   8 NSaved=   8.
 NSaved= 8 IEnMin= 8 EnMin= -768.329395593637     IErMin= 8 ErrMin= 1.70D-05
 ErrMax= 1.70D-05  0.00D+00 EMaxC= 1.00D-01 BMatC= 2.25D-07 BMatP= 1.97D-06
 IDIUse=1 WtCom= 1.00D+00 WtEn= 0.00D+00
 Coeff-Com:  0.502D-04-0.428D-03-0.221D-02 0.567D-03 0.981D-02 0.522D-01
 Coeff-Com:  0.271D+00 0.669D+00
 Coeff:      0.502D-04-0.428D-03-0.221D-02 0.567D-03 0.981D-02 0.522D-01
 Coeff:      0.271D+00 0.669D+00
 Gap=     0.127 Goal=   None    Shift=    0.000
 RMSDP=2.65D-06 MaxDP=1.10D-04 DE=-1.65D-06 OVMax= 3.16D-04

 Cycle   9  Pass 1  IDiag  1:
 RMSU=  1.61D-06    CP:  9.88D-01  1.79D+00  7.60D-01  7.90D-01  8.17D-01
                    CP:  8.09D-01  8.98D-01  9.19D-01
 E= -768.329395784903     Delta-E=       -0.000000191266 Rises=F Damp=F
 DIIS: error= 8.76D-06 at cycle   9 NSaved=   9.
 NSaved= 9 IEnMin= 9 EnMin= -768.329395784903     IErMin= 9 ErrMin= 8.76D-06
 ErrMax= 8.76D-06  0.00D+00 EMaxC= 1.00D-01 BMatC= 5.95D-08 BMatP= 2.25D-07
 IDIUse=1 WtCom= 1.00D+00 WtEn= 0.00D+00
 Coeff-Com:  0.237D-03-0.366D-03-0.175D-02-0.406D-02-0.119D-01-0.474D-02
 Coeff-Com:  0.965D-01 0.416D+00 0.510D+00
 Coeff:      0.237D-03-0.366D-03-0.175D-02-0.406D-02-0.119D-01-0.474D-02
 Coeff:      0.965D-01 0.416D+00 0.510D+00
 Gap=     0.127 Goal=   None    Shift=    0.000
 RMSDP=1.02D-06 MaxDP=4.51D-05 DE=-1.91D-07 OVMax= 1.14D-04

 Cycle  10  Pass 1  IDiag  1:
 RMSU=  5.62D-07    CP:  9.88D-01  1.79D+00  7.60D-01  7.91D-01  8.19D-01
                    CP:  8.17D-01  9.37D-01  9.69D-01  7.24D-01
 E= -768.329395837920     Delta-E=       -0.000000053017 Rises=F Damp=F
 DIIS: error= 1.64D-06 at cycle  10 NSaved=  10.
 NSaved=10 IEnMin=10 EnMin= -768.329395837920     IErMin=10 ErrMin= 1.64D-06
 ErrMax= 1.64D-06  0.00D+00 EMaxC= 1.00D-01 BMatC= 2.39D-09 BMatP= 5.95D-08
 IDIUse=1 WtCom= 1.00D+00 WtEn= 0.00D+00
 Coeff-Com:  0.886D-04-0.997D-04-0.521D-03-0.177D-02-0.655D-02-0.825D-02
 Coeff-Com:  0.684D-02 0.776D-01 0.197D+00 0.735D+00
 Coeff:      0.886D-04-0.997D-04-0.521D-03-0.177D-02-0.655D-02-0.825D-02
 Coeff:      0.684D-02 0.776D-01 0.197D+00 0.735D+00
 Gap=     0.127 Goal=   None    Shift=    0.000
 RMSDP=3.60D-07 MaxDP=7.80D-06 DE=-5.30D-08 OVMax= 4.87D-05

 Cycle  11  Pass 1  IDiag  1:
 RMSU=  1.66D-07    CP:  9.88D-01  1.79D+00  7.60D-01  7.91D-01  8.20D-01
                    CP:  8.20D-01  9.48D-01  9.96D-01  7.93D-01  9.16D-01
 E= -768.329395840982     Delta-E=       -0.000000003062 Rises=F Damp=F
 DIIS: error= 5.09D-07 at cycle  11 NSaved=  11.
 NSaved=11 IEnMin=11 EnMin= -768.329395840982     IErMin=11 ErrMin= 5.09D-07
 ErrMax= 5.09D-07  0.00D+00 EMaxC= 1.00D-01 BMatC= 2.04D-10 BMatP= 2.39D-09
 IDIUse=1 WtCom= 1.00D+00 WtEn= 0.00D+00
 Coeff-Com:  0.216D-04-0.198D-04-0.115D-03-0.455D-03-0.197D-02-0.287D-02
 Coeff-Com: -0.346D-02 0.466D-02 0.497D-01 0.307D+00 0.648D+00
 Coeff:      0.216D-04-0.198D-04-0.115D-03-0.455D-03-0.197D-02-0.287D-02
 Coeff:     -0.346D-02 0.466D-02 0.497D-01 0.307D+00 0.648D+00
 Gap=     0.127 Goal=   None    Shift=    0.000
 RMSDP=9.65D-08 MaxDP=2.05D-06 DE=-3.06D-09 OVMax= 1.17D-05

 Cycle  12  Pass 1  IDiag  1:
 RMSU=  6.22D-08    CP:  9.88D-01  1.79D+00  7.60D-01  7.91D-01  8.20D-01
                    CP:  8.21D-01  9.49D-01  1.00D+00  8.06D-01  9.80D-01
                    CP:  9.05D-01
 E= -768.329395841231     Delta-E=       -0.000000000249 Rises=F Damp=F
 DIIS: error= 2.45D-07 at cycle  12 NSaved=  12.
 NSaved=12 IEnMin=12 EnMin= -768.329395841231     IErMin=12 ErrMin= 2.45D-07
 ErrMax= 2.45D-07  0.00D+00 EMaxC= 1.00D-01 BMatC= 3.50D-11 BMatP= 2.04D-10
 IDIUse=1 WtCom= 1.00D+00 WtEn= 0.00D+00
 Coeff-Com: -0.657D-05 0.114D-04 0.321D-04 0.817D-04 0.112D-03 0.107D-04
 Coeff-Com: -0.312D-02-0.114D-01-0.839D-02 0.261D-01 0.316D+00 0.680D+00
 Coeff:     -0.657D-05 0.114D-04 0.321D-04 0.817D-04 0.112D-03 0.107D-04
 Coeff:     -0.312D-02-0.114D-01-0.839D-02 0.261D-01 0.316D+00 0.680D+00
 Gap=     0.127 Goal=   None    Shift=    0.000
 RMSDP=3.74D-08 MaxDP=8.50D-07 DE=-2.49D-10 OVMax= 4.53D-06

 Cycle  13  Pass 1  IDiag  1:
 RMSU=  1.54D-08    CP:  9.88D-01  1.79D+00  7.60D-01  7.91D-01  8.20D-01
                    CP:  8.21D-01  9.50D-01  1.00D+00  8.13D-01  1.00D+00
                    CP:  1.02D+00  8.96D-01
 E= -768.329395841267     Delta-E=       -0.000000000036 Rises=F Damp=F
 DIIS: error= 6.64D-08 at cycle  13 NSaved=  13.
 NSaved=13 IEnMin=13 EnMin= -768.329395841267     IErMin=13 ErrMin= 6.64D-08
 ErrMax= 6.64D-08  0.00D+00 EMaxC= 1.00D-01 BMatC= 1.78D-12 BMatP= 3.50D-11
 IDIUse=1 WtCom= 1.00D+00 WtEn= 0.00D+00
 Coeff-Com: -0.327D-05 0.470D-05 0.184D-04 0.598D-04 0.162D-03 0.207D-03
 Coeff-Com: -0.993D-03-0.454D-02-0.602D-02-0.994D-02 0.866D-01 0.257D+00
 Coeff-Com:  0.678D+00
 Coeff:     -0.327D-05 0.470D-05 0.184D-04 0.598D-04 0.162D-03 0.207D-03
 Coeff:     -0.993D-03-0.454D-02-0.602D-02-0.994D-02 0.866D-01 0.257D+00
 Coeff:      0.678D+00
 Gap=     0.127 Goal=   None    Shift=    0.000
 RMSDP=9.10D-09 MaxDP=2.69D-07 DE=-3.59D-11 OVMax= 8.80D-07

 Error on total polarization charges =  0.01234
 SCF Done:  E(RB3LYP) =  -768.329395841     A.U. after   13 cycles
            NFock= 13  Conv=0.91D-08     -V/T= 2.0091
 KE= 7.614084084065D+02 PE=-4.117381906522D+03 EE= 1.416799228901D+03
 Leave Link  502 at Fri May 24 08:34:28 2019, MaxMem=   402653184 cpu:             511.1 elap:             127.9
 (Enter /n/sw/g16_nehalem/g16/l601.exe)
 Copying SCF densities to generalized density rwf, IOpCl= 0 IROHF=0.

 **********************************************************************

            Population analysis using the SCF density.

 **********************************************************************

 Orbital symmetries:
       Occupied  (A) (A) (A) (A) (A) (A) (A) (A) (A) (A) (A) (A)
                 (A) (A) (A) (A) (A) (A) (A) (A) (A) (A) (A) (A)
                 (A) (A) (A) (A) (A) (A) (A) (A) (A) (A) (A) (A)
                 (A) (A) (A) (A) (A) (A) (A) (A) (A) (A) (A) (A)
                 (A) (A) (A) (A) (A) (A) (A) (A) (A) (A) (A)
       Virtual   (A) (A) (A) (A) (A) (A) (A) (A) (A) (A) (A) (A)
                 (A) (A) (A) (A) (A) (A) (A) (A) (A) (A) (A) (A)
                 (A) (A) (A) (A) (A) (A) (A) (A) (A) (A) (A) (A)
                 (A) (A) (A) (A) (A) (A) (A) (A) (A) (A) (A) (A)
                 (A) (A) (A) (A) (A) (A) (A) (A) (A) (A) (A) (A)
                 (A) (A) (A) (A) (A) (A) (A) (A) (A) (A) (A) (A)
                 (A) (A) (A) (A) (A) (A) (A) (A) (A) (A) (A) (A)
                 (A) (A) (A) (A) (A) (A) (A) (A) (A) (A) (A) (A)
                 (A) (A) (A) (A) (A) (A) (A) (A) (A) (A) (A) (A)
                 (A) (A) (A) (A) (A) (A) (A) (A) (A) (A) (A) (A)
                 (A) (A) (A) (A) (A) (A) (A) (A) (A) (A) (A) (A)
                 (A) (A) (A) (A) (A) (A) (A) (A) (A) (A) (A) (A)
                 (A) (A) (A) (A) (A) (A) (A) (A) (A) (A) (A) (A)
                 (A) (A) (A) (A) (A) (A) (A) (A) (A) (A) (A) (A)
                 (A) (A) (A) (A) (A) (A) (A) (A) (A) (A) (A) (A)
                 (A) (A) (A) (A) (A) (A) (A) (A) (A) (A) (A) (A)
                 (A) (A) (A) (A) (A) (A) (A) (A) (A) (A) (A) (A)
 The electronic state is 1-A.
 Alpha  occ. eigenvalues --  -19.32702 -19.21565 -19.19633 -19.18961 -19.18296
 Alpha  occ. eigenvalues --  -10.39335 -10.31407 -10.31281 -10.29181 -10.28910
 Alpha  occ. eigenvalues --  -10.27407 -10.26259 -10.25428 -10.25041 -10.24603
 Alpha  occ. eigenvalues --   -1.21499  -1.09663  -1.07896  -1.07005  -1.06511
 Alpha  occ. eigenvalues --   -0.86696  -0.85232  -0.76479  -0.74642  -0.73807
 Alpha  occ. eigenvalues --   -0.70854  -0.69039  -0.67743  -0.66197  -0.61269
 Alpha  occ. eigenvalues --   -0.59919  -0.58249  -0.56974  -0.54232  -0.53290
 Alpha  occ. eigenvalues --   -0.51871  -0.50948  -0.50413  -0.50005  -0.49545
 Alpha  occ. eigenvalues --   -0.48320  -0.47800  -0.46557  -0.46146  -0.45566
 Alpha  occ. eigenvalues --   -0.43538  -0.42947  -0.42190  -0.41481  -0.40272
 Alpha  occ. eigenvalues --   -0.39434  -0.37224  -0.36285  -0.35963  -0.34974
 Alpha  occ. eigenvalues --   -0.32196  -0.31277  -0.28944  -0.28079
 Alpha virt. eigenvalues --   -0.15339   0.01041   0.04455   0.05808   0.06229
 Alpha virt. eigenvalues --    0.07225   0.08462   0.10359   0.10417   0.10964
 Alpha virt. eigenvalues --    0.11103   0.11843   0.12296   0.12664   0.12927
 Alpha virt. eigenvalues --    0.13752   0.14359   0.14611   0.15078   0.15453
 Alpha virt. eigenvalues --    0.15724   0.16390   0.16554   0.16747   0.17314
 Alpha virt. eigenvalues --    0.17815   0.19288   0.20573   0.21782   0.22480
 Alpha virt. eigenvalues --    0.23054   0.23259   0.26867   0.28584   0.30212
 Alpha virt. eigenvalues --    0.44728   0.46010   0.47020   0.47637   0.48162
 Alpha virt. eigenvalues --    0.48346   0.49990   0.50819   0.50930   0.51770
 Alpha virt. eigenvalues --    0.52617   0.53137   0.54214   0.55167   0.56225
 Alpha virt. eigenvalues --    0.56571   0.57998   0.58531   0.58791   0.60176
 Alpha virt. eigenvalues --    0.62108   0.63987   0.64951   0.69199   0.69975
 Alpha virt. eigenvalues --    0.72729   0.73713   0.74642   0.76604   0.79237
 Alpha virt. eigenvalues --    0.79880   0.80512   0.81092   0.81227   0.82676
 Alpha virt. eigenvalues --    0.83066   0.83602   0.84503   0.85208   0.85422
 Alpha virt. eigenvalues --    0.86233   0.86793   0.87772   0.88716   0.89708
 Alpha virt. eigenvalues --    0.90321   0.91725   0.92479   0.93476   0.94363
 Alpha virt. eigenvalues --    0.95477   0.96142   0.97159   1.00173   1.02619
 Alpha virt. eigenvalues --    1.02951   1.04907   1.06169   1.07922   1.09749
 Alpha virt. eigenvalues --    1.12936   1.14885   1.17203   1.19154   1.20473
 Alpha virt. eigenvalues --    1.22718   1.27940   1.28408   1.30003   1.32542
 Alpha virt. eigenvalues --    1.35113   1.35666   1.39449   1.39972   1.42620
 Alpha virt. eigenvalues --    1.43334   1.45273   1.47060   1.48656   1.49428
 Alpha virt. eigenvalues --    1.50471   1.53188   1.54556   1.57100   1.60499
 Alpha virt. eigenvalues --    1.62422   1.64141   1.66769   1.67674   1.72521
 Alpha virt. eigenvalues --    1.73541   1.75845   1.79077   1.81719   1.83008
 Alpha virt. eigenvalues --    1.85001   1.87439   1.89093   1.91157   1.92953
 Alpha virt. eigenvalues --    1.93554   1.95155   1.97671   1.98226   2.00569
 Alpha virt. eigenvalues --    2.01068   2.02463   2.03139   2.04377   2.05818
 Alpha virt. eigenvalues --    2.06337   2.07344   2.08317   2.08775   2.10511
 Alpha virt. eigenvalues --    2.11288   2.12685   2.14894   2.15012   2.17109
 Alpha virt. eigenvalues --    2.18572   2.21470   2.22382   2.24642   2.27465
 Alpha virt. eigenvalues --    2.27615   2.28713   2.31740   2.35123   2.37634
 Alpha virt. eigenvalues --    2.38170   2.40505   2.43236   2.46440   2.48646
 Alpha virt. eigenvalues --    2.50287   2.54166   2.55940   2.56743   2.61764
 Alpha virt. eigenvalues --    2.63379   2.65242   2.70599   2.74653   2.77831
 Alpha virt. eigenvalues --    2.79262   2.80329   2.82620   2.88653   2.93909
 Alpha virt. eigenvalues --    2.95130   2.97170   3.01152   3.07405   3.79836
 Alpha virt. eigenvalues --    3.88453   3.94975   4.02079   4.10361   4.17517
 Alpha virt. eigenvalues --    4.22081   4.23003   4.24113   4.26364   4.30635
 Alpha virt. eigenvalues --    4.36716   4.54095   4.55692   4.72187
          Condensed to atoms (all electrons):
               1          2          3          4          5          6
     1  C    5.047592   0.354140  -0.051045  -0.044592   0.276622   0.003503
     2  C    0.354140   5.013579   0.267660  -0.011672  -0.023196  -0.035628
     3  C   -0.051045   0.267660   4.819398  -0.033681  -0.028688   0.359474
     4  C   -0.044592  -0.011672  -0.033681   5.078877   0.320910   0.003222
     5  C    0.276622  -0.023196  -0.028688   0.320910   5.017225  -0.000143
     6  H    0.003503  -0.035628   0.359474   0.003222  -0.000143   0.430310
     7  H   -0.027403   0.360184  -0.045160   0.000662   0.004495  -0.000579
     8  H    0.368926  -0.036455   0.007506   0.003438  -0.050681  -0.000109
     9  H   -0.004011  -0.000444  -0.003187   0.355972  -0.035537  -0.000097
    10  H   -0.055979   0.002925   0.001822  -0.044619   0.361024   0.000028
    11  O   -0.002644  -0.028219   0.400996   0.112117  -0.022298  -0.038962
    12  O   -0.039316   0.189951  -0.033490  -0.000257  -0.001866   0.002088
    13  O    0.159041  -0.057919   0.025955   0.003330  -0.036955  -0.000385
    14  O   -0.029117  -0.000713   0.000411  -0.037216   0.179735   0.000002
    15  C    0.002659   0.000128   0.002062   0.351475  -0.026997  -0.000136
    16  H    0.000168  -0.000008  -0.000083  -0.033564  -0.007598   0.000003
    17  H   -0.000122   0.000009   0.000026  -0.027493   0.005040  -0.000017
    18  O   -0.000007  -0.000030   0.000438  -0.052364  -0.006641   0.000014
    19  C    0.004036  -0.035727  -0.000422  -0.000013  -0.000076   0.000173
    20  H   -0.000148   0.004920  -0.000229   0.000010   0.000018   0.000005
    21  H   -0.000206  -0.005042   0.003205  -0.000055  -0.000006  -0.000766
    22  H    0.000092  -0.007905  -0.000786   0.000022  -0.000004   0.000078
    23  C   -0.032830   0.005320  -0.000462   0.000110  -0.004030   0.000018
    24  H    0.004642  -0.000221  -0.000030   0.000000  -0.000045  -0.000003
    25  H   -0.004522   0.000046  -0.000062  -0.000022   0.004804  -0.000002
    26  H   -0.008020  -0.000220   0.000139   0.000003  -0.001056   0.000001
    27  C   -0.002321   0.000081  -0.000001   0.004500  -0.034867   0.000000
    28  H   -0.000075   0.000004   0.000000  -0.000226   0.005118   0.000000
    29  H    0.003967  -0.000022  -0.000004  -0.000081  -0.004604   0.000000
    30  H   -0.001156  -0.000015   0.000003   0.000259  -0.008641   0.000000
    31  C    0.000000   0.000000  -0.000002   0.005742   0.000245   0.000000
    32  H    0.000000   0.000000   0.000000   0.000074   0.000016   0.000000
    33  H    0.000000   0.000000   0.000000  -0.000272   0.000008   0.000000
    34  H   -0.000002   0.000000   0.000001  -0.000006  -0.000081   0.000000
               7          8          9         10         11         12
     1  C   -0.027403   0.368926  -0.004011  -0.055979  -0.002644  -0.039316
     2  C    0.360184  -0.036455  -0.000444   0.002925  -0.028219   0.189951
     3  C   -0.045160   0.007506  -0.003187   0.001822   0.400996  -0.033490
     4  C    0.000662   0.003438   0.355972  -0.044619   0.112117  -0.000257
     5  C    0.004495  -0.050681  -0.035537   0.361024  -0.022298  -0.001866
     6  H   -0.000579  -0.000109  -0.000097   0.000028  -0.038962   0.002088
     7  H    0.518148  -0.006074   0.000103  -0.000168   0.002355  -0.026965
     8  H   -0.006074   0.529170  -0.000015   0.001288  -0.000071   0.003402
     9  H    0.000103  -0.000015   0.465127   0.004620  -0.022593   0.011268
    10  H   -0.000168   0.001288   0.004620   0.548131   0.000263   0.000062
    11  O    0.002355  -0.000071  -0.022593   0.000263   7.933161  -0.004355
    12  O   -0.026965   0.003402   0.011268   0.000062  -0.004355   8.238205
    13  O    0.003977  -0.025167   0.000023   0.001404  -0.003725   0.001472
    14  O   -0.000128   0.001726   0.004791  -0.029281   0.001049   0.001334
    15  C    0.000021  -0.000115  -0.028612  -0.010896  -0.035620   0.000428
    16  H    0.000000  -0.000002   0.001379  -0.000837   0.003177  -0.000002
    17  H    0.000000   0.000002  -0.000842   0.000766  -0.002936  -0.000005
    18  O    0.000000  -0.000003   0.002107   0.018507   0.003063  -0.000001
    19  C   -0.006009   0.000077  -0.000104   0.000005   0.000074   0.223514
    20  H    0.000063  -0.000020  -0.000046   0.000000  -0.000006  -0.029918
    21  H   -0.000859   0.000024  -0.000070   0.000000   0.000290  -0.032908
    22  H    0.009910  -0.000060   0.000040   0.000000  -0.000008  -0.032556
    23  C    0.000054  -0.004435   0.000000   0.002613   0.000031  -0.000052
    24  H   -0.000027   0.000017   0.000000  -0.000148   0.000005   0.000000
    25  H    0.000037  -0.001574   0.000000   0.002631   0.000004   0.000003
    26  H   -0.000110   0.009574   0.000000   0.000167  -0.000005  -0.000002
    27  C   -0.000003   0.002183  -0.000053  -0.005886  -0.000048   0.000025
    28  H    0.000000  -0.000145  -0.000027  -0.000001   0.000000  -0.000002
    29  H    0.000010   0.001768   0.000011  -0.001551   0.000004  -0.000004
    30  H   -0.000001   0.000160   0.000083   0.011048  -0.000002   0.000000
    31  C    0.000000   0.000000  -0.000132  -0.000461  -0.000029   0.000000
    32  H    0.000000   0.000000   0.000006   0.000075  -0.000026   0.000000
    33  H    0.000000   0.000000   0.000002  -0.000032   0.000001   0.000000
    34  H    0.000000   0.000000   0.000009  -0.000049   0.000007   0.000000
              13         14         15         16         17         18
     1  C    0.159041  -0.029117   0.002659   0.000168  -0.000122  -0.000007
     2  C   -0.057919  -0.000713   0.000128  -0.000008   0.000009  -0.000030
     3  C    0.025955   0.000411   0.002062  -0.000083   0.000026   0.000438
     4  C    0.003330  -0.037216   0.351475  -0.033564  -0.027493  -0.052364
     5  C   -0.036955   0.179735  -0.026997  -0.007598   0.005040  -0.006641
     6  H   -0.000385   0.000002  -0.000136   0.000003  -0.000017   0.000014
     7  H    0.003977  -0.000128   0.000021   0.000000   0.000000   0.000000
     8  H   -0.025167   0.001726  -0.000115  -0.000002   0.000002  -0.000003
     9  H    0.000023   0.004791  -0.028612   0.001379  -0.000842   0.002107
    10  H    0.001404  -0.029281  -0.010896  -0.000837   0.000766   0.018507
    11  O   -0.003725   0.001049  -0.035620   0.003177  -0.002936   0.003063
    12  O    0.001472   0.001334   0.000428  -0.000002  -0.000005  -0.000001
    13  O    8.289320   0.001502  -0.000158  -0.000003   0.000002   0.000017
    14  O    0.001502   8.255504   0.000249   0.004207  -0.000014   0.000118
    15  C   -0.000158   0.000249   4.882282   0.355079   0.353774   0.239939
    16  H   -0.000003   0.004207   0.355079   0.576042  -0.044996  -0.036739
    17  H    0.000002  -0.000014   0.353774  -0.044996   0.576750  -0.039187
    18  O    0.000017   0.000118   0.239939  -0.036739  -0.039187   8.207729
    19  C   -0.000044   0.000060  -0.000009   0.000000   0.000000   0.000000
    20  H    0.000001   0.000002   0.000000   0.000000   0.000000   0.000000
    21  H    0.000004   0.000000   0.000000   0.000000   0.000000   0.000000
    22  H   -0.000008  -0.000001   0.000000   0.000000   0.000000   0.000000
    23  C    0.236251  -0.000002   0.000000   0.000000   0.000000   0.000003
    24  H   -0.030506   0.000001   0.000000   0.000000   0.000000  -0.000001
    25  H   -0.036626  -0.000396   0.000017   0.000001   0.000000  -0.000048
    26  H   -0.035037   0.000035  -0.000001   0.000000   0.000000   0.000000
    27  C   -0.000030   0.236157  -0.000078   0.000014   0.000005  -0.000005
    28  H    0.000001  -0.031003   0.000012  -0.000017   0.000000   0.000000
    29  H   -0.000355  -0.036428  -0.000007   0.000029   0.000000   0.000001
    30  H    0.000035  -0.035006   0.000044  -0.000006  -0.000003  -0.000058
    31  C    0.000000  -0.000007  -0.040889  -0.004191  -0.004284   0.245599
    32  H    0.000000   0.000000  -0.007715  -0.002126   0.010944  -0.035663
    33  H    0.000000   0.000000   0.005601  -0.000106  -0.000132  -0.031630
    34  H    0.000000  -0.000002  -0.007281   0.010943  -0.002155  -0.036381
              19         20         21         22         23         24
     1  C    0.004036  -0.000148  -0.000206   0.000092  -0.032830   0.004642
     2  C   -0.035727   0.004920  -0.005042  -0.007905   0.005320  -0.000221
     3  C   -0.000422  -0.000229   0.003205  -0.000786  -0.000462  -0.000030
     4  C   -0.000013   0.000010  -0.000055   0.000022   0.000110   0.000000
     5  C   -0.000076   0.000018  -0.000006  -0.000004  -0.004030  -0.000045
     6  H    0.000173   0.000005  -0.000766   0.000078   0.000018  -0.000003
     7  H   -0.006009   0.000063  -0.000859   0.009910   0.000054  -0.000027
     8  H    0.000077  -0.000020   0.000024  -0.000060  -0.004435   0.000017
     9  H   -0.000104  -0.000046  -0.000070   0.000040   0.000000   0.000000
    10  H    0.000005   0.000000   0.000000   0.000000   0.002613  -0.000148
    11  O    0.000074  -0.000006   0.000290  -0.000008   0.000031   0.000005
    12  O    0.223514  -0.029918  -0.032908  -0.032556  -0.000052   0.000000
    13  O   -0.000044   0.000001   0.000004  -0.000008   0.236251  -0.030506
    14  O    0.000060   0.000002   0.000000  -0.000001  -0.000002   0.000001
    15  C   -0.000009   0.000000   0.000000   0.000000   0.000000   0.000000
    16  H    0.000000   0.000000   0.000000   0.000000   0.000000   0.000000
    17  H    0.000000   0.000000   0.000000   0.000000   0.000000   0.000000
    18  O    0.000000   0.000000   0.000000   0.000000   0.000003  -0.000001
    19  C    4.915042   0.386111   0.371111   0.371014   0.000002   0.000000
    20  H    0.386111   0.496213  -0.029751  -0.025895   0.000000   0.000000
    21  H    0.371111  -0.029751   0.561818  -0.040198   0.000000   0.000000
    22  H    0.371014  -0.025895  -0.040198   0.547613   0.000000   0.000000
    23  C    0.000002   0.000000   0.000000   0.000000   4.895759   0.386245
    24  H    0.000000   0.000000   0.000000   0.000000   0.386245   0.510529
    25  H    0.000000   0.000000   0.000000   0.000000   0.364941  -0.030046
    26  H    0.000000   0.000000   0.000000   0.000000   0.372194  -0.028227
    27  C   -0.000001   0.000000   0.000000   0.000000  -0.000063   0.000003
    28  H    0.000000   0.000000   0.000000   0.000000   0.000003   0.000000
    29  H   -0.000001   0.000000   0.000000   0.000000   0.000194  -0.000003
    30  H    0.000000   0.000000   0.000000   0.000000  -0.000052   0.000001
    31  C    0.000000   0.000000   0.000000   0.000000   0.000000   0.000000
    32  H    0.000000   0.000000   0.000000   0.000000   0.000000   0.000000
    33  H    0.000000   0.000000   0.000000   0.000000   0.000000   0.000000
    34  H    0.000000   0.000000   0.000000   0.000000   0.000000   0.000000
              25         26         27         28         29         30
     1  C   -0.004522  -0.008020  -0.002321  -0.000075   0.003967  -0.001156
     2  C    0.000046  -0.000220   0.000081   0.000004  -0.000022  -0.000015
     3  C   -0.000062   0.000139  -0.000001   0.000000  -0.000004   0.000003
     4  C   -0.000022   0.000003   0.004500  -0.000226  -0.000081   0.000259
     5  C    0.004804  -0.001056  -0.034867   0.005118  -0.004604  -0.008641
     6  H   -0.000002   0.000001   0.000000   0.000000   0.000000   0.000000
     7  H    0.000037  -0.000110  -0.000003   0.000000   0.000010  -0.000001
     8  H   -0.001574   0.009574   0.002183  -0.000145   0.001768   0.000160
     9  H    0.000000   0.000000  -0.000053  -0.000027   0.000011   0.000083
    10  H    0.002631   0.000167  -0.005886  -0.000001  -0.001551   0.011048
    11  O    0.000004  -0.000005  -0.000048   0.000000   0.000004  -0.000002
    12  O    0.000003  -0.000002   0.000025  -0.000002  -0.000004   0.000000
    13  O   -0.036626  -0.035037  -0.000030   0.000001  -0.000355   0.000035
    14  O   -0.000396   0.000035   0.236157  -0.031003  -0.036428  -0.035006
    15  C    0.000017  -0.000001  -0.000078   0.000012  -0.000007   0.000044
    16  H    0.000001   0.000000   0.000014  -0.000017   0.000029  -0.000006
    17  H    0.000000   0.000000   0.000005   0.000000   0.000000  -0.000003
    18  O   -0.000048   0.000000  -0.000005   0.000000   0.000001  -0.000058
    19  C    0.000000   0.000000  -0.000001   0.000000  -0.000001   0.000000
    20  H    0.000000   0.000000   0.000000   0.000000   0.000000   0.000000
    21  H    0.000000   0.000000   0.000000   0.000000   0.000000   0.000000
    22  H    0.000000   0.000000   0.000000   0.000000   0.000000   0.000000
    23  C    0.364941   0.372194  -0.000063   0.000003   0.000194  -0.000052
    24  H   -0.030046  -0.028227   0.000003   0.000000  -0.000003   0.000001
    25  H    0.579006  -0.043767   0.000145  -0.000004   0.000499   0.000114
    26  H   -0.043767   0.566948  -0.000043   0.000000   0.000121   0.000003
    27  C    0.000145  -0.000043   4.903626   0.386452   0.365612   0.368822
    28  H   -0.000004   0.000000   0.386452   0.514424  -0.030947  -0.028464
    29  H    0.000499   0.000121   0.365612  -0.030947   0.586893  -0.044642
    30  H    0.000114   0.000003   0.368822  -0.028464  -0.044642   0.574232
    31  C    0.000001   0.000000  -0.000001   0.000000   0.000000   0.000008
    32  H    0.000000   0.000000   0.000000   0.000000   0.000000   0.000000
    33  H    0.000001   0.000000   0.000000   0.000000   0.000000   0.000000
    34  H    0.000000   0.000000   0.000001   0.000000   0.000000   0.000012
              31         32         33         34
     1  C    0.000000   0.000000   0.000000  -0.000002
     2  C    0.000000   0.000000   0.000000   0.000000
     3  C   -0.000002   0.000000   0.000000   0.000001
     4  C    0.005742   0.000074  -0.000272  -0.000006
     5  C    0.000245   0.000016   0.000008  -0.000081
     6  H    0.000000   0.000000   0.000000   0.000000
     7  H    0.000000   0.000000   0.000000   0.000000
     8  H    0.000000   0.000000   0.000000   0.000000
     9  H   -0.000132   0.000006   0.000002   0.000009
    10  H   -0.000461   0.000075  -0.000032  -0.000049
    11  O   -0.000029  -0.000026   0.000001   0.000007
    12  O    0.000000   0.000000   0.000000   0.000000
    13  O    0.000000   0.000000   0.000000   0.000000
    14  O   -0.000007   0.000000   0.000000  -0.000002
    15  C   -0.040889  -0.007715   0.005601  -0.007281
    16  H   -0.004191  -0.002126  -0.000106   0.010943
    17  H   -0.004284   0.010944  -0.000132  -0.002155
    18  O    0.245599  -0.035663  -0.031630  -0.036381
    19  C    0.000000   0.000000   0.000000   0.000000
    20  H    0.000000   0.000000   0.000000   0.000000
    21  H    0.000000   0.000000   0.000000   0.000000
    22  H    0.000000   0.000000   0.000000   0.000000
    23  C    0.000000   0.000000   0.000000   0.000000
    24  H    0.000000   0.000000   0.000000   0.000000
    25  H    0.000001   0.000000   0.000001   0.000000
    26  H    0.000000   0.000000   0.000000   0.000000
    27  C   -0.000001   0.000000   0.000000   0.000001
    28  H    0.000000   0.000000   0.000000   0.000000
    29  H    0.000000   0.000000   0.000000   0.000000
    30  H    0.000008   0.000000   0.000000   0.000012
    31  C    4.887023   0.367421   0.385764   0.368578
    32  H    0.367421   0.586409  -0.030698  -0.044976
    33  H    0.385764  -0.030698   0.524131  -0.030459
    34  H    0.368578  -0.044976  -0.030459   0.585789
 Mulliken charges:
               1
     1  C    0.078127
     2  C    0.044485
     3  C    0.308237
     4  C    0.045410
     5  C    0.118752
     6  H    0.277908
     7  H    0.213465
     8  H    0.195663
     9  H    0.250226
    10  H    0.192529
    11  O   -0.295053
    12  O   -0.470055
    13  O   -0.495417
    14  O   -0.487569
    15  C   -0.035255
    16  H    0.179238
    17  H    0.174871
    18  O   -0.478775
    19  C   -0.228814
    20  H    0.198669
    21  H    0.173409
    22  H    0.178651
    23  C   -0.221813
    24  H    0.187815
    25  H    0.164818
    26  H    0.167299
    27  C   -0.224227
    28  H    0.184897
    29  H    0.159537
    30  H    0.163223
    31  C   -0.210386
    32  H    0.156260
    33  H    0.177823
    34  H    0.156053
 Sum of Mulliken charges =   1.00000
 Mulliken charges with hydrogens summed into heavy atoms:
               1
     1  C    0.273790
     2  C    0.257950
     3  C    0.586144
     4  C    0.295636
     5  C    0.311280
    11  O   -0.295053
    12  O   -0.470055
    13  O   -0.495417
    14  O   -0.487569
    15  C    0.318854
    18  O   -0.478775
    19  C    0.321916
    23  C    0.298119
    27  C    0.283431
    31  C    0.279750
 Electronic spatial extent (au):  <R**2>=           3379.1184
 Charge=              1.0000 electrons
 Dipole moment (field-independent basis, Debye):
    X=              2.6780    Y=             -1.9044    Z=             -1.6311  Tot=              3.6686
 Quadrupole moment (field-independent basis, Debye-Ang):
   XX=            -56.6101   YY=            -64.9054   ZZ=            -79.6248
   XY=             -5.1705   XZ=             -7.1573   YZ=              2.2479
 Traceless Quadrupole moment (field-independent basis, Debye-Ang):
   XX=             10.4367   YY=              2.1414   ZZ=            -12.5781
   XY=             -5.1705   XZ=             -7.1573   YZ=              2.2479
 Octapole moment (field-independent basis, Debye-Ang**2):
[...]
 589,0.00018545,0.00011260,0.00005744,-0.00007579,-0.00005507,-0.000035
 31,-0.00005176,-0.00031903,-0.00002292,-0.00013056,-0.00013408,0.00008
 812,-0.00003697,0.00000813,-0.00001170,0.00000757,0.00001653,-0.000016
 94,-0.00000978,0.00003772,-0.00001216,-0.00001442,-0.00018669,-0.00033
 602,-0.00023442,-0.00003003,0.00006706,0.00000961,-0.00019098,-0.00006
 841,-0.00013090,0.00007147,0.00005700,0.00003330,-0.09631634,-0.154341
 97,0.07736685,0.00090255,0.00344074,0.00022230,0.10447844,0.18458986,0
 .00055567,0.00049668,0.00060534,-0.00006285,-0.00006424,0.00023494,0.0
 0003725,-0.00008272,-0.00000954,-0.00000755,0.00000169,0.00008954,-0.0
 0199383,-0.00064800,0.00159666,0.00001813,0.00001082,-0.00001926,-0.00
 004693,0.00006357,0.00000382,0.00082796,-0.00061876,-0.00043943,0.0000
 3241,0.00002512,-0.00015035,-0.00023872,-0.00027623,-0.00006458,-0.000
 08030,0.00002675,-0.00009091,-0.00010817,0.00006448,-0.00009538,-0.000
 19878,0.00006985,0.00032363,-0.00609027,-0.01018244,0.00807417,-0.0000
 7882,0.00006904,0.00001234,-0.00000768,-0.00001263,0.00000036,0.000042
 62,0.00001154,0.00000189,0.00006107,0.00000501,0.00002634,0.00009134,-
 0.00003558,0.00000186,-0.00001011,0.00001129,-0.00000584,-0.00001141,0
 .00000987,0.00000783,-0.00001224,0.00000304,0.00000954,0.00009544,0.00
 004558,-0.00138406,-0.00002617,0.00001252,0.00005406,-0.00022004,-0.00
 001217,-0.00079451,-0.00000305,-0.00000748,-0.00007068,0.07205668,0.08
 030428,-0.11520191,0.02008812,0.02084551,-0.01292172,-0.07932100,-0.08
 507934,0.11565311,-0.00028996,0.00003448,-0.00040533,0.00010023,-0.000
 07577,-0.00002939,0.00002428,-0.00000517,-0.00012153,0.00029950,-0.000
 52170,0.00012719,0.00104499,-0.00139760,-0.00227450,0.00000832,-0.0000
 0048,0.00001734,-0.00003333,0.00003110,0.00002630,0.00008020,0.0000558
 4,-0.00003419,-0.00009921,-0.00020324,0.00000831,-0.00070376,0.0005805
 5,0.00152150,-0.00002166,0.00017929,0.00025509,-0.00017472,0.00011334,
 -0.00001398,0.00017222,-0.00029080,0.00046792,-0.00425643,0.01355357,0
 .00259105,-0.00006371,0.00009442,-0.00010472,-0.00006671,-0.00004979,0
 .00004948,0.00004676,0.00001045,0.00002153,0.00014593,-0.00001960,0.00
 004373,0.00013728,-0.00007314,0.00002760,-0.00000923,0.00000363,-0.000
 00563,-0.00001925,0.00002469,0.00001376,-0.00002166,0.00000352,0.00000
 663,-0.00028305,0.00033243,-0.00001619,0.00004471,-0.00002589,0.000000
 42,0.00008544,-0.00003514,0.00003129,0.00002809,-0.00002875,-0.0000131
 6,-0.29099446,0.02977730,-0.05419807,-0.00213585,-0.00081424,-0.000641
 83,-0.01722699,0.00141021,-0.00536386,0.31423357,-0.00089740,-0.000200
 16,-0.00028995,-0.00007023,0.00012735,0.00018100,-0.00010549,0.0000498
 3,0.00007330,-0.00009299,0.00029948,0.00038310,0.00249658,0.00177328,0
 .00669090,0.00001186,-0.00001189,0.00001143,0.00002691,-0.00002577,-0.
 00003124,0.00003031,0.00002466,0.00003113,0.00000330,0.00021223,-0.000
 02830,-0.00097067,0.00072494,-0.00086591,0.00005468,-0.00007032,-0.000
 11499,0.00031342,-0.00020305,-0.00002796,0.00026244,0.00022536,-0.0005
 5049,0.03800374,-0.02366774,-0.00108975,0.00021743,-0.00004675,-0.0001
 5363,0.00001481,0.00002224,0.00004814,-0.00007677,-0.00001495,0.000014
 68,-0.00024288,-0.00006114,-0.00003796,-0.00016725,0.00008310,-0.00007
 991,0.00000893,-0.00000928,0.00001126,0.00003986,-0.00002942,-0.000008
 39,0.00004176,-0.00001380,-0.00001450,-0.00002304,-0.00021644,0.000029
 05,0.00001266,0.00003865,-0.00002425,0.00002305,0.00002667,0.00003524,
 0.00002359,0.00003932,-0.00000114,0.02566952,-0.05406803,0.00591822,-0
 .00154612,0.00149163,0.00090490,-0.02042054,0.00590679,-0.00505530,-0.
 04267632,0.06761092,-0.00028977,0.00019189,-0.00014965,-0.00012071,-0.
 00006647,0.00009365,0.00008292,-0.00000880,-0.00000647,-0.00000183,-0.
 00030830,0.00020573,0.00433570,-0.00068090,0.00308082,-0.00000826,-0.0
 0000129,-0.00000466,-0.00002773,0.00004344,-0.00000253,-0.00013229,0.0
 0001453,0.00008669,-0.00006856,0.00004827,-0.00003232,-0.00089416,0.00
 073162,0.00015675,-0.00006158,0.00011777,0.00009760,0.00002596,-0.0000
 2273,-0.00002566,-0.00001626,0.00004903,-0.00020488,0.00945995,-0.0058
 9760,0.00131699,-0.00000431,0.00004310,0.00002559,0.00000708,-0.000006
 66,-0.00003134,0.00002033,-0.00000570,-0.00001502,0.00004947,-0.000037
 67,-0.00006464,0.00000567,-0.00000612,-0.00001959,-0.00000055,-0.00000
 145,0.00000093,0.00000648,-0.00000040,0.00000502,0.00000434,-0.0000022
 0,-0.00000059,0.00010674,0.00004355,-0.00002562,-0.00001480,0.00001501
 ,0.00000931,0.00000711,-0.00001539,-0.00008577,-0.00001023,0.00000536,
 -0.00001655,-0.05556972,0.00897187,-0.06752585,-0.03110403,0.00412997,
 -0.00380193,0.01621411,-0.00143187,0.00455526,0.05800727,-0.00594000,0
 .06236965,-0.00019525,-0.00015051,0.00108117,-0.00034450,0.00003137,-0
 .00030242,-0.00157942,-0.00069532,0.00059147,-0.00245653,0.00096545,0.
 00115851,-0.00031382,-0.00042439,-0.00138980,0.00022276,0.00003220,0.0
 0001770,0.00015301,-0.00003556,0.00002130,0.00020190,0.00014003,-0.000
 16253,0.00073698,-0.00021280,-0.00020039,-0.00056999,-0.00127341,0.000
 00607,0.00178383,0.00054076,-0.00166111,0.00084727,-0.00002955,0.00025
 850,0.00006330,0.00069595,-0.00059067,0.00058697,0.00109190,0.00104626
 ,-0.03855976,0.00379072,-0.01150692,0.00527463,-0.00252436,0.00535152,
 0.00473819,-0.00359380,0.00455735,-0.21691187,-0.01696147,-0.00822713,
 -0.00056789,0.00037163,-0.00003276,0.00006221,-0.00004590,0.00002216,0
 .00002571,-0.00006995,-0.00006204,0.00011466,-0.00002775,-0.00003510,0
 .00008011,-0.00061750,0.00021443,-0.00000759,0.00004640,-0.00006055,0.
 00000594,-0.00001281,0.00005586,0.00003643,0.00010834,0.00001260,0.000
 27497,-0.00108922,-0.00034354,0.00000233,0.00012446,0.00011732,-0.0000
 0735,0.00019179,-0.00004396,-0.00009796,0.00009913,-0.00003939,0.46571
 591,-0.00000453,0.00009252,0.00001652,-0.00014271,-0.00006161,0.000030
 82,-0.00029275,-0.00023730,0.00013873,0.00125598,-0.00251276,0.0033619
 2,-0.00050208,-0.00043493,-0.00023601,0.00008286,0.00000659,0.00000937
 ,0.00001742,0.00002776,0.00000301,0.00000235,0.00002874,-0.00002048,0.
 00103346,0.00050182,-0.00019229,0.00001781,0.00068166,0.00009273,0.000
 17214,0.00024071,-0.00040916,0.00027059,0.00000675,0.00002041,-0.00001
 365,0.00003086,-0.00002881,-0.00016266,0.00007637,-0.00026953,0.020213
 66,-0.00169369,-0.00004562,-0.00118207,0.00056567,0.00075531,0.0038117
 5,0.00123621,0.00164733,-0.04040867,-0.07592805,0.01075259,-0.00012631
 ,0.00011138,-0.00001178,0.00001434,-0.00000765,0.00000428,0.00000671,-
 0.00001960,-0.00001693,0.00003244,-0.00001253,-0.00000768,-0.00000606,
 -0.00000634,0.00001739,-0.00000979,0.00000232,-0.00000111,0.00000538,0
 .00000324,-0.00001640,0.00000906,0.00000793,0.00000037,-0.00003867,-0.
 00001030,-0.00002311,0.00000383,-0.00000018,0.00001155,0.00001493,0.00
 001926,-0.00000864,0.00000305,-0.00001264,0.00002903,-0.02781470,0.585
 10972,0.00000422,-0.00011933,-0.00005574,0.00002898,0.00004875,-0.0000
 8884,0.00001962,-0.00003919,0.00017513,-0.00289663,0.00244288,-0.00509
 443,-0.00022432,0.00056936,0.00007360,-0.00000975,-0.00003041,0.000036
 11,-0.00000503,0.00000065,0.00000435,-0.00003523,-0.00001580,0.0000252
 6,-0.00125996,-0.00021910,0.00053182,0.00005393,-0.00021162,-0.0000975
 9,-0.00025135,0.00020360,0.00009078,-0.00013414,0.00001585,0.00002489,
 0.00002759,0.00000055,0.00000673,0.00008761,-0.00019221,-0.00011488,-0
 .03592931,-0.00398339,-0.00641784,-0.00333507,0.00038635,0.00152366,0.
 00035203,-0.00012594,0.00072663,0.02794029,0.01608855,-0.08013466,0.00
 003333,-0.00003375,0.00003348,0.00000031,0.00000274,-0.00000412,-0.000
 00790,0.00000291,-0.00000350,-0.00001652,0.00000459,0.00000399,0.00000
 786,-0.00001236,0.00002036,0.00001139,0.00000269,-0.00000937,-0.000002
 39,0.00000188,0.00001237,-0.00001141,0.00000470,-0.00000532,-0.0001301
 0,0.00009477,0.00001987,0.00000326,-0.00001759,-0.00001088,0.00003515,
 -0.00002129,-0.00000095,0.00001587,-0.00004661,0.00002854,0.01916030,-
 0.02386906,0.60992628,0.00001976,0.00012132,-0.00020711,0.00002320,-0.
 00001630,0.00006337,0.00015855,0.00004805,-0.00005168,0.00027248,0.000
 11771,-0.00010168,0.00013781,-0.00008328,0.00016128,-0.00002101,-0.000
 01226,0.00000122,-0.00002521,0.00001735,-0.00000072,-0.00003109,-0.000
 01564,0.00001986,-0.00014229,0.00005777,0.00009649,0.00008154,0.000484
 12,0.00000231,-0.00013581,-0.00006956,0.00009308,-0.00011403,0.0000106
 9,-0.00003733,-0.00001623,-0.00011846,0.00010529,-0.00017849,-0.000194
 53,-0.00029621,0.00391892,-0.00567311,0.00462287,-0.00047801,0.0005041
 4,-0.00058228,0.00046951,0.00166434,-0.00035429,-0.02788663,-0.0379171
 5,-0.00485254,0.00008056,-0.00005406,0.00000494,-0.00000892,0.00000628
 ,-0.00000337,-0.00000484,0.00001046,0.00000940,-0.00001550,0.00000477,
 0.00000439,-0.00001019,0.00011051,-0.00003838,-0.00000109,-0.00000903,
 0.00001118,-0.00000115,0.00000675,-0.00001421,-0.00000551,-0.00001806,
 -0.00000190,-0.00004792,0.00020372,0.00005952,0.00000032,-0.00002376,-
 0.00001906,0.00000223,-0.00003215,0.00000647,0.00001732,-0.00002180,0.
 00001259,-0.05684228,-0.03439067,-0.00457383,0.07166861,0.00005472,0.0
 0005020,-0.00009130,0.00003599,-0.00000521,0.00004002,0.00014366,0.000
 04987,-0.00005432,0.00016795,0.00035681,-0.00038665,0.00026326,0.00004
 589,0.00013711,-0.00002417,-0.00000960,0.00000071,-0.00001799,0.000006
 88,-0.00000183,-0.00001225,-0.00001357,0.00001100,-0.00013177,-0.00003
 586,0.00005193,0.00009045,0.00017900,0.00002057,-0.00015173,-0.0000386
 5,0.00014356,-0.00010515,0.00001356,-0.00003012,-0.00003778,-0.0000536
 4,0.00005688,-0.00010395,-0.00008437,-0.00011152,0.00178803,0.00188734
 ,0.00181264,0.00005507,-0.00030162,-0.00041408,-0.00163736,0.00033652,
 -0.00150714,-0.01195608,0.00032115,0.00083942,0.00007061,-0.00005091,0
 .00000350,-0.00000804,0.00000486,-0.00000279,-0.00000424,0.00001016,0.
 00000896,-0.00001387,0.00000475,0.00000366,0.00001974,0.00004541,-0.00
 003380,0.00000267,-0.00000418,0.00000544,-0.00000588,0.00000990,0.0000
 0188,-0.00001119,-0.00000987,-0.00000042,0.00001974,0.00010465,0.00004
 319,-0.00000481,-0.00001052,-0.00001539,-0.00000712,-0.00001979,0.0000
 0586,0.00000350,-0.00000512,-0.00000194,-0.03881965,-0.29664095,-0.020
 81059,0.05253229,0.31789156,-0.00002488,0.00002691,0.00003623,-0.00000
 658,-0.00001034,0.00000034,-0.00005483,-0.00002004,0.00002200,-0.00010
 661,0.00019259,0.00009055,0.00004365,-0.00005049,-0.00008731,0.0000107
 4,0.00000523,-0.00000439,0.00000556,-0.00000177,0.00000016,0.00001200,
 0.00000557,-0.00000961,-0.00000908,0.00000075,-0.00000622,-0.00002409,
 -0.00001836,-0.00000016,0.00008667,0.00000455,-0.00007819,0.00002448,0
 .00000035,0.00000397,0.00000511,0.00001737,-0.00002494,0.00000330,0.00
 003883,0.00003961,-0.00030763,-0.00216641,0.00030389,0.00016875,-0.000
 17345,-0.00010662,0.00023849,-0.00002179,0.00015706,-0.00022890,0.0032
 6085,0.00289651,-0.00001523,0.00001086,-0.00000111,0.00000074,-0.00000
 155,0.00000017,0.00000062,-0.00000211,-0.00000055,0.00000368,-0.000000
 29,-0.00000126,-0.00000087,-0.00001436,0.00000652,-0.00000199,0.000002
 16,-0.00000085,0.00000086,-0.00000232,-0.00000077,0.00000269,0.0000020
 3,0.00000031,0.00002946,-0.00004321,-0.00001006,-0.00000222,0.00000497
 ,0.00000339,-0.00000581,0.00000728,-0.00000172,-0.00000279,0.00001112,
 -0.00000563,-0.00379314,-0.02112069,-0.05702826,0.00337251,0.02306098,
 0.05083589,0.00000824,-0.00001324,-0.00019409,0.00007067,0.00003852,-0
 .00000263,0.00021328,0.00012283,-0.00007115,-0.00043432,0.00109172,-0.
 00216031,0.00006780,0.00031686,0.00018081,-0.00004475,-0.00001372,0.00
 000617,-0.00002360,-0.00000211,-0.00000077,-0.00003183,-0.00002305,0.0
 0003555,-0.00063126,-0.00015842,0.00024352,0.00005974,0.00001100,-0.00
 001922,-0.00021382,-0.00008467,0.00022976,-0.00018165,-0.00000517,-0.0
 0001716,0.00005408,-0.00010495,0.00012285,-0.00002055,-0.00018853,-0.0
 0008408,-0.00512876,-0.00247732,0.00223461,-0.00005447,-0.00013018,-0.
 00035333,-0.00010918,0.00038318,-0.00004520,-0.02686881,0.01781331,-0.
 03122283,0.00009208,-0.00007184,0.00001515,-0.00000830,0.00000695,-0.0
 0000350,-0.00000493,0.00001190,0.00000803,-0.00002421,0.00000634,0.000
 00603,-0.00003846,0.00008689,-0.00002060,-0.00000506,-0.00001396,0.000
 01569,-0.00000027,-0.00001357,-0.00001972,0.00000944,-0.00001577,0.000
 00025,-0.00005230,0.00014699,0.00004459,0.00000304,-0.00001902,-0.0000
 1472,0.00000077,-0.00003071,0.00000686,0.00001728,-0.00001644,0.000000
 47,-0.08168255,0.04519922,-0.07051584,0.00414451,-0.00155242,0.0049888
 3,0.10393967,-0.00000649,0.00001137,0.00003871,0.00000158,0.00000151,-
 0.00000583,-0.00004462,-0.00000588,0.00004710,-0.00031435,0.00046478,-
 0.00002342,0.00007872,0.00004386,-0.00004609,0.00000508,-0.00000159,0.
 00000002,0.00000415,-0.00000212,-0.00000015,0.00000914,0.00000362,-0.0
 0000799,-0.00006205,-0.00002995,0.00000979,-0.00000048,-0.00004853,-0.
 00000407,0.00000923,-0.00000561,-0.00005484,0.00001062,-0.00000092,0.0
 0000317,0.00000660,0.00000396,-0.00002441,0.00001819,0.00000751,0.0000
 2053,-0.00141190,0.00074107,-0.00078965,0.00005844,-0.00007251,0.00023
 192,-0.00030843,0.00035950,-0.00021249,-0.00302041,0.00456161,-0.00670
 326,-0.00000905,0.00000535,0.00000106,0.00000064,-0.00000087,-0.000000
 07,0.,-0.00000147,-0.00000044,0.00000153,0.00000019,-0.00000054,-0.000
 00893,-0.00000340,0.00001135,-0.00000037,0.00000262,-0.00000198,0.0000
 0135,-0.00000279,-0.00000249,0.00000305,0.00000084,-0.00000108,-0.0000
 0590,-0.00001309,-0.00000384,0.00000133,0.00000146,0.00000274,0.000000
 64,0.00000257,-0.00000130,0.00000204,0.00000179,-0.00000124,0.05247335
 ,-0.12226512,0.10976653,0.01144387,-0.01338826,0.02540069,-0.05348335,
 0.12218948,0.00000088,0.00000539,-0.00007476,0.00002279,0.00001078,0.0
 0001394,0.00008343,0.00006365,-0.00000499,0.00027768,0.00016772,0.0000
 8716,-0.00000887,0.00003883,0.00006172,-0.00001490,-0.00001165,0.00000
 507,-0.00000998,-0.00000056,-0.00000162,-0.00001168,-0.00000940,0.0000
 1213,-0.00001503,-0.00000759,-0.00000025,0.00001053,0.00005749,-0.0000
 0937,-0.00023307,-0.00002136,0.00010305,-0.00004912,-0.00000548,-0.000
 01445,0.00001625,-0.00006021,0.00004629,-0.00002184,-0.00007890,-0.000
 04472,0.00095031,-0.00103056,0.00203118,0.00024536,0.00001161,0.000260
 09,0.00000054,0.00011967,-0.00008290,-0.00131929,-0.00234354,0.0034156
 9,0.00003309,-0.00002008,0.00000180,-0.00000288,0.00000279,-0.00000094
 ,-0.00000077,0.00000361,0.00000314,-0.00000678,0.00000092,0.00000238,-
 0.00002582,0.00005372,-0.00000479,-0.00000078,-0.00000388,0.00000508,0
 .00000351,-0.00000585,-0.00001126,0.00000459,-0.00000816,-0.00000195,-
 0.00002639,0.00006896,0.00001793,0.00000453,-0.00000712,-0.00000388,-0
 .00000347,-0.00001206,0.00000350,0.00001146,-0.00000057,-0.00000176,-0
 .08091485,0.10826183,-0.22440365,0.00250029,-0.00229966,0.00427904,0.0
 8809952,-0.11725214,0.23350891,0.00002176,0.00002837,-0.00010489,0.000
 06479,-0.00000325,0.00004573,0.00028151,0.00009709,-0.00019659,0.00023
 165,-0.00008825,-0.00022873,0.00015325,0.00015147,0.00021430,-0.000017
 55,0.00000301,-0.00001900,-0.00002047,-0.00000336,-0.00000481,-0.00002
 063,-0.00002031,0.00001635,-0.00017774,-0.00005111,0.00006375,0.000071
 24,0.00018627,0.00003970,0.00008429,-0.00015089,-0.00002155,-0.0001384
 0,-0.00000532,-0.00003825,-0.00001697,-0.00011426,0.00006266,-0.000023
 70,-0.00014649,-0.00016386,0.00372668,-0.00192227,0.00709227,0.0002789
 9,-0.00014353,-0.00198335,-0.00045152,0.00042651,-0.00067030,-0.036600
 02,0.00997149,0.02833094,0.00008637,-0.00006035,0.00000246,-0.00001108
 ,0.00000726,-0.00000309,-0.00000229,0.00001076,0.00001079,-0.00001799,
 0.00000545,0.00000483,-0.00002316,0.00009741,-0.00002950,0.00000228,-0
 .00000627,0.00000714,0.00000222,0.00000007,-0.00000812,-0.00000326,-0.
 00001790,-0.00000178,-0.00007905,0.00014596,0.00003230,0.00000361,-0.0
 0002031,-0.00001399,0.00001390,-0.00002186,0.00000575,0.00001181,-0.00
 002602,0.00001798,-0.08079037,0.03292833,0.07155704,0.00497089,-0.0006
 4223,-0.00441350,0.00687847,-0.00545319,-0.00959927,0.10151046,0.00000
 959,-0.00002201,-0.00000868,0.00001723,0.00001535,0.00000392,0.0000175
 7,0.00003214,0.00000577,0.00016717,-0.00002719,0.00014083,-0.00000974,
 0.00006380,-0.00004833,-0.00001425,-0.00000482,-0.00000009,-0.00000296
 ,-0.00000382,-0.00000194,-0.00000163,-0.00000410,0.00000456,0.00002195
 ,0.00000347,-0.00000236,-0.00000862,-0.00000816,0.00001734,-0.00012042
 ,-0.00002109,0.00008438,-0.00001603,-0.00000401,-0.00000325,0.00000351
 ,-0.00001904,0.00001589,-0.00001227,-0.00005499,0.00000270,0.00041009,
 0.00003494,-0.00010239,0.00037472,-0.00024667,-0.00013343,-0.00017219,
 -0.00028155,-0.00032784,-0.00366464,0.00678010,0.00798467,0.00001103,-
 0.00000845,-0.00000103,-0.00000068,0.00000081,0.00000019,0.,0.00000158
 ,0.00000141,-0.00000236,0.00000037,0.00000083,-0.00001176,0.00001492,-
 0.00000015,0.00000086,-0.00000159,0.00000076,0.00000138,-0.00000258,-0
 .00000242,0.00000227,-0.00000214,-0.00000065,-0.00003404,0.00003527,0.
 00000371,0.00000531,-0.00000200,0.00000103,0.00000341,-0.00000646,0.00
 000232,0.00000422,-0.00000177,0.00000228,0.03369519,-0.08890586,-0.079
 88911,0.01130569,-0.01064638,-0.02840589,-0.00681727,0.00743901,0.0143
 1181,-0.03516229,0.08585289,-0.00001644,-0.00000088,0.00007765,-0.0000
 3932,0.00001099,-0.00002450,-0.00019575,-0.00007417,0.00005755,-0.0001
 6778,-0.00005814,0.00056816,-0.00001218,-0.00009298,-0.00014904,0.0000
 2696,-0.00001486,0.00001278,0.00001209,-0.00000183,0.00000194,0.000020
 78,0.00001376,-0.00001240,0.00010067,-0.00000077,-0.00006582,-0.000038
 28,-0.00010036,0.00000440,0.00004669,0.00013864,-0.00020545,0.00008073
 ,-0.00000405,0.00002281,0.00001065,0.00007698,-0.00003495,0.00003518,0
 .00014395,0.00011991,-0.00190172,0.00184345,0.00262374,0.00171476,-0.0
 0096740,0.00016918,0.00005089,-0.00034436,-0.00017713,0.00606745,0.002
 95876,0.00451896,-0.00005082,0.00003170,-0.00000569,0.00000557,-0.0000
 0457,0.00000259,0.00000258,-0.00000525,-0.00000488,0.00001087,-0.00000
 253,-0.00000359,0.00001722,-0.00006924,0.00001059,-0.00000477,0.000001
 01,-0.00000095,-0.00000274,-0.00000151,0.00000412,0.00000530,0.0000110
 3,0.00000394,0.00006749,-0.00012553,-0.00003515,-0.00000303,0.00001463
 ,0.00001074,-0.00000884,0.00002095,-0.00000335,-0.00001859,0.00001738,
 -0.00001207,0.07569377,-0.07887589,-0.23979382,-0.00001249,-0.00048579
 ,-0.00130799,0.00850647,-0.01039631,-0.01919684,-0.09000341,0.08634317
 ,0.25282457\\0.00001789,-0.00000661,0.00003306,-0.00000536,0.00002174,
 -0.00001527,0.00000426,-0.00002378,0.00000702,-0.00000538,0.00001223,0
 .00000490,-0.00000377,-0.00000430,-0.00000579,-0.00000369,0.00000974,-
 0.00001008,-0.00000029,0.00000083,0.00000058,-0.00000759,0.00000100,0.
 00000083,-0.00000042,-0.00000764,-0.00000678,-0.00000103,0.00000186,0.
 00000483,0.00000259,0.00000965,-0.00001481,0.00000026,-0.00001428,-0.0
 0000314,-0.00000454,0.00000119,-0.00001505,0.00000060,-0.00000656,0.00
 000715,-0.00000007,-0.00001037,0.00000035,0.00000111,0.00000005,-0.000
 00369,-0.00000205,0.00000242,-0.00000685,0.00000054,0.00000871,-0.0000
 0760,-0.00000445,-0.00000065,-0.00000949,-0.00000073,-0.00000393,-0.00
 000484,-0.00000335,0.00000119,-0.00000174,0.00000037,-0.00000487,-0.00
 000350,0.00000092,0.00000495,0.00001069,0.00000393,0.00000711,0.000008
 14,0.00000140,0.00000477,0.00001046,0.00000295,0.00000688,0.00000938,0
 .00000061,-0.00000427,-0.00000231,0.00000284,-0.00001249,0.00000516,0.
 00000133,-0.00000440,0.00000866,0.00000112,-0.00000463,0.00000808,0.00
 000188,0.00000124,0.00000002,-0.00000134,0.00000433,-0.00000598,0.0000
 0069,0.00000711,-0.00000107,-0.00000123,0.00000179,-0.00000134\\\@


 NATURE REVEALS EVERY SECRET ONCE.
                    - RALPH WALDO EMERSON
 Job cpu time:       0 days  1 hours 14 minutes 44.9 seconds.
 Elapsed time:       0 days  0 hours 18 minutes 41.6 seconds.
 File lengths (MBytes):  RWF=    384 Int=      0 D2E=      0 Chk=     17 Scr=      1
 Normal termination of Gaussian 16 at Fri May 24 08:53:35 2019.
