 Entering Gaussian System, Link 0=g16
 Input=clay-glucose_cation-109-b3lyp_d3bj-631gd-pcm_thf.gjf
 Output=clay-glucose_cation-109-b3lyp_d3bj-631gd-pcm_thf.out
 Initial command:
 /n/sw/g16_nehalem/g16/l1.exe "/scratch/Gau-41509.inp" -scrdir="/scratch/"
 Entering Link 1 = /n/sw/g16_nehalem/g16/l1.exe PID=     41512.
  
 Copyright (c) 1988,1990,1992,1993,1995,1998,2003,2009,2016,
            Gaussian, Inc.  All Rights Reserved.
  
 This is part of the Gaussian(R) 16 program.  It is based on
 the Gaussian(R) 09 system (copyright 2009, Gaussian, Inc.),
 the Gaussian(R) 03 system (copyright 2003, Gaussian, Inc.),
 the Gaussian(R) 98 system (copyright 1998, Gaussian, Inc.),
 the Gaussian(R) 94 system (copyright 1995, Gaussian, Inc.),
 the Gaussian 92(TM) system (copyright 1992, Gaussian, Inc.),
 the Gaussian 90(TM) system (copyright 1990, Gaussian, Inc.),
 the Gaussian 88(TM) system (copyright 1988, Gaussian, Inc.),
 the Gaussian 86(TM) system (copyright 1986, Carnegie Mellon
 University), and the Gaussian 82(TM) system (copyright 1983,
 Carnegie Mellon University). Gaussian is a federally registered
 trademark of Gaussian, Inc.
  
 This software contains proprietary and confidential information,
 including trade secrets, belonging to Gaussian, Inc.
  
 This software is provided under written license and may be
 used, copied, transmitted, or stored only in accord with that
 written license.
  
 The following legend is applicable only to US Government
 contracts under FAR:
  
                    RESTRICTED RIGHTS LEGEND
  
 Use, reproduction and disclosure by the US Government is
 subject to restrictions as set forth in subparagraphs (a)
 and (c) of the Commercial Computer Software - Restricted
 Rights clause in FAR 52.227-19.
  
 Gaussian, Inc.
 340 Quinnipiac St., Bldg. 40, Wallingford CT 06492
  
  
 ---------------------------------------------------------------
 Warning -- This program may not be used in any manner that
 competes with the business of Gaussian, Inc. or will provide
 assistance to any competitor of Gaussian, Inc.  The licensee
 of this program is prohibited from giving any competitor of
 Gaussian, Inc. access to this program.  By using this program,
 the user acknowledges that Gaussian, Inc. is engaged in the
 business of creating and licensing software in the field of
 computational chemistry and represents and warrants to the
 licensee that it is not a competitor of Gaussian, Inc. and that
 it will not use this program in any manner prohibited above.
 ---------------------------------------------------------------
  

 Cite this work as:
 Gaussian 16, Revision A.03,
 M. J. Frisch, G. W. Trucks, H. B. Schlegel, G. E. Scuseria, 
 M. A. Robb, J. R. Cheeseman, G. Scalmani, V. Barone, 
 G. A. Petersson, H. Nakatsuji, X. Li, M. Caricato, A. V. Marenich, 
 J. Bloino, B. G. Janesko, R. Gomperts, B. Mennucci, H. P. Hratchian, 
 J. V. Ortiz, A. F. Izmaylov, J. L. Sonnenberg, D. Williams-Young, 
 F. Ding, F. Lipparini, F. Egidi, J. Goings, B. Peng, A. Petrone, 
 T. Henderson, D. Ranasinghe, V. G. Zakrzewski, J. Gao, N. Rega, 
 G. Zheng, W. Liang, M. Hada, M. Ehara, K. Toyota, R. Fukuda, 
 J. Hasegawa, M. Ishida, T. Nakajima, Y. Honda, O. Kitao, H. Nakai, 
 T. Vreven, K. Throssell, J. A. Montgomery, Jr., J. E. Peralta, 
 F. Ogliaro, M. J. Bearpark, J. J. Heyd, E. N. Brothers, K. N. Kudin, 
 V. N. Staroverov, T. A. Keith, R. Kobayashi, J. Normand, 
 K. Raghavachari, A. P. Rendell, J. C. Burant, S. S. Iyengar, 
 J. Tomasi, M. Cossi, J. M. Millam, M. Klene, C. Adamo, R. Cammi, 
 J. W. Ochterski, R. L. Martin, K. Morokuma, O. Farkas, 
 J. B. Foresman, and D. J. Fox, Gaussian, Inc., Wallingford CT, 2016.
 
 ******************************************
 Gaussian 16:  ES64L-G16RevA.03 25-Dec-2016
                24-May-2019 
 ******************************************
 %nprocshared=4
 Will use up to    4 processors via shared memory.
 %mem=3GB
 -------------------------------------------------------------------
 #p b3lyp 6-31g* opt freq=noraman scrf=(pcm,solvent=tetrahydrofuran)
 -------------------------------------------------------------------
 1/18=20,19=15,26=3,38=1/1,3;
 2/9=110,12=2,17=6,18=5,40=1/2;
 3/5=1,6=6,7=1,11=2,25=1,30=1,70=2201,71=1,72=20,74=-5/1,2,3;
 4//1;
 5/5=2,38=5,53=20/2;
 6/7=2,8=2,9=2,10=2,28=1/1;
 7//1,2,3,16;
 1/18=20,19=15,26=3/3(2);
 2/9=110/2;
 99//99;
 2/9=110/2;
 3/5=1,6=6,7=1,11=2,25=1,30=1,70=2205,71=1,72=20,74=-5/1,2,3;
 4/5=5,16=3,69=1/1;
 5/5=2,38=5,53=20/2;
 7//1,2,3,16;
 1/18=20,19=15,26=3/3(-5);
 2/9=110/2;
 6/7=2,8=2,9=2,10=2,19=2,28=1/1;
 99/9=1/99;
 Leave Link    1 at Fri May 24 08:31:12 2019, MaxMem=   402653184 cpu:               0.4 elap:               0.2
 (Enter /n/sw/g16_nehalem/g16/l101.exe)
 -----
 title
 -----
 Symbolic Z-matrix:
 Charge =  1 Multiplicity = 1
 6                     0.74753   0.50642   0.61267 
 6                     1.23576   0.42757  -0.8812 
 6                     0.83019  -0.8219   -1.57989 
 6                    -1.18471  -0.98603  -0.27145 
 6                    -0.42098  -0.46849   0.95153 
 1                     1.44403  -1.24729  -2.37605 
 1                     0.6405    1.19438  -1.41178 
 1                     1.59208   0.24418   1.26222 
 1                    -1.71382  -1.90822  -0.03551 
 1                    -1.15153   0.13442   1.49731 
 8                    -0.24696  -1.43397  -1.36419 
 8                     2.56816   0.75977  -1.1502 
 8                     0.28069   1.80239   0.89891 
 8                    -0.0608   -1.49084   1.85615 
 6                    -2.17219   0.016    -0.88422 
 1                    -2.51766  -0.35853  -1.85897 
 1                    -1.7044    1.00073  -1.03493 
 8                    -3.21733   0.09109   0.05287 
 6                     3.57871  -0.08259  -0.57598 
 1                     3.42226  -1.13809  -0.83748 
 1                     4.51988   0.25095  -1.01343 
 1                     3.63269   0.02411   0.51214 
 6                     1.29695   2.80086   1.04126 
 1                     1.81883   2.98954   0.09636 
 1                     2.02747   2.5045    1.80516 
 1                     0.78346   3.70892   1.36068 
 6                     0.813    -2.51843   1.3973 
 1                     1.78372  -2.12291   1.06759 
 1                     0.98476  -3.17115   2.25435 
 1                     0.36748  -3.11446   0.59021 
 6                    -4.22871   1.02564  -0.31588 
 1                    -3.81835   2.04084  -0.40255 
 1                    -4.97565   1.00236   0.47931 
 1                    -4.69904   0.74396  -1.26769 
 
 ITRead=  0  0  0  0  0  0  0  0  0  0  0  0  0  0  0  0  0  0  0  0
 ITRead=  0  0  0  0  0  0  0  0  0  0  0  0  0  0
 MicOpt= -1 -1 -1 -1 -1 -1 -1 -1 -1 -1 -1 -1 -1 -1 -1 -1 -1 -1 -1 -1
 MicOpt= -1 -1 -1 -1 -1 -1 -1 -1 -1 -1 -1 -1 -1 -1
 NAtoms=     34 NQM=       34 NQMF=       0 NMMI=      0 NMMIF=      0
                NMic=       0 NMicF=      0.
                    Isotopes and Nuclear Properties:
 (Nuclear quadrupole moments (NQMom) in fm**2, nuclear magnetic moments (NMagM)
  in nuclear magnetons)

  Atom         1           2           3           4           5           6           7           8           9          10
 IAtWgt=          12          12          12          12          12           1           1           1           1           1
 AtmWgt=  12.0000000  12.0000000  12.0000000  12.0000000  12.0000000   1.0078250   1.0078250   1.0078250   1.0078250   1.0078250
 NucSpn=           0           0           0           0           0           1           1           1           1           1
 AtZEff=   0.0000000   0.0000000   0.0000000   0.0000000   0.0000000   0.0000000   0.0000000   0.0000000   0.0000000   0.0000000
 NQMom=    0.0000000   0.0000000   0.0000000   0.0000000   0.0000000   0.0000000   0.0000000   0.0000000   0.0000000   0.0000000
 NMagM=    0.0000000   0.0000000   0.0000000   0.0000000   0.0000000   2.7928460   2.7928460   2.7928460   2.7928460   2.7928460
 AtZNuc=   6.0000000   6.0000000   6.0000000   6.0000000   6.0000000   1.0000000   1.0000000   1.0000000   1.0000000   1.0000000

  Atom        11          12          13          14          15          16          17          18          19          20
 IAtWgt=          16          16          16          16          12           1           1          16          12           1
 AtmWgt=  15.9949146  15.9949146  15.9949146  15.9949146  12.0000000   1.0078250   1.0078250  15.9949146  12.0000000   1.0078250
 NucSpn=           0           0           0           0           0           1           1           0           0           1
 AtZEff=   0.0000000   0.0000000   0.0000000   0.0000000   0.0000000   0.0000000   0.0000000   0.0000000   0.0000000   0.0000000
 NQMom=    0.0000000   0.0000000   0.0000000   0.0000000   0.0000000   0.0000000   0.0000000   0.0000000   0.0000000   0.0000000
 NMagM=    0.0000000   0.0000000   0.0000000   0.0000000   0.0000000   2.7928460   2.7928460   0.0000000   0.0000000   2.7928460
 AtZNuc=   8.0000000   8.0000000   8.0000000   8.0000000   6.0000000   1.0000000   1.0000000   8.0000000   6.0000000   1.0000000

  Atom        21          22          23          24          25          26          27          28          29          30
 IAtWgt=           1           1          12           1           1           1          12           1           1           1
 AtmWgt=   1.0078250   1.0078250  12.0000000   1.0078250   1.0078250   1.0078250  12.0000000   1.0078250   1.0078250   1.0078250
 NucSpn=           1           1           0           1           1           1           0           1           1           1
 AtZEff=   0.0000000   0.0000000   0.0000000   0.0000000   0.0000000   0.0000000   0.0000000   0.0000000   0.0000000   0.0000000
 NQMom=    0.0000000   0.0000000   0.0000000   0.0000000   0.0000000   0.0000000   0.0000000   0.0000000   0.0000000   0.0000000
 NMagM=    2.7928460   2.7928460   0.0000000   2.7928460   2.7928460   2.7928460   0.0000000   2.7928460   2.7928460   2.7928460
 AtZNuc=   1.0000000   1.0000000   6.0000000   1.0000000   1.0000000   1.0000000   6.0000000   1.0000000   1.0000000   1.0000000

  Atom        31          32          33          34
 IAtWgt=          12           1           1           1
 AtmWgt=  12.0000000   1.0078250   1.0078250   1.0078250
 NucSpn=           0           1           1           1
 AtZEff=   0.0000000   0.0000000   0.0000000   0.0000000
 NQMom=    0.0000000   0.0000000   0.0000000   0.0000000
 NMagM=    0.0000000   2.7928460   2.7928460   2.7928460
 AtZNuc=   6.0000000   1.0000000   1.0000000   1.0000000
 Leave Link  101 at Fri May 24 08:31:12 2019, MaxMem=   402653184 cpu:               1.1 elap:               0.6
 (Enter /n/sw/g16_nehalem/g16/l103.exe)

 GradGradGradGradGradGradGradGradGradGradGradGradGradGradGradGradGradGrad
 Berny optimization.
 Initialization pass.
                           ----------------------------
                           !    Initial Parameters    !
                           ! (Angstroms and Degrees)  !
 --------------------------                            --------------------------
 ! Name  Definition              Value          Derivative Info.                !
 --------------------------------------------------------------------------------
 ! R1    R(1,2)                  1.5736         estimate D2E/DX2                !
 ! R2    R(1,5)                  1.5591         estimate D2E/DX2                !
 ! R3    R(1,8)                  1.0972         estimate D2E/DX2                !
 ! R4    R(1,13)                 1.4069         estimate D2E/DX2                !
 ! R5    R(2,3)                  1.4879         estimate D2E/DX2                !
 ! R6    R(2,7)                  1.1063         estimate D2E/DX2                !
 ! R7    R(2,12)                 1.3993         estimate D2E/DX2                !
 ! R8    R(3,6)                  1.0916         estimate D2E/DX2                !
 ! R9    R(3,11)                 1.2575         estimate D2E/DX2                !
 ! R10   R(4,5)                  1.5319         estimate D2E/DX2                !
 ! R11   R(4,9)                  1.0891         estimate D2E/DX2                !
 ! R12   R(4,11)                 1.508          estimate D2E/DX2                !
 ! R13   R(4,15)                 1.5345         estimate D2E/DX2                !
 ! R14   R(5,10)                 1.0932         estimate D2E/DX2                !
 ! R15   R(5,14)                 1.4118         estimate D2E/DX2                !
 ! R16   R(12,19)                1.4354         estimate D2E/DX2                !
 ! R17   R(13,23)                1.4318         estimate D2E/DX2                !
 ! R18   R(14,27)                1.4248         estimate D2E/DX2                !
 ! R19   R(15,16)                1.0999         estimate D2E/DX2                !
 ! R20   R(15,17)                1.1006         estimate D2E/DX2                !
 ! R21   R(15,18)                1.4057         estimate D2E/DX2                !
 ! R22   R(18,31)                1.4256         estimate D2E/DX2                !
 ! R23   R(19,20)                1.0986         estimate D2E/DX2                !
 ! R24   R(19,21)                1.0901         estimate D2E/DX2                !
 ! R25   R(19,22)                1.0947         estimate D2E/DX2                !
 ! R26   R(23,24)                1.0958         estimate D2E/DX2                !
 ! R27   R(23,25)                1.0977         estimate D2E/DX2                !
 ! R28   R(23,26)                1.091          estimate D2E/DX2                !
 ! R29   R(27,28)                1.0988         estimate D2E/DX2                !
 ! R30   R(27,29)                1.0909         estimate D2E/DX2                !
 ! R31   R(27,30)                1.0978         estimate D2E/DX2                !
 ! R32   R(31,32)                1.0984         estimate D2E/DX2                !
 ! R33   R(31,33)                1.0912         estimate D2E/DX2                !
 ! R34   R(31,34)                1.0984         estimate D2E/DX2                !
 ! A1    A(2,1,5)              114.0501         estimate D2E/DX2                !
 ! A2    A(2,1,8)              108.1324         estimate D2E/DX2                !
 ! A3    A(2,1,13)             110.0142         estimate D2E/DX2                !
 ! A4    A(5,1,8)              107.3833         estimate D2E/DX2                !
 ! A5    A(5,1,13)             106.4447         estimate D2E/DX2                !
 ! A6    A(8,1,13)             110.8            estimate D2E/DX2                !
 ! A7    A(1,2,3)              113.7847         estimate D2E/DX2                !
 ! A8    A(1,2,7)              104.6929         estimate D2E/DX2                !
 ! A9    A(1,2,12)             117.777          estimate D2E/DX2                !
 ! A10   A(3,2,7)              102.1334         estimate D2E/DX2                !
 ! A11   A(3,2,12)             111.6317         estimate D2E/DX2                !
 ! A12   A(7,2,12)             104.8087         estimate D2E/DX2                !
 ! A13   A(2,3,6)              121.0946         estimate D2E/DX2                !
 ! A14   A(2,3,11)             124.1706         estimate D2E/DX2                !
 ! A15   A(6,3,11)             114.651          estimate D2E/DX2                !
 ! A16   A(5,4,9)              110.8135         estimate D2E/DX2                !
 ! A17   A(5,4,11)             111.6426         estimate D2E/DX2                !
 ! A18   A(5,4,15)             114.7721         estimate D2E/DX2                !
 ! A19   A(9,4,11)             101.9803         estimate D2E/DX2                !
 ! A20   A(9,4,15)             109.0752         estimate D2E/DX2                !
 ! A21   A(11,4,15)            107.7451         estimate D2E/DX2                !
 ! A22   A(1,5,4)              114.2925         estimate D2E/DX2                !
 ! A23   A(1,5,10)             105.3377         estimate D2E/DX2                !
 ! A24   A(1,5,14)             113.6325         estimate D2E/DX2                !
 ! A25   A(4,5,10)             104.5797         estimate D2E/DX2                !
 ! A26   A(4,5,14)             113.208          estimate D2E/DX2                !
 ! A27   A(10,5,14)            104.4747         estimate D2E/DX2                !
 ! A28   A(3,11,4)             120.8211         estimate D2E/DX2                !
 ! A29   A(2,12,19)            117.0086         estimate D2E/DX2                !
 ! A30   A(1,13,23)            115.2822         estimate D2E/DX2                !
 ! A31   A(5,14,27)            118.1884         estimate D2E/DX2                !
 ! A32   A(4,15,16)            109.4913         estimate D2E/DX2                !
 ! A33   A(4,15,17)            111.4342         estimate D2E/DX2                !
 ! A34   A(4,15,18)            104.3081         estimate D2E/DX2                !
 ! A35   A(16,15,17)           108.4709         estimate D2E/DX2                !
 ! A36   A(16,15,18)           112.0513         estimate D2E/DX2                !
 ! A37   A(17,15,18)           111.0697         estimate D2E/DX2                !
 ! A38   A(15,18,31)           112.9579         estimate D2E/DX2                !
 ! A39   A(12,19,20)           111.6125         estimate D2E/DX2                !
 ! A40   A(12,19,21)           105.5286         estimate D2E/DX2                !
 ! A41   A(12,19,22)           112.0341         estimate D2E/DX2                !
 ! A42   A(20,19,21)           108.7464         estimate D2E/DX2                !
 ! A43   A(20,19,22)           109.7111         estimate D2E/DX2                !
 ! A44   A(21,19,22)           109.0552         estimate D2E/DX2                !
 ! A45   A(13,23,24)           111.8631         estimate D2E/DX2                !
 ! A46   A(13,23,25)           110.6876         estimate D2E/DX2                !
 ! A47   A(13,23,26)           105.9901         estimate D2E/DX2                !
 ! A48   A(24,23,25)           109.2445         estimate D2E/DX2                !
 ! A49   A(24,23,26)           109.4687         estimate D2E/DX2                !
 ! A50   A(25,23,26)           109.522          estimate D2E/DX2                !
 ! A51   A(14,27,28)           112.2598         estimate D2E/DX2                !
 ! A52   A(14,27,29)           105.9668         estimate D2E/DX2                !
 ! A53   A(14,27,30)           112.3001         estimate D2E/DX2                !
 ! A54   A(28,27,29)           108.1799         estimate D2E/DX2                !
 ! A55   A(28,27,30)           109.4717         estimate D2E/DX2                !
 ! A56   A(29,27,30)           108.4603         estimate D2E/DX2                !
 ! A57   A(18,31,32)           111.1774         estimate D2E/DX2                !
 ! A58   A(18,31,33)           106.4475         estimate D2E/DX2                !
 ! A59   A(18,31,34)           111.0892         estimate D2E/DX2                !
 ! A60   A(32,31,33)           109.4466         estimate D2E/DX2                !
 ! A61   A(32,31,34)           109.1843         estimate D2E/DX2                !
 ! A62   A(33,31,34)           109.4442         estimate D2E/DX2                !
 ! D1    D(5,1,2,3)            -18.6594         estimate D2E/DX2                !
 ! D2    D(5,1,2,7)             92.0132         estimate D2E/DX2                !
 ! D3    D(5,1,2,12)          -152.0894         estimate D2E/DX2                !
 ! D4    D(8,1,2,3)            100.7078         estimate D2E/DX2                !
 ! D5    D(8,1,2,7)           -148.6196         estimate D2E/DX2                !
 ! D6    D(8,1,2,12)           -32.7221         estimate D2E/DX2                !
 ! D7    D(13,1,2,3)          -138.1634         estimate D2E/DX2                !
 ! D8    D(13,1,2,7)           -27.4907         estimate D2E/DX2                !
 ! D9    D(13,1,2,12)           88.4067         estimate D2E/DX2                !
 ! D10   D(2,1,5,4)            -18.8305         estimate D2E/DX2                !
 ! D11   D(2,1,5,10)          -133.0465         estimate D2E/DX2                !
 ! D12   D(2,1,5,14)           113.1924         estimate D2E/DX2                !
 ! D13   D(8,1,5,4)           -138.6205         estimate D2E/DX2                !
 ! D14   D(8,1,5,10)           107.1636         estimate D2E/DX2                !
 ! D15   D(8,1,5,14)            -6.5975         estimate D2E/DX2                !
 ! D16   D(13,1,5,4)           102.6695         estimate D2E/DX2                !
 ! D17   D(13,1,5,10)          -11.5465         estimate D2E/DX2                !
 ! D18   D(13,1,5,14)         -125.3075         estimate D2E/DX2                !
 ! D19   D(2,1,13,23)          -73.7982         estimate D2E/DX2                !
 ! D20   D(5,1,13,23)          162.1638         estimate D2E/DX2                !
 ! D21   D(8,1,13,23)           45.7184         estimate D2E/DX2                !
 ! D22   D(1,2,3,6)           -149.9247         estimate D2E/DX2                !
 ! D23   D(1,2,3,11)            33.5845         estimate D2E/DX2                !
 ! D24   D(7,2,3,6)             97.849          estimate D2E/DX2                !
 ! D25   D(7,2,3,11)           -78.6419         estimate D2E/DX2                !
 ! D26   D(12,2,3,6)           -13.6509         estimate D2E/DX2                !
 ! D27   D(12,2,3,11)          169.8583         estimate D2E/DX2                !
 ! D28   D(1,2,12,19)           64.1602         estimate D2E/DX2                !
 ! D29   D(3,2,12,19)          -70.2061         estimate D2E/DX2                !
 ! D30   D(7,2,12,19)          179.9947         estimate D2E/DX2                !
 ! D31   D(2,3,11,4)            -4.8453         estimate D2E/DX2                !
 ! D32   D(6,3,11,4)           178.4607         estimate D2E/DX2                !
 ! D33   D(9,4,5,1)            158.8416         estimate D2E/DX2                !
 ! D34   D(9,4,5,10)           -86.4968         estimate D2E/DX2                !
 ! D35   D(9,4,5,14)            26.6153         estimate D2E/DX2                !
 ! D36   D(11,4,5,1)            45.9031         estimate D2E/DX2                !
 ! D37   D(11,4,5,10)          160.5647         estimate D2E/DX2                !
 ! D38   D(11,4,5,14)          -86.3232         estimate D2E/DX2                !
 ! D39   D(15,4,5,1)           -77.0695         estimate D2E/DX2                !
 ! D40   D(15,4,5,10)           37.5921         estimate D2E/DX2                !
 ! D41   D(15,4,5,14)          150.7042         estimate D2E/DX2                !
 ! D42   D(5,4,11,3)           -36.2791         estimate D2E/DX2                !
 ! D43   D(9,4,11,3)          -154.6375         estimate D2E/DX2                !
 ! D44   D(15,4,11,3)           90.6113         estimate D2E/DX2                !
 ! D45   D(5,4,15,16)          168.6863         estimate D2E/DX2                !
 ! D46   D(5,4,15,17)           48.6857         estimate D2E/DX2                !
 ! D47   D(5,4,15,18)          -71.2288         estimate D2E/DX2                !
 ! D48   D(9,4,15,16)          -66.3086         estimate D2E/DX2                !
 ! D49   D(9,4,15,17)          173.6908         estimate D2E/DX2                !
 ! D50   D(9,4,15,18)           53.7763         estimate D2E/DX2                !
 ! D51   D(11,4,15,16)          43.6454         estimate D2E/DX2                !
 ! D52   D(11,4,15,17)         -76.3552         estimate D2E/DX2                !
 ! D53   D(11,4,15,18)         163.7303         estimate D2E/DX2                !
 ! D54   D(1,5,14,27)          -70.6153         estimate D2E/DX2                !
 ! D55   D(4,5,14,27)           61.9323         estimate D2E/DX2                !
 ! D56   D(10,5,14,27)         175.1081         estimate D2E/DX2                !
 ! D57   D(2,12,19,20)          54.1428         estimate D2E/DX2                !
 ! D58   D(2,12,19,21)         172.1033         estimate D2E/DX2                !
 ! D59   D(2,12,19,22)         -69.3416         estimate D2E/DX2                !
 ! D60   D(1,13,23,24)          66.5544         estimate D2E/DX2                !
 ! D61   D(1,13,23,25)         -55.5282         estimate D2E/DX2                !
 ! D62   D(1,13,23,26)        -174.1998         estimate D2E/DX2                !
 ! D63   D(5,14,27,28)          60.112          estimate D2E/DX2                !
 ! D64   D(5,14,27,29)         178.0013         estimate D2E/DX2                !
 ! D65   D(5,14,27,30)         -63.7484         estimate D2E/DX2                !
 ! D66   D(4,15,18,31)         177.7387         estimate D2E/DX2                !
 ! D67   D(16,15,18,31)        -63.9127         estimate D2E/DX2                !
 ! D68   D(17,15,18,31)         57.5791         estimate D2E/DX2                !
 ! D69   D(15,18,31,32)        -60.5695         estimate D2E/DX2                !
 ! D70   D(15,18,31,33)       -179.6899         estimate D2E/DX2                !
 ! D71   D(15,18,31,34)         61.2413         estimate D2E/DX2                !
 --------------------------------------------------------------------------------
 Trust Radius=3.00D-01 FncErr=1.00D-07 GrdErr=1.00D-06 EigMax=2.50D+02 EigMin=1.00D-04
 Number of steps in this run=    177 maximum allowed number of steps=    204.
 GradGradGradGradGradGradGradGradGradGradGradGradGradGradGradGradGradGrad

 Leave Link  103 at Fri May 24 08:31:12 2019, MaxMem=   402653184 cpu:               0.2 elap:               0.1
 (Enter /n/sw/g16_nehalem/g16/l202.exe)
                          Input orientation:                          
 ---------------------------------------------------------------------
 Center     Atomic      Atomic             Coordinates (Angstroms)
 Number     Number       Type             X           Y           Z
 ---------------------------------------------------------------------
      1          6           0        0.747533    0.506423    0.612667
      2          6           0        1.235755    0.427570   -0.881202
      3          6           0        0.830188   -0.821897   -1.579890
      4          6           0       -1.184710   -0.986029   -0.271454
      5          6           0       -0.420978   -0.468490    0.951525
      6          1           0        1.444033   -1.247292   -2.376054
      7          1           0        0.640503    1.194376   -1.411784
      8          1           0        1.592075    0.244183    1.262224
      9          1           0       -1.713821   -1.908221   -0.035512
     10          1           0       -1.151529    0.134417    1.497312
     11          8           0       -0.246961   -1.433971   -1.364185
     12          8           0        2.568158    0.759769   -1.150203
     13          8           0        0.280693    1.802392    0.898911
     14          8           0       -0.060801   -1.490839    1.856145
     15          6           0       -2.172190    0.015996   -0.884216
     16          1           0       -2.517659   -0.358533   -1.858969
     17          1           0       -1.704398    1.000734   -1.034925
     18          8           0       -3.217334    0.091088    0.052869
     19          6           0        3.578707   -0.082590   -0.575977
     20          1           0        3.422263   -1.138085   -0.837482
     21          1           0        4.519877    0.250952   -1.013429
     22          1           0        3.632691    0.024108    0.512140
     23          6           0        1.296947    2.800855    1.041258
     24          1           0        1.818827    2.989544    0.096363
     25          1           0        2.027471    2.504504    1.805161
     26          1           0        0.783460    3.708916    1.360680
     27          6           0        0.812997   -2.518434    1.397299
     28          1           0        1.783719   -2.122910    1.067586
     29          1           0        0.984764   -3.171145    2.254350
     30          1           0        0.367482   -3.114459    0.590210
     31          6           0       -4.228709    1.025635   -0.315883
     32          1           0       -3.818349    2.040840   -0.402548
     33          1           0       -4.975653    1.002357    0.479313
     34          1           0       -4.699039    0.743962   -1.267691
 ---------------------------------------------------------------------
                    Distance matrix (angstroms):
                    1          2          3          4          5
     1  C    0.000000
     2  C    1.573602   0.000000
     3  C    2.564873   1.487890   0.000000
     4  C    2.596661   2.868572   2.408061   0.000000
     5  C    1.559070   2.628037   2.845764   1.531930   0.000000
     6  H    3.534555   2.254579   1.091624   3.377557   3.893274
     7  H    2.140826   1.106270   2.032141   3.063645   3.078489
     8  H    1.097244   2.180566   3.129634   3.402370   2.157966
     9  H    3.508405   3.856308   3.168152   1.089066   2.172213
    10  H    2.127774   3.382661   3.782976   2.094047   1.093199
    11  O    2.943143   2.428385   1.257543   1.508007   2.514945
    12  O    2.546875   1.399291   2.388899   4.231315   3.854973
    13  O    1.406915   2.443580   3.651478   3.360424   2.377397
    14  O    2.487709   3.585306   3.612157   2.458594   1.411829
    15  C    3.317523   3.432709   3.193791   1.534486   2.582908
    16  H    4.185524   3.957537   3.391264   2.165804   3.508139
    17  H    2.995141   2.999441   3.169085   2.190934   2.784200
    18  O    4.025674   4.562424   4.458910   2.323129   2.990036
    19  C    3.126557   2.417199   3.018074   4.857888   4.298798
    20  H    3.458543   2.689610   2.714774   4.644105   4.291783
    21  H    4.115827   3.291525   3.884030   5.884128   5.365696
    22  H    2.926922   2.801693   3.598102   4.984150   4.107060
    23  C    2.397908   3.054845   4.495844   4.714056   3.694311
    24  H    2.753204   2.803447   4.279523   4.996169   4.207853
    25  H    2.655675   3.486691   4.894589   5.178248   3.944907
    26  H    3.288887   3.999730   5.401611   5.346032   4.366784
    27  C    3.125651   3.748230   3.426688   3.020569   2.433861
    28  H    2.862521   3.256223   3.100159   3.449217   2.758852
    29  H    4.034341   4.779690   4.499362   3.982592   3.313277
    30  H    3.640842   3.932546   3.190497   2.771638   2.784487
    31  C    5.088690   5.526087   5.532045   3.648931   4.282236
    32  H    4.922639   5.326886   5.584827   4.014371   4.435356
    33  H    5.746181   6.384589   6.424641   4.346099   4.809516
    34  H    5.766916   5.955775   5.755148   4.041765   4.969584
                    6          7          8          9         10
     6  H    0.000000
     7  H    2.745400   0.000000
     8  H    3.934905   2.993105   0.000000
     9  H    3.985851   4.130747   4.152820   0.000000
    10  H    4.863026   3.577392   2.755844   2.614975   0.000000
    11  O    1.979441   2.774539   3.618878   2.035181   3.386185
    12  O    2.606657   1.993279   2.652993   5.166822   4.608305
    13  O    4.623779   2.416290   2.068752   4.315076   2.278483
    14  O    4.498372   4.287373   2.468814   2.546576   1.989951
    15  C    4.110784   3.094859   4.339236   2.152443   2.593732
    16  H    4.092954   3.547603   5.195674   2.524418   3.657039
    17  H    4.094492   2.382872   4.088520   3.075863   2.732836
    18  O    5.423953   4.271459   4.961491   2.503118   2.521080
    19  C    3.025498   3.310930   2.726256   5.624579   5.169212
    20  H    2.508490   3.675376   3.109504   5.255057   5.290567
    21  H    3.682703   4.012266   3.708189   6.669133   6.203406
    22  H    3.840358   3.744890   2.185217   5.711305   4.885846
    23  C    5.299731   3.004848   2.583118   5.692061   3.648686
    24  H    4.919766   2.624039   2.991263   6.040289   4.351715
    25  H    5.647914   3.740167   2.365037   6.071037   3.977201
    26  H    6.242078   3.745651   3.559203   6.303808   4.066927
    27  C    4.031402   4.658933   2.873545   2.968184   3.302572
    28  H    3.569419   4.296348   2.382801   3.673650   3.727717
    29  H    5.035154   5.711114   3.607992   3.757766   4.007941
    30  H    3.666606   4.759052   3.637541   2.485631   3.699382
    31  C    6.449070   4.993866   6.081333   3.874375   3.681166
    32  H    6.511467   4.649346   5.939034   4.489859   3.788911
    33  H    7.377426   5.929108   6.657539   4.401824   4.051366
    34  H    6.552167   5.360443   6.799144   4.178979   4.538900
                   11         12         13         14         15
    11  O    0.000000
    12  O    3.575357   0.000000
    13  O    3.984227   3.243212   0.000000
    14  O    3.226207   4.584189   3.446489   0.000000
    15  C    2.457495   4.805710   3.519572   3.773340   0.000000
    16  H    2.560751   5.255329   4.484002   4.595687   1.099893
    17  H    2.856628   4.280898   2.884955   4.155434   1.100569
    18  O    3.627253   5.946968   3.985040   3.964593   1.405736
    19  C    4.133187   1.435449   4.074966   4.598304   5.759995
    20  H    3.718625   2.104552   4.640143   4.417216   5.712442
    21  H    5.068011   2.021586   4.902519   5.678988   6.697437
    22  H    4.549537   2.106611   3.814155   4.212279   5.970471
    23  C    5.109164   3.253385   1.431769   4.574512   4.847453
    24  H    5.095897   2.662202   2.102206   5.167559   5.072646
    25  H    5.543409   3.474280   2.089374   4.508464   5.573381
    26  H    5.910664   4.264639   2.025053   5.291098   5.235750
    27  C    3.150455   4.507435   4.381926   1.424786   4.532106
    28  H    3.242192   3.720722   4.206606   2.103234   4.902414
    29  H    4.198656   5.436010   5.202788   2.018713   5.474927
    30  H    2.649762   4.783477   4.927297   2.102893   4.292274
    31  C    4.796136   6.853041   4.734320   5.331210   2.360433
    32  H    5.074827   6.556493   4.307296   5.629708   2.653646
    33  H    5.629805   7.721610   5.333413   5.680446   3.269790
    34  H    4.957187   7.268164   5.532827   6.022121   2.657434
                   16         17         18         19         20
    16  H    0.000000
    17  H    1.785511   0.000000
    18  O    2.084905   2.073578   0.000000
    19  C    6.236016   5.412525   6.827282   0.000000
    20  H    6.077319   5.558434   6.810862   1.098603   0.000000
    21  H    7.114304   6.269309   7.811977   1.090145   1.779083
    22  H    6.602680   5.641961   6.865731   1.094668   1.793447
    23  C    5.739710   4.069280   5.357097   4.016981   4.854058
    24  H    5.817049   4.200987   5.810840   3.603779   4.525527
    25  H    6.502387   4.924861   6.033497   3.843073   4.711418
    26  H    6.148794   4.388919   5.550261   5.093090   5.940422
    27  C    5.134367   4.963621   4.986047   4.180467   3.702415
    28  H    5.493597   5.132705   5.562551   3.175876   2.698887
    29  H    6.090743   5.954452   5.757283   4.927318   4.431045
    30  H    4.681628   4.885546   4.838923   4.567733   3.908458
    31  C    2.687885   2.624840   1.425565   7.889966   7.968132
    32  H    3.093533   2.439367   2.090492   7.697757   7.919671
    33  H    3.655314   3.604723   2.025821   8.687222   8.765868
    34  H    2.514662   3.014629   2.089395   8.347619   8.347618
                   21         22         23         24         25
    21  H    0.000000
    22  H    1.779303   0.000000
    23  C    4.594673   3.666877   0.000000
    24  H    4.003398   3.500969   1.095805   0.000000
    25  H    4.385776   3.225058   1.097742   1.788515   0.000000
    26  H    5.617359   4.734548   1.090997   1.785491   1.787662
    27  C    5.217477   3.898551   5.353112   5.748213   5.183744
    28  H    4.177608   2.887370   4.947838   5.204007   4.692163
    29  H    5.906450   4.500717   6.101953   6.580779   5.788091
    30  H    5.580326   4.529712   6.004855   6.293579   5.983679
    31  C    8.810475   7.968079   5.960379   6.371780   6.769466
    32  H    8.550023   7.773150   5.369213   5.738180   6.265986
    33  H    9.641472   8.663812   6.549495   7.089466   7.284097
    34  H    9.235590   8.550071   6.746399   7.027507   7.601833
                   26         27         28         29         30
    26  H    0.000000
    27  C    6.227528   0.000000
    28  H    5.924240   1.098841   0.000000
    29  H    6.940779   1.090904   1.773565   0.000000
    30  H    6.879325   1.097781   1.793540   1.775841   0.000000
    31  C    5.927284   6.396422   6.926515   7.169335   6.251908
    32  H    5.202701   6.743574   7.133111   7.569266   6.714451
    33  H    6.424146   6.837188   7.470105   7.489689   6.746078
    34  H    6.764398   6.937430   7.463151   7.748448   6.633916
                   31         32         33         34
    31  C    0.000000
    32  H    1.098429   0.000000
    33  H    1.091240   1.787590   0.000000
    34  H    1.098403   1.790525   1.787542   0.000000
 Stoichiometry    C10H19O5(1+)
 Framework group  C1[X(C10H19O5)]
 Deg. of freedom    96
 Full point group                 C1      NOp   1
 Largest Abelian subgroup         C1      NOp   1
 Largest concise Abelian subgroup C1      NOp   1
                         Standard orientation:                         
 ---------------------------------------------------------------------
 Center     Atomic      Atomic             Coordinates (Angstroms)
 Number     Number       Type             X           Y           Z
 ---------------------------------------------------------------------
      1          6           0        0.747533    0.506423    0.612667
      2          6           0        1.235755    0.427570   -0.881202
      3          6           0        0.830188   -0.821897   -1.579890
      4          6           0       -1.184710   -0.986029   -0.271454
      5          6           0       -0.420978   -0.468490    0.951525
      6          1           0        1.444033   -1.247292   -2.376054
      7          1           0        0.640503    1.194376   -1.411784
      8          1           0        1.592075    0.244183    1.262224
      9          1           0       -1.713821   -1.908221   -0.035512
     10          1           0       -1.151529    0.134417    1.497312
     11          8           0       -0.246961   -1.433971   -1.364185
     12          8           0        2.568158    0.759769   -1.150203
     13          8           0        0.280693    1.802392    0.898911
     14          8           0       -0.060801   -1.490839    1.856145
     15          6           0       -2.172190    0.015996   -0.884216
     16          1           0       -2.517659   -0.358533   -1.858969
     17          1           0       -1.704398    1.000734   -1.034925
     18          8           0       -3.217334    0.091088    0.052869
     19          6           0        3.578707   -0.082590   -0.575977
     20          1           0        3.422263   -1.138085   -0.837482
     21          1           0        4.519877    0.250952   -1.013429
     22          1           0        3.632691    0.024108    0.512140
     23          6           0        1.296947    2.800855    1.041258
     24          1           0        1.818827    2.989544    0.096363
     25          1           0        2.027471    2.504504    1.805161
     26          1           0        0.783460    3.708916    1.360680
     27          6           0        0.812997   -2.518434    1.397299
     28          1           0        1.783719   -2.122910    1.067586
     29          1           0        0.984764   -3.171145    2.254350
     30          1           0        0.367482   -3.114459    0.590210
     31          6           0       -4.228709    1.025635   -0.315883
     32          1           0       -3.818349    2.040840   -0.402548
     33          1           0       -4.975653    1.002357    0.479313
     34          1           0       -4.699039    0.743962   -1.267691
 ---------------------------------------------------------------------
 Rotational constants (GHZ):           0.7587853           0.4301030           0.3809791
 Leave Link  202 at Fri May 24 08:31:13 2019, MaxMem=   402653184 cpu:               0.4 elap:               0.2
 (Enter /n/sw/g16_nehalem/g16/l301.exe)
 Standard basis: 6-31G(d) (6D, 7F)
 Ernie: Thresh=  0.10000D-02 Tol=  0.10000D-05 Strict=F.
 There are   263 symmetry adapted cartesian basis functions of A   symmetry.
 There are   263 symmetry adapted basis functions of A   symmetry.
   263 basis functions,   496 primitive gaussians,   263 cartesian basis functions
    59 alpha electrons       59 beta electrons
       nuclear repulsion energy      1167.3697407082 Hartrees.
 IExCor=  402 DFT=T Ex+Corr=B3LYP ExCW=0 ScaHFX=  0.200000
 ScaDFX=  0.800000  0.720000  1.000000  0.810000 ScalE2=  1.000000  1.000000
 IRadAn=      5 IRanWt=     -1 IRanGd=            0 ICorTp=0 IEmpDi=  4
 NAtoms=   34 NActive=   34 NUniq=   34 SFac= 1.00D+00 NAtFMM=   60 NAOKFM=F Big=F
 Integral buffers will be    131072 words long.
 Raffenetti 2 integral format.
 Two-electron integral symmetry is turned on.
 ------------------------------------------------------------------------------
 Polarizable Continuum Model (PCM)
 =================================
 Model                : PCM.
 Atomic radii         : UFF (Universal Force Field).
 Polarization charges : Total charges.
 Charge compensation  : None.
 Solution method      : On-the-fly selection.
 Cavity type          : Scaled VdW (van der Waals Surface) (Alpha=1.100).
 Cavity algorithm     : GePol (No added spheres)
                        Default sphere list used, NSphG=   34.
                        Lebedev-Laikov grids with approx.  5.0 points / Ang**2.
                        Smoothing algorithm: York/Karplus (Gamma=1.0000).
                        Polarization charges: spherical gaussians, with
                                              point-specific exponents (IZeta= 3).
                        Self-potential: point-specific (ISelfS= 7).
                        Self-field    : sphere-specific E.n sum rule (ISelfD= 2).
 1st derivatives      : Analytical E(r).r(x)/FMM algorithm (CHGder, D1EAlg=3).
                        Cavity 1st derivative terms included.
 Solvent              : TetraHydroFuran, Eps=   7.425700 Eps(inf)=   1.974025
 ------------------------------------------------------------------------------
 GePol: Number of generator spheres                  =      34
 GePol: Total number of spheres                      =      34
 GePol: Number of exposed spheres                    =      34 (100.00%)
 GePol: Number of points                             =    2260
 GePol: Average weight of points                     =       0.13
 GePol: Minimum weight of points                     =   0.99D-09
 GePol: Maximum weight of points                     =    0.20577
 GePol: Number of points with low weight             =     134
 GePol: Fraction of low-weight points (<1% of avg)   =       5.93%
 GePol: Cavity surface area                          =    294.305 Ang**2
 GePol: Cavity volume                                =    319.476 Ang**3
 Leave Link  301 at Fri May 24 08:31:13 2019, MaxMem=   402653184 cpu:               0.6 elap:               0.3
 (Enter /n/sw/g16_nehalem/g16/l302.exe)
 NPDir=0 NMtPBC=     1 NCelOv=     1 NCel=       1 NClECP=     1 NCelD=      1
         NCelK=      1 NCelE2=     1 NClLst=     1 CellRange=     0.0.
 One-electron integrals computed using PRISM.
 One-electron integral symmetry used in STVInt
 NBasis=   263 RedAO= T EigKep=  1.50D-03  NBF=   263
 NBsUse=   263 1.00D-06 EigRej= -1.00D+00 NBFU=   263
 Precomputing XC quadrature grid using
 IXCGrd= 4 IRadAn=           5 IRanWt=          -1 IRanGd=           0 AccXCQ= 0.00D+00.
 Generated NRdTot=       0 NPtTot=           0 NUsed=           0 NTot=          32
 NSgBfM=   262   262   262   262   262 MxSgAt=    34 MxSgA2=    34.
 Leave Link  302 at Fri May 24 08:31:15 2019, MaxMem=   402653184 cpu:               5.2 elap:               1.7
 (Enter /n/sw/g16_nehalem/g16/l303.exe)
 DipDrv:  MaxL=1.
 Leave Link  303 at Fri May 24 08:31:15 2019, MaxMem=   402653184 cpu:               0.2 elap:               0.2
 (Enter /n/sw/g16_nehalem/g16/l401.exe)
 ExpMin= 1.61D-01 ExpMax= 5.48D+03 ExpMxC= 8.25D+02 IAcc=3 IRadAn=         5 AccDes= 0.00D+00
 Harris functional with IExCor=  402 and IRadAn=       5 diagonalized for initial guess.
 HarFok:  IExCor=  402 AccDes= 0.00D+00 IRadAn=         5 IDoV= 1 UseB2=F ITyADJ=14
 ICtDFT=  3500011 ScaDFX=  1.000000  1.000000  1.000000  1.000000
 FoFCou: FMM=F IPFlag=           0 FMFlag=      100000 FMFlg1=           0
         NFxFlg=           0 DoJE=T BraDBF=F KetDBF=T FulRan=T
         wScrn=  0.000000 ICntrl=       500 IOpCl=  0 I1Cent=   200000004 NGrid=           0
         NMat0=    1 NMatS0=      1 NMatT0=    0 NMatD0=    1 NMtDS0=    0 NMtDT0=    0
 Petite list used in FoFCou.
 Harris En= -768.253366930082    
 JPrj=0 DoOrth=F DoCkMO=F.
 Leave Link  401 at Fri May 24 08:31:21 2019, MaxMem=   402653184 cpu:              22.4 elap:               6.4
 (Enter /n/sw/g16_nehalem/g16/l502.exe)
 Integral symmetry usage will be decided dynamically.
 Closed shell SCF:
 Using DIIS extrapolation, IDIIS=  1040.
 NGot=   402653184 LenX=   402510103 LenY=   402440493
 Requested convergence on RMS density matrix=1.00D-08 within 128 cycles.
 Requested convergence on MAX density matrix=1.00D-06.
 Requested convergence on             energy=1.00D-06.
 No special actions if energy rises.
 Fock matrices will be formed incrementally for  20 cycles.

 Cycle   1  Pass 1  IDiag  1:
 FoFJK:  IHMeth= 1 ICntrl=       0 DoSepK=F KAlg= 0 I1Cent=           0 FoldK=F
 IRaf= 880000000 NMat=       1 IRICut=       1 DoRegI=T DoRafI=F ISym2E= 0 IDoP0=0 IntGTp=1.
 FoFCou: FMM=F IPFlag=           0 FMFlag=      100000 FMFlg1=           0
         NFxFlg=           0 DoJE=F BraDBF=F KetDBF=F FulRan=T
         wScrn=  0.000000 ICntrl=         0 IOpCl=  0 I1Cent=           0 NGrid=           0
         NMat0=    1 NMatS0=      1 NMatT0=    0 NMatD0=    1 NMtDS0=    0 NMtDT0=    0
 Symmetry not used in FoFCou.
 Inv3:  Mode=1 IEnd=    15322800.
 Iteration    1 A*A^-1 deviation from unit magnitude is 7.77D-15 for    564.
 Iteration    1 A*A^-1 deviation from orthogonality  is 2.29D-15 for   2052    260.
 Iteration    1 A^-1*A deviation from unit magnitude is 7.99D-15 for    564.
 Iteration    1 A^-1*A deviation from orthogonality  is 9.16D-15 for   1438   1413.
 E= -768.071144403199    
 DIIS: error= 1.97D-02 at cycle   1 NSaved=   1.
 NSaved= 1 IEnMin= 1 EnMin= -768.071144403199     IErMin= 1 ErrMin= 1.97D-02
 ErrMax= 1.97D-02  0.00D+00 EMaxC= 1.00D-01 BMatC= 2.61D-01 BMatP= 2.61D-01
 IDIUse=3 WtCom= 8.03D-01 WtEn= 1.97D-01
 Coeff-Com:  0.100D+01
 Coeff-En:   0.100D+01
 Coeff:      0.100D+01
 Gap=     0.011 Goal=   None    Shift=    0.000
 GapD=    0.011 DampG=0.250 DampE=0.500 DampFc=0.2500 IDamp=-1.
 Damping current iteration by 2.50D-01
 RMSDP=5.99D-03 MaxDP=1.75D-01              OVMax= 7.57D-01

 Cycle   2  Pass 1  IDiag  1:
 RMSU=  1.49D-03    CP:  9.93D-01
 E= -768.100126392303     Delta-E=       -0.028981989105 Rises=F Damp=T
 DIIS: error= 9.65D-03 at cycle   2 NSaved=   2.
 NSaved= 2 IEnMin= 2 EnMin= -768.100126392303     IErMin= 2 ErrMin= 9.65D-03
 ErrMax= 9.65D-03  0.00D+00 EMaxC= 1.00D-01 BMatC= 7.29D-02 BMatP= 2.61D-01
 IDIUse=3 WtCom= 9.03D-01 WtEn= 9.65D-02
 Coeff-Com: -0.314D+00 0.131D+01
 Coeff-En:   0.343D+00 0.657D+00
 Coeff:     -0.251D+00 0.125D+01
 Gap=    -0.090 Goal=   None    Shift=    0.000
 RMSDP=2.04D-03 MaxDP=6.72D-02 DE=-2.90D-02 OVMax= 6.55D-01

 Cycle   3  Pass 1  IDiag  1:
 RMSU=  2.00D-03    CP:  9.84D-01  7.64D-01
 E= -768.195449354676     Delta-E=       -0.095322962373 Rises=F Damp=F
 DIIS: error= 1.70D-02 at cycle   3 NSaved=   3.
 NSaved= 3 IEnMin= 3 EnMin= -768.195449354676     IErMin= 2 ErrMin= 9.65D-03
 ErrMax= 1.70D-02  0.00D+00 EMaxC= 1.00D-01 BMatC= 1.36D-01 BMatP= 7.29D-02
 IDIUse=2 WtCom= 0.00D+00 WtEn= 1.00D+00
 Coeff-En:   0.000D+00 0.232D+00 0.768D+00
 Coeff:      0.000D+00 0.232D+00 0.768D+00
 Gap=     0.077 Goal=   None    Shift=    0.000
 RMSDP=5.30D-03 MaxDP=2.79D-01 DE=-9.53D-02 OVMax= 9.85D-01

 Cycle   4  Pass 1  IDiag  1:
 RMSU=  2.98D-03    CP:  9.76D-01  2.97D+00 -4.52D-01
 E= -766.519018184468     Delta-E=        1.676431170209 Rises=F Damp=F
 DIIS: error= 7.88D-02 at cycle   4 NSaved=   4.
 NSaved= 4 IEnMin= 3 EnMin= -768.195449354676     IErMin= 2 ErrMin= 9.65D-03
 ErrMax= 7.88D-02  0.00D+00 EMaxC= 1.00D-01 BMatC= 1.19D+00 BMatP= 7.29D-02
 IDIUse=2 WtCom= 0.00D+00 WtEn= 1.00D+00
 Coeff-En:   0.000D+00 0.000D+00 0.889D+00 0.111D+00
 Coeff:      0.000D+00 0.000D+00 0.889D+00 0.111D+00
 Gap=    -0.053 Goal=   None    Shift=    0.000
 RMSDP=4.88D-03 MaxDP=1.96D-01 DE= 1.68D+00 OVMax= 9.96D-01

 Cycle   5  Pass 1  IDiag  1:
 RMSU=  1.63D-03    CP:  9.93D-01  9.83D-01  3.71D-01 -4.13D-02
 E= -768.270473166967     Delta-E=       -1.751454982500 Rises=F Damp=F
 DIIS: error= 1.05D-02 at cycle   5 NSaved=   5.
 NSaved= 5 IEnMin= 5 EnMin= -768.270473166967     IErMin= 2 ErrMin= 9.65D-03
 ErrMax= 1.05D-02  0.00D+00 EMaxC= 1.00D-01 BMatC= 5.84D-02 BMatP= 7.29D-02
 IDIUse=3 WtCom= 8.95D-01 WtEn= 1.05D-01
 Coeff-Com: -0.129D+00 0.290D+00 0.409D+00 0.165D-01 0.413D+00
 Coeff-En:   0.000D+00 0.000D+00 0.282D+00 0.000D+00 0.718D+00
 Coeff:     -0.116D+00 0.260D+00 0.396D+00 0.148D-01 0.445D+00
 Gap=     0.149 Goal=   None    Shift=    0.000
 RMSDP=9.46D-04 MaxDP=4.05D-02 DE=-1.75D+00 OVMax= 3.74D-02

 Cycle   6  Pass 1  IDiag  1:
 RMSU=  3.67D-04    CP:  9.89D-01  8.59D-01  6.15D-01 -2.56D-02  5.75D-01
 E= -768.311085909026     Delta-E=       -0.040612742059 Rises=F Damp=F
 DIIS: error= 2.81D-03 at cycle   6 NSaved=   6.
 NSaved= 6 IEnMin= 6 EnMin= -768.311085909026     IErMin= 6 ErrMin= 2.81D-03
 ErrMax= 2.81D-03  0.00D+00 EMaxC= 1.00D-01 BMatC= 6.09D-03 BMatP= 5.84D-02
 IDIUse=3 WtCom= 9.72D-01 WtEn= 2.81D-02
 Coeff-Com: -0.938D-01 0.146D+00 0.143D+00-0.137D-02 0.281D+00 0.525D+00
 Coeff-En:   0.000D+00 0.000D+00 0.000D+00 0.000D+00 0.495D-01 0.950D+00
 Coeff:     -0.911D-01 0.142D+00 0.139D+00-0.133D-02 0.274D+00 0.537D+00
 Gap=     0.129 Goal=   None    Shift=    0.000
 RMSDP=2.42D-04 MaxDP=1.12D-02 DE=-4.06D-02 OVMax= 1.09D-02

 Cycle   7  Pass 1  IDiag  1:
 RMSU=  1.21D-04    CP:  9.90D-01  9.15D-01  5.90D-01 -2.94D-02  6.70D-01
                    CP:  7.21D-01
 E= -768.315429163648     Delta-E=       -0.004343254622 Rises=F Damp=F
 DIIS: error= 8.25D-04 at cycle   7 NSaved=   7.
 NSaved= 7 IEnMin= 7 EnMin= -768.315429163648     IErMin= 7 ErrMin= 8.25D-04
 ErrMax= 8.25D-04  0.00D+00 EMaxC= 1.00D-01 BMatC= 4.26D-04 BMatP= 6.09D-03
 IDIUse=3 WtCom= 9.92D-01 WtEn= 8.25D-03
 Coeff-Com: -0.496D-01 0.654D-01 0.103D-01-0.157D-02 0.883D-01 0.286D+00
 Coeff-Com:  0.602D+00
 Coeff-En:   0.000D+00 0.000D+00 0.000D+00 0.000D+00 0.000D+00 0.000D+00
 Coeff-En:   0.100D+01
 Coeff:     -0.492D-01 0.648D-01 0.103D-01-0.156D-02 0.875D-01 0.283D+00
 Coeff:      0.605D+00
 Gap=     0.127 Goal=   None    Shift=    0.000
 RMSDP=6.66D-05 MaxDP=3.10D-03 DE=-4.34D-03 OVMax= 4.30D-03

 Cycle   8  Pass 1  IDiag  1:
 RMSU=  4.67D-05    CP:  9.90D-01  9.21D-01  5.83D-01 -2.98D-02  6.91D-01
                    CP:  7.78D-01  8.47D-01
 E= -768.315738716910     Delta-E=       -0.000309553262 Rises=F Damp=F
 DIIS: error= 2.98D-04 at cycle   8 NSaved=   8.
 NSaved= 8 IEnMin= 8 EnMin= -768.315738716910     IErMin= 8 ErrMin= 2.98D-04
 ErrMax= 2.98D-04  0.00D+00 EMaxC= 1.00D-01 BMatC= 9.06D-05 BMatP= 4.26D-04
 IDIUse=3 WtCom= 9.97D-01 WtEn= 2.98D-03
 Coeff-Com: -0.171D-01 0.186D-01-0.259D-01 0.235D-03 0.509D-03 0.770D-01
 Coeff-Com:  0.382D+00 0.565D+00
 Coeff-En:   0.000D+00 0.000D+00 0.000D+00 0.000D+00 0.000D+00 0.000D+00
 Coeff-En:   0.000D+00 0.100D+01
 Coeff:     -0.170D-01 0.185D-01-0.258D-01 0.234D-03 0.507D-03 0.768D-01
 Coeff:      0.381D+00 0.566D+00
 Gap=     0.127 Goal=   None    Shift=    0.000
 RMSDP=3.15D-05 MaxDP=1.57D-03 DE=-3.10D-04 OVMax= 1.31D-03

 Cycle   9  Pass 1  IDiag  1:
 RMSU=  1.39D-05    CP:  9.90D-01  9.25D-01  5.81D-01 -2.90D-02  7.02D-01
                    CP:  8.08D-01  9.23D-01  6.88D-01
 E= -768.315812741640     Delta-E=       -0.000074024730 Rises=F Damp=F
 DIIS: error= 1.21D-04 at cycle   9 NSaved=   9.
 NSaved= 9 IEnMin= 9 EnMin= -768.315812741640     IErMin= 9 ErrMin= 1.21D-04
 ErrMax= 1.21D-04  0.00D+00 EMaxC= 1.00D-01 BMatC= 7.97D-06 BMatP= 9.06D-05
 IDIUse=3 WtCom= 9.99D-01 WtEn= 1.21D-03
 Coeff-Com: -0.601D-02 0.689D-02-0.124D-01 0.341D-04-0.587D-02 0.722D-02
 Coeff-Com:  0.850D-01 0.204D+00 0.721D+00
 Coeff-En:   0.000D+00 0.000D+00 0.000D+00 0.000D+00 0.000D+00 0.000D+00
 Coeff-En:   0.000D+00 0.000D+00 0.100D+01
 Coeff:     -0.600D-02 0.688D-02-0.124D-01 0.341D-04-0.587D-02 0.721D-02
 Coeff:      0.849D-01 0.204D+00 0.721D+00
 Gap=     0.127 Goal=   None    Shift=    0.000
 RMSDP=1.06D-05 MaxDP=2.84D-04 DE=-7.40D-05 OVMax= 5.18D-04

 Cycle  10  Pass 1  IDiag  1:
 RMSU=  5.80D-06    CP:  9.90D-01  9.26D-01  5.79D-01 -2.89D-02  7.06D-01
                    CP:  8.16D-01  9.45D-01  7.55D-01  9.46D-01
 E= -768.315819029679     Delta-E=       -0.000006288039 Rises=F Damp=F
 DIIS: error= 3.86D-05 at cycle  10 NSaved=  10.
 NSaved=10 IEnMin=10 EnMin= -768.315819029679     IErMin=10 ErrMin= 3.86D-05
 ErrMax= 3.86D-05  0.00D+00 EMaxC= 1.00D-01 BMatC= 1.36D-06 BMatP= 7.97D-06
 IDIUse=1 WtCom= 1.00D+00 WtEn= 0.00D+00
 Coeff-Com: -0.118D-02 0.177D-02-0.298D-02-0.382D-04-0.320D-02-0.968D-02
 Coeff-Com: -0.224D-01 0.727D-02 0.387D+00 0.643D+00
 Coeff:     -0.118D-02 0.177D-02-0.298D-02-0.382D-04-0.320D-02-0.968D-02
 Coeff:     -0.224D-01 0.727D-02 0.387D+00 0.643D+00
 Gap=     0.127 Goal=   None    Shift=    0.000
 RMSDP=4.38D-06 MaxDP=1.18D-04 DE=-6.29D-06 OVMax= 2.00D-04

 Cycle  11  Pass 1  IDiag  1:
 RMSU=  1.70D-06    CP:  9.90D-01  9.27D-01  5.79D-01 -2.88D-02  7.07D-01
                    CP:  8.18D-01  9.52D-01  7.74D-01  1.07D+00  7.73D-01
 E= -768.315820265347     Delta-E=       -0.000001235668 Rises=F Damp=F
 DIIS: error= 9.86D-06 at cycle  11 NSaved=  11.
 NSaved=11 IEnMin=11 EnMin= -768.315820265347     IErMin=11 ErrMin= 9.86D-06
 ErrMax= 9.86D-06  0.00D+00 EMaxC= 1.00D-01 BMatC= 6.74D-08 BMatP= 1.36D-06
 IDIUse=1 WtCom= 1.00D+00 WtEn= 0.00D+00
 Coeff-Com: -0.245D-04 0.143D-03-0.313D-03-0.561D-05-0.671D-03-0.456D-02
 Coeff-Com: -0.164D-01-0.168D-01 0.913D-01 0.253D+00 0.695D+00
 Coeff:     -0.245D-04 0.143D-03-0.313D-03-0.561D-05-0.671D-03-0.456D-02
 Coeff:     -0.164D-01-0.168D-01 0.913D-01 0.253D+00 0.695D+00
 Gap=     0.127 Goal=   None    Shift=    0.000
 RMSDP=1.38D-06 MaxDP=3.97D-05 DE=-1.24D-06 OVMax= 6.92D-05

 Cycle  12  Pass 1  IDiag  1:
 RMSU=  5.88D-07    CP:  9.90D-01  9.27D-01  5.79D-01 -2.88D-02  7.08D-01
                    CP:  8.19D-01  9.54D-01  7.79D-01  1.08D+00  8.18D-01
                    CP:  8.19D-01
 E= -768.315820327159     Delta-E=       -0.000000061812 Rises=F Damp=F
 DIIS: error= 2.37D-06 at cycle  12 NSaved=  12.
 NSaved=12 IEnMin=12 EnMin= -768.315820327159     IErMin=12 ErrMin= 2.37D-06
 ErrMax= 2.37D-06  0.00D+00 EMaxC= 1.00D-01 BMatC= 4.72D-09 BMatP= 6.74D-08
 IDIUse=1 WtCom= 1.00D+00 WtEn= 0.00D+00
 Coeff-Com:  0.556D-04-0.534D-04 0.631D-04 0.453D-06-0.385D-05-0.133D-02
 Coeff-Com: -0.601D-02-0.934D-02 0.151D-01 0.750D-01 0.361D+00 0.565D+00
 Coeff:      0.556D-04-0.534D-04 0.631D-04 0.453D-06-0.385D-05-0.133D-02
 Coeff:     -0.601D-02-0.934D-02 0.151D-01 0.750D-01 0.361D+00 0.565D+00
 Gap=     0.127 Goal=   None    Shift=    0.000
 RMSDP=3.16D-07 MaxDP=9.34D-06 DE=-6.18D-08 OVMax= 2.39D-05

 Cycle  13  Pass 1  IDiag  1:
 RMSU=  1.82D-07    CP:  9.90D-01  9.27D-01  5.79D-01 -2.88D-02  7.08D-01
                    CP:  8.19D-01  9.54D-01  7.79D-01  1.09D+00  8.30D-01
                    CP:  8.65D-01  7.01D-01
 E= -768.315820331045     Delta-E=       -0.000000003886 Rises=F Damp=F
 DIIS: error= 5.89D-07 at cycle  13 NSaved=  13.
 NSaved=13 IEnMin=13 EnMin= -768.315820331045     IErMin=13 ErrMin= 5.89D-07
 ErrMax= 5.89D-07  0.00D+00 EMaxC= 1.00D-01 BMatC= 2.82D-10 BMatP= 4.72D-09
 IDIUse=1 WtCom= 1.00D+00 WtEn= 0.00D+00
 Coeff-Com:  0.398D-04-0.518D-04 0.543D-04 0.785D-06 0.441D-04-0.253D-03
 Coeff-Com: -0.123D-02-0.268D-02-0.268D-05 0.127D-01 0.100D+00 0.237D+00
 Coeff-Com:  0.654D+00
 Coeff:      0.398D-04-0.518D-04 0.543D-04 0.785D-06 0.441D-04-0.253D-03
 Coeff:     -0.123D-02-0.268D-02-0.268D-05 0.127D-01 0.100D+00 0.237D+00
 Coeff:      0.654D+00
 Gap=     0.127 Goal=   None    Shift=    0.000
 RMSDP=7.73D-08 MaxDP=3.07D-06 DE=-3.89D-09 OVMax= 5.00D-06

 Cycle  14  Pass 1  IDiag  1:
 RMSU=  5.06D-08    CP:  9.90D-01  9.27D-01  5.79D-01 -2.87D-02  7.08D-01
                    CP:  8.19D-01  9.54D-01  7.79D-01  1.09D+00  8.31D-01
                    CP:  8.78D-01  7.40D-01  8.44D-01
 E= -768.315820331292     Delta-E=       -0.000000000246 Rises=F Damp=F
 DIIS: error= 3.32D-07 at cycle  14 NSaved=  14.
 NSaved=14 IEnMin=14 EnMin= -768.315820331292     IErMin=14 ErrMin= 3.32D-07
 ErrMax= 3.32D-07  0.00D+00 EMaxC= 1.00D-01 BMatC= 6.87D-11 BMatP= 2.82D-10
 IDIUse=1 WtCom= 1.00D+00 WtEn= 0.00D+00
 Coeff-Com:  0.158D-04-0.211D-04 0.230D-04 0.208D-06 0.199D-04-0.430D-04
 Coeff-Com: -0.146D-03-0.598D-03-0.387D-03 0.180D-02 0.258D-01 0.783D-01
 Coeff-Com:  0.315D+00 0.580D+00
 Coeff:      0.158D-04-0.211D-04 0.230D-04 0.208D-06 0.199D-04-0.430D-04
 Coeff:     -0.146D-03-0.598D-03-0.387D-03 0.180D-02 0.258D-01 0.783D-01
 Coeff:      0.315D+00 0.580D+00
 Gap=     0.127 Goal=   None    Shift=    0.000
 RMSDP=3.28D-08 MaxDP=1.01D-06 DE=-2.46D-10 OVMax= 2.80D-06

 Cycle  15  Pass 1  IDiag  1:
 RMSU=  1.69D-08    CP:  9.90D-01  9.27D-01  5.79D-01 -2.87D-02  7.08D-01
                    CP:  8.19D-01  9.54D-01  7.79D-01  1.09D+00  8.32D-01
                    CP:  8.80D-01  7.53D-01  9.00D-01  8.14D-01
 E= -768.315820331377     Delta-E=       -0.000000000085 Rises=F Damp=F
 DIIS: error= 1.24D-07 at cycle  15 NSaved=  15.
 NSaved=15 IEnMin=15 EnMin= -768.315820331377     IErMin=15 ErrMin= 1.24D-07
 ErrMax= 1.24D-07  0.00D+00 EMaxC= 1.00D-01 BMatC= 9.31D-12 BMatP= 6.87D-11
 IDIUse=1 WtCom= 1.00D+00 WtEn= 0.00D+00
 Coeff-Com:  0.276D-05-0.399D-05 0.230D-05 0.104D-06 0.676D-06 0.151D-04
 Coeff-Com:  0.136D-03 0.181D-03 0.244D-04-0.993D-03-0.445D-02-0.650D-02
 Coeff-Com: -0.247D-02 0.183D+00 0.831D+00
 Coeff:      0.276D-05-0.399D-05 0.230D-05 0.104D-06 0.676D-06 0.151D-04
 Coeff:      0.136D-03 0.181D-03 0.244D-04-0.993D-03-0.445D-02-0.650D-02
 Coeff:     -0.247D-02 0.183D+00 0.831D+00
 Gap=     0.127 Goal=   None    Shift=    0.000
 RMSDP=1.71D-08 MaxDP=4.51D-07 DE=-8.48D-11 OVMax= 1.90D-06

 Cycle  16  Pass 1  IDiag  1:
 RMSU=  5.46D-09    CP:  9.90D-01  9.27D-01  5.79D-01 -2.87D-02  7.08D-01
                    CP:  8.19D-01  9.54D-01  7.79D-01  1.09D+00  8.32D-01
                    CP:  8.82D-01  7.58D-01  9.19D-01  9.37D-01  1.08D+00
 E= -768.315820331356     Delta-E=        0.000000000021 Rises=F Damp=F
 DIIS: error= 1.97D-08 at cycle  16 NSaved=  16.
 NSaved=16 IEnMin=15 EnMin= -768.315820331377     IErMin=16 ErrMin= 1.97D-08
 ErrMax= 1.97D-08  0.00D+00 EMaxC= 1.00D-01 BMatC= 2.26D-13 BMatP= 9.31D-12
 IDIUse=1 WtCom= 1.00D+00 WtEn= 0.00D+00
 Coeff-Com: -0.137D-06 0.698D-07-0.718D-06 0.200D-07-0.981D-06 0.659D-05
 Coeff-Com:  0.484D-04 0.901D-04 0.618D-04-0.362D-03-0.273D-02-0.717D-02
 Coeff-Com: -0.266D-01 0.818D-02 0.226D+00 0.803D+00
 Coeff:     -0.137D-06 0.698D-07-0.718D-06 0.200D-07-0.981D-06 0.659D-05
 Coeff:      0.484D-04 0.901D-04 0.618D-04-0.362D-03-0.273D-02-0.717D-02
 Coeff:     -0.266D-01 0.818D-02 0.226D+00 0.803D+00
 Gap=     0.127 Goal=   None    Shift=    0.000
 RMSDP=4.19D-09 MaxDP=1.38D-07 DE= 2.11D-11 OVMax= 6.06D-07

 Error on total polarization charges =  0.01267
 SCF Done:  E(RB3LYP) =  -768.315820331     A.U. after   16 cycles
            NFock= 16  Conv=0.42D-08     -V/T= 2.0091
 KE= 7.613946458093D+02 PE=-4.109177514314D+03 EE= 1.412097307465D+03
 Leave Link  502 at Fri May 24 08:34:40 2019, MaxMem=   402653184 cpu:             791.7 elap:             199.0
 (Enter /n/sw/g16_nehalem/g16/l601.exe)
 Copying SCF densities to generalized density rwf, IOpCl= 0 IROHF=0.

 **********************************************************************

            Population analysis using the SCF density.

 **********************************************************************

 Orbital symmetries:
       Occupied  (A) (A) (A) (A) (A) (A) (A) (A) (A) (A) (A) (A)
                 (A) (A) (A) (A) (A) (A) (A) (A) (A) (A) (A) (A)
                 (A) (A) (A) (A) (A) (A) (A) (A) (A) (A) (A) (A)
                 (A) (A) (A) (A) (A) (A) (A) (A) (A) (A) (A) (A)
                 (A) (A) (A) (A) (A) (A) (A) (A) (A) (A) (A)
       Virtual   (A) (A) (A) (A) (A) (A) (A) (A) (A) (A) (A) (A)
                 (A) (A) (A) (A) (A) (A) (A) (A) (A) (A) (A) (A)
                 (A) (A) (A) (A) (A) (A) (A) (A) (A) (A) (A) (A)
                 (A) (A) (A) (A) (A) (A) (A) (A) (A) (A) (A) (A)
                 (A) (A) (A) (A) (A) (A) (A) (A) (A) (A) (A) (A)
                 (A) (A) (A) (A) (A) (A) (A) (A) (A) (A) (A) (A)
                 (A) (A) (A) (A) (A) (A) (A) (A) (A) (A) (A) (A)
                 (A) (A) (A) (A) (A) (A) (A) (A) (A) (A) (A) (A)
                 (A) (A) (A) (A) (A) (A) (A) (A) (A) (A) (A) (A)
                 (A) (A) (A) (A) (A) (A) (A) (A) (A) (A) (A) (A)
                 (A) (A) (A) (A) (A) (A) (A) (A) (A) (A) (A) (A)
                 (A) (A) (A) (A) (A) (A) (A) (A) (A) (A) (A) (A)
                 (A) (A) (A) (A) (A) (A) (A) (A) (A) (A) (A) (A)
                 (A) (A) (A) (A) (A) (A) (A) (A) (A) (A) (A) (A)
                 (A) (A) (A) (A) (A) (A) (A) (A) (A) (A) (A) (A)
                 (A) (A) (A) (A) (A) (A) (A) (A) (A) (A) (A) (A)
                 (A) (A) (A) (A) (A) (A) (A) (A) (A) (A) (A) (A)
 The electronic state is 1-A.
 Alpha  occ. eigenvalues --  -19.33751 -19.21499 -19.19524 -19.19472 -19.18964
 Alpha  occ. eigenvalues --  -10.40374 -10.32597 -10.32311 -10.30361 -10.29707
 Alpha  occ. eigenvalues --  -10.28615 -10.26820 -10.26058 -10.25142 -10.24888
 Alpha  occ. eigenvalues --   -1.22517  -1.10172  -1.08279  -1.07303  -1.07070
 Alpha  occ. eigenvalues --   -0.87507  -0.85837  -0.78358  -0.75842  -0.74402
 Alpha  occ. eigenvalues --   -0.72260  -0.68946  -0.68433  -0.66979  -0.62924
 Alpha  occ. eigenvalues --   -0.59824  -0.59191  -0.57281  -0.54900  -0.54002
 Alpha  occ. eigenvalues --   -0.52872  -0.51937  -0.51272  -0.50918  -0.49065
 Alpha  occ. eigenvalues --   -0.48881  -0.48434  -0.47493  -0.46823  -0.45964
 Alpha  occ. eigenvalues --   -0.44481  -0.43450  -0.43058  -0.42048  -0.41200
 Alpha  occ. eigenvalues --   -0.39778  -0.37636  -0.36307  -0.36021  -0.35032
 Alpha  occ. eigenvalues --   -0.33366  -0.30655  -0.29401  -0.28776
 Alpha virt. eigenvalues --   -0.16104   0.00118   0.03042   0.04293   0.05295
 Alpha virt. eigenvalues --    0.05733   0.07814   0.08378   0.09073   0.09455
 Alpha virt. eigenvalues --    0.10775   0.11256   0.11903   0.12876   0.12969
 Alpha virt. eigenvalues --    0.13462   0.13972   0.14387   0.14650   0.14795
 Alpha virt. eigenvalues --    0.15289   0.15503   0.16121   0.16397   0.16951
 Alpha virt. eigenvalues --    0.18314   0.18877   0.19641   0.21405   0.21754
 Alpha virt. eigenvalues --    0.24126   0.25944   0.27907   0.28596   0.30539
 Alpha virt. eigenvalues --    0.41341   0.44988   0.46006   0.46587   0.47818
 Alpha virt. eigenvalues --    0.48443   0.49006   0.49623   0.50883   0.52163
 Alpha virt. eigenvalues --    0.53300   0.53713   0.54600   0.54684   0.55698
 Alpha virt. eigenvalues --    0.55891   0.56316   0.59021   0.60451   0.62888
 Alpha virt. eigenvalues --    0.63431   0.64909   0.66081   0.70664   0.72561
 Alpha virt. eigenvalues --    0.73020   0.74490   0.75530   0.76991   0.77882
 Alpha virt. eigenvalues --    0.78457   0.79626   0.79850   0.81343   0.81800
 Alpha virt. eigenvalues --    0.82360   0.82632   0.83794   0.84414   0.85215
 Alpha virt. eigenvalues --    0.85861   0.86440   0.86914   0.88884   0.89764
 Alpha virt. eigenvalues --    0.91106   0.91739   0.93024   0.93794   0.94330
 Alpha virt. eigenvalues --    0.95096   0.97440   0.98461   0.99418   1.01533
 Alpha virt. eigenvalues --    1.03600   1.05580   1.08040   1.10041   1.11366
 Alpha virt. eigenvalues --    1.12873   1.14338   1.15520   1.18278   1.20765
 Alpha virt. eigenvalues --    1.21699   1.25289   1.26675   1.31032   1.32922
 Alpha virt. eigenvalues --    1.34387   1.35263   1.36652   1.39133   1.43517
 Alpha virt. eigenvalues --    1.44083   1.44614   1.45443   1.47257   1.48390
 Alpha virt. eigenvalues --    1.49178   1.53074   1.54113   1.55154   1.56859
 Alpha virt. eigenvalues --    1.58604   1.63539   1.65142   1.68064   1.72376
 Alpha virt. eigenvalues --    1.73446   1.73587   1.75442   1.76112   1.80885
 Alpha virt. eigenvalues --    1.82404   1.83795   1.84860   1.87569   1.88449
 Alpha virt. eigenvalues --    1.89858   1.92526   1.95357   1.96839   1.99231
 Alpha virt. eigenvalues --    2.01181   2.02146   2.02559   2.03353   2.04075
 Alpha virt. eigenvalues --    2.05869   2.06132   2.07452   2.08379   2.09690
 Alpha virt. eigenvalues --    2.11025   2.12555   2.13815   2.15820   2.17157
 Alpha virt. eigenvalues --    2.18872   2.20277   2.23395   2.23917   2.25956
 Alpha virt. eigenvalues --    2.27510   2.30162   2.31080   2.32987   2.35573
 Alpha virt. eigenvalues --    2.37315   2.40624   2.42076   2.44731   2.46389
 Alpha virt. eigenvalues --    2.48520   2.50844   2.52770   2.55653   2.58424
 Alpha virt. eigenvalues --    2.62682   2.65601   2.68409   2.72334   2.76495
 Alpha virt. eigenvalues --    2.78540   2.79479   2.83807   2.87811   2.92822
 Alpha virt. eigenvalues --    2.93995   2.96672   3.00392   3.02592   3.80664
 Alpha virt. eigenvalues --    3.85501   3.97936   3.98959   4.04830   4.11441
 Alpha virt. eigenvalues --    4.20773   4.22186   4.23065   4.24525   4.29403
 Alpha virt. eigenvalues --    4.35104   4.47385   4.56486   4.71030
          Condensed to atoms (all electrons):
               1          2          3          4          5          6
     1  C    5.093846   0.226318  -0.029284  -0.034668   0.264232   0.002597
     2  C    0.226318   5.139190   0.252773  -0.008576  -0.024495  -0.038432
     3  C   -0.029284   0.252773   4.901760  -0.037689  -0.002176   0.355439
     4  C   -0.034668  -0.008576  -0.037689   5.183367   0.269000   0.003357
     5  C    0.264232  -0.024495  -0.002176   0.269000   4.994325  -0.000298
     6  H    0.002597  -0.038432   0.355439   0.003357  -0.000298   0.420878
     7  H   -0.031459   0.357111  -0.039576   0.000447  -0.000119   0.000527
     8  H    0.362527  -0.053039  -0.000638   0.004122  -0.038783  -0.000191
     9  H    0.004608  -0.000231   0.002897   0.368321  -0.040002  -0.000055
    10  H   -0.042938   0.004389  -0.000378  -0.045121   0.369176   0.000015
    11  O   -0.008524  -0.024094   0.357457   0.107419  -0.020606  -0.034137
    12  O   -0.029522   0.240736  -0.030378   0.000077   0.001983   0.003247
    13  O    0.203518  -0.042224   0.003287   0.000090  -0.036178  -0.000054
    14  O   -0.041514   0.002967   0.000118  -0.041084   0.251948  -0.000005
    15  C   -0.003729   0.000808  -0.004350   0.318437  -0.025035  -0.000185
    16  H   -0.000176  -0.000057   0.001109  -0.034754   0.004717  -0.000032
    17  H    0.002466  -0.002737   0.001565  -0.032999  -0.010967  -0.000005
    18  O    0.000327   0.000016   0.000001  -0.044304  -0.003736   0.000001
    19  C   -0.006203  -0.047062  -0.005869   0.000017   0.000119   0.000262
    20  H   -0.000801  -0.006958   0.008057  -0.000012  -0.000003   0.000015
    21  H    0.000025   0.004751  -0.000063   0.000000   0.000001  -0.000138
    22  H    0.003306  -0.003827  -0.000553   0.000003  -0.000378   0.000205
    23  C   -0.036388  -0.001858   0.000339  -0.000206   0.005006   0.000001
    24  H   -0.005468   0.006408  -0.000087   0.000026  -0.000188   0.000012
    25  H   -0.007112  -0.001786   0.000006  -0.000015  -0.000159  -0.000001
    26  H    0.004736  -0.000171   0.000008   0.000006  -0.000087   0.000000
    27  C   -0.005956  -0.000281   0.001716  -0.005895  -0.043634   0.000030
    28  H    0.009298  -0.002982   0.002043  -0.001416  -0.005870   0.000003
    29  H   -0.000098   0.000015   0.000003  -0.000224   0.004647  -0.000001
    30  H   -0.001225   0.000237  -0.000665   0.008663  -0.006952  -0.000077
    31  C   -0.000024   0.000003  -0.000005   0.004423   0.000296   0.000000
    32  H    0.000011  -0.000004   0.000001   0.000267  -0.000093   0.000000
    33  H   -0.000001   0.000000   0.000000  -0.000259   0.000015   0.000000
    34  H    0.000001   0.000000   0.000001  -0.000069   0.000005   0.000000
               7          8          9         10         11         12
     1  C   -0.031459   0.362527   0.004608  -0.042938  -0.008524  -0.029522
     2  C    0.357111  -0.053039  -0.000231   0.004389  -0.024094   0.240736
     3  C   -0.039576  -0.000638   0.002897  -0.000378   0.357457  -0.030378
     4  C    0.000447   0.004122   0.368321  -0.045121   0.107419   0.000077
     5  C   -0.000119  -0.038783  -0.040002   0.369176  -0.020606   0.001983
     6  H    0.000527  -0.000191  -0.000055   0.000015  -0.034137   0.003247
     7  H    0.458367   0.003606  -0.000008  -0.000043  -0.001021  -0.030571
     8  H    0.003606   0.544872  -0.000141   0.000563   0.000383  -0.002997
     9  H   -0.000008  -0.000141   0.473254  -0.001046  -0.028900   0.000002
    10  H   -0.000043   0.000563  -0.001046   0.489261   0.002664  -0.000046
    11  O   -0.001021   0.000383  -0.028900   0.002664   7.972539   0.001583
    12  O   -0.030571  -0.002997   0.000002  -0.000046   0.001583   8.177377
    13  O    0.000353  -0.029496  -0.000079   0.009359   0.000056   0.001368
    14  O   -0.000028   0.003496   0.001850  -0.030817   0.000133  -0.000013
    15  C    0.001251   0.000024  -0.032431  -0.004978  -0.021768   0.000016
    16  H   -0.000169   0.000005  -0.006492   0.000737   0.001174  -0.000002
    17  H    0.004482   0.000122   0.005176  -0.000718   0.000854   0.000043
    18  O   -0.000047  -0.000008   0.006174   0.015481   0.000972   0.000000
    19  C    0.005045   0.003315   0.000000  -0.000002   0.000036   0.231553
    20  H   -0.000106  -0.000053   0.000000  -0.000001  -0.000501  -0.036500
    21  H   -0.000113  -0.000030   0.000000   0.000000   0.000001  -0.029412
    22  H   -0.000160   0.003767   0.000000   0.000011   0.000023  -0.034926
    23  C    0.000681  -0.006731   0.000004  -0.000032  -0.000003  -0.001013
    24  H   -0.000226  -0.001316   0.000000   0.000066  -0.000004   0.004094
    25  H    0.000278   0.011040   0.000000   0.000029   0.000000   0.000152
    26  H   -0.000210  -0.000007   0.000000  -0.000107   0.000000   0.000129
    27  C    0.000031   0.000576  -0.000211   0.004859   0.000325   0.000022
    28  H    0.000046   0.000901   0.000410  -0.000234  -0.000489  -0.000075
    29  H    0.000000  -0.000120  -0.000178  -0.000114   0.000096   0.000000
    30  H   -0.000008   0.000442  -0.000378  -0.000117   0.000125  -0.000003
    31  C    0.000002   0.000000  -0.000102  -0.000344  -0.000045   0.000000
    32  H    0.000006   0.000000   0.000055  -0.000046   0.000002   0.000000
    33  H    0.000000   0.000000  -0.000011  -0.000032   0.000000   0.000000
    34  H    0.000000   0.000000  -0.000051   0.000066   0.000002   0.000000
              13         14         15         16         17         18
     1  C    0.203518  -0.041514  -0.003729  -0.000176   0.002466   0.000327
     2  C   -0.042224   0.002967   0.000808  -0.000057  -0.002737   0.000016
     3  C    0.003287   0.000118  -0.004350   0.001109   0.001565   0.000001
     4  C    0.000090  -0.041084   0.318437  -0.034754  -0.032999  -0.044304
     5  C   -0.036178   0.251948  -0.025035   0.004717  -0.010967  -0.003736
     6  H   -0.000054  -0.000005  -0.000185  -0.000032  -0.000005   0.000001
     7  H    0.000353  -0.000028   0.001251  -0.000169   0.004482  -0.000047
     8  H   -0.029496   0.003496   0.000024   0.000005   0.000122  -0.000008
     9  H   -0.000079   0.001850  -0.032431  -0.006492   0.005176   0.006174
    10  H    0.009359  -0.030817  -0.004978   0.000737  -0.000718   0.015481
    11  O    0.000056   0.000133  -0.021768   0.001174   0.000854   0.000972
    12  O    0.001368  -0.000013   0.000016  -0.000002   0.000043   0.000000
    13  O    8.242108   0.001212   0.000228   0.000046   0.004818  -0.000068
    14  O    0.001212   8.187249   0.002500  -0.000057   0.000019  -0.000009
    15  C    0.000228   0.002500   4.911225   0.358304   0.351668   0.229501
    16  H    0.000046  -0.000057   0.358304   0.574188  -0.049878  -0.034525
    17  H    0.004818   0.000019   0.351668  -0.049878   0.591921  -0.038302
    18  O   -0.000068  -0.000009   0.229501  -0.034525  -0.038302   8.204538
    19  C   -0.000058  -0.000004   0.000002   0.000000   0.000001   0.000000
    20  H    0.000001  -0.000007   0.000000   0.000000   0.000000   0.000000
    21  H   -0.000002   0.000000   0.000000   0.000000   0.000000   0.000000
    22  H   -0.000013  -0.000005   0.000000   0.000000   0.000000   0.000000
    23  C    0.230718  -0.000107  -0.000006  -0.000002   0.000016   0.000000
    24  H   -0.035035   0.000001   0.000005   0.000000  -0.000044   0.000000
    25  H   -0.034417  -0.000002   0.000000   0.000000   0.000014   0.000000
    26  H   -0.030929   0.000001   0.000002   0.000000  -0.000017   0.000000
    27  C    0.000054   0.239338   0.000348  -0.000002   0.000002  -0.000004
    28  H   -0.000042  -0.038539   0.000003  -0.000001   0.000002   0.000000
    29  H    0.000000  -0.031049   0.000003   0.000000   0.000000   0.000000
    30  H   -0.000002  -0.037230  -0.000139   0.000023  -0.000004  -0.000001
    31  C    0.000009   0.000001  -0.038797  -0.003660  -0.003812   0.240125
    32  H   -0.000004   0.000000  -0.008375  -0.001970   0.011600  -0.035043
    33  H    0.000000   0.000000   0.005622  -0.000111  -0.000122  -0.031192
    34  H    0.000000   0.000000  -0.007484   0.009857  -0.002274  -0.035215
              19         20         21         22         23         24
     1  C   -0.006203  -0.000801   0.000025   0.003306  -0.036388  -0.005468
     2  C   -0.047062  -0.006958   0.004751  -0.003827  -0.001858   0.006408
     3  C   -0.005869   0.008057  -0.000063  -0.000553   0.000339  -0.000087
     4  C    0.000017  -0.000012   0.000000   0.000003  -0.000206   0.000026
     5  C    0.000119  -0.000003   0.000001  -0.000378   0.005006  -0.000188
     6  H    0.000262   0.000015  -0.000138   0.000205   0.000001   0.000012
     7  H    0.005045  -0.000106  -0.000113  -0.000160   0.000681  -0.000226
     8  H    0.003315  -0.000053  -0.000030   0.003767  -0.006731  -0.001316
     9  H    0.000000   0.000000   0.000000   0.000000   0.000004   0.000000
    10  H   -0.000002  -0.000001   0.000000   0.000011  -0.000032   0.000066
    11  O    0.000036  -0.000501   0.000001   0.000023  -0.000003  -0.000004
    12  O    0.231553  -0.036500  -0.029412  -0.034926  -0.001013   0.004094
    13  O   -0.000058   0.000001  -0.000002  -0.000013   0.230718  -0.035035
    14  O   -0.000004  -0.000007   0.000000  -0.000005  -0.000107   0.000001
    15  C    0.000002   0.000000   0.000000   0.000000  -0.000006   0.000005
    16  H    0.000000   0.000000   0.000000   0.000000  -0.000002   0.000000
    17  H    0.000001   0.000000   0.000000   0.000000   0.000016  -0.000044
    18  O    0.000000   0.000000   0.000000   0.000000   0.000000   0.000000
    19  C    4.951963   0.362131   0.386487   0.368930   0.000051  -0.000143
    20  H    0.362131   0.576750  -0.025805  -0.043481   0.000013   0.000037
    21  H    0.386487  -0.025805   0.485109  -0.027973   0.000007  -0.000051
    22  H    0.368930  -0.043481  -0.027973   0.550057  -0.000038  -0.000003
    23  C    0.000051   0.000013   0.000007  -0.000038   4.920846   0.365024
    24  H   -0.000143   0.000037  -0.000051  -0.000003   0.365024   0.569451
    25  H   -0.000059   0.000001   0.000013   0.000314   0.369719  -0.042021
    26  H   -0.000004   0.000000   0.000000  -0.000013   0.382718  -0.030239
    27  C   -0.000513  -0.000256   0.000014  -0.000167   0.000002  -0.000001
    28  H    0.001523   0.001834   0.000012   0.000506   0.000017  -0.000001
    29  H    0.000005  -0.000002   0.000000   0.000004   0.000000   0.000000
    30  H   -0.000003   0.000031  -0.000001  -0.000009   0.000000   0.000000
    31  C    0.000000   0.000000   0.000000   0.000000   0.000000   0.000000
    32  H    0.000000   0.000000   0.000000   0.000000   0.000001   0.000000
    33  H    0.000000   0.000000   0.000000   0.000000   0.000000   0.000000
    34  H    0.000000   0.000000   0.000000   0.000000   0.000000   0.000000
              25         26         27         28         29         30
     1  C   -0.007112   0.004736  -0.005956   0.009298  -0.000098  -0.001225
     2  C   -0.001786  -0.000171  -0.000281  -0.002982   0.000015   0.000237
     3  C    0.000006   0.000008   0.001716   0.002043   0.000003  -0.000665
     4  C   -0.000015   0.000006  -0.005895  -0.001416  -0.000224   0.008663
     5  C   -0.000159  -0.000087  -0.043634  -0.005870   0.004647  -0.006952
     6  H   -0.000001   0.000000   0.000030   0.000003  -0.000001  -0.000077
     7  H    0.000278  -0.000210   0.000031   0.000046   0.000000  -0.000008
     8  H    0.011040  -0.000007   0.000576   0.000901  -0.000120   0.000442
     9  H    0.000000   0.000000  -0.000211   0.000410  -0.000178  -0.000378
    10  H    0.000029  -0.000107   0.004859  -0.000234  -0.000114  -0.000117
    11  O    0.000000   0.000000   0.000325  -0.000489   0.000096   0.000125
    12  O    0.000152   0.000129   0.000022  -0.000075   0.000000  -0.000003
    13  O   -0.034417  -0.030929   0.000054  -0.000042   0.000000  -0.000002
    14  O   -0.000002   0.000001   0.239338  -0.038539  -0.031049  -0.037230
    15  C    0.000000   0.000002   0.000348   0.000003   0.000003  -0.000139
    16  H    0.000000   0.000000  -0.000002  -0.000001   0.000000   0.000023
    17  H    0.000014  -0.000017   0.000002   0.000002   0.000000  -0.000004
    18  O    0.000000   0.000000  -0.000004   0.000000   0.000000  -0.000001
    19  C   -0.000059  -0.000004  -0.000513   0.001523   0.000005  -0.000003
    20  H    0.000001   0.000000  -0.000256   0.001834  -0.000002   0.000031
    21  H    0.000013   0.000000   0.000014   0.000012   0.000000  -0.000001
    22  H    0.000314  -0.000013  -0.000167   0.000506   0.000004  -0.000009
    23  C    0.369719   0.382718   0.000002   0.000017   0.000000   0.000000
    24  H   -0.042021  -0.030239  -0.000001  -0.000001   0.000000   0.000000
    25  H    0.566513  -0.027594  -0.000001   0.000004   0.000000   0.000000
    26  H   -0.027594   0.515538   0.000000   0.000000   0.000000   0.000000
    27  C   -0.000001   0.000000   4.949026   0.356373   0.390400   0.363585
    28  H    0.000004   0.000000   0.356373   0.605097  -0.028100  -0.048901
    29  H    0.000000   0.000000   0.390400  -0.028100   0.492716  -0.028648
    30  H    0.000000   0.000000   0.363585  -0.048901  -0.028648   0.586084
    31  C    0.000000   0.000000   0.000000   0.000000   0.000000   0.000000
    32  H    0.000000   0.000000   0.000000   0.000000   0.000000   0.000000
    33  H    0.000000   0.000000   0.000000   0.000000   0.000000   0.000000
    34  H    0.000000   0.000000   0.000000   0.000000   0.000000   0.000000
              31         32         33         34
     1  C   -0.000024   0.000011  -0.000001   0.000001
     2  C    0.000003  -0.000004   0.000000   0.000000
     3  C   -0.000005   0.000001   0.000000   0.000001
     4  C    0.004423   0.000267  -0.000259  -0.000069
     5  C    0.000296  -0.000093   0.000015   0.000005
     6  H    0.000000   0.000000   0.000000   0.000000
     7  H    0.000002   0.000006   0.000000   0.000000
     8  H    0.000000   0.000000   0.000000   0.000000
     9  H   -0.000102   0.000055  -0.000011  -0.000051
    10  H   -0.000344  -0.000046  -0.000032   0.000066
[...]
 158797,-0.02511186,0.01877617,-0.00000186,0.00019719,0.00015073,0.0000
 9377,-0.00004502,0.00004103,-0.00004072,0.00002428,-0.00003701,0.00013
 798,-0.00004313,0.00006718,-0.00003025,-0.00001062,0.00004390,0.000017
 98,-0.00002663,-0.00007154,-0.00000786,-0.00003188,0.00002026,0.000038
 67,0.00004048,0.00002243,0.00016038,0.00014570,0.00004907,-0.00004019,
 -0.00002363,0.00000518,-0.00004193,-0.00000911,-0.00000737,-0.00001715
 ,-0.00003984,-0.00000891,0.01968555,-0.13953191,0.12501421,0.00056037,
 -0.00619640,0.01088842,-0.03218709,0.16002377,0.00030278,-0.00012360,-
 0.00006846,-0.00018868,-0.00004608,0.00005939,-0.00055892,-0.00058251,
 0.00036574,0.00049255,-0.00044201,-0.00014002,0.00186300,-0.00308118,0
 .00081065,-0.00001289,0.00003066,0.00002033,0.00005878,0.00000738,0.00
 002133,-0.00010375,-0.00004983,-0.00001841,0.00020872,-0.00000980,0.00
 009080,0.00018535,-0.00029850,0.00029195,0.00009690,0.00057651,-0.0002
 6335,0.00010640,0.00005178,0.00003293,-0.00009032,0.00010733,0.0000128
 8,0.00307686,-0.01036186,0.01353866,0.00013472,0.00002916,0.00007460,0
 .00001732,0.00000014,0.00000495,-0.00003698,0.00002798,-0.00002216,-0.
 00009159,0.00005146,0.00001949,0.00001185,-0.00005716,-0.00005821,-0.0
 0002941,0.00003012,0.00007463,0.00000573,0.00003326,-0.00000709,-0.000
 02891,-0.00002673,-0.00000351,-0.00005430,-0.00004871,-0.00001642,0.00
 000508,-0.00000469,0.00000126,0.00000580,-0.00000443,0.00000254,0.0000
 0289,0.00000845,0.00000419,-0.03425011,0.13550299,-0.23460998,-0.00138
 138,0.00376552,-0.00566559,0.03239718,-0.13851465,0.24251143,-0.000636
 09,0.00009404,-0.00069260,-0.00024494,0.00009051,0.00003180,-0.0008583
 3,-0.00059143,0.00008856,0.00076598,-0.00012106,-0.00053162,0.00232955
 ,-0.00152055,0.00227599,-0.00001559,-0.00000116,0.00004940,0.00006139,
 0.00002631,0.00002800,-0.00005812,0.00005986,0.00020881,-0.00106623,0.
 00049721,-0.00022977,-0.00007923,-0.00013972,-0.00001921,-0.00024547,0
 .00034370,-0.00090962,0.00026076,0.00001455,0.00005899,0.00028477,0.00
 011883,0.00006839,0.00842874,0.02034340,0.02189050,0.00004061,-0.00013
 246,0.00028678,0.00001687,-0.00001819,0.00000889,0.00001390,0.00001449
 ,0.00002053,-0.00009826,0.00005602,-0.00002295,-0.00021916,0.00003888,
 -0.00013371,0.00005621,-0.00004442,-0.00007573,0.00001949,-0.00004763,
 0.00005341,0.00009198,0.00010842,0.00008370,-0.00004452,0.00002628,-0.
 00004127,0.00000931,0.00000577,0.00000413,0.00000623,0.00000403,0.0000
 1161,0.00001248,0.00001198,0.00000564,-0.10602075,-0.06018693,-0.08596
 063,-0.01063636,-0.01409017,-0.02154115,-0.00119031,-0.00266011,-0.002
 15782,0.10900973,0.00036857,-0.00023208,0.00026273,-0.00014070,-0.0001
 2845,0.00005418,-0.00103544,-0.00101808,0.00026936,0.00034193,-0.00072
 680,0.00070090,-0.00303453,0.00295216,-0.00461188,-0.00005289,0.000103
 45,-0.00006780,0.00007241,-0.00004367,0.00004567,0.00012635,0.00019439
 ,0.00004453,0.00094131,-0.00005555,0.00000147,0.00025198,0.00004806,0.
 00029167,0.00006522,0.00101130,0.00032847,0.00004127,0.00005279,0.0001
 6571,-0.00012429,-0.00027442,0.00006706,0.00275086,-0.02374782,-0.0216
 2449,0.00023921,0.00010632,-0.00001899,0.00001395,-0.00000120,-0.00000
 046,-0.00008911,0.00005473,-0.00006091,-0.00003486,0.00003947,0.000045
 47,-0.00009507,-0.00002029,-0.00006421,0.00000492,-0.00002606,-0.00003
 793,0.00000481,-0.00002396,0.00002898,0.00004977,0.00005420,0.00004677
 ,0.00008690,0.00007449,-0.00000402,-0.00001985,-0.00001691,0.00001067,
 -0.00001545,-0.00000148,-0.00000015,-0.00001118,-0.00002541,-0.0000050
 7,-0.05891135,-0.11888720,-0.09141879,-0.00768224,-0.00496577,-0.00910
 199,0.00817595,0.01267773,0.01344491,0.05771100,0.13283482,0.00042843,
 0.00002020,0.00001105,-0.00006677,0.00015906,0.00009728,0.00000564,0.0
 0028981,-0.00076835,0.00014029,-0.00130215,0.00044018,0.00001790,0.003
 29998,-0.00075629,0.00000990,-0.00002762,0.00008303,0.00005216,0.00006
 216,-0.00001343,0.00012178,-0.00002075,-0.00009381,0.00004418,-0.00015
 700,-0.00007527,0.00010506,-0.00012009,0.00017515,-0.00005901,0.000651
 72,-0.00100212,-0.00013559,-0.00001440,0.00006053,-0.00027315,-0.00028
 492,0.00004399,0.00439194,-0.01382525,-0.00630154,0.00009848,0.0003809
 3,0.00039476,0.00014639,-0.00011702,0.00006699,-0.00005696,0.00003880,
 -0.00002789,0.00014501,-0.00005389,0.00001486,0.00006589,-0.00001772,0
 .00005019,-0.00000268,0.00001188,0.00000105,-0.00001444,0.00001803,-0.
 00001043,-0.00000573,-0.00002634,-0.00001980,0.00011918,0.00006607,0.0
 0000016,-0.00002252,-0.00001410,0.00001376,-0.00001658,-0.00000509,-0.
 00000513,-0.00001701,-0.00003084,-0.00000817,-0.08381353,-0.09323993,-
 0.18802442,0.00420790,0.00665863,0.00834153,-0.01270069,-0.01363351,-0
 .01707898,0.08713268,0.11118577,0.20440347,-0.00019320,-0.00044670,-0.
 00016016,-0.00058936,0.00037113,0.00013666,-0.00100322,-0.00043731,-0.
 00016956,-0.00442945,0.00058727,0.00328265,-0.00050831,0.00047951,-0.0
 0087678,0.00008613,0.00012855,-0.00003181,-0.00009712,-0.00020383,0.00
 025278,0.00011410,0.00008674,0.00004296,0.00000280,0.00046188,-0.00033
 668,-0.00075554,-0.00014616,-0.00077828,0.00198989,0.00030136,-0.00060
 118,0.00071395,-0.00008700,0.00000204,0.00048275,0.00062082,0.00031099
 ,0.00079482,-0.00068234,0.00051442,-0.04134814,0.02416697,-0.00009905,
 0.00539080,-0.00164719,-0.00303605,0.00392257,0.00161783,-0.00316522,-
 0.13943533,0.05866160,-0.00778696,-0.00020144,0.00019655,-0.00015739,0
 .00000088,-0.00002500,0.00004121,0.00005597,-0.00001377,0.00000272,-0.
 00000771,-0.00003366,0.00002333,-0.00033946,-0.00044494,-0.00008469,0.
 00007257,0.00004084,-0.00001809,0.00010411,0.00004259,0.00003402,0.000
 01556,0.00006719,0.00001915,-0.00041814,0.00036689,0.00022779,0.000081
 84,-0.00000990,-0.00007990,0.00005943,-0.00008275,0.00002736,0.0000163
 5,0.00001039,-0.00007839,0.53695988,-0.00005789,0.00098383,0.00021350,
 0.00066941,-0.00014157,-0.00031086,0.00125640,0.00099969,0.00014558,0.
 00083954,-0.00253103,-0.00005434,0.00000347,-0.00049925,0.00093884,-0.
 00001140,-0.00027056,0.00012663,0.00011478,0.00018855,-0.00017607,-0.0
 0009896,-0.00017260,-0.00006810,0.00034878,0.00008373,0.00002050,0.000
 60135,0.00038354,0.00088407,-0.00282180,0.00083739,0.00022902,-0.00070
 778,-0.00001500,0.00000976,-0.00014862,-0.00081494,-0.00018581,-0.0007
 8861,0.00068923,-0.00069050,0.00938910,-0.00788614,-0.00390972,-0.0018
 9704,0.00087130,0.00311071,-0.00595031,0.00334580,0.00241925,0.0796768
 2,-0.13332800,0.02626947,0.00020373,-0.00016928,0.00016560,0.00000197,
 0.00001121,-0.00004557,-0.00005387,0.00000865,-0.00000214,0.00001046,0
 .00003274,-0.00002643,0.00027101,0.00036958,0.00007666,-0.00007622,-0.
 00002159,0.00000797,-0.00006200,-0.00004499,-0.00001225,-0.00003842,-0
 .00009856,-0.00004746,0.00041162,-0.00035901,-0.00022747,-0.00008040,0
 .00001157,0.00008761,-0.00005354,0.00008508,-0.00002902,-0.00002370,-0
 .00001735,0.00008285,0.06029366,0.52286722,0.00002495,-0.00007142,-0.0
 0028240,-0.00052021,0.00016099,0.00032491,-0.00071691,-0.00108212,-0.0
 0018186,0.00229999,0.00067252,-0.00376899,-0.00058397,-0.00026078,-0.0
 0069808,-0.00003956,0.00032001,-0.00019585,0.00000674,-0.00008704,0.00
 011268,-0.00001164,0.00001564,0.00007643,-0.00011095,-0.00007111,-0.00
 020893,-0.00000385,0.00034789,0.00022973,0.00312169,-0.00091940,0.0001
 1257,0.00039826,-0.00000492,0.00005055,0.00012846,0.00034187,0.0001556
 7,0.00027038,-0.00021057,0.00043635,0.02292544,-0.02002346,0.00247806,
 0.00363167,-0.00137771,0.00071513,0.00117192,-0.00041966,-0.00015254,-
 0.03947626,0.04839685,-0.09280575,-0.00012529,0.00010204,-0.00010237,-
 0.00000627,-0.00001118,0.00002479,0.00003200,-0.00000276,0.00000542,0.
 00000157,-0.00002008,0.00001501,-0.00014589,-0.00018626,-0.00003592,0.
 00003215,0.00000758,-0.00000571,0.00003783,0.00001984,0.00001510,0.000
 00916,0.00002962,0.00001673,-0.00014894,0.00011973,0.00003397,0.000014
 05,-0.00000129,-0.00003516,0.00000592,-0.00001609,0.00002496,0.0000154
 5,0.00002824,-0.00003066,-0.05052851,0.01752196,0.60094285,-0.00000793
 ,0.00001981,-0.00001171,0.00002023,-0.00001445,-0.00001673,0.00002878,
 0.00008100,0.00003651,0.00042716,0.00018046,-0.00031919,0.00004891,-0.
 00002627,0.00009413,-0.00001623,-0.00001365,0.00000030,-0.00000842,-0.
 00001084,-0.00000239,-0.00000527,-0.00000426,-0.00000043,-0.00015089,-
 0.00015398,0.00013551,0.00005863,0.00002555,0.00002910,-0.00029219,-0.
 00009054,0.00008127,-0.00002313,-0.00000220,0.00000526,-0.00002034,-0.
 00002313,-0.00001050,-0.00003074,0.00002585,-0.00001338,0.00557899,0.0
 0321335,-0.00309207,-0.00070117,-0.00019888,0.00024721,0.00045745,-0.0
 0198995,0.00000689,0.00316271,0.03439716,-0.00300822,0.00000907,-0.000
 00552,0.00000470,-0.00000005,0.00000098,-0.00000143,-0.00000134,-0.000
 00027,0.00000010,0.00000031,0.00000099,-0.00000045,0.00001059,0.000009
 30,-0.00000008,-0.00000276,-0.00000068,0.00000107,-0.00000281,-0.00000
 135,-0.00000118,-0.00000107,-0.00000161,-0.00000084,0.00002043,-0.0000
 1503,-0.00000887,-0.00000309,0.00000082,0.00000314,-0.00000365,0.00000
 284,-0.00000263,-0.00000034,-0.00000268,0.00000379,-0.09869529,-0.1005
 1859,0.00896606,0.10042900,0.00002653,-0.00020657,-0.00004953,-0.00011
 789,0.00008008,0.00006958,-0.00024959,-0.00025706,-0.00005420,-0.00030
 322,0.00068997,0.00001806,-0.00005880,0.00004973,-0.00015236,0.0000163
 8,0.00005383,-0.00002023,0.00000803,-0.00003507,0.00003031,0.00001453,
 0.00003175,0.00000922,-0.00021514,0.00027702,-0.00015383,-0.00013447,-
 0.00008005,-0.00016279,0.00071576,-0.00001412,-0.00006377,0.00011903,0
 .00000733,-0.00000104,0.00000455,0.00016531,0.00002712,0.00015144,-0.0
 0009862,0.00010988,-0.00419808,0.00091690,0.00316844,0.00024150,-0.000
 24720,-0.00058669,0.00156157,-0.00009563,-0.00125980,0.00922329,-0.029
 11462,0.00645030,-0.00003183,0.00002369,-0.00002780,0.00000046,-0.0000
 0068,0.00000836,0.00000904,-0.00000146,0.00000042,-0.00000202,-0.00000
 553,0.00000428,-0.00004127,-0.00005644,-0.00001205,0.00001340,0.000002
 29,-0.00000044,0.00000753,0.00000775,0.00000031,0.00000846,0.00002023,
 0.00000969,-0.00007673,0.00005690,0.00003498,0.00001674,-0.00000063,-0
 .00001634,0.00000809,-0.00001412,0.00000486,0.00000356,0.00000421,-0.0
 0001205,-0.09623292,-0.25778178,0.01284640,0.09648434,0.29025644,-0.00
 000502,0.00008817,0.00005469,0.00007374,-0.00003991,-0.00002026,0.0001
 1971,0.00008235,0.00001832,0.00025378,-0.00014076,-0.00002228,0.000029
 52,-0.00000991,0.00011820,-0.00000345,-0.00002553,0.00000852,0.0000227
 2,0.00002436,-0.00002189,-0.00000325,-0.00001668,-0.00001013,0.0000642
 7,-0.00005445,0.00000521,0.00002020,0.00005178,0.00002895,-0.00024572,
 -0.00002733,0.00000876,-0.00007828,0.00000939,-0.00001470,0.00001073,-
 0.00009295,-0.00004776,-0.00006253,0.00003619,-0.00007626,0.00052904,-
 0.00179536,-0.00040549,-0.00031332,-0.00001414,0.00004582,-0.00056574,
 -0.00010892,0.00030029,0.00019676,0.01397274,0.00050303,0.00002210,-0.
 00002164,0.00002120,0.00000018,0.00000221,-0.00000410,-0.00000597,0.00
 000167,-0.00000109,-0.00000046,0.00000386,-0.00000453,0.00001489,0.000
 02758,0.00001278,-0.00000013,-0.00000201,-0.00000337,-0.00000471,-0.00
 000375,-0.00000273,-0.00000708,-0.00001361,-0.00000231,0.00003710,-0.0
 0002807,-0.00001022,-0.00000607,0.00000043,0.00000711,-0.00000320,0.00
 000542,-0.00000363,-0.00000144,-0.00000448,0.00000540,0.00698647,0.012
 40128,-0.05548758,-0.00482871,-0.02020727,0.05127694,-0.00002123,0.000
 12345,0.00006966,0.00018027,-0.00003088,-0.00009940,0.00031916,0.00035
 988,0.00005586,-0.00022459,-0.00038156,0.00106218,0.00009427,-0.000035
 53,0.00030855,0.00000348,-0.00009688,0.00005145,0.00001786,0.00003061,
 -0.00003740,-0.00001563,-0.00002507,-0.00002431,0.00001446,0.00001101,
 0.00001846,0.00003423,0.00002115,0.00006469,-0.00100013,0.00025357,-0.
 00002870,-0.00016385,-0.00000015,-0.00001452,-0.00004996,-0.00015157,-
 0.00008011,-0.00013712,0.00012739,-0.00018444,-0.00147493,0.00328040,-
 0.00301958,-0.00009399,0.00019473,0.00034895,0.00006343,-0.00009762,-0
 .00008755,-0.02557939,0.00584619,0.01733120,0.00005355,-0.00004347,0.0
 0004351,0.00000117,0.00000444,-0.00000960,-0.00001233,0.00000179,-0.00
 000126,0.00000019,0.00000761,-0.00000779,0.00006214,0.00007430,0.00002
 515,-0.00001067,-0.00000577,-0.00000211,-0.00001872,-0.00000532,-0.000
 00626,-0.00000552,-0.00001787,-0.00000215,0.00007331,-0.00005890,-0.00
 002941,-0.00000866,0.00000263,0.00001504,-0.00001008,0.00001419,-0.000
 00931,-0.00000688,-0.00000973,0.00001484,-0.17015355,-0.00894031,0.132
 51644,-0.00675586,-0.00122571,0.00955128,0.19272968,0.00002932,-0.0000
 8553,-0.00005289,-0.00011883,0.00001869,0.00008007,-0.00019778,-0.0002
 8144,-0.00005009,0.00056336,0.00069361,-0.00079487,-0.00004338,-0.0000
 2454,-0.00017648,-0.00000759,0.00008023,-0.00004623,-0.00000136,-0.000
 02106,0.00002132,0.00000406,0.00001470,0.00001620,-0.00008511,0.000026
 96,-0.00006795,-0.00002861,-0.00000497,-0.00001014,0.00079010,-0.00025
 455,0.00003901,0.00010053,0.00000480,0.00000602,0.00001119,0.00009702,
 0.00001993,0.00008353,-0.00008574,0.00012718,0.00287917,-0.00268870,0.
 00154706,-0.00010696,-0.00003264,0.00005703,0.00053058,0.00022448,-0.0
 0015158,0.02359659,-0.00351787,-0.01805206,-0.00003244,0.00002471,-0.0
 0002549,-0.00000136,-0.00000231,0.00000607,0.00000758,-0.00000046,0.00
 000101,-0.00000031,-0.00000452,0.00000386,-0.00003544,-0.00003849,-0.0
 0000728,0.00000976,0.00000047,-0.00000154,0.00000703,0.00000409,0.0000
 0210,0.00000319,0.00000854,0.00000624,-0.00004647,0.00004281,0.0000202
 4,0.00000418,-0.00000287,-0.00001077,0.00000616,-0.00000823,0.00000626
 ,0.00000544,0.00000471,-0.00001254,-0.01526728,-0.05153235,0.01314848,
 -0.01953264,0.00182586,0.02231519,0.00052021,0.05423126,-0.00002057,-0
 .00000566,0.00001138,0.00000591,0.00002642,-0.00002033,-0.00002215,0.0
 0007131,0.00000953,-0.00017327,0.00000049,0.00052185,0.00002055,-0.000
 04206,0.00002169,0.00001235,-0.00002907,0.00002319,0.00000867,-0.00000
 160,0.00000302,0.00000514,-0.00000040,-0.00000545,0.00003699,0.0000085
 2,0.00001985,-0.00002783,-0.00001745,-0.00003802,-0.00020947,0.0001396
 8,-0.00003965,0.00000539,-0.00000741,-0.00000394,0.00001898,-0.0000000
 8,0.00000409,0.00004263,-0.00002363,0.00002492,-0.00269290,0.00127133,
 0.00125464,-0.00021227,0.00021985,0.00022352,-0.00003975,0.00002007,-0
 .00009695,-0.00883365,-0.00035803,0.00991839,-0.00000209,0.00000349,0.
 00000024,0.00000093,-0.00000104,0.00000007,0.00000017,-0.00000057,-0.0
 0000060,-0.00000051,-0.00000035,0.,-0.00000681,-0.00000612,-0.00000356
 ,0.00000021,0.00000214,-0.00000052,0.00000212,-0.00000045,0.00000157,-
 0.00000049,-0.00000008,-0.00000117,-0.00001892,0.00001942,0.00001335,0
 .00000512,-0.00000059,-0.00000277,0.00000324,-0.00000364,-0.00000027,-
 0.00000122,-0.00000059,-0.00000477,0.14206474,0.00678653,-0.20800635,-
 0.00048595,-0.00017260,0.00027361,-0.14813999,-0.01010281,0.21395772,0
 .00000172,0.00014290,-0.00001329,0.00005670,0.00002087,-0.00002614,0.0
 0009394,0.00007285,0.00001432,0.00059033,-0.00026583,0.00002931,-0.000
 00509,-0.00035007,0.00004346,-0.00001114,-0.00002663,0.00000943,0.0000
 3439,0.00001462,-0.00002637,-0.00003067,-0.00002737,-0.00000071,0.0000
 5071,-0.00007817,0.00002568,0.00013782,0.00014312,0.00026790,-0.000392
 59,0.00012071,0.00008306,-0.00009777,0.00000236,0.00001950,-0.00005898
 ,-0.00008261,-0.00003051,-0.00011088,0.00014944,0.00000899,0.00325766,
 -0.00141364,-0.00543689,0.00014424,0.00029516,0.00143482,-0.00053620,-
 0.00015469,0.00036273,-0.02229037,0.00654537,-0.02373098,0.00002779,-0
 .00002705,0.00001870,0.00000043,0.00000307,-0.00000586,-0.00000756,0.0
 0000135,0.00000021,0.00000279,0.00000415,-0.00000206,0.00005491,0.0000
 6392,0.00001286,-0.00001284,-0.00000671,0.00000352,-0.00001470,-0.0000
 0477,-0.00000350,-0.00000182,-0.00000963,-0.00000210,0.00004976,-0.000
 04918,-0.00004959,-0.00001285,0.00000219,0.00001292,-0.00001132,0.0000
 1683,-0.00000227,-0.00000375,0.00000257,0.00001159,-0.09268915,-0.0317
 6265,-0.08319184,-0.00352969,-0.00574655,-0.01179741,0.01209588,0.0063
 5359,0.01865471,0.10321832,0.00002916,-0.00018737,-0.00002837,-0.00005
 769,0.00001590,0.00003113,-0.00011999,-0.00009021,-0.00001544,-0.00055
 244,0.00030607,0.00026371,0.00007658,0.00018519,-0.00000066,0.00000787
 ,0.00002123,-0.00000380,-0.00001174,-0.00001466,0.00000769,0.00001853,
 0.00003090,0.00000382,-0.00000107,0.00003088,0.00000072,-0.00008206,-0
 .00014328,-0.00021661,0.00024320,-0.00002363,-0.00006527,0.00007746,0.
 00000372,-0.00000618,-0.00000742,0.00010670,0.00002419,0.00011458,-0.0
 0011016,0.00003623,-0.00244382,0.00134420,0.00366871,-0.00074728,-0.00
 016600,-0.00122922,0.00038886,-0.00040392,-0.00052319,0.02138684,0.002
 64237,0.02539151,-0.00002392,0.00001956,-0.00001890,0.00000016,-0.0000
 0134,0.00000458,0.00000529,-0.00000112,-0.00000023,-0.00000156,-0.0000
 0347,0.00000400,-0.00002298,-0.00003461,-0.00001572,0.00000632,0.00000
 338,0.00000218,0.00000452,0.00000380,0.00000068,0.00000754,0.00001632,
 0.00000512,-0.00004505,0.00004197,0.00003960,0.00001070,-0.00000266,-0
 .00001105,0.00000982,-0.00001453,0.00000198,0.00000324,-0.00000031,-0.
 00001069,-0.03274099,-0.07608510,-0.06931381,-0.01183594,-0.00645971,-
 0.02641587,0.00025279,0.00128334,0.00220499,0.02605049,0.07768655,0.00
 003016,0.00010471,0.00002684,0.00011289,-0.00002496,-0.00003960,0.0001
 8241,0.00014784,0.00001755,0.00024194,-0.00011726,0.00014524,0.0001522
 2,-0.00015083,0.00020914,-0.00000934,-0.00003969,0.00001341,0.00002049
 ,0.00002183,-0.00003375,-0.00001967,-0.00001746,-0.00000769,0.00001782
 ,-0.00005391,0.00002181,0.00018130,0.00003454,0.00017403,-0.00045735,0
 .00003549,0.00003039,-0.00013036,0.00000788,0.00000885,-0.00007803,-0.
 00010331,-0.00004008,-0.00012068,0.00014041,-0.00010191,0.00285796,0.0
 0061549,0.00133931,-0.00176914,0.00020066,0.00026033,-0.00029777,-0.00
 023230,0.00006840,-0.01085201,0.00669001,-0.00547001,0.00003985,-0.000
 03635,0.00002727,0.00000077,0.00000468,-0.00000792,-0.00001011,0.00000
 143,-0.00000027,0.00000196,0.00000619,-0.00000328,0.00006489,0.0000739
 0,0.00001337,-0.00001383,-0.00000679,0.00000506,-0.00001648,-0.0000058
 8,-0.00000619,-0.00000195,-0.00000917,-0.00000383,0.00007943,-0.000075
 77,-0.00004349,-0.00001420,0.00000284,0.00001599,-0.00001024,0.0000144
 2,-0.00000664,-0.00000449,-0.00000079,0.00001767,-0.08598058,-0.065712
 04,-0.24377274,0.00218972,0.00016058,0.00344949,-0.00969335,-0.0078605
 3,-0.01805829,0.10330578,0.06618414,0.26175156\\-0.00000194,0.00000266
 ,0.00000522,-0.00000234,0.00000175,-0.00001919,-0.00001548,-0.00000452
 ,0.00000096,0.00000362,-0.00000180,0.00000728,0.00001635,-0.00000251,0
 .00000639,-0.00001061,0.00000211,-0.00000596,-0.00001379,-0.00000180,-
 0.00000163,0.00000708,0.00000958,-0.00001150,0.00000671,-0.00000642,0.
 00001778,0.00001065,0.00000022,0.00000696,0.00000029,0.00000174,0.0000
 0770,-0.00000903,0.00001084,-0.00002191,-0.00000502,0.00000279,-0.0000
 0382,0.00000943,0.00000145,-0.00000062,-0.00000170,-0.00001915,0.00000
 997,-0.00000880,-0.00001328,0.00001988,-0.00000949,-0.00000635,0.00000
 875,-0.00000104,-0.00001216,0.00002340,-0.00000451,0.00001439,-0.00002
 113,0.00000377,0.00001078,-0.00002092,-0.00000797,0.00001520,-0.000027
 49,0.00000249,0.00001487,-0.00002241,-0.00000510,0.00000512,-0.0000114
 0,-0.00001081,0.00000702,-0.00001759,0.00000091,0.00001079,-0.00002010
 ,-0.00000602,0.00000607,-0.00001408,0.00002221,0.00001069,0.00000072,0
 .00001384,0.00000715,-0.00000694,0.00002859,0.00000937,0.00000041,0.00
 001566,0.00000081,0.00000398,-0.00000524,-0.00001615,0.00002723,-0.000
 01047,-0.00001840,0.00002129,-0.00000122,-0.00002087,0.00002993,-0.000
 01102,-0.00002201,0.00002884\\\@


 BLESSED ARE THOSE WHO NOUGHT EXPECT,
 FOR THEY SHALL NOT BE DISAPPOINTED..  WALCOT - ODE TO PITT
 Job cpu time:       0 days  1 hours 36 minutes 43.2 seconds.
 Elapsed time:       0 days  0 hours 24 minutes 13.6 seconds.
 File lengths (MBytes):  RWF=    375 Int=      0 D2E=      0 Chk=     16 Scr=      1
 Normal termination of Gaussian 16 at Fri May 24 08:59:28 2019.
