 Entering Gaussian System, Link 0=g16
 Input=clay-glucose_cation-178-b3lyp_d3bj-631gd-pcm_thf.gjf
 Output=clay-glucose_cation-178-b3lyp_d3bj-631gd-pcm_thf.out
 Initial command:
 /n/sw/g16_nehalem/g16/l1.exe "/scratch/Gau-130638.inp" -scrdir="/scratch/"
 Entering Link 1 = /n/sw/g16_nehalem/g16/l1.exe PID=    130642.
  
 Copyright (c) 1988,1990,1992,1993,1995,1998,2003,2009,2016,
            Gaussian, Inc.  All Rights Reserved.
  
 This is part of the Gaussian(R) 16 program.  It is based on
 the Gaussian(R) 09 system (copyright 2009, Gaussian, Inc.),
 the Gaussian(R) 03 system (copyright 2003, Gaussian, Inc.),
 the Gaussian(R) 98 system (copyright 1998, Gaussian, Inc.),
 the Gaussian(R) 94 system (copyright 1995, Gaussian, Inc.),
 the Gaussian 92(TM) system (copyright 1992, Gaussian, Inc.),
 the Gaussian 90(TM) system (copyright 1990, Gaussian, Inc.),
 the Gaussian 88(TM) system (copyright 1988, Gaussian, Inc.),
 the Gaussian 86(TM) system (copyright 1986, Carnegie Mellon
 University), and the Gaussian 82(TM) system (copyright 1983,
 Carnegie Mellon University). Gaussian is a federally registered
 trademark of Gaussian, Inc.
  
 This software contains proprietary and confidential information,
 including trade secrets, belonging to Gaussian, Inc.
  
 This software is provided under written license and may be
 used, copied, transmitted, or stored only in accord with that
 written license.
  
 The following legend is applicable only to US Government
 contracts under FAR:
  
                    RESTRICTED RIGHTS LEGEND
  
 Use, reproduction and disclosure by the US Government is
 subject to restrictions as set forth in subparagraphs (a)
 and (c) of the Commercial Computer Software - Restricted
 Rights clause in FAR 52.227-19.
  
 Gaussian, Inc.
 340 Quinnipiac St., Bldg. 40, Wallingford CT 06492
  
  
 ---------------------------------------------------------------
 Warning -- This program may not be used in any manner that
 competes with the business of Gaussian, Inc. or will provide
 assistance to any competitor of Gaussian, Inc.  The licensee
 of this program is prohibited from giving any competitor of
 Gaussian, Inc. access to this program.  By using this program,
 the user acknowledges that Gaussian, Inc. is engaged in the
 business of creating and licensing software in the field of
 computational chemistry and represents and warrants to the
 licensee that it is not a competitor of Gaussian, Inc. and that
 it will not use this program in any manner prohibited above.
 ---------------------------------------------------------------
  

 Cite this work as:
 Gaussian 16, Revision A.03,
 M. J. Frisch, G. W. Trucks, H. B. Schlegel, G. E. Scuseria, 
 M. A. Robb, J. R. Cheeseman, G. Scalmani, V. Barone, 
 G. A. Petersson, H. Nakatsuji, X. Li, M. Caricato, A. V. Marenich, 
 J. Bloino, B. G. Janesko, R. Gomperts, B. Mennucci, H. P. Hratchian, 
 J. V. Ortiz, A. F. Izmaylov, J. L. Sonnenberg, D. Williams-Young, 
 F. Ding, F. Lipparini, F. Egidi, J. Goings, B. Peng, A. Petrone, 
 T. Henderson, D. Ranasinghe, V. G. Zakrzewski, J. Gao, N. Rega, 
 G. Zheng, W. Liang, M. Hada, M. Ehara, K. Toyota, R. Fukuda, 
 J. Hasegawa, M. Ishida, T. Nakajima, Y. Honda, O. Kitao, H. Nakai, 
 T. Vreven, K. Throssell, J. A. Montgomery, Jr., J. E. Peralta, 
 F. Ogliaro, M. J. Bearpark, J. J. Heyd, E. N. Brothers, K. N. Kudin, 
 V. N. Staroverov, T. A. Keith, R. Kobayashi, J. Normand, 
 K. Raghavachari, A. P. Rendell, J. C. Burant, S. S. Iyengar, 
 J. Tomasi, M. Cossi, J. M. Millam, M. Klene, C. Adamo, R. Cammi, 
 J. W. Ochterski, R. L. Martin, K. Morokuma, O. Farkas, 
 J. B. Foresman, and D. J. Fox, Gaussian, Inc., Wallingford CT, 2016.
 
 ******************************************
 Gaussian 16:  ES64L-G16RevA.03 25-Dec-2016
                24-May-2019 
 ******************************************
 %nprocshared=4
 Will use up to    4 processors via shared memory.
 %mem=3GB
 -------------------------------------------------------------------
 #p b3lyp 6-31g* opt freq=noraman scrf=(pcm,solvent=tetrahydrofuran)
 -------------------------------------------------------------------
 1/18=20,19=15,26=3,38=1/1,3;
 2/9=110,12=2,17=6,18=5,40=1/2;
 3/5=1,6=6,7=1,11=2,25=1,30=1,70=2201,71=1,72=20,74=-5/1,2,3;
 4//1;
 5/5=2,38=5,53=20/2;
 6/7=2,8=2,9=2,10=2,28=1/1;
 7//1,2,3,16;
 1/18=20,19=15,26=3/3(2);
 2/9=110/2;
 99//99;
 2/9=110/2;
 3/5=1,6=6,7=1,11=2,25=1,30=1,70=2205,71=1,72=20,74=-5/1,2,3;
 4/5=5,16=3,69=1/1;
 5/5=2,38=5,53=20/2;
 7//1,2,3,16;
 1/18=20,19=15,26=3/3(-5);
 2/9=110/2;
 6/7=2,8=2,9=2,10=2,19=2,28=1/1;
 99/9=1/99;
 Leave Link    1 at Fri May 24 08:32:22 2019, MaxMem=   402653184 cpu:               0.3 elap:               0.1
 (Enter /n/sw/g16_nehalem/g16/l101.exe)
 -----
 title
 -----
 Symbolic Z-matrix:
 Charge =  1 Multiplicity = 1
 6                    -1.12351   0.34037  -0.49258 
 6                    -1.51985  -1.03724   0.10512 
 6                    -0.37983  -1.99584   0.09783 
 6                     1.33945  -0.28128  -0.1502 
 6                     0.25388   0.79146   0.04469 
 1                    -0.58371  -3.06646   0.14816 
 1                    -1.75239  -0.92293   1.18286 
 1                    -1.02976   0.20543  -1.57464 
 1                     1.66495  -0.28627  -1.19186 
 1                     0.18502   1.04043   1.11346 
 8                     0.83384  -1.69305   0.01881 
 8                    -2.557    -1.67385  -0.58916 
 8                    -2.14357   1.30326  -0.34973 
 8                     0.76691   1.88095  -0.69289 
 6                     2.51915  -0.15351   0.81299 
 1                     2.17225  -0.35242   1.83265 
 1                     2.85357   0.89248   0.76266 
 8                     3.55402  -1.06094   0.5351 
 6                    -3.86948  -1.54266  -0.02341 
 1                    -4.51503  -2.18703  -0.62128 
 1                    -3.8846   -1.88054   1.0201 
 1                    -4.22007  -0.50851  -0.09208 
 6                    -2.52995   1.7042    0.96738 
 1                    -2.93094   0.87054   1.55689 
 1                    -1.7105    2.17357   1.52165 
 1                    -3.32367   2.43891   0.82449 
 6                     0.47662   3.18669  -0.18555 
 1                     0.76164   3.27208   0.87131 
 1                    -0.5816    3.43556  -0.30789 
 1                     1.08158   3.87734  -0.77569 
 6                     4.49018  -0.60431  -0.43928 
 1                     4.97213   0.32761  -0.11463 
 1                     5.244    -1.38789  -0.53501 
 1                     4.02358  -0.44007  -1.42009 
 
 ITRead=  0  0  0  0  0  0  0  0  0  0  0  0  0  0  0  0  0  0  0  0
 ITRead=  0  0  0  0  0  0  0  0  0  0  0  0  0  0
 MicOpt= -1 -1 -1 -1 -1 -1 -1 -1 -1 -1 -1 -1 -1 -1 -1 -1 -1 -1 -1 -1
 MicOpt= -1 -1 -1 -1 -1 -1 -1 -1 -1 -1 -1 -1 -1 -1
 NAtoms=     34 NQM=       34 NQMF=       0 NMMI=      0 NMMIF=      0
                NMic=       0 NMicF=      0.
                    Isotopes and Nuclear Properties:
 (Nuclear quadrupole moments (NQMom) in fm**2, nuclear magnetic moments (NMagM)
  in nuclear magnetons)

  Atom         1           2           3           4           5           6           7           8           9          10
 IAtWgt=          12          12          12          12          12           1           1           1           1           1
 AtmWgt=  12.0000000  12.0000000  12.0000000  12.0000000  12.0000000   1.0078250   1.0078250   1.0078250   1.0078250   1.0078250
 NucSpn=           0           0           0           0           0           1           1           1           1           1
 AtZEff=   0.0000000   0.0000000   0.0000000   0.0000000   0.0000000   0.0000000   0.0000000   0.0000000   0.0000000   0.0000000
 NQMom=    0.0000000   0.0000000   0.0000000   0.0000000   0.0000000   0.0000000   0.0000000   0.0000000   0.0000000   0.0000000
 NMagM=    0.0000000   0.0000000   0.0000000   0.0000000   0.0000000   2.7928460   2.7928460   2.7928460   2.7928460   2.7928460
 AtZNuc=   6.0000000   6.0000000   6.0000000   6.0000000   6.0000000   1.0000000   1.0000000   1.0000000   1.0000000   1.0000000

  Atom        11          12          13          14          15          16          17          18          19          20
 IAtWgt=          16          16          16          16          12           1           1          16          12           1
 AtmWgt=  15.9949146  15.9949146  15.9949146  15.9949146  12.0000000   1.0078250   1.0078250  15.9949146  12.0000000   1.0078250
 NucSpn=           0           0           0           0           0           1           1           0           0           1
 AtZEff=   0.0000000   0.0000000   0.0000000   0.0000000   0.0000000   0.0000000   0.0000000   0.0000000   0.0000000   0.0000000
 NQMom=    0.0000000   0.0000000   0.0000000   0.0000000   0.0000000   0.0000000   0.0000000   0.0000000   0.0000000   0.0000000
 NMagM=    0.0000000   0.0000000   0.0000000   0.0000000   0.0000000   2.7928460   2.7928460   0.0000000   0.0000000   2.7928460
 AtZNuc=   8.0000000   8.0000000   8.0000000   8.0000000   6.0000000   1.0000000   1.0000000   8.0000000   6.0000000   1.0000000

  Atom        21          22          23          24          25          26          27          28          29          30
 IAtWgt=           1           1          12           1           1           1          12           1           1           1
 AtmWgt=   1.0078250   1.0078250  12.0000000   1.0078250   1.0078250   1.0078250  12.0000000   1.0078250   1.0078250   1.0078250
 NucSpn=           1           1           0           1           1           1           0           1           1           1
 AtZEff=   0.0000000   0.0000000   0.0000000   0.0000000   0.0000000   0.0000000   0.0000000   0.0000000   0.0000000   0.0000000
 NQMom=    0.0000000   0.0000000   0.0000000   0.0000000   0.0000000   0.0000000   0.0000000   0.0000000   0.0000000   0.0000000
 NMagM=    2.7928460   2.7928460   0.0000000   2.7928460   2.7928460   2.7928460   0.0000000   2.7928460   2.7928460   2.7928460
 AtZNuc=   1.0000000   1.0000000   6.0000000   1.0000000   1.0000000   1.0000000   6.0000000   1.0000000   1.0000000   1.0000000

  Atom        31          32          33          34
 IAtWgt=          12           1           1           1
 AtmWgt=  12.0000000   1.0078250   1.0078250   1.0078250
 NucSpn=           0           1           1           1
 AtZEff=   0.0000000   0.0000000   0.0000000   0.0000000
 NQMom=    0.0000000   0.0000000   0.0000000   0.0000000
 NMagM=    0.0000000   2.7928460   2.7928460   2.7928460
 AtZNuc=   6.0000000   1.0000000   1.0000000   1.0000000
 Leave Link  101 at Fri May 24 08:32:23 2019, MaxMem=   402653184 cpu:               0.6 elap:               0.2
 (Enter /n/sw/g16_nehalem/g16/l103.exe)

 GradGradGradGradGradGradGradGradGradGradGradGradGradGradGradGradGradGrad
 Berny optimization.
 Initialization pass.
                           ----------------------------
                           !    Initial Parameters    !
                           ! (Angstroms and Degrees)  !
 --------------------------                            --------------------------
 ! Name  Definition              Value          Derivative Info.                !
 --------------------------------------------------------------------------------
 ! R1    R(1,2)                  1.5531         estimate D2E/DX2                !
 ! R2    R(1,5)                  1.5458         estimate D2E/DX2                !
 ! R3    R(1,8)                  1.0945         estimate D2E/DX2                !
 ! R4    R(1,13)                 1.41           estimate D2E/DX2                !
 ! R5    R(2,3)                  1.4895         estimate D2E/DX2                !
 ! R6    R(2,7)                  1.1084         estimate D2E/DX2                !
 ! R7    R(2,12)                 1.4011         estimate D2E/DX2                !
 ! R8    R(3,6)                  1.091          estimate D2E/DX2                !
 ! R9    R(3,11)                 1.2534         estimate D2E/DX2                !
 ! R10   R(4,5)                  1.5386         estimate D2E/DX2                !
 ! R11   R(4,9)                  1.0913         estimate D2E/DX2                !
 ! R12   R(4,11)                 1.5091         estimate D2E/DX2                !
 ! R13   R(4,15)                 1.5283         estimate D2E/DX2                !
 ! R14   R(5,10)                 1.0995         estimate D2E/DX2                !
 ! R15   R(5,14)                 1.4122         estimate D2E/DX2                !
 ! R16   R(12,19)                1.4352         estimate D2E/DX2                !
 ! R17   R(13,23)                1.43           estimate D2E/DX2                !
 ! R18   R(14,27)                1.4306         estimate D2E/DX2                !
 ! R19   R(15,16)                1.0953         estimate D2E/DX2                !
 ! R20   R(15,17)                1.0993         estimate D2E/DX2                !
 ! R21   R(15,18)                1.4041         estimate D2E/DX2                !
 ! R22   R(18,31)                1.4263         estimate D2E/DX2                !
 ! R23   R(19,20)                1.0906         estimate D2E/DX2                !
 ! R24   R(19,21)                1.0969         estimate D2E/DX2                !
 ! R25   R(19,22)                1.0941         estimate D2E/DX2                !
 ! R26   R(23,24)                1.097          estimate D2E/DX2                !
 ! R27   R(23,25)                1.095          estimate D2E/DX2                !
 ! R28   R(23,26)                1.091          estimate D2E/DX2                !
 ! R29   R(27,28)                1.0979         estimate D2E/DX2                !
 ! R30   R(27,29)                1.0939         estimate D2E/DX2                !
 ! R31   R(27,30)                1.0914         estimate D2E/DX2                !
 ! R32   R(31,32)                1.0982         estimate D2E/DX2                !
 ! R33   R(31,33)                1.0915         estimate D2E/DX2                !
 ! R34   R(31,34)                1.0985         estimate D2E/DX2                !
 ! A1    A(2,1,5)              110.6393         estimate D2E/DX2                !
 ! A2    A(2,1,8)              107.0368         estimate D2E/DX2                !
 ! A3    A(2,1,13)             112.4659         estimate D2E/DX2                !
 ! A4    A(5,1,8)              107.655          estimate D2E/DX2                !
 ! A5    A(5,1,13)             114.214          estimate D2E/DX2                !
 ! A6    A(8,1,13)             104.2604         estimate D2E/DX2                !
 ! A7    A(1,2,3)              111.941          estimate D2E/DX2                !
 ! A8    A(1,2,7)              109.6487         estimate D2E/DX2                !
 ! A9    A(1,2,12)             113.6552         estimate D2E/DX2                !
 ! A10   A(3,2,7)              103.3969         estimate D2E/DX2                !
 ! A11   A(3,2,12)             105.7667         estimate D2E/DX2                !
 ! A12   A(7,2,12)             111.9232         estimate D2E/DX2                !
 ! A13   A(2,3,6)              119.228          estimate D2E/DX2                !
 ! A14   A(2,3,11)             125.8711         estimate D2E/DX2                !
 ! A15   A(6,3,11)             114.8931         estimate D2E/DX2                !
 ! A16   A(5,4,9)              109.5441         estimate D2E/DX2                !
 ! A17   A(5,4,11)             113.6835         estimate D2E/DX2                !
 ! A18   A(5,4,15)             113.9855         estimate D2E/DX2                !
 ! A19   A(9,4,11)             101.6857         estimate D2E/DX2                !
 ! A20   A(9,4,15)             111.8205         estimate D2E/DX2                !
 ! A21   A(11,4,15)            105.4414         estimate D2E/DX2                !
 ! A22   A(1,5,4)              112.4094         estimate D2E/DX2                !
 ! A23   A(1,5,10)             110.3725         estimate D2E/DX2                !
 ! A24   A(1,5,14)             111.5512         estimate D2E/DX2                !
 ! A25   A(4,5,10)             108.9768         estimate D2E/DX2                !
 ! A26   A(4,5,14)             102.4404         estimate D2E/DX2                !
 ! A27   A(10,5,14)            110.8391         estimate D2E/DX2                !
 ! A28   A(3,11,4)             123.8834         estimate D2E/DX2                !
 ! A29   A(2,12,19)            116.1088         estimate D2E/DX2                !
 ! A30   A(1,13,23)            118.7027         estimate D2E/DX2                !
 ! A31   A(5,14,27)            116.4376         estimate D2E/DX2                !
 ! A32   A(4,15,16)            109.0905         estimate D2E/DX2                !
 ! A33   A(4,15,17)            106.5892         estimate D2E/DX2                !
 ! A34   A(4,15,18)            112.9635         estimate D2E/DX2                !
 ! A35   A(16,15,17)           108.1662         estimate D2E/DX2                !
 ! A36   A(16,15,18)           107.4764         estimate D2E/DX2                !
 ! A37   A(17,15,18)           112.4357         estimate D2E/DX2                !
 ! A38   A(15,18,31)           114.3332         estimate D2E/DX2                !
 ! A39   A(12,19,20)           105.7351         estimate D2E/DX2                !
 ! A40   A(12,19,21)           111.0656         estimate D2E/DX2                !
 ! A41   A(12,19,22)           110.7734         estimate D2E/DX2                !
 ! A42   A(20,19,21)           109.3511         estimate D2E/DX2                !
 ! A43   A(20,19,22)           109.5348         estimate D2E/DX2                !
 ! A44   A(21,19,22)           110.269          estimate D2E/DX2                !
 ! A45   A(13,23,24)           112.3758         estimate D2E/DX2                !
 ! A46   A(13,23,25)           112.5949         estimate D2E/DX2                !
 ! A47   A(13,23,26)           105.3534         estimate D2E/DX2                !
 ! A48   A(24,23,25)           109.1053         estimate D2E/DX2                !
 ! A49   A(24,23,26)           108.4356         estimate D2E/DX2                !
 ! A50   A(25,23,26)           108.7883         estimate D2E/DX2                !
 ! A51   A(14,27,28)           111.0798         estimate D2E/DX2                !
 ! A52   A(14,27,29)           111.3627         estimate D2E/DX2                !
 ! A53   A(14,27,30)           105.8631         estimate D2E/DX2                !
 ! A54   A(28,27,29)           109.9423         estimate D2E/DX2                !
 ! A55   A(28,27,30)           109.1087         estimate D2E/DX2                !
 ! A56   A(29,27,30)           109.375          estimate D2E/DX2                !
 ! A57   A(18,31,32)           110.9623         estimate D2E/DX2                !
 ! A58   A(18,31,33)           106.4614         estimate D2E/DX2                !
 ! A59   A(18,31,34)           112.2738         estimate D2E/DX2                !
 ! A60   A(32,31,33)           109.3918         estimate D2E/DX2                !
 ! A61   A(32,31,34)           108.8733         estimate D2E/DX2                !
 ! A62   A(33,31,34)           108.8066         estimate D2E/DX2                !
 ! D1    D(5,1,2,3)            -44.0205         estimate D2E/DX2                !
 ! D2    D(5,1,2,7)             70.1253         estimate D2E/DX2                !
 ! D3    D(5,1,2,12)          -163.7736         estimate D2E/DX2                !
 ! D4    D(8,1,2,3)             73.0046         estimate D2E/DX2                !
 ! D5    D(8,1,2,7)           -172.8496         estimate D2E/DX2                !
 ! D6    D(8,1,2,12)           -46.7485         estimate D2E/DX2                !
 ! D7    D(13,1,2,3)          -173.0723         estimate D2E/DX2                !
 ! D8    D(13,1,2,7)           -58.9266         estimate D2E/DX2                !
 ! D9    D(13,1,2,12)           67.1745         estimate D2E/DX2                !
 ! D10   D(2,1,5,4)             52.7213         estimate D2E/DX2                !
 ! D11   D(2,1,5,10)           -69.1726         estimate D2E/DX2                !
 ! D12   D(2,1,5,14)           167.1395         estimate D2E/DX2                !
 ! D13   D(8,1,5,4)            -63.9222         estimate D2E/DX2                !
 ! D14   D(8,1,5,10)           174.1839         estimate D2E/DX2                !
 ! D15   D(8,1,5,14)            50.4961         estimate D2E/DX2                !
 ! D16   D(13,1,5,4)          -179.1725         estimate D2E/DX2                !
 ! D17   D(13,1,5,10)           58.9336         estimate D2E/DX2                !
 ! D18   D(13,1,5,14)          -64.7543         estimate D2E/DX2                !
 ! D19   D(2,1,13,23)           63.7697         estimate D2E/DX2                !
 ! D20   D(5,1,13,23)          -63.401          estimate D2E/DX2                !
 ! D21   D(8,1,13,23)          179.3787         estimate D2E/DX2                !
 ! D22   D(1,2,3,6)           -158.5501         estimate D2E/DX2                !
 ! D23   D(1,2,3,11)            20.3783         estimate D2E/DX2                !
 ! D24   D(7,2,3,6)             83.5068         estimate D2E/DX2                !
 ! D25   D(7,2,3,11)           -97.5649         estimate D2E/DX2                !
 ! D26   D(12,2,3,6)           -34.272          estimate D2E/DX2                !
 ! D27   D(12,2,3,11)          144.6563         estimate D2E/DX2                !
 ! D28   D(1,2,12,19)          -98.9119         estimate D2E/DX2                !
 ! D29   D(3,2,12,19)          137.8889         estimate D2E/DX2                !
 ! D30   D(7,2,12,19)           25.9785         estimate D2E/DX2                !
 ! D31   D(2,3,11,4)            -3.0505         estimate D2E/DX2                !
 ! D32   D(6,3,11,4)           175.9185         estimate D2E/DX2                !
 ! D33   D(9,4,5,1)             77.0763         estimate D2E/DX2                !
 ! D34   D(9,4,5,10)          -160.2401         estimate D2E/DX2                !
 ! D35   D(9,4,5,14)           -42.7822         estimate D2E/DX2                !
 ! D36   D(11,4,5,1)           -35.9031         estimate D2E/DX2                !
 ! D37   D(11,4,5,10)           86.7806         estimate D2E/DX2                !
 ! D38   D(11,4,5,14)         -155.7616         estimate D2E/DX2                !
 ! D39   D(15,4,5,1)          -156.7919         estimate D2E/DX2                !
 ! D40   D(15,4,5,10)          -34.1082         estimate D2E/DX2                !
 ! D41   D(15,4,5,14)           83.3496         estimate D2E/DX2                !
 ! D42   D(5,4,11,3)            10.8301         estimate D2E/DX2                !
 ! D43   D(9,4,11,3)          -106.7993         estimate D2E/DX2                !
 ! D44   D(15,4,11,3)          136.3984         estimate D2E/DX2                !
 ! D45   D(5,4,15,16)           66.2501         estimate D2E/DX2                !
 ! D46   D(5,4,15,17)          -50.3238         estimate D2E/DX2                !
 ! D47   D(5,4,15,18)         -174.2916         estimate D2E/DX2                !
 ! D48   D(9,4,15,16)         -168.8216         estimate D2E/DX2                !
 ! D49   D(9,4,15,17)           74.6045         estimate D2E/DX2                !
 ! D50   D(9,4,15,18)          -49.3633         estimate D2E/DX2                !
 ! D51   D(11,4,15,16)         -59.1309         estimate D2E/DX2                !
 ! D52   D(11,4,15,17)        -175.7049         estimate D2E/DX2                !
 ! D53   D(11,4,15,18)          60.3274         estimate D2E/DX2                !
 ! D54   D(1,5,14,27)           93.1153         estimate D2E/DX2                !
 ! D55   D(4,5,14,27)         -146.43           estimate D2E/DX2                !
 ! D56   D(10,5,14,27)         -30.308          estimate D2E/DX2                !
 ! D57   D(2,12,19,20)        -173.6189         estimate D2E/DX2                !
 ! D58   D(2,12,19,21)         -55.1009         estimate D2E/DX2                !
 ! D59   D(2,12,19,22)          67.7983         estimate D2E/DX2                !
 ! D60   D(1,13,23,24)         -61.8289         estimate D2E/DX2                !
 ! D61   D(1,13,23,25)          61.8614         estimate D2E/DX2                !
 ! D62   D(1,13,23,26)        -179.7126         estimate D2E/DX2                !
 ! D63   D(5,14,27,28)          52.5033         estimate D2E/DX2                !
 ! D64   D(5,14,27,29)         -70.4035         estimate D2E/DX2                !
 ! D65   D(5,14,27,30)         170.8147         estimate D2E/DX2                !
 ! D66   D(4,15,18,31)          86.0429         estimate D2E/DX2                !
 ! D67   D(16,15,18,31)       -153.5721         estimate D2E/DX2                !
 ! D68   D(17,15,18,31)        -34.6494         estimate D2E/DX2                !
 ! D69   D(15,18,31,32)         59.5767         estimate D2E/DX2                !
 ! D70   D(15,18,31,33)        178.5208         estimate D2E/DX2                !
 ! D71   D(15,18,31,34)        -62.5135         estimate D2E/DX2                !
 --------------------------------------------------------------------------------
 Trust Radius=3.00D-01 FncErr=1.00D-07 GrdErr=1.00D-06 EigMax=2.50D+02 EigMin=1.00D-04
 Number of steps in this run=    177 maximum allowed number of steps=    204.
 GradGradGradGradGradGradGradGradGradGradGradGradGradGradGradGradGradGrad

 Leave Link  103 at Fri May 24 08:32:23 2019, MaxMem=   402653184 cpu:               0.1 elap:               0.1
 (Enter /n/sw/g16_nehalem/g16/l202.exe)
                          Input orientation:                          
 ---------------------------------------------------------------------
 Center     Atomic      Atomic             Coordinates (Angstroms)
 Number     Number       Type             X           Y           Z
 ---------------------------------------------------------------------
      1          6           0       -1.123513    0.340365   -0.492580
      2          6           0       -1.519848   -1.037237    0.105124
      3          6           0       -0.379828   -1.995842    0.097831
      4          6           0        1.339453   -0.281279   -0.150202
      5          6           0        0.253878    0.791461    0.044688
      6          1           0       -0.583710   -3.066462    0.148163
      7          1           0       -1.752394   -0.922934    1.182860
      8          1           0       -1.029758    0.205429   -1.574641
      9          1           0        1.664950   -0.286274   -1.191860
     10          1           0        0.185016    1.040430    1.113457
     11          8           0        0.833837   -1.693054    0.018806
     12          8           0       -2.557001   -1.673848   -0.589162
     13          8           0       -2.143569    1.303258   -0.349734
     14          8           0        0.766910    1.880949   -0.692888
     15          6           0        2.519152   -0.153508    0.812988
     16          1           0        2.172249   -0.352415    1.832653
     17          1           0        2.853566    0.892479    0.762655
     18          8           0        3.554023   -1.060938    0.535103
     19          6           0       -3.869482   -1.542664   -0.023406
     20          1           0       -4.515025   -2.187029   -0.621283
     21          1           0       -3.884601   -1.880544    1.020096
     22          1           0       -4.220070   -0.508507   -0.092080
     23          6           0       -2.529949    1.704196    0.967375
     24          1           0       -2.930944    0.870535    1.556885
     25          1           0       -1.710502    2.173572    1.521645
     26          1           0       -3.323673    2.438913    0.824491
     27          6           0        0.476617    3.186689   -0.185551
     28          1           0        0.761640    3.272076    0.871309
     29          1           0       -0.581599    3.435560   -0.307892
     30          1           0        1.081582    3.877341   -0.775688
     31          6           0        4.490182   -0.604305   -0.439275
     32          1           0        4.972129    0.327608   -0.114626
     33          1           0        5.243996   -1.387893   -0.535006
     34          1           0        4.023575   -0.440068   -1.420087
 ---------------------------------------------------------------------
                    Distance matrix (angstroms):
                    1          2          3          4          5
     1  C    0.000000
     2  C    1.553100   0.000000
     3  C    2.521808   1.489504   0.000000
     4  C    2.563175   2.968546   2.440732   0.000000
     5  C    1.545752   2.548312   2.858927   1.538579   0.000000
     6  H    3.508334   2.235165   1.091022   3.397767   3.949156
     7  H    2.190551   1.108448   2.052403   3.427578   2.873972
     8  H    1.094465   2.146163   2.839924   2.806968   2.147878
     9  H    2.942311   3.519808   2.960919   1.091341   2.163721
    10  H    2.186708   2.870539   3.251076   2.162516   1.099543
    11  O    2.868367   2.444868   1.253359   1.509079   2.551438
    12  O    2.474120   1.401069   2.305585   4.161044   3.792170
    13  O    1.409994   2.464516   3.767646   3.831711   2.482994
    14  O    2.446880   3.792347   4.119436   2.301639   1.412163
    15  C    3.900952   4.194707   3.508522   1.528316   2.571909
    16  H    4.092518   4.133391   3.496220   2.151819   2.861017
    17  H    4.206852   4.825236   4.386254   2.122158   2.698900
    18  O    4.989902   5.092113   4.066993   2.445778   3.816130
    19  C    3.362479   2.406815   3.521044   5.360986   4.738657
    20  H    4.231624   3.289494   4.201611   6.174845   5.661922
    21  H    3.852821   2.672152   3.625921   5.587306   5.021757
    22  H    3.235684   2.758558   4.122583   5.564468   4.660991
    23  C    2.443269   3.046184   4.366853   4.490363   3.071503
    24  H    2.783558   2.781797   4.105259   4.741003   3.526483
    25  H    2.786092   3.514566   4.602386   4.257181   2.819649
    26  H    3.313500   3.981820   5.372272   5.485819   4.015104
    27  C    3.279671   4.681016   5.260459   3.573869   2.416555
    28  H    3.742850   4.935829   5.445381   3.742150   2.663564
    29  H    3.147700   4.588770   5.450271   4.186908   2.795281
    30  H    4.177654   5.629951   6.114984   4.213294   3.298601
    31  C    5.692874   6.050146   5.093315   3.180409   4.486497
    32  H    6.107361   6.637534   5.838407   3.683523   4.743673
    33  H    6.598018   6.803110   5.691879   4.076533   5.476030
    34  H    5.287897   5.780348   4.910648   2.973606   4.227629
                    6          7          8          9         10
     6  H    0.000000
     7  H    2.651628   0.000000
     8  H    3.724551   3.065814   0.000000
     9  H    3.818583   4.209854   2.765817   0.000000
    10  H    4.288274   2.759198   3.065742   3.043819   0.000000
    11  O    1.977984   2.938826   3.101016   2.033591   3.015156
    12  O    2.525252   2.085983   2.614445   4.484805   4.217212
    13  O    4.666424   2.730896   1.986505   4.211960   2.762664
    14  O    5.196962   4.210354   2.610148   2.398396   2.075561
    15  C    4.307557   4.356022   4.292362   2.183278   2.638932
    16  H    4.218870   4.018774   4.708895   3.067475   2.531078
    17  H    5.278795   4.968618   4.584233   2.573402   2.695572
    18  O    4.614400   5.347588   5.202476   2.674155   4.012536
    19  C    3.625975   2.514201   3.677797   5.794285   4.940019
    20  H    4.101303   3.533412   4.333570   6.490803   5.959547
    21  H    3.614215   2.343036   4.385667   6.183200   5.010248
    22  H    4.452411   2.808317   3.589677   5.991024   4.822583
    23  C    5.217100   2.748243   3.310396   5.120688   2.798743
    24  H    4.795201   2.178395   3.723349   5.478690   3.151936
    25  H    5.532998   3.115266   3.731486   4.980726   2.245800
    26  H    6.186596   3.728185   4.000791   6.031474   3.788160
    27  C    6.351185   4.871349   3.617547   3.806083   2.525645
    28  H    6.519967   4.900565   4.312320   4.211234   2.317623
    29  H    6.517997   4.752849   3.498463   4.436263   2.888699
    30  H    7.200215   5.908466   4.310339   4.224832   3.524310
    31  C    5.670245   6.457755   5.693370   2.940997   4.863187
    32  H    6.515836   6.961791   6.178124   3.531957   4.993271
    33  H    6.102989   7.219191   6.555876   3.801919   5.848715
    34  H    5.530319   6.353763   5.096737   2.374627   4.831693
                   11         12         13         14         15
    11  O    0.000000
    12  O    3.444964   0.000000
    13  O    4.240124   3.015197   0.000000
    14  O    3.644789   4.867826   2.987034   0.000000
    15  C    2.416860   5.481313   5.021460   3.078478   0.000000
    16  H    2.622728   5.475142   5.111786   3.652568   1.095273
    17  H    3.364164   6.139029   5.135904   2.729434   1.099297
    18  O    2.839990   6.243736   6.231767   4.234461   1.404139
    19  C    4.705912   1.435234   3.344329   5.802195   6.591203
    20  H    5.409626   2.024412   4.228433   6.667264   7.461366
    21  H    4.827151   2.096415   3.878688   6.222515   6.635782
    22  H    5.192054   2.090672   2.767803   5.562413   6.808986
    23  C    4.874028   3.719505   1.429971   3.695537   5.382223
    24  H    4.807416   3.349513   2.107701   4.444833   5.595140
    25  H    4.866516   4.469307   2.108804   3.335769   4.879290
    26  H    5.916686   4.415994   2.015233   4.398481   6.392134
    27  C    4.897066   5.743741   3.231044   1.430601   4.040538
    28  H    5.038302   6.132578   3.715835   2.093317   3.850568
    29  H    5.330373   5.485196   2.643523   2.093684   4.873647
    30  H    5.632220   6.640013   4.148366   2.022735   4.564892
    31  C    3.842404   7.129458   6.903149   4.483700   2.378306
    32  H    4.607205   7.805050   7.186120   4.520080   2.666278
    33  H    4.455259   7.806424   7.864651   5.545679   3.281093
    34  H    3.716829   6.746601   6.497577   4.064702   2.707772
                   16         17         18         19         20
    16  H    0.000000
    17  H    1.777315   0.000000
    18  O    2.023596   2.087644   0.000000
    19  C    6.431498   7.193552   7.460055   0.000000
    20  H    7.355763   8.105232   8.228903   1.090591   0.000000
    21  H    6.299274   7.291010   7.499340   1.096945   1.784795
    22  H    6.677627   7.261519   7.818891   1.094125   1.784514
    23  C    5.204711   5.448213   6.696831   3.649397   4.648225
    24  H    5.254925   5.838822   6.843203   3.033431   4.074607
    25  H    4.642531   4.800831   6.257040   4.567142   5.610021
    26  H    6.246044   6.368168   7.722396   4.107285   4.990884
    27  C    4.412887   3.436914   5.294535   6.425080   7.347326
    28  H    4.006362   3.170243   5.165796   6.740143   7.737755
    29  H    5.149210   4.406097   6.167050   5.972757   6.869029
    30  H    5.087616   3.796818   5.676067   7.379391   8.253632
    31  C    3.255444   2.522600   1.426296   8.422437   9.145048
    32  H    3.477593   2.361569   2.088356   9.037717   9.827827
    33  H    4.014182   3.549391   2.026830   9.129139   9.792066
    34  H    3.743716   2.812288   2.104454   8.091155   8.752008
                   21         22         23         24         25
    21  H    0.000000
    22  H    1.797765   0.000000
    23  C    3.832522   2.979095   0.000000
    24  H    2.960750   2.506529   1.096955   0.000000
    25  H    4.627539   4.011931   1.094999   1.785672   0.000000
    26  H    4.360116   3.214174   1.090973   1.774950   1.777287
    27  C    6.793428   5.976795   3.544921   4.473491   2.953712
    28  H    6.939682   6.327587   3.647195   4.457868   2.782289
    29  H    6.397995   5.370355   2.901723   3.946665   2.492838
    30  H    7.812877   6.914513   4.561138   5.530112   3.997036
    31  C    8.596252   8.717695   7.522638   7.825147   7.071795
    32  H    9.198108   9.230174   7.703694   8.096128   7.123379
    33  H    9.273205   9.515148   8.500140   8.735339   8.079535
    34  H    8.400519   8.350208   7.297021   7.677589   6.954462
                   26         27         28         29         30
    26  H    0.000000
    27  C    4.002694   0.000000
    28  H    4.169668   1.097944   0.000000
    29  H    3.129627   1.093949   1.794863   0.000000
    30  H    4.902644   1.091441   1.783622   1.783304   0.000000
    31  C    8.480248   5.526727   5.535882   6.485425   5.640645
    32  H    8.611613   5.328133   5.231651   6.367151   5.307915
    33  H    9.481436   6.616406   6.616989   7.566693   6.716123
    34  H    8.204189   5.220954   5.447084   6.120874   5.264085
                   31         32         33         34
    31  C    0.000000
    32  H    1.098240   0.000000
    33  H    1.091517   1.787058   0.000000
    34  H    1.098494   1.786983   1.780777   0.000000
 Stoichiometry    C10H19O5(1+)
 Framework group  C1[X(C10H19O5)]
 Deg. of freedom    96
 Full point group                 C1      NOp   1
 Largest Abelian subgroup         C1      NOp   1
 Largest concise Abelian subgroup C1      NOp   1
                         Standard orientation:                         
 ---------------------------------------------------------------------
 Center     Atomic      Atomic             Coordinates (Angstroms)
 Number     Number       Type             X           Y           Z
 ---------------------------------------------------------------------
      1          6           0       -1.123513    0.340365   -0.492580
      2          6           0       -1.519848   -1.037237    0.105124
      3          6           0       -0.379828   -1.995842    0.097831
      4          6           0        1.339453   -0.281279   -0.150202
      5          6           0        0.253878    0.791461    0.044688
      6          1           0       -0.583710   -3.066462    0.148163
      7          1           0       -1.752394   -0.922934    1.182860
      8          1           0       -1.029758    0.205429   -1.574641
      9          1           0        1.664950   -0.286274   -1.191860
     10          1           0        0.185016    1.040430    1.113457
     11          8           0        0.833837   -1.693054    0.018806
     12          8           0       -2.557001   -1.673848   -0.589162
     13          8           0       -2.143569    1.303258   -0.349734
     14          8           0        0.766910    1.880949   -0.692888
     15          6           0        2.519152   -0.153508    0.812988
     16          1           0        2.172249   -0.352415    1.832653
     17          1           0        2.853566    0.892479    0.762655
     18          8           0        3.554023   -1.060938    0.535103
     19          6           0       -3.869482   -1.542664   -0.023406
     20          1           0       -4.515025   -2.187029   -0.621283
     21          1           0       -3.884601   -1.880544    1.020096
     22          1           0       -4.220070   -0.508507   -0.092080
     23          6           0       -2.529949    1.704196    0.967375
     24          1           0       -2.930944    0.870535    1.556885
     25          1           0       -1.710502    2.173572    1.521645
     26          1           0       -3.323673    2.438913    0.824491
     27          6           0        0.476617    3.186689   -0.185551
     28          1           0        0.761640    3.272076    0.871309
     29          1           0       -0.581599    3.435560   -0.307892
     30          1           0        1.081582    3.877341   -0.775688
     31          6           0        4.490182   -0.604305   -0.439275
     32          1           0        4.972129    0.327608   -0.114626
     33          1           0        5.243996   -1.387893   -0.535006
     34          1           0        4.023575   -0.440068   -1.420087
 ---------------------------------------------------------------------
 Rotational constants (GHZ):           0.8544778           0.3951529           0.2907302
 Leave Link  202 at Fri May 24 08:32:23 2019, MaxMem=   402653184 cpu:               0.2 elap:               0.1
 (Enter /n/sw/g16_nehalem/g16/l301.exe)
 Standard basis: 6-31G(d) (6D, 7F)
 Ernie: Thresh=  0.10000D-02 Tol=  0.10000D-05 Strict=F.
 There are   263 symmetry adapted cartesian basis functions of A   symmetry.
 There are   263 symmetry adapted basis functions of A   symmetry.
   263 basis functions,   496 primitive gaussians,   263 cartesian basis functions
    59 alpha electrons       59 beta electrons
       nuclear repulsion energy      1144.4332649804 Hartrees.
 IExCor=  402 DFT=T Ex+Corr=B3LYP ExCW=0 ScaHFX=  0.200000
 ScaDFX=  0.800000  0.720000  1.000000  0.810000 ScalE2=  1.000000  1.000000
 IRadAn=      5 IRanWt=     -1 IRanGd=            0 ICorTp=0 IEmpDi=  4
 NAtoms=   34 NActive=   34 NUniq=   34 SFac= 1.00D+00 NAtFMM=   60 NAOKFM=F Big=F
 Integral buffers will be    131072 words long.
 Raffenetti 2 integral format.
 Two-electron integral symmetry is turned on.
 ------------------------------------------------------------------------------
 Polarizable Continuum Model (PCM)
 =================================
 Model                : PCM.
 Atomic radii         : UFF (Universal Force Field).
 Polarization charges : Total charges.
 Charge compensation  : None.
 Solution method      : On-the-fly selection.
 Cavity type          : Scaled VdW (van der Waals Surface) (Alpha=1.100).
 Cavity algorithm     : GePol (No added spheres)
                        Default sphere list used, NSphG=   34.
                        Lebedev-Laikov grids with approx.  5.0 points / Ang**2.
                        Smoothing algorithm: York/Karplus (Gamma=1.0000).
                        Polarization charges: spherical gaussians, with
                                              point-specific exponents (IZeta= 3).
                        Self-potential: point-specific (ISelfS= 7).
                        Self-field    : sphere-specific E.n sum rule (ISelfD= 2).
 1st derivatives      : Analytical E(r).r(x)/FMM algorithm (CHGder, D1EAlg=3).
                        Cavity 1st derivative terms included.
 Solvent              : TetraHydroFuran, Eps=   7.425700 Eps(inf)=   1.974025
 ------------------------------------------------------------------------------
 GePol: Number of generator spheres                  =      34
 GePol: Total number of spheres                      =      34
 GePol: Number of exposed spheres                    =      34 (100.00%)
 GePol: Number of points                             =    2311
 GePol: Average weight of points                     =       0.13
 GePol: Minimum weight of points                     =   0.24D-09
 GePol: Maximum weight of points                     =    0.20577
 GePol: Number of points with low weight             =     154
 GePol: Fraction of low-weight points (<1% of avg)   =       6.66%
 GePol: Cavity surface area                          =    300.765 Ang**2
 GePol: Cavity volume                                =    321.676 Ang**3
 Leave Link  301 at Fri May 24 08:32:23 2019, MaxMem=   402653184 cpu:               0.4 elap:               0.1
 (Enter /n/sw/g16_nehalem/g16/l302.exe)
 NPDir=0 NMtPBC=     1 NCelOv=     1 NCel=       1 NClECP=     1 NCelD=      1
         NCelK=      1 NCelE2=     1 NClLst=     1 CellRange=     0.0.
 One-electron integrals computed using PRISM.
 One-electron integral symmetry used in STVInt
 NBasis=   263 RedAO= T EigKep=  1.62D-03  NBF=   263
 NBsUse=   263 1.00D-06 EigRej= -1.00D+00 NBFU=   263
 Precomputing XC quadrature grid using
 IXCGrd= 4 IRadAn=           5 IRanWt=          -1 IRanGd=           0 AccXCQ= 0.00D+00.
 Generated NRdTot=       0 NPtTot=           0 NUsed=           0 NTot=          32
 NSgBfM=   262   262   262   262   262 MxSgAt=    34 MxSgA2=    34.
 Leave Link  302 at Fri May 24 08:32:24 2019, MaxMem=   402653184 cpu:               2.6 elap:               0.7
 (Enter /n/sw/g16_nehalem/g16/l303.exe)
 DipDrv:  MaxL=1.
 Leave Link  303 at Fri May 24 08:32:24 2019, MaxMem=   402653184 cpu:               0.2 elap:               0.1
 (Enter /n/sw/g16_nehalem/g16/l401.exe)
 ExpMin= 1.61D-01 ExpMax= 5.48D+03 ExpMxC= 8.25D+02 IAcc=3 IRadAn=         5 AccDes= 0.00D+00
 Harris functional with IExCor=  402 and IRadAn=       5 diagonalized for initial guess.
 HarFok:  IExCor=  402 AccDes= 0.00D+00 IRadAn=         5 IDoV= 1 UseB2=F ITyADJ=14
 ICtDFT=  3500011 ScaDFX=  1.000000  1.000000  1.000000  1.000000
 FoFCou: FMM=F IPFlag=           0 FMFlag=      100000 FMFlg1=           0
         NFxFlg=           0 DoJE=T BraDBF=F KetDBF=T FulRan=T
         wScrn=  0.000000 ICntrl=       500 IOpCl=  0 I1Cent=   200000004 NGrid=           0
         NMat0=    1 NMatS0=      1 NMatT0=    0 NMatD0=    1 NMtDS0=    0 NMtDT0=    0
 Petite list used in FoFCou.
 Harris En= -768.258587928583    
 JPrj=0 DoOrth=F DoCkMO=F.
 Leave Link  401 at Fri May 24 08:32:29 2019, MaxMem=   402653184 cpu:              19.9 elap:               5.0
 (Enter /n/sw/g16_nehalem/g16/l502.exe)
 Integral symmetry usage will be decided dynamically.
 Closed shell SCF:
 Using DIIS extrapolation, IDIIS=  1040.
 NGot=   402653184 LenX=   402510103 LenY=   402440493
 Requested convergence on RMS density matrix=1.00D-08 within 128 cycles.
 Requested convergence on MAX density matrix=1.00D-06.
 Requested convergence on             energy=1.00D-06.
 No special actions if energy rises.
 Fock matrices will be formed incrementally for  20 cycles.

 Cycle   1  Pass 1  IDiag  1:
 FoFJK:  IHMeth= 1 ICntrl=       0 DoSepK=F KAlg= 0 I1Cent=           0 FoldK=F
 IRaf= 870000000 NMat=       1 IRICut=       1 DoRegI=T DoRafI=F ISym2E= 0 IDoP0=0 IntGTp=1.
 FoFCou: FMM=F IPFlag=           0 FMFlag=      100000 FMFlg1=           0
         NFxFlg=           0 DoJE=F BraDBF=F KetDBF=F FulRan=T
         wScrn=  0.000000 ICntrl=         0 IOpCl=  0 I1Cent=           0 NGrid=           0
         NMat0=    1 NMatS0=      1 NMatT0=    0 NMatD0=    1 NMtDS0=    0 NMtDT0=    0
 Symmetry not used in FoFCou.
 Inv3:  Mode=1 IEnd=    16022163.
 Iteration    1 A*A^-1 deviation from unit magnitude is 8.44D-15 for   2297.
 Iteration    1 A*A^-1 deviation from orthogonality  is 2.26D-15 for   2297   1374.
 Iteration    1 A^-1*A deviation from unit magnitude is 8.44D-15 for   2297.
 Iteration    1 A^-1*A deviation from orthogonality  is 1.74D-15 for   2296   2294.
 E= -768.083121267451    
 DIIS: error= 2.63D-02 at cycle   1 NSaved=   1.
 NSaved= 1 IEnMin= 1 EnMin= -768.083121267451     IErMin= 1 ErrMin= 2.63D-02
 ErrMax= 2.63D-02  0.00D+00 EMaxC= 1.00D-01 BMatC= 2.56D-01 BMatP= 2.56D-01
 IDIUse=3 WtCom= 7.37D-01 WtEn= 2.63D-01
 Coeff-Com:  0.100D+01
 Coeff-En:   0.100D+01
 Coeff:      0.100D+01
 Gap=     0.010 Goal=   None    Shift=    0.000
 GapD=    0.010 DampG=0.250 DampE=0.500 DampFc=0.2500 IDamp=-1.
 Damping current iteration by 2.50D-01
 RMSDP=4.87D-03 MaxDP=1.37D-01              OVMax= 3.79D-01

 Cycle   2  Pass 1  IDiag  1:
 RMSU=  1.21D-03    CP:  9.95D-01
 E= -768.157602120439     Delta-E=       -0.074480852988 Rises=F Damp=T
 DIIS: error= 1.24D-02 at cycle   2 NSaved=   2.
 NSaved= 2 IEnMin= 2 EnMin= -768.157602120439     IErMin= 2 ErrMin= 1.24D-02
 ErrMax= 1.24D-02  0.00D+00 EMaxC= 1.00D-01 BMatC= 6.92D-02 BMatP= 2.56D-01
 IDIUse=3 WtCom= 8.76D-01 WtEn= 1.24D-01
 Coeff-Com: -0.688D+00 0.169D+01
 Coeff-En:   0.000D+00 0.100D+01
 Coeff:     -0.603D+00 0.160D+01
 Gap=     0.116 Goal=   None    Shift=    0.000
 RMSDP=1.42D-03 MaxDP=4.08D-02 DE=-7.45D-02 OVMax= 4.67D-01

 Cycle   3  Pass 1  IDiag  1:
 RMSU=  1.39D-03    CP:  9.86D-01  1.20D+00
 E= -768.288664255302     Delta-E=       -0.131062134862 Rises=F Damp=F
 DIIS: error= 6.79D-03 at cycle   3 NSaved=   3.
 NSaved= 3 IEnMin= 3 EnMin= -768.288664255302     IErMin= 3 ErrMin= 6.79D-03
 ErrMax= 6.79D-03  0.00D+00 EMaxC= 1.00D-01 BMatC= 3.96D-02 BMatP= 6.92D-02
 IDIUse=3 WtCom= 9.32D-01 WtEn= 6.79D-02
 Coeff-Com: -0.492D+00 0.996D+00 0.495D+00
 Coeff-En:   0.000D+00 0.000D+00 0.100D+01
 Coeff:     -0.458D+00 0.929D+00 0.530D+00
 Gap=     0.139 Goal=   None    Shift=    0.000
 RMSDP=8.03D-04 MaxDP=2.64D-02 DE=-1.31D-01 OVMax= 3.97D-02

 Cycle   4  Pass 1  IDiag  1:
 RMSU=  5.83D-04    CP:  9.90D-01  1.40D+00  6.51D-01
 E= -768.321000955538     Delta-E=       -0.032336700237 Rises=F Damp=F
 DIIS: error= 2.24D-03 at cycle   4 NSaved=   4.
 NSaved= 4 IEnMin= 4 EnMin= -768.321000955538     IErMin= 4 ErrMin= 2.24D-03
 ErrMax= 2.24D-03  0.00D+00 EMaxC= 1.00D-01 BMatC= 2.93D-03 BMatP= 3.96D-02
 IDIUse=3 WtCom= 9.78D-01 WtEn= 2.24D-02
 Coeff-Com: -0.212D+00 0.361D+00 0.222D+00 0.628D+00
 Coeff-En:   0.000D+00 0.000D+00 0.000D+00 0.100D+01
 Coeff:     -0.207D+00 0.353D+00 0.217D+00 0.637D+00
 Gap=     0.127 Goal=   None    Shift=    0.000
 RMSDP=2.16D-04 MaxDP=1.30D-02 DE=-3.23D-02 OVMax= 1.21D-02

 Cycle   5  Pass 1  IDiag  1:
 RMSU=  1.88D-04    CP:  9.89D-01  1.43D+00  7.04D-01  8.79D-01
 E= -768.322891176581     Delta-E=       -0.001890221043 Rises=F Damp=F
 DIIS: error= 1.70D-03 at cycle   5 NSaved=   5.
 NSaved= 5 IEnMin= 5 EnMin= -768.322891176581     IErMin= 5 ErrMin= 1.70D-03
 ErrMax= 1.70D-03  0.00D+00 EMaxC= 1.00D-01 BMatC= 9.33D-04 BMatP= 2.93D-03
 IDIUse=3 WtCom= 9.83D-01 WtEn= 1.70D-02
 Coeff-Com: -0.905D-01 0.135D+00 0.519D-01 0.374D+00 0.529D+00
 Coeff-En:   0.000D+00 0.000D+00 0.000D+00 0.167D+00 0.833D+00
 Coeff:     -0.890D-01 0.133D+00 0.510D-01 0.370D+00 0.534D+00
 Gap=     0.128 Goal=   None    Shift=    0.000
 RMSDP=9.76D-05 MaxDP=6.84D-03 DE=-1.89D-03 OVMax= 5.14D-03

 Cycle   6  Pass 1  IDiag  1:
 RMSU=  6.87D-05    CP:  9.89D-01  1.44D+00  7.05D-01  9.57D-01  7.43D-01
 E= -768.323511720076     Delta-E=       -0.000620543495 Rises=F Damp=F
 DIIS: error= 4.56D-04 at cycle   6 NSaved=   6.
 NSaved= 6 IEnMin= 6 EnMin= -768.323511720076     IErMin= 6 ErrMin= 4.56D-04
 ErrMax= 4.56D-04  0.00D+00 EMaxC= 1.00D-01 BMatC= 1.14D-04 BMatP= 9.33D-04
 IDIUse=3 WtCom= 9.95D-01 WtEn= 4.56D-03
 Coeff-Com: -0.337D-01 0.435D-01-0.561D-02 0.147D+00 0.326D+00 0.523D+00
 Coeff-En:   0.000D+00 0.000D+00 0.000D+00 0.000D+00 0.000D+00 0.100D+01
 Coeff:     -0.335D-01 0.433D-01-0.559D-02 0.146D+00 0.325D+00 0.525D+00
 Gap=     0.127 Goal=   None    Shift=    0.000
 RMSDP=3.36D-05 MaxDP=2.40D-03 DE=-6.21D-04 OVMax= 2.27D-03

 Cycle   7  Pass 1  IDiag  1:
 RMSU=  2.56D-05    CP:  9.89D-01  1.44D+00  7.04D-01  9.82D-01  8.08D-01
                    CP:  8.52D-01
 E= -768.323598178474     Delta-E=       -0.000086458398 Rises=F Damp=F
 DIIS: error= 1.62D-04 at cycle   7 NSaved=   7.
 NSaved= 7 IEnMin= 7 EnMin= -768.323598178474     IErMin= 7 ErrMin= 1.62D-04
 ErrMax= 1.62D-04  0.00D+00 EMaxC= 1.00D-01 BMatC= 1.05D-05 BMatP= 1.14D-04
 IDIUse=3 WtCom= 9.98D-01 WtEn= 1.62D-03
 Coeff-Com: -0.740D-02 0.716D-02-0.148D-01 0.262D-01 0.108D+00 0.278D+00
 Coeff-Com:  0.604D+00
 Coeff-En:   0.000D+00 0.000D+00 0.000D+00 0.000D+00 0.000D+00 0.000D+00
 Coeff-En:   0.100D+01
 Coeff:     -0.739D-02 0.715D-02-0.148D-01 0.262D-01 0.107D+00 0.277D+00
 Coeff:      0.604D+00
 Gap=     0.127 Goal=   None    Shift=    0.000
 RMSDP=1.43D-05 MaxDP=6.31D-04 DE=-8.65D-05 OVMax= 9.96D-04

 Cycle   8  Pass 1  IDiag  1:
 RMSU=  7.97D-06    CP:  9.89D-01  1.45D+00  7.04D-01  9.96D-01  8.38D-01
                    CP:  9.21D-01  8.36D-01
 E= -768.323608155961     Delta-E=       -0.000009977487 Rises=F Damp=F
 DIIS: error= 4.02D-05 at cycle   8 NSaved=   8.
 NSaved= 8 IEnMin= 8 EnMin= -768.323608155961     IErMin= 8 ErrMin= 4.02D-05
 ErrMax= 4.02D-05  0.00D+00 EMaxC= 1.00D-01 BMatC= 6.98D-07 BMatP= 1.05D-05
 IDIUse=1 WtCom= 1.00D+00 WtEn= 0.00D+00
 Coeff-Com: -0.155D-03-0.326D-03-0.525D-02-0.739D-02 0.317D-03 0.323D-01
 Coeff-Com:  0.224D+00 0.757D+00
 Coeff:     -0.155D-03-0.326D-03-0.525D-02-0.739D-02 0.317D-03 0.323D-01
 Coeff:      0.224D+00 0.757D+00
 Gap=     0.127 Goal=   None    Shift=    0.000
 RMSDP=5.54D-06 MaxDP=1.35D-04 DE=-9.98D-06 OVMax= 7.48D-04

 Cycle   9  Pass 1  IDiag  1:
 RMSU=  2.96D-06    CP:  9.89D-01  1.44D+00  7.04D-01  1.00D+00  8.49D-01
                    CP:  9.51D-01  9.25D-01  1.00D+00
 E= -768.323608859367     Delta-E=       -0.000000703406 Rises=F Damp=F
 DIIS: error= 1.09D-05 at cycle   9 NSaved=   9.
 NSaved= 9 IEnMin= 9 EnMin= -768.323608859367     IErMin= 9 ErrMin= 1.09D-05
 ErrMax= 1.09D-05  0.00D+00 EMaxC= 1.00D-01 BMatC= 1.30D-07 BMatP= 6.98D-07
 IDIUse=1 WtCom= 1.00D+00 WtEn= 0.00D+00
 Coeff-Com:  0.418D-03-0.570D-03-0.149D-02-0.620D-02-0.101D-01-0.953D-02
 Coeff-Com:  0.584D-01 0.418D+00 0.551D+00
 Coeff:      0.418D-03-0.570D-03-0.149D-02-0.620D-02-0.101D-01-0.953D-02
 Coeff:      0.584D-01 0.418D+00 0.551D+00
 Gap=     0.127 Goal=   None    Shift=    0.000
 RMSDP=1.74D-06 MaxDP=5.18D-05 DE=-7.03D-07 OVMax= 2.00D-04

 Cycle  10  Pass 1  IDiag  1:
 RMSU=  9.67D-07    CP:  9.89D-01  1.44D+00  7.05D-01  1.00D+00  8.52D-01
                    CP:  9.61D-01  9.48D-01  1.08D+00  7.76D-01
 E= -768.323608980399     Delta-E=       -0.000000121032 Rises=F Damp=F
 DIIS: error= 2.45D-06 at cycle  10 NSaved=  10.
 NSaved=10 IEnMin=10 EnMin= -768.323608980399     IErMin=10 ErrMin= 2.45D-06
 ErrMax= 2.45D-06  0.00D+00 EMaxC= 1.00D-01 BMatC= 4.93D-09 BMatP= 1.30D-07
 IDIUse=1 WtCom= 1.00D+00 WtEn= 0.00D+00
 Coeff-Com:  0.243D-03-0.298D-03-0.994D-04-0.166D-02-0.423D-02-0.662D-02
 Coeff-Com: -0.513D-02 0.664D-01 0.172D+00 0.779D+00
 Coeff:      0.243D-03-0.298D-03-0.994D-04-0.166D-02-0.423D-02-0.662D-02
 Coeff:     -0.513D-02 0.664D-01 0.172D+00 0.779D+00
 Gap=     0.127 Goal=   None    Shift=    0.000
 RMSDP=6.40D-07 MaxDP=1.66D-05 DE=-1.21D-07 OVMax= 8.47D-05

 Cycle  11  Pass 1  IDiag  1:
 RMSU=  2.65D-07    CP:  9.89D-01  1.44D+00  7.05D-01  1.00D+00  8.52D-01
                    CP:  9.65D-01  9.56D-01  1.10D+00  8.20D-01  9.73D-01
 E= -768.323608987222     Delta-E=       -0.000000006823 Rises=F Damp=F
 DIIS: error= 8.25D-07 at cycle  11 NSaved=  11.
 NSaved=11 IEnMin=11 EnMin= -768.323608987222     IErMin=11 ErrMin= 8.25D-07
 ErrMax= 8.25D-07  0.00D+00 EMaxC= 1.00D-01 BMatC= 8.36D-10 BMatP= 4.93D-09
 IDIUse=1 WtCom= 1.00D+00 WtEn= 0.00D+00
 Coeff-Com:  0.539D-04-0.577D-04 0.622D-04-0.215D-03-0.110D-02-0.189D-02
 Coeff-Com: -0.684D-02 0.880D-03 0.374D-01 0.377D+00 0.595D+00
 Coeff:      0.539D-04-0.577D-04 0.622D-04-0.215D-03-0.110D-02-0.189D-02
 Coeff:     -0.684D-02 0.880D-03 0.374D-01 0.377D+00 0.595D+00
 Gap=     0.127 Goal=   None    Shift=    0.000
 RMSDP=1.75D-07 MaxDP=4.84D-06 DE=-6.82D-09 OVMax= 1.99D-05

 Cycle  12  Pass 1  IDiag  1:
 RMSU=  1.04D-07    CP:  9.89D-01  1.44D+00  7.05D-01  1.00D+00  8.53D-01
                    CP:  9.65D-01  9.57D-01  1.11D+00  8.41D-01  1.03D+00
                    CP:  7.51D-01
 E= -768.323608988022     Delta-E=       -0.000000000800 Rises=F Damp=F
 DIIS: error= 3.21D-07 at cycle  12 NSaved=  12.
 NSaved=12 IEnMin=12 EnMin= -768.323608988022     IErMin=12 ErrMin= 3.21D-07
 ErrMax= 3.21D-07  0.00D+00 EMaxC= 1.00D-01 BMatC= 8.90D-11 BMatP= 8.36D-10
 IDIUse=1 WtCom= 1.00D+00 WtEn= 0.00D+00
 Coeff-Com:  0.454D-05-0.365D-05 0.408D-04 0.101D-03 0.157D-05 0.519D-04
 Coeff-Com: -0.279D-02-0.899D-02-0.824D-02 0.560D-01 0.272D+00 0.692D+00
 Coeff:      0.454D-05-0.365D-05 0.408D-04 0.101D-03 0.157D-05 0.519D-04
 Coeff:     -0.279D-02-0.899D-02-0.824D-02 0.560D-01 0.272D+00 0.692D+00
 Gap=     0.127 Goal=   None    Shift=    0.000
 RMSDP=6.09D-08 MaxDP=1.75D-06 DE=-8.00D-10 OVMax= 6.95D-06

 Cycle  13  Pass 1  IDiag  1:
 RMSU=  2.69D-08    CP:  9.89D-01  1.44D+00  7.05D-01  1.00D+00  8.53D-01
                    CP:  9.66D-01  9.57D-01  1.11D+00  8.43D-01  1.05D+00
                    CP:  8.53D-01  8.18D-01
 E= -768.323608988161     Delta-E=       -0.000000000139 Rises=F Damp=F
 DIIS: error= 8.49D-08 at cycle  13 NSaved=  13.
 NSaved=13 IEnMin=13 EnMin= -768.323608988161     IErMin=13 ErrMin= 8.49D-08
 ErrMax= 8.49D-08  0.00D+00 EMaxC= 1.00D-01 BMatC= 3.88D-12 BMatP= 8.90D-11
 IDIUse=1 WtCom= 1.00D+00 WtEn= 0.00D+00
 Coeff-Com: -0.222D-05 0.309D-05 0.118D-04 0.543D-04 0.661D-04 0.155D-03
 Coeff-Com: -0.656D-03-0.330D-02-0.539D-02-0.790D-03 0.688D-01 0.265D+00
 Coeff-Com:  0.676D+00
 Coeff:     -0.222D-05 0.309D-05 0.118D-04 0.543D-04 0.661D-04 0.155D-03
 Coeff:     -0.656D-03-0.330D-02-0.539D-02-0.790D-03 0.688D-01 0.265D+00
 Coeff:      0.676D+00
 Gap=     0.127 Goal=   None    Shift=    0.000
 RMSDP=1.18D-08 MaxDP=3.44D-07 DE=-1.39D-10 OVMax= 7.73D-07

 Cycle  14  Pass 1  IDiag  1:
 RMSU=  8.13D-09    CP:  9.89D-01  1.44D+00  7.05D-01  1.00D+00  8.53D-01
                    CP:  9.66D-01  9.57D-01  1.11D+00  8.44D-01  1.05D+00
                    CP:  8.65D-01  8.69D-01  9.09D-01
 E= -768.323608988140     Delta-E=        0.000000000020 Rises=F Damp=F
 DIIS: error= 2.99D-08 at cycle  14 NSaved=  14.
 NSaved=14 IEnMin=13 EnMin= -768.323608988161     IErMin=14 ErrMin= 2.99D-08
 ErrMax= 2.99D-08  0.00D+00 EMaxC= 1.00D-01 BMatC= 5.70D-13 BMatP= 3.88D-12
 IDIUse=1 WtCom= 1.00D+00 WtEn= 0.00D+00
 Coeff-Com: -0.110D-05 0.123D-05 0.119D-06 0.995D-05 0.238D-04 0.594D-04
 Coeff-Com:  0.448D-04-0.304D-03-0.137D-02-0.697D-02-0.228D-02 0.373D-01
 Coeff-Com:  0.308D+00 0.665D+00
 Coeff:     -0.110D-05 0.123D-05 0.119D-06 0.995D-05 0.238D-04 0.594D-04
 Coeff:      0.448D-04-0.304D-03-0.137D-02-0.697D-02-0.228D-02 0.373D-01
 Coeff:      0.308D+00 0.665D+00
 Gap=     0.127 Goal=   None    Shift=    0.000
 RMSDP=3.73D-09 MaxDP=9.41D-08 DE= 2.05D-11 OVMax= 3.08D-07

 Error on total polarization charges =  0.01289
 SCF Done:  E(RB3LYP) =  -768.323608988     A.U. after   14 cycles
            NFock= 14  Conv=0.37D-08     -V/T= 2.0091
 KE= 7.613968270043D+02 PE=-4.063547362615D+03 EE= 1.389393661642D+03
 Leave Link  502 at Fri May 24 08:34:41 2019, MaxMem=   402653184 cpu:             525.8 elap:             131.6
 (Enter /n/sw/g16_nehalem/g16/l601.exe)
 Copying SCF densities to generalized density rwf, IOpCl= 0 IROHF=0.

 **********************************************************************

            Population analysis using the SCF density.

 **********************************************************************

 Orbital symmetries:
       Occupied  (A) (A) (A) (A) (A) (A) (A) (A) (A) (A) (A) (A)
                 (A) (A) (A) (A) (A) (A) (A) (A) (A) (A) (A) (A)
                 (A) (A) (A) (A) (A) (A) (A) (A) (A) (A) (A) (A)
                 (A) (A) (A) (A) (A) (A) (A) (A) (A) (A) (A) (A)
                 (A) (A) (A) (A) (A) (A) (A) (A) (A) (A) (A)
       Virtual   (A) (A) (A) (A) (A) (A) (A) (A) (A) (A) (A) (A)
                 (A) (A) (A) (A) (A) (A) (A) (A) (A) (A) (A) (A)
                 (A) (A) (A) (A) (A) (A) (A) (A) (A) (A) (A) (A)
                 (A) (A) (A) (A) (A) (A) (A) (A) (A) (A) (A) (A)
                 (A) (A) (A) (A) (A) (A) (A) (A) (A) (A) (A) (A)
                 (A) (A) (A) (A) (A) (A) (A) (A) (A) (A) (A) (A)
                 (A) (A) (A) (A) (A) (A) (A) (A) (A) (A) (A) (A)
                 (A) (A) (A) (A) (A) (A) (A) (A) (A) (A) (A) (A)
                 (A) (A) (A) (A) (A) (A) (A) (A) (A) (A) (A) (A)
                 (A) (A) (A) (A) (A) (A) (A) (A) (A) (A) (A) (A)
                 (A) (A) (A) (A) (A) (A) (A) (A) (A) (A) (A) (A)
                 (A) (A) (A) (A) (A) (A) (A) (A) (A) (A) (A) (A)
                 (A) (A) (A) (A) (A) (A) (A) (A) (A) (A) (A) (A)
                 (A) (A) (A) (A) (A) (A) (A) (A) (A) (A) (A) (A)
                 (A) (A) (A) (A) (A) (A) (A) (A) (A) (A) (A) (A)
                 (A) (A) (A) (A) (A) (A) (A) (A) (A) (A) (A) (A)
                 (A) (A) (A) (A) (A) (A) (A) (A) (A) (A) (A) (A)
 The electronic state is 1-A.
 Alpha  occ. eigenvalues --  -19.33070 -19.20859 -19.19838 -19.19538 -19.18379
 Alpha  occ. eigenvalues --  -10.39737 -10.32043 -10.32031 -10.29976 -10.29568
 Alpha  occ. eigenvalues --  -10.27903 -10.25911 -10.25816 -10.25192 -10.24740
 Alpha  occ. eigenvalues --   -1.21781  -1.09736  -1.08308  -1.06771  -1.06564
 Alpha  occ. eigenvalues --   -0.87325  -0.86005  -0.77633  -0.75283  -0.74286
 Alpha  occ. eigenvalues --   -0.71514  -0.69511  -0.68098  -0.65155  -0.62664
 Alpha  occ. eigenvalues --   -0.60741  -0.58902  -0.55764  -0.54955  -0.53850
 Alpha  occ. eigenvalues --   -0.52965  -0.51383  -0.50914  -0.50695  -0.49421
 Alpha  occ. eigenvalues --   -0.48601  -0.47841  -0.46644  -0.45811  -0.45490
 Alpha  occ. eigenvalues --   -0.44677  -0.43271  -0.42192  -0.41826  -0.40641
 Alpha  occ. eigenvalues --   -0.40185  -0.37161  -0.36001  -0.35540  -0.34751
 Alpha  occ. eigenvalues --   -0.32712  -0.31442  -0.29563  -0.27872
 Alpha virt. eigenvalues --   -0.15213   0.00146   0.04402   0.04918   0.06126
 Alpha virt. eigenvalues --    0.07060   0.07658   0.08410   0.09225   0.10579
 Alpha virt. eigenvalues --    0.10683   0.11508   0.11933   0.12339   0.12831
 Alpha virt. eigenvalues --    0.13217   0.13504   0.14220   0.14735   0.14971
 Alpha virt. eigenvalues --    0.15783   0.16016   0.16772   0.17321   0.17798
 Alpha virt. eigenvalues --    0.18635   0.19422   0.20186   0.21096   0.22616
 Alpha virt. eigenvalues --    0.24412   0.25481   0.26659   0.27865   0.28530
 Alpha virt. eigenvalues --    0.43964   0.45120   0.46393   0.47496   0.48273
 Alpha virt. eigenvalues --    0.48484   0.49229   0.50429   0.51291   0.52627
 Alpha virt. eigenvalues --    0.53224   0.53402   0.54078   0.54867   0.56119
 Alpha virt. eigenvalues --    0.56995   0.58486   0.59299   0.60949   0.61589
 Alpha virt. eigenvalues --    0.64414   0.65544   0.67165   0.68314   0.70802
 Alpha virt. eigenvalues --    0.72264   0.73801   0.74520   0.76228   0.77586
 Alpha virt. eigenvalues --    0.78733   0.79585   0.81162   0.81822   0.81995
 Alpha virt. eigenvalues --    0.82747   0.83372   0.84113   0.85216   0.85572
 Alpha virt. eigenvalues --    0.86457   0.86839   0.88340   0.88998   0.91016
 Alpha virt. eigenvalues --    0.91043   0.91751   0.93190   0.95033   0.95506
 Alpha virt. eigenvalues --    0.96353   0.98198   0.98939   0.99688   1.00815
 Alpha virt. eigenvalues --    1.03966   1.04337   1.08653   1.11023   1.12627
 Alpha virt. eigenvalues --    1.13420   1.13887   1.15517   1.19195   1.21219
 Alpha virt. eigenvalues --    1.25535   1.26510   1.28113   1.30279   1.30961
 Alpha virt. eigenvalues --    1.32600   1.33903   1.37104   1.39537   1.43228
 Alpha virt. eigenvalues --    1.43386   1.44431   1.46111   1.48092   1.48791
 Alpha virt. eigenvalues --    1.53907   1.56331   1.57687   1.58270   1.59372
 Alpha virt. eigenvalues --    1.63307   1.65413   1.66331   1.69074   1.72179
 Alpha virt. eigenvalues --    1.74274   1.76724   1.78180   1.79835   1.80911
 Alpha virt. eigenvalues --    1.82737   1.83397   1.84459   1.87900   1.88183
 Alpha virt. eigenvalues --    1.88960   1.91504   1.95130   1.98865   1.99100
 Alpha virt. eigenvalues --    1.99181   2.01418   2.02338   2.02613   2.04523
 Alpha virt. eigenvalues --    2.05419   2.06808   2.09091   2.10210   2.11052
 Alpha virt. eigenvalues --    2.11380   2.12547   2.14246   2.15528   2.15724
 Alpha virt. eigenvalues --    2.18350   2.20327   2.21861   2.22647   2.24008
 Alpha virt. eigenvalues --    2.26164   2.27710   2.29241   2.32774   2.35965
 Alpha virt. eigenvalues --    2.37782   2.38516   2.41663   2.42787   2.47428
 Alpha virt. eigenvalues --    2.50791   2.53586   2.53664   2.55056   2.60571
 Alpha virt. eigenvalues --    2.62212   2.65652   2.71356   2.73641   2.76376
 Alpha virt. eigenvalues --    2.77974   2.80276   2.81057   2.86225   2.91731
 Alpha virt. eigenvalues --    2.93400   2.98009   3.02105   3.07726   3.81550
 Alpha virt. eigenvalues --    3.91113   3.95802   3.98436   4.05383   4.15672
 Alpha virt. eigenvalues --    4.21687   4.23498   4.24309   4.25676   4.28722
 Alpha virt. eigenvalues --    4.37934   4.43335   4.53717   4.63958
          Condensed to atoms (all electrons):
               1          2          3          4          5          6
     1  C    4.989770   0.236140  -0.034440  -0.034206   0.253058   0.002724
     2  C    0.236140   5.172889   0.295893  -0.001980  -0.046742  -0.041307
     3  C   -0.034440   0.295893   4.776353  -0.036924   0.003969   0.356398
     4  C   -0.034206  -0.001980  -0.036924   5.157422   0.269469   0.002971
     5  C    0.253058  -0.046742   0.003969   0.269469   5.111190  -0.000220
     6  H    0.002724  -0.041307   0.356398   0.002971  -0.000220   0.428051
     7  H   -0.035142   0.335476  -0.034787   0.000712  -0.001891   0.000554
     8  H    0.376814  -0.043353  -0.003459  -0.003451  -0.042065  -0.000126
     9  H   -0.005073   0.001081  -0.000797   0.364966  -0.035646  -0.000166
    10  H   -0.051887  -0.000528   0.000478  -0.045283   0.353694  -0.000017
    11  O    0.003673  -0.031182   0.394731   0.118384  -0.023689  -0.034315
    12  O   -0.033954   0.181929  -0.030413  -0.000058   0.003228   0.005853
    13  O    0.273599  -0.039153   0.002484   0.002127  -0.037890  -0.000038
    14  O   -0.033488   0.003235  -0.000108  -0.034883   0.187585   0.000003
    15  C    0.002000  -0.000315   0.002047   0.319360  -0.020678  -0.000144
    16  H   -0.000162  -0.000040   0.001019  -0.043808  -0.002791  -0.000018
    17  H    0.000390  -0.000041   0.000038  -0.055993   0.004387   0.000006
    18  O   -0.000040  -0.000011   0.000269  -0.044091   0.002412   0.000024
    19  C   -0.000661  -0.027009   0.002773  -0.000009  -0.000052   0.000107
    20  H   -0.000132   0.004631  -0.000150   0.000000   0.000003  -0.000045
    21  H   -0.000103  -0.010036   0.000098  -0.000002   0.000045  -0.000084
    22  H    0.001105  -0.003919   0.000123  -0.000001  -0.000033   0.000033
    23  C   -0.044240  -0.006819   0.000287   0.000250  -0.006577  -0.000003
    24  H   -0.006950   0.005022  -0.000464   0.000034  -0.001111   0.000014
    25  H   -0.005109  -0.001196   0.000071  -0.000241   0.004761   0.000000
    26  H    0.004971  -0.000008  -0.000001  -0.000002  -0.000020   0.000000
    27  C   -0.001939  -0.000018   0.000000   0.003486  -0.028610   0.000000
    28  H   -0.000434   0.000060  -0.000003   0.000096  -0.011040   0.000000
    29  H    0.001697  -0.000068  -0.000002  -0.000019  -0.004089   0.000000
    30  H   -0.000112   0.000005   0.000000  -0.000176   0.004744   0.000000
    31  C   -0.000003   0.000000  -0.000008  -0.004051   0.000011   0.000000
    32  H    0.000000   0.000000   0.000001  -0.001267   0.000081   0.000000
    33  H    0.000000   0.000000  -0.000001  -0.000104   0.000002   0.000000
    34  H    0.000013   0.000000  -0.000001   0.004420  -0.000383   0.000000
               7          8          9         10         11         12
     1  C   -0.035142   0.376814  -0.005073  -0.051887   0.003673  -0.033954
     2  C    0.335476  -0.043353   0.001081  -0.000528  -0.031182   0.181929
     3  C   -0.034787  -0.003459  -0.000797   0.000478   0.394731  -0.030413
     4  C    0.000712  -0.003451   0.364966  -0.045283   0.118384  -0.000058
     5  C   -0.001891  -0.042065  -0.035646   0.353694  -0.023689   0.003228
     6  H    0.000554  -0.000126  -0.000166  -0.000017  -0.034315   0.005853
     7  H    0.517956   0.004801  -0.000012   0.002506  -0.000277  -0.026085
     8  H    0.004801   0.537855   0.002883   0.005379   0.000913   0.000896
     9  H   -0.000012   0.002883   0.476384   0.005486  -0.028478  -0.000003
    10  H    0.002506   0.005379   0.005486   0.582883   0.000667  -0.000058
    11  O   -0.000277   0.000913  -0.028478   0.000667   7.935652   0.001289
    12  O   -0.026085   0.000896  -0.000003  -0.000058   0.001289   8.240315
    13  O   -0.005165  -0.039596  -0.000028  -0.003037   0.000016   0.002349
    14  O   -0.000044   0.001262   0.005544  -0.033973   0.001159  -0.000010
    15  C    0.000056  -0.000038  -0.033902  -0.003985  -0.037646   0.000000
    16  H    0.000000   0.000005   0.004018   0.004760  -0.003267   0.000000
    17  H   -0.000005  -0.000012  -0.001906  -0.000590   0.002891   0.000000
    18  O    0.000000   0.000001  -0.002509   0.000069   0.001555   0.000000
    19  C   -0.007232  -0.000191   0.000000  -0.000004  -0.000044   0.226464
    20  H   -0.000054  -0.000018   0.000000   0.000000   0.000001  -0.030325
    21  H    0.009266   0.000034   0.000000  -0.000001  -0.000011  -0.032326
    22  H   -0.000246   0.000007   0.000000   0.000002   0.000004  -0.034598
    23  C    0.003728   0.005555   0.000000   0.002757   0.000001  -0.000011
    24  H    0.004754  -0.000190   0.000000  -0.000225   0.000003  -0.000225
    25  H   -0.000467  -0.000211  -0.000004   0.002098  -0.000002   0.000019
    26  H   -0.000112  -0.000116   0.000000  -0.000035   0.000000  -0.000010
    27  C   -0.000012  -0.000105  -0.000180  -0.006439  -0.000042   0.000000
    28  H    0.000001   0.000055   0.000090   0.011806  -0.000002   0.000000
    29  H    0.000002  -0.000106  -0.000003  -0.001329   0.000003   0.000001
    30  H    0.000000  -0.000014  -0.000015   0.000013   0.000000   0.000000
    31  C    0.000000   0.000000   0.003341   0.000013  -0.000001   0.000000
    32  H    0.000000   0.000000  -0.000064   0.000004   0.000004   0.000000
    33  H    0.000000   0.000000  -0.000141   0.000000  -0.000003   0.000000
    34  H    0.000000  -0.000002   0.002740  -0.000013   0.000092   0.000000
              13         14         15         16         17         18
     1  C    0.273599  -0.033488   0.002000  -0.000162   0.000390  -0.000040
     2  C   -0.039153   0.003235  -0.000315  -0.000040  -0.000041  -0.000011
     3  C    0.002484  -0.000108   0.002047   0.001019   0.000038   0.000269
     4  C    0.002127  -0.034883   0.319360  -0.043808  -0.055993  -0.044091
     5  C   -0.037890   0.187585  -0.020678  -0.002791   0.004387   0.002412
     6  H   -0.000038   0.000003  -0.000144  -0.000018   0.000006   0.000024
     7  H   -0.005165  -0.000044   0.000056   0.000000  -0.000005   0.000000
     8  H   -0.039596   0.001262  -0.000038   0.000005  -0.000012   0.000001
     9  H   -0.000028   0.005544  -0.033902   0.004018  -0.001906  -0.002509
    10  H   -0.003037  -0.033973  -0.003985   0.004760  -0.000590   0.000069
    11  O    0.000016   0.001159  -0.037646  -0.003267   0.002891   0.001555
    12  O    0.002349  -0.000010   0.000000   0.000000   0.000000   0.000000
    13  O    8.185854   0.001662  -0.000022   0.000001   0.000000   0.000000
    14  O    0.001662   8.250985  -0.003928   0.000273   0.006594   0.000003
    15  C   -0.000022  -0.003928   4.883984   0.376212   0.360492   0.257372
    16  H    0.000001   0.000273   0.376212   0.533524  -0.026537  -0.035537
    17  H    0.000000   0.006594   0.360492  -0.026537   0.548966  -0.028460
    18  O    0.000000   0.000003   0.257372  -0.035537  -0.028460   8.177070
    19  C   -0.001505   0.000000   0.000000   0.000000   0.000000   0.000000
    20  H    0.000041   0.000000   0.000000   0.000000   0.000000   0.000000
    21  H    0.000118   0.000000   0.000000   0.000000   0.000000   0.000000
    22  H    0.005413   0.000000   0.000000   0.000000   0.000000   0.000000
    23  C    0.229771   0.000002  -0.000001  -0.000002  -0.000001   0.000000
    24  H   -0.036385   0.000016  -0.000001   0.000000   0.000000   0.000000
    25  H   -0.035826  -0.000122   0.000012  -0.000008   0.000002   0.000000
    26  H   -0.031040  -0.000008   0.000000   0.000000   0.000000   0.000000
    27  C   -0.001439   0.231201   0.000068   0.000001   0.000004   0.000001
    28  H    0.000151  -0.033690   0.000124  -0.000033   0.000045   0.000000
    29  H    0.006332  -0.034401  -0.000019   0.000002   0.000064   0.000000
    30  H    0.000085  -0.032080   0.000016   0.000000  -0.000059   0.000000
    31  C    0.000000  -0.000025  -0.046190   0.005653  -0.007920   0.244296
    32  H    0.000000  -0.000016  -0.009444   0.000257   0.011167  -0.035271
    33  H    0.000000   0.000000   0.005300  -0.000200  -0.000086  -0.031382
    34  H    0.000000   0.000018  -0.003322  -0.000360  -0.000811  -0.038082
              19         20         21         22         23         24
     1  C   -0.000661  -0.000132  -0.000103   0.001105  -0.044240  -0.006950
     2  C   -0.027009   0.004631  -0.010036  -0.003919  -0.006819   0.005022
     3  C    0.002773  -0.000150   0.000098   0.000123   0.000287  -0.000464
     4  C   -0.000009   0.000000  -0.000002  -0.000001   0.000250   0.000034
     5  C   -0.000052   0.000003   0.000045  -0.000033  -0.006577  -0.001111
     6  H    0.000107  -0.000045  -0.000084   0.000033  -0.000003   0.000014
     7  H   -0.007232  -0.000054   0.009266  -0.000246   0.003728   0.004754
     8  H   -0.000191  -0.000018   0.000034   0.000007   0.005555  -0.000190
     9  H    0.000000   0.000000   0.000000   0.000000   0.000000   0.000000
    10  H   -0.000004   0.000000  -0.000001   0.000002   0.002757  -0.000225
    11  O   -0.000044   0.000001  -0.000011   0.000004   0.000001   0.000003
    12  O    0.226464  -0.030325  -0.032326  -0.034598  -0.000011  -0.000225
    13  O   -0.001505   0.000041   0.000118   0.005413   0.229771  -0.036385
    14  O    0.000000   0.000000   0.000000   0.000000   0.000002   0.000016
    15  C    0.000000   0.000000   0.000000   0.000000  -0.000001  -0.000001
    16  H    0.000000   0.000000   0.000000   0.000000  -0.000002   0.000000
    17  H    0.000000   0.000000   0.000000   0.000000  -0.000001   0.000000
    18  O    0.000000   0.000000   0.000000   0.000000   0.000000   0.000000
    19  C    4.915688   0.384775   0.368826   0.369695  -0.000506   0.001766
    20  H    0.384775   0.502251  -0.026784  -0.028473   0.000040  -0.000016
    21  H    0.368826  -0.026784   0.560571  -0.040157  -0.000214   0.000130
    22  H    0.369695  -0.028473  -0.040157   0.549417  -0.000776  -0.000815
    23  C   -0.000506   0.000040  -0.000214  -0.000776   4.945834   0.362848
    24  H    0.001766  -0.000016   0.000130  -0.000815   0.362848   0.586270
    25  H    0.000018   0.000000   0.000006   0.000185   0.365681  -0.045545
    26  H   -0.000010  -0.000001   0.000002   0.000078   0.388249  -0.028716
    27  C    0.000000   0.000000   0.000000   0.000000  -0.000603   0.000039
    28  H    0.000000   0.000000   0.000000   0.000000  -0.000428   0.000008
    29  H    0.000000   0.000000   0.000000   0.000000  -0.001057   0.000236
    30  H    0.000000   0.000000   0.000000   0.000000   0.000057   0.000000
    31  C    0.000000   0.000000   0.000000   0.000000   0.000000   0.000000
    32  H    0.000000   0.000000   0.000000   0.000000   0.000000   0.000000
    33  H    0.000000   0.000000   0.000000   0.000000   0.000000   0.000000
    34  H    0.000000   0.000000   0.000000   0.000000   0.000000   0.000000
              25         26         27         28         29         30
     1  C   -0.005109   0.004971  -0.001939  -0.000434   0.001697  -0.000112
     2  C   -0.001196  -0.000008  -0.000018   0.000060  -0.000068   0.000005
     3  C    0.000071  -0.000001   0.000000  -0.000003  -0.000002   0.000000
     4  C   -0.000241  -0.000002   0.003486   0.000096  -0.000019  -0.000176
     5  C    0.004761  -0.000020  -0.028610  -0.011040  -0.004089   0.004744
     6  H    0.000000   0.000000   0.000000   0.000000   0.000000   0.000000
     7  H   -0.000467  -0.000112  -0.000012   0.000001   0.000002   0.000000
     8  H   -0.000211  -0.000116  -0.000105   0.000055  -0.000106  -0.000014
     9  H   -0.000004   0.000000  -0.000180   0.000090  -0.000003  -0.000015
    10  H    0.002098  -0.000035  -0.006439   0.011806  -0.001329   0.000013
    11  O   -0.000002   0.000000  -0.000042  -0.000002   0.000003   0.000000
    12  O    0.000019  -0.000010   0.000000   0.000000   0.000001   0.000000
    13  O   -0.035826  -0.031040  -0.001439   0.000151   0.006332   0.000085
    14  O   -0.000122  -0.000008   0.231201  -0.033690  -0.034401  -0.032080
    15  C    0.000012   0.000000   0.000068   0.000124  -0.000019   0.000016
    16  H   -0.000008   0.000000   0.000001  -0.000033   0.000002   0.000000
    17  H    0.000002   0.000000   0.000004   0.000045   0.000064  -0.000059
    18  O    0.000000   0.000000   0.000001   0.000000   0.000000   0.000000
    19  C    0.000018  -0.000010   0.000000   0.000000   0.000000   0.000000
    20  H    0.000000  -0.000001   0.000000   0.000000   0.000000   0.000000
    21  H    0.000006   0.000002   0.000000   0.000000   0.000000   0.000000
    22  H    0.000185   0.000078   0.000000   0.000000   0.000000   0.000000
    23  C    0.365681   0.388249  -0.000603  -0.000428  -0.001057   0.000057
    24  H   -0.045545  -0.028716   0.000039   0.000008   0.000236   0.000000
    25  H    0.578158  -0.029222   0.001473   0.000598  -0.000841  -0.000036
    26  H   -0.029222   0.499411   0.000004   0.000011  -0.000010  -0.000002
    27  C    0.001473   0.000004   4.910461   0.367347   0.368886   0.384077
    28  H    0.000598   0.000011   0.367347   0.573062  -0.042152  -0.027385
    29  H   -0.000841  -0.000010   0.368886  -0.042152   0.561244  -0.030295
    30  H   -0.000036  -0.000002   0.384077  -0.027385  -0.030295   0.515946
    31  C    0.000000   0.000000   0.000000   0.000000   0.000000   0.000000
    32  H    0.000000   0.000000   0.000001   0.000001   0.000000   0.000000
    33  H    0.000000   0.000000   0.000000   0.000000   0.000000   0.000000
    34  H    0.000000   0.000000  -0.000001   0.000000   0.000000   0.000000
              31         32         33         34
     1  C   -0.000003   0.000000   0.000000   0.000013
     2  C    0.000000   0.000000   0.000000   0.000000
     3  C   -0.000008   0.000001  -0.000001  -0.000001
     4  C   -0.004051  -0.001267  -0.000104   0.004420
     5  C    0.000011   0.000081   0.000002  -0.000383
     6  H    0.000000   0.000000   0.000000   0.000000
     7  H    0.000000   0.000000   0.000000   0.000000
     8  H    0.000000   0.000000   0.000000  -0.000002
     9  H    0.003341  -0.000064  -0.000141   0.002740
    10  H    0.000013   0.000004   0.000000  -0.000013
    11  O   -0.000001   0.000004  -0.000003   0.000092
    12  O    0.000000   0.000000   0.000000   0.000000
    13  O    0.000000   0.000000   0.000000   0.000000
    14  O   -0.000025  -0.000016   0.000000   0.000018
    15  C   -0.046190  -0.009444   0.005300  -0.003322
    16  H    0.005653   0.000257  -0.000200  -0.000360
    17  H   -0.007920   0.011167  -0.000086  -0.000811
    18  O    0.244296  -0.035271  -0.031382  -0.038082
    19  C    0.000000   0.000000   0.000000   0.000000
    20  H    0.000000   0.000000   0.000000   0.000000
    21  H    0.000000   0.000000   0.000000   0.000000
    22  H    0.000000   0.000000   0.000000   0.000000
    23  C    0.000000   0.000000   0.000000   0.000000
    24  H    0.000000   0.000000   0.000000   0.000000
    25  H    0.000000   0.000000   0.000000   0.000000
    26  H    0.000000   0.000000   0.000000   0.000000
    27  C    0.000000   0.000001   0.000000  -0.000001
    28  H    0.000000   0.000001   0.000000   0.000000
    29  H    0.000000   0.000000   0.000000   0.000000
    30  H    0.000000   0.000000   0.000000   0.000000
    31  C    4.910953   0.369425   0.387091   0.362574
    32  H    0.369425   0.577872  -0.028861  -0.045291
    33  H    0.387091  -0.028861   0.517918  -0.031759
    34  H    0.362574  -0.045291  -0.031759   0.595118
 Mulliken charges:
               1
     1  C    0.142122
     2  C    0.017363
     3  C    0.304523
     4  C    0.062849
     5  C    0.064885
     6  H    0.279746
     7  H    0.231720
     8  H    0.196593
     9  H    0.242394
    10  H    0.174788
    11  O   -0.302081
    12  O   -0.474266
    13  O   -0.478877
    14  O   -0.482768
    15  C   -0.047407
    16  H    0.187038
    17  H    0.187374
    18  O   -0.467687
    19  C   -0.232888
    20  H    0.194257
    21  H    0.170624
    22  H    0.182955
    23  C   -0.243820
    24  H    0.159502
    25  H    0.165749
    26  H    0.196587
    27  C   -0.227662
    28  H    0.161713
    29  H    0.175924
    30  H    0.185232
    31  C   -0.225160
    32  H    0.161402
    33  H    0.182225
    34  H    0.155051
 Sum of Mulliken charges =   1.00000
 Mulliken charges with hydrogens summed into heavy atoms:
               1
     1  C    0.338715
     2  C    0.249083
[...]
 0,-0.00009308,-0.00005040,0.00006982,-0.00004436,-0.00003180,-0.000016
 76,0.00001533,0.00000551,-0.00000502,0.00000232,0.00001025,-0.00005971
 ,0.00000063,-0.00000096,-0.00103909,-0.00039498,0.00084020,0.00015528,
 0.00008498,-0.00010767,-0.00029594,-0.00017552,0.00041369,0.00002899,-
 0.00001825,0.00000906,0.04186736,-0.05797686,0.00958349,-0.00071493,0.
 00275036,0.00139606,-0.05829685,0.07107233,0.00016926,0.00002144,0.000
 23040,-0.00000798,-0.00001398,-0.00006714,0.00005185,0.00010056,-0.000
 00838,-0.00002109,0.00022350,-0.00005328,0.00015324,0.00135441,-0.0005
 0705,-0.00001414,0.00000168,-0.00000667,-0.00000977,0.00004549,-0.0000
 2146,0.00003347,-0.00005355,-0.00004831,-0.00005027,-0.00001650,0.0000
 5888,-0.00034201,-0.00027940,-0.00013906,-0.00002826,-0.00036289,0.000
 10477,-0.00018558,-0.00012703,0.00000174,-0.00019006,-0.00002544,-0.00
 035471,0.01499266,-0.00952535,0.00303655,-0.00007104,0.00001586,-0.000
 05625,-0.00000140,-0.00004014,0.00002274,-0.00005196,-0.00003620,-0.00
 007500,0.00013735,-0.00002587,0.00000997,0.00007020,-0.00001291,-0.000
 04300,-0.00001437,-0.00001061,0.00000139,-0.00001128,0.00000721,0.0000
 0458,0.00001096,0.00000846,0.00001961,0.00057036,0.00061771,0.00038776
 ,-0.00012224,-0.00018750,-0.00016921,0.00026772,0.00035285,-0.00066693
 ,0.00000672,-0.00000584,-0.00002668,-0.03586833,0.00944501,-0.05972821
 ,-0.03122938,0.00608327,-0.00224386,0.03324953,-0.00385578,0.05637443,
 -0.00036371,0.00098502,0.00000213,0.00018164,-0.00018664,0.00006499,-0
 .00021065,-0.00002820,0.00003886,0.00029085,0.00004803,-0.00017250,0.0
 0085176,0.00325248,-0.00016469,0.00001829,-0.00000762,-0.00001638,-0.0
 0000822,0.00004412,-0.00000954,0.00002930,-0.00003091,-0.00001499,0.00
 001278,0.00000169,0.00003789,-0.00013317,-0.00006731,0.00004804,0.0000
 5370,0.00023575,0.00001643,-0.00000885,0.00002697,-0.00000735,-0.00048
 883,-0.00086837,0.00014572,0.00690659,0.00627913,-0.00571536,0.0000073
 0,0.00003589,-0.00002435,-0.00000674,-0.00000582,0.00000760,-0.0000224
 0,0.00000075,-0.00002852,0.00002010,-0.00002892,0.00000384,-0.00000726
 ,0.00002168,-0.00000713,0.00000055,-0.00001252,-0.00000206,-0.00000067
 ,0.00000185,-0.00000062,0.00002296,-0.00000472,0.00000667,0.00041094,-
 0.00002290,-0.00007078,-0.00010584,-0.00012050,-0.00004931,-0.00012418
 ,0.00002295,-0.00029792,0.00000386,0.00001856,-0.00001836,-0.14318200,
 -0.09884840,0.08808927,0.00658374,0.00695079,-0.00570545,-0.01502392,-
 0.01920068,0.01854530,0.14429880,0.00060097,-0.00114416,0.00065890,-0.
 00016914,0.00024209,-0.00012612,0.00022888,0.00029980,-0.00002304,-0.0
 0119774,0.00010650,0.00064938,0.00115941,-0.00318277,-0.00388213,-0.00
 003882,-0.00001005,-0.00003929,0.00000141,0.00002756,-0.00002087,0.000
 01774,-0.00000372,-0.00000210,-0.00001967,0.00000838,-0.00005222,0.000
 09248,0.00000599,0.00008008,0.00013439,-0.00097294,0.00002121,-0.00035
 972,-0.00030826,0.00001060,-0.00032303,0.00046075,0.00008003,-0.015031
 96,-0.03475582,0.01606616,-0.00028420,0.00000163,-0.00016119,0.0000172
 9,-0.00001517,0.00001069,-0.00002540,0.00000317,-0.00002419,0.00033611
 ,-0.00007508,-0.00003529,0.00019215,-0.00005309,-0.00009608,-0.0000401
 3,-0.00000165,0.00000934,-0.00002142,0.00000389,0.00001992,-0.00001305
 ,0.00002059,0.00001476,0.00002156,-0.00002464,-0.00036883,0.00006429,0
 .00003778,0.00006828,0.00003171,-0.00003177,0.00018706,-0.00002028,0.0
 0001184,0.00003329,-0.09088892,-0.14589503,0.08935188,0.00156005,0.003
 39297,-0.00017617,0.00256229,0.00671574,-0.00368727,0.10150106,0.17518
 139,-0.00000431,-0.00015093,0.00030796,-0.00008105,-0.00004556,0.00001
 278,0.00000500,0.00006836,0.00000786,-0.00038400,-0.00005854,0.0004771
 5,-0.00003831,-0.00264701,-0.00019530,-0.00000907,-0.00000164,-0.00002
 235,-0.00000219,0.00001460,-0.00001260,0.00004410,0.00000572,0.0000166
 6,-0.00003462,0.00004193,-0.00003890,-0.00006870,-0.00026432,0.0004565
 7,0.00011781,-0.00015793,-0.00003076,-0.00003816,-0.00004412,0.0000034
 8,-0.00012071,0.00002453,0.00002499,-0.00755346,-0.01244101,0.00835784
 ,0.00001559,-0.00000887,-0.00004939,-0.00000779,-0.00001827,0.00000202
 ,0.00002523,0.00000602,-0.00001050,-0.00000163,-0.00000054,0.00001418,
 0.00002180,-0.00001921,-0.00001115,-0.00000764,0.00000288,0.00000369,-
 0.00000301,-0.00000095,0.00000198,-0.00000407,0.00000473,-0.00000090,-
 0.00011260,-0.00012508,-0.00030644,0.00006530,0.00003803,0.00004102,-0
 .00007655,0.00001839,0.00015840,0.00005505,0.00003120,0.00002923,0.088
 10246,0.09932586,-0.13930578,0.01825108,0.01861756,-0.01453588,-0.0034
 5709,-0.00357609,0.00393230,-0.09470926,-0.09864901,0.14067269,-0.0006
 2115,-0.00026576,-0.00047111,-0.00021034,-0.00047316,-0.00020558,-0.00
 157652,-0.00005830,0.00001688,-0.00004481,-0.00211315,0.00095340,0.000
 98213,0.00177466,0.00042958,0.00013669,-0.00002628,-0.00014676,0.00010
 406,-0.00001129,0.00012024,-0.00001041,0.00001991,0.00002680,-0.000640
 71,0.00040920,-0.00039291,-0.00012366,-0.00001121,-0.00014686,0.001294
 08,0.00032132,0.00043129,0.00058751,0.00020325,0.00006375,0.00091544,-
 0.00037909,-0.00006454,0.00011426,-0.00070608,0.00013424,-0.03851051,-
 0.00230459,0.02577145,0.00022592,0.00003974,-0.00158436,0.00515084,-0.
 00304246,-0.00102466,-0.12903330,-0.01017583,0.05962300,-0.00031953,-0
 .00003076,0.00019291,0.00005483,0.00001402,-0.00000186,0.00001311,-0.0
 0001107,-0.00003617,0.00004173,-0.00001551,-0.00003860,-0.00012103,0.0
 0011133,0.00031087,0.00000301,-0.00000319,-0.00004650,-0.00003268,0.00
 001255,-0.00003439,0.00004044,-0.00002979,-0.00002521,-0.00006947,0.00
 067254,0.00021534,0.00002524,-0.00002086,-0.00005153,0.00005487,-0.000
 09724,-0.00005254,-0.00000472,-0.00012246,0.00001735,0.54176852,-0.000
 34197,-0.00022224,-0.00018566,-0.00014503,-0.00024014,-0.00006404,-0.0
 0071852,0.00004254,-0.00002323,0.00093609,-0.00126716,-0.00132814,0.00
 076111,0.00100424,0.00030470,0.00006417,-0.00000688,-0.00008923,0.0000
 3327,0.00000002,0.00005199,0.00002348,0.00002371,0.00002599,-0.0000297
 8,0.00017929,0.00007336,-0.00014221,0.00007429,0.00007768,0.00048568,0
 .00005146,0.00027309,0.00026645,0.00010865,0.00003032,0.00050084,-0.00
 019709,-0.00002905,-0.00007327,-0.00048916,0.00013003,0.01837952,0.003
 42632,-0.02138687,0.00548142,-0.00311357,-0.00209563,0.00446312,0.0017
 6398,-0.00245300,-0.04198163,-0.10320380,0.05669902,-0.00014887,-0.000
 00699,0.00008430,0.00002532,0.00000715,-0.00000160,0.00000737,-0.00000
 516,-0.00001508,0.00001614,-0.00000910,-0.00001718,-0.00006994,0.00005
 136,0.00016392,0.00000103,0.00000010,-0.00002490,-0.00001481,0.0000110
 6,-0.00002075,0.00002345,-0.00001393,-0.00001306,-0.00004297,0.0003477
 4,0.00013311,0.00003058,-0.00001135,-0.00003506,0.00002277,-0.00005005
 ,-0.00002977,0.00000444,-0.00007694,0.00001526,-0.05402576,0.59723046,
 0.00043715,0.00058611,0.00048776,0.00016635,0.00032901,0.00012369,0.00
 134577,0.00037347,-0.00012542,-0.00351264,0.00402324,0.00430334,-0.001
 85447,-0.00165617,-0.00113064,-0.00011704,-0.00001493,0.00023172,-0.00
 004766,0.00001166,-0.00007754,-0.00003411,-0.00003964,-0.00006533,-0.0
 0119008,0.00010304,0.00004870,0.00026003,-0.00014114,-0.00011042,-0.00
 119217,-0.00068882,-0.00095792,-0.00043819,-0.00018047,-0.00006461,-0.
 00089082,0.00028053,-0.00002410,-0.00008762,0.00059311,-0.00032243,0.0
 1681040,-0.00699755,-0.01467490,0.00039890,-0.00098133,0.00141235,-0.0
 0183150,0.00384951,0.00049134,0.07132287,0.03413811,-0.13333451,0.0002
 2120,0.00000791,-0.00012794,-0.00004434,-0.00001274,0.00000322,-0.0000
 1122,0.00000969,0.00001868,-0.00002137,0.00001424,0.00002780,0.0001237
 1,-0.00007672,-0.00026268,-0.00000181,-0.00000380,0.00004106,0.0000248
 4,-0.00001808,0.00003148,-0.00003433,0.00002393,0.00002304,0.00010724,
 -0.00051707,-0.00015013,0.00000085,-0.00000718,0.00000078,-0.00005290,
 0.00006017,0.00003150,0.00001085,0.00011372,0.00000394,0.05283445,0.02
 896250,0.51884416,0.00007922,0.00005231,0.00007121,0.00002291,0.000055
 09,0.00003895,0.00021086,0.00008434,-0.00002163,-0.00044933,0.00054374
 ,-0.00015846,-0.00022995,-0.00032425,-0.00012881,-0.00000603,0.0000034
 7,-0.00000505,-0.00001654,0.00000189,-0.00001647,0.00000576,-0.0000036
 2,-0.00000306,0.00014623,-0.00005690,0.00002939,-0.00000091,0.00001738
 ,0.00001027,-0.00002116,0.00014518,0.00011520,-0.00008416,-0.00002465,
 -0.00000929,-0.00013660,0.00006084,0.00000910,0.00005662,0.00012522,-0
 .00002027,0.00366902,-0.00605911,-0.00173664,0.00007357,0.00014324,0.0
 0001332,0.00014838,0.00138806,-0.00002547,-0.02016076,-0.02162185,0.00
 696632,0.00004440,0.00000519,-0.00002772,-0.00000741,-0.00000187,0.000
 00032,-0.00000166,0.00000127,0.00000523,-0.00000658,0.00000212,0.00000
 540,0.00001335,-0.00001745,-0.00004537,-0.00000016,0.00000139,0.000006
 34,0.00000411,-0.00000089,0.00000621,-0.00000551,0.00000426,0.00000438
 ,-0.00000155,-0.00006668,-0.00002945,-0.00000704,0.00000462,0.00000942
 ,-0.00000106,0.00000935,0.00000611,-0.00000377,0.00002243,-0.00000372,
 -0.09564144,-0.08430879,-0.03742793,0.10460829,0.00011802,0.00000892,0
 .00007127,0.00003826,0.00009899,0.00003169,0.00034795,0.00002657,-0.00
 001887,-0.00036255,-0.00004951,0.00007676,-0.00010550,-0.00028135,-0.0
 0009268,-0.00001963,0.00000391,0.00004469,-0.00002074,0.00000048,-0.00
 002349,0.00000026,-0.00000311,-0.00000455,0.00000730,-0.00001472,0.000
 01363,0.00003481,0.00000532,0.00000686,-0.00018513,0.00001825,-0.00012
 682,-0.00012029,-0.00003848,-0.00001015,-0.00016201,0.00008099,0.00002
 072,-0.00002886,0.00017233,-0.00003949,0.00409676,0.00113050,-0.000282
 65,-0.00015801,0.00044134,0.00013269,-0.00166317,0.00044110,0.00043497
 ,-0.01263006,-0.00890860,0.00705691,0.00006717,0.00000628,-0.00004066,
 -0.00001060,-0.00000279,0.00000044,-0.00000257,0.00000184,0.00000784,-
 0.00000937,0.00000360,0.00000780,0.00002176,-0.00002328,-0.00005954,-0
 .00000057,0.00000097,0.00000842,0.00000601,-0.00000154,0.00000658,-0.0
 0000778,0.00000598,0.00000461,0.00001780,-0.00013403,-0.00005189,-0.00
 000369,0.00000273,0.00001238,-0.00001124,0.00001845,0.00001099,0.00000
 111,0.00002284,-0.00000304,-0.08694415,-0.23314072,-0.07312298,0.10452
 826,0.25205424,-0.00003051,-0.00007924,-0.00005033,-0.00000251,-0.0000
 1134,-0.00003225,-0.00010127,-0.00010900,0.00001824,0.00002152,-0.0005
 6517,-0.00056544,0.00019915,0.00010120,0.00019323,0.00000660,0.0000027
 9,0.,0.00000533,-0.00000571,0.00000602,0.00000293,0.00000255,0.0000072
 6,0.00013355,-0.00005897,0.00006511,-0.00002282,0.00003253,0.00001343,
 0.00010126,0.00008663,0.00004460,0.00003153,0.00001798,0.00000653,0.00
 008087,-0.00001201,0.00000494,0.00005307,-0.00001028,0.00000689,-0.002
 63248,0.00440065,0.00178576,-0.00020073,0.00023312,0.00001491,-0.00071
 782,-0.00087217,0.00054155,0.02225018,0.02600950,0.00247794,-0.0000135
 3,0.,0.00000876,0.00000402,0.00000086,-0.00000032,0.00000077,-0.000000
 77,-0.00000115,0.00000024,-0.00000063,-0.00000179,-0.00001310,0.000004
 28,0.00002307,0.00000079,0.00000205,-0.00000360,-0.00000187,0.00000097
 ,-0.00000156,0.00000207,-0.00000201,-0.00000198,-0.00001705,0.00003854
 ,0.00001822,-0.00000279,-0.00000040,0.00000191,0.00001017,-0.00000289,
 -0.00000271,-0.00000579,0.00000129,-0.00000512,-0.03835441,-0.07728103
 ,-0.08236017,0.03225105,0.07358060,0.08523322,0.00013237,0.00005965,0.
 00006346,0.00004739,0.00008635,0.00003781,0.00027162,0.00000126,-0.000
 00842,0.00020264,0.00054097,0.00039031,-0.00017553,-0.00025990,-0.0000
 9292,-0.00003400,0.00000519,0.00001612,-0.00001685,0.00000397,-0.00002
 037,-0.00000218,-0.00000772,-0.00000684,0.00027071,-0.00003310,-0.0000
 1830,0.00001992,-0.00000291,-0.00002551,-0.00029147,-0.00010629,0.0000
 0926,-0.00010842,-0.00004952,-0.00001243,-0.00017431,0.00006313,0.0000
 1452,-0.00004186,0.00016072,-0.00004236,-0.00046962,-0.00301622,0.0026
 1661,-0.00106415,0.00067622,0.00022624,-0.00005242,0.00013427,0.000014
 78,-0.02289394,0.01503280,0.00916419,0.00005703,0.00000501,-0.00003432
 ,-0.00001086,-0.00000245,0.00000025,-0.00000286,0.00000243,0.00000698,
 -0.00000601,0.00000239,0.00000706,0.00002936,-0.00001305,-0.00005527,-
 0.00000168,-0.00000195,0.00000903,0.00000277,-0.00000403,0.00000539,-0
 .00000865,0.00000511,0.00000451,0.00002096,-0.00013183,-0.00004700,-0.
 00000546,0.00000408,0.00000966,-0.00001406,0.00002015,0.00001040,0.000
 00254,0.00002122,-0.00000199,-0.17340687,0.13244575,0.01064577,0.01243
 040,-0.00988988,-0.00132907,0.19391939,-0.00000804,0.00003552,-0.00001
 473,-0.00000036,-0.00001778,-0.00001167,-0.00007520,0.00001438,0.00000
 981,-0.00008757,0.00013360,0.00016926,-0.00011755,-0.00003643,-0.00005
 780,0.00000711,-0.00000059,-0.00000866,0.00000469,-0.00000081,0.000004
 42,-0.00000425,-0.00000257,-0.00000161,0.00000232,-0.00000606,-0.00008
 212,0.00000998,-0.00001703,-0.00002309,0.00015221,0.00009087,0.0000655
 8,0.00002011,0.00000701,0.00000168,0.00000041,-0.00000496,-0.00000545,
 0.00005820,-0.00000608,-0.00000977,-0.00252317,0.00055574,0.00171640,-
 0.00026338,0.00047843,0.00013633,-0.00013830,0.00044633,0.00017600,-0.
 01121409,0.01129167,0.00192842,-0.00001221,-0.00000121,0.00000722,0.00
 000186,0.00000042,0.00000008,0.00000039,-0.00000039,-0.00000152,0.0000
 0161,-0.00000063,-0.00000134,-0.00000309,0.00000160,0.00000429,0.00000
 023,0.00000077,-0.00000059,-0.00000067,0.00000020,0.00000101,0.0000005
 6,-0.00000097,0.00000012,-0.00000626,0.00002571,0.00000861,-0.00000416
 ,-0.00000102,0.00000081,0.00000771,-0.00000397,-0.00000163,-0.00000508
 ,0.00000517,-0.00000351,0.14158596,-0.20376627,-0.01604874,0.01844309,
 -0.01720573,-0.00052914,-0.14701798,0.20945293,-0.00005246,-0.00007164
 ,-0.00002444,-0.00002303,-0.00003594,-0.00000297,-0.00010257,-0.000027
 63,0.00000376,0.00028630,-0.00038843,-0.00059990,0.00022014,0.00017325
 ,0.00021361,0.00000910,0.00000075,-0.00002913,0.00000277,-0.00000017,0
 .00000699,0.00001081,0.00000631,0.00000819,0.00042960,0.00006210,0.000
 16500,-0.00007986,0.00005983,0.00001984,0.00007201,0.00004824,0.000151
 21,0.00004016,0.00001888,0.00000424,0.00009805,-0.00003154,-0.00000147
 ,-0.00001300,-0.00007918,0.00004926,0.00245908,0.00213663,-0.00277316,
 0.00114551,-0.00057837,-0.00025938,-0.00015372,0.00005480,-0.00007660,
 0.02457876,-0.01833029,-0.00685342,-0.00002171,-0.00000048,0.00001262,
 0.00000383,0.00000109,-0.00000022,0.00000129,-0.00000081,-0.00000244,0
 .00000165,-0.00000137,-0.00000252,-0.00001394,0.00000761,0.00002892,0.
 00000033,0.00000069,-0.00000463,-0.00000222,0.00000175,-0.00000474,0.0
 0000387,-0.00000226,-0.00000261,-0.00001498,0.00003878,0.00001414,0.00
 000125,0.00000274,0.00000168,0.00000278,-0.00000329,-0.00000102,0.0000
 0114,-0.00001431,0.00000051,0.00500694,-0.00888459,-0.05091335,0.00729
 932,-0.00862425,0.00015642,-0.02151753,0.01312548,0.05631700,0.0000056
 0,-0.00010106,-0.00003942,0.00000682,0.00000759,0.00000850,-0.00011299
 ,-0.00007433,0.00003944,-0.00053460,-0.00075233,-0.00053923,0.00037404
 ,0.00012608,-0.00022061,0.00001241,0.00001240,-0.00000259,-0.00001106,
 0.00000123,-0.00000703,0.00000175,0.00000876,0.00000353,-0.00102013,-0
 .00072690,-0.00030184,0.00007222,-0.00003228,0.00005803,0.00020279,0.0
 0025577,0.00002126,-0.00000201,0.00000700,-0.00000208,0.00005754,-0.00
 000103,0.00001675,-0.00006612,-0.00001995,0.00002441,0.00381728,-0.000
 96085,0.00135100,-0.00027870,0.00043620,-0.00008443,-0.00045350,0.0001
 4289,0.00011244,0.00864943,-0.00666947,0.03052995,0.00000154,0.0000057
 8,-0.00000302,0.00000045,0.00000041,-0.00000047,0.00000098,0.00000010,
 0.00000100,-0.00000332,-0.00000147,0.00000079,-0.00001243,-0.00000122,
 0.00002091,0.00000032,0.00000414,-0.00000261,-0.00000349,0.00000388,-0
 .00000080,0.00000172,-0.00000053,-0.00000053,0.00000219,0.00004506,0.0
 0000331,0.00000217,-0.00000591,-0.00000543,0.00000259,-0.00000603,-0.0
 0000345,-0.00000076,-0.00000951,-0.00000086,-0.11114557,0.01807158,-0.
 10592020,-0.00473152,0.00305031,-0.01170936,-0.00862591,0.00118492,-0.
 01967968,0.11379028,0.00006121,0.00006919,0.00005773,0.00002715,0.0000
 4182,0.00002497,0.00010308,-0.00000506,0.00002003,-0.00022733,0.000534
 56,0.00025529,-0.00010917,-0.00016320,-0.00019611,-0.00001941,-0.00000
 066,0.00001629,-0.00000622,0.00000457,-0.00000919,-0.00000045,-0.00000
 085,-0.00000397,-0.00066175,0.00016130,-0.00012535,0.00003016,-0.00003
 077,0.00001340,-0.00014836,-0.00010804,-0.00012721,-0.00004170,-0.0000
 2991,-0.00000856,-0.00011201,0.00002411,0.00000317,-0.00007476,0.00007
 571,0.00000911,0.00116988,-0.00090576,-0.00106446,-0.00031591,0.000053
 68,0.00010900,-0.00040434,0.00002268,-0.00026161,0.00088403,-0.0004548
 2,0.01545595,0.00002169,-0.00000067,-0.00001144,-0.00000534,-0.0000013
 5,0.00000030,-0.00000148,0.00000127,0.00000157,-0.00000035,0.00000124,
 0.00000259,0.00001824,-0.00000591,-0.00003211,-0.00000130,-0.00000235,
 0.00000568,0.00000201,-0.00000224,0.00000193,-0.00000432,0.00000260,0.
 00000276,0.00001423,-0.00009217,-0.00003780,-0.00000136,0.00000368,0.0
 0000762,-0.00001419,0.00001541,0.00000918,0.00000632,0.00000301,0.0000
 0058,0.01570347,-0.05850182,0.02702742,-0.01315668,0.00525820,-0.02497
 480,0.01126617,-0.00146785,0.02133562,-0.01400121,0.05550039,-0.000046
 67,-0.00013604,-0.00006882,-0.00002261,-0.00002330,-0.00001307,-0.0001
 1337,-0.00010720,-0.00001956,0.00059766,-0.00066790,-0.00043980,0.0004
 0093,0.00026928,0.00030238,0.00000140,0.00000326,-0.00004567,0.0000002
 0,-0.00000073,0.00000908,0.00001376,0.00000342,0.00001464,0.00038227,-
 0.00005008,0.00039824,-0.00011090,0.00009671,0.00001581,-0.00003749,0.
 00006851,0.00027890,0.00003721,0.00001360,0.00001266,0.00012690,-0.000
 02910,0.00001744,-0.00004760,-0.00003001,0.00008383,-0.00479553,0.0035
 3159,0.00097325,0.00074009,-0.00047221,-0.00013693,0.00024811,-0.00073
 920,-0.00011413,0.00702864,0.00838568,-0.02862802,-0.00001653,0.000000
 96,0.00000688,0.00000418,0.00000182,-0.00000029,0.00000079,-0.00000140
 ,0.00000071,0.00000112,-0.00000149,-0.00000248,-0.00001229,0.00001117,
 0.00002697,-0.00000168,-0.00000213,-0.00000529,-0.00000391,0.00000294,
 -0.00000622,0.00000366,-0.00000278,-0.00000295,-0.00001253,0.00002283,
 -0.00000998,-0.00000103,0.00000609,0.00001103,-0.00000003,0.00000210,0
 .00000232,0.00000164,-0.00001846,-0.00000020,-0.10347048,0.02695259,-0
 .24142248,-0.00718819,0.00097124,-0.00760162,-0.00004002,-0.00055415,0
 .00439863,0.10633231,-0.03750762,0.27196476\\0.00001601,-0.00002376,-0
 .00000175,0.00001489,0.00001808,-0.00001499,-0.00000520,0.00000140,-0.
 00001023,-0.00000145,-0.00000062,0.00000883,-0.00000111,0.00000099,-0.
 00000679,-0.00000176,0.00000173,-0.00000293,-0.00000893,-0.00000240,-0
 .00000887,0.00001100,0.00000554,-0.00000413,0.00000803,0.00000360,0.00
 001264,-0.00000648,-0.00000604,0.00000447,-0.00000229,-0.00000915,-0.0
 0000300,0.00000178,0.00000492,-0.00001988,-0.00000113,0.00002112,0.000
 00415,0.00000552,0.00000048,0.00001638,-0.00000691,0.00000533,0.000019
 45,-0.00001698,-0.00000178,0.00000460,-0.00000393,-0.00000558,0.000017
 63,-0.00000367,-0.00001035,0.00001201,-0.00000335,0.00000253,-0.000027
 85,0.00000067,0.00000618,-0.00002723,-0.00000506,0.00000347,-0.0000291
 1,0.00000089,0.00000292,-0.00002226,-0.00000272,-0.00000573,-0.0000192
 5,-0.00000800,0.00000206,-0.00001439,-0.00000434,-0.00000189,-0.000006
 87,-0.00000320,-0.00000041,-0.00001064,0.00000137,0.00000044,0.0000066
 2,-0.00000139,-0.00000520,0.00000928,0.00000442,0.00000047,0.00000697,
 0.00000536,0.00000271,0.00001478,0.00001047,-0.00000740,0.00002130,0.0
 0000157,-0.00000181,0.00002747,0.00000277,-0.00000095,0.00002328,0.000
 00315,-0.00000091,0.00002032\\\@


 IT IS IMPOSSIBLE TO MEDITATE ON TIME AND THE MYSTERY 
 OF NATURE WITHOUT AN OVERWHELMING EMOTION AT THE
 LIMITATIONS OF HUMAN INTELLIGENCE.

                                         -- ALFRED NORTH WHITEHEAD
 Job cpu time:       0 days  1 hours 11 minutes 37.4 seconds.
 Elapsed time:       0 days  0 hours 17 minutes 54.9 seconds.
 File lengths (MBytes):  RWF=    379 Int=      0 D2E=      0 Chk=     17 Scr=      1
 Normal termination of Gaussian 16 at Fri May 24 08:53:00 2019.
