 Entering Gaussian System, Link 0=g16
 Input=clay-glucose_cation-117-b3lyp_d3bj-631gd-pcm_thf.gjf
 Output=clay-glucose_cation-117-b3lyp_d3bj-631gd-pcm_thf.out
 Initial command:
 /n/sw/g16_nehalem/g16/l1.exe "/scratch/Gau-191022.inp" -scrdir="/scratch/"
 Entering Link 1 = /n/sw/g16_nehalem/g16/l1.exe PID=    191023.
  
 Copyright (c) 1988,1990,1992,1993,1995,1998,2003,2009,2016,
            Gaussian, Inc.  All Rights Reserved.
  
 This is part of the Gaussian(R) 16 program.  It is based on
 the Gaussian(R) 09 system (copyright 2009, Gaussian, Inc.),
 the Gaussian(R) 03 system (copyright 2003, Gaussian, Inc.),
 the Gaussian(R) 98 system (copyright 1998, Gaussian, Inc.),
 the Gaussian(R) 94 system (copyright 1995, Gaussian, Inc.),
 the Gaussian 92(TM) system (copyright 1992, Gaussian, Inc.),
 the Gaussian 90(TM) system (copyright 1990, Gaussian, Inc.),
 the Gaussian 88(TM) system (copyright 1988, Gaussian, Inc.),
 the Gaussian 86(TM) system (copyright 1986, Carnegie Mellon
 University), and the Gaussian 82(TM) system (copyright 1983,
 Carnegie Mellon University). Gaussian is a federally registered
 trademark of Gaussian, Inc.
  
 This software contains proprietary and confidential information,
 including trade secrets, belonging to Gaussian, Inc.
  
 This software is provided under written license and may be
 used, copied, transmitted, or stored only in accord with that
 written license.
  
 The following legend is applicable only to US Government
 contracts under FAR:
  
                    RESTRICTED RIGHTS LEGEND
  
 Use, reproduction and disclosure by the US Government is
 subject to restrictions as set forth in subparagraphs (a)
 and (c) of the Commercial Computer Software - Restricted
 Rights clause in FAR 52.227-19.
  
 Gaussian, Inc.
 340 Quinnipiac St., Bldg. 40, Wallingford CT 06492
  
  
 ---------------------------------------------------------------
 Warning -- This program may not be used in any manner that
 competes with the business of Gaussian, Inc. or will provide
 assistance to any competitor of Gaussian, Inc.  The licensee
 of this program is prohibited from giving any competitor of
 Gaussian, Inc. access to this program.  By using this program,
 the user acknowledges that Gaussian, Inc. is engaged in the
 business of creating and licensing software in the field of
 computational chemistry and represents and warrants to the
 licensee that it is not a competitor of Gaussian, Inc. and that
 it will not use this program in any manner prohibited above.
 ---------------------------------------------------------------
  

 Cite this work as:
 Gaussian 16, Revision A.03,
 M. J. Frisch, G. W. Trucks, H. B. Schlegel, G. E. Scuseria, 
 M. A. Robb, J. R. Cheeseman, G. Scalmani, V. Barone, 
 G. A. Petersson, H. Nakatsuji, X. Li, M. Caricato, A. V. Marenich, 
 J. Bloino, B. G. Janesko, R. Gomperts, B. Mennucci, H. P. Hratchian, 
 J. V. Ortiz, A. F. Izmaylov, J. L. Sonnenberg, D. Williams-Young, 
 F. Ding, F. Lipparini, F. Egidi, J. Goings, B. Peng, A. Petrone, 
 T. Henderson, D. Ranasinghe, V. G. Zakrzewski, J. Gao, N. Rega, 
 G. Zheng, W. Liang, M. Hada, M. Ehara, K. Toyota, R. Fukuda, 
 J. Hasegawa, M. Ishida, T. Nakajima, Y. Honda, O. Kitao, H. Nakai, 
 T. Vreven, K. Throssell, J. A. Montgomery, Jr., J. E. Peralta, 
 F. Ogliaro, M. J. Bearpark, J. J. Heyd, E. N. Brothers, K. N. Kudin, 
 V. N. Staroverov, T. A. Keith, R. Kobayashi, J. Normand, 
 K. Raghavachari, A. P. Rendell, J. C. Burant, S. S. Iyengar, 
 J. Tomasi, M. Cossi, J. M. Millam, M. Klene, C. Adamo, R. Cammi, 
 J. W. Ochterski, R. L. Martin, K. Morokuma, O. Farkas, 
 J. B. Foresman, and D. J. Fox, Gaussian, Inc., Wallingford CT, 2016.
 
 ******************************************
 Gaussian 16:  ES64L-G16RevA.03 25-Dec-2016
                25-May-2019 
 ******************************************
 %nprocshared=4
 Will use up to    4 processors via shared memory.
 %mem=3GB
 ----------------------------------------------------------------------
 #p b3lyp 6-31g* opt=(maxstep=1,calcfc) freq=noraman scrf=(pcm,solvent=
 tetrahydrofuran)
 ----------------------------------------------------------------------
 1/8=1,10=4,18=20,19=15,26=3,38=1/1,3;
 2/9=110,12=2,17=6,18=5,40=1/2;
 3/5=1,6=6,7=1,11=2,25=1,30=1,70=2201,71=2,72=20,74=-5,140=1/1,2,3;
 4//1;
 5/5=2,38=5,53=20/2;
 8/6=4,10=90,11=11/1;
 11/6=1,8=1,9=11,15=111,16=1/1,2,10;
 10/6=1,13=1/2;
 6/7=2,8=2,9=2,10=2,28=1/1;
 7/10=1,18=20,25=1/1,2,3,16;
 1/8=1,10=4,18=20,19=15,26=3/3(2);
 2/9=110/2;
 99//99;
 2/9=110/2;
 3/5=1,6=6,7=1,11=2,25=1,30=1,70=2205,71=1,72=20,74=-5/1,2,3;
 4/5=5,16=3,69=1/1;
 5/5=2,38=5,53=20/2;
 7//1,2,3,16;
 1/8=1,18=20,19=15,26=3/3(-5);
 2/9=110/2;
 6/7=2,8=2,9=2,10=2,19=2,28=1/1;
 99/9=1/99;
 Leave Link    1 at Sat May 25 18:03:12 2019, MaxMem=   402653184 cpu:               0.2 elap:               0.1
 (Enter /n/sw/g16_nehalem/g16/l101.exe)
 -----
 title
 -----
 Symbolic Z-matrix:
 Charge =  1 Multiplicity = 1
 6                    -1.04134   0.46407  -0.35314 
 6                    -1.72007  -0.69803   0.43663 
 6                    -1.09551  -1.98896   0.04041 
 6                     1.09502  -0.98103  -0.32479 
 6                     0.48163   0.41583  -0.0902 
 1                    -1.67936  -2.91112   0.01437 
 1                    -1.44313  -0.5859    1.50164 
 1                    -1.19422   0.31308  -1.42691 
 1                     1.44564  -1.04197  -1.3551 
 1                     0.68893   0.71959   0.94438 
 8                     0.11287  -2.12208  -0.27664 
 8                    -3.11367  -0.76649   0.42279 
 8                    -1.62374   1.71239  -0.08456 
 8                     1.17088   1.24908  -0.99904 
 6                     2.19023  -1.37993   0.68901 
 1                     2.64095  -2.33344   0.38194 
 1                     1.72494  -1.5138    1.67108 
 8                     3.14491  -0.36117   0.8258 
 6                    -3.74453  -0.66347  -0.86501 
 1                    -3.37613  -1.43013  -1.55895 
 1                    -4.80571  -0.83251  -0.68134 
 1                    -3.60046   0.3317   -1.29477 
 6                    -1.80269   2.09144   1.28431 
 1                    -0.86085   2.09783   1.84486 
 1                    -2.19958   3.1071    1.25462 
 1                    -2.52943   1.44049   1.78389 
 6                     1.49268   2.55467  -0.50861 
 1                     0.58954   3.14508  -0.32609 
 1                     2.09071   2.48717   0.40851 
 1                     2.08544   3.03072  -1.29182 
 6                     4.10886  -0.29923  -0.22832 
 1                     4.57922  -1.27859  -0.3865 
 1                     3.6614    0.05101  -1.16594 
 1                     4.86638   0.4177    0.09354 
 
 ITRead=  0  0  0  0  0  0  0  0  0  0  0  0  0  0  0  0  0  0  0  0
 ITRead=  0  0  0  0  0  0  0  0  0  0  0  0  0  0
 MicOpt= -1 -1 -1 -1 -1 -1 -1 -1 -1 -1 -1 -1 -1 -1 -1 -1 -1 -1 -1 -1
 MicOpt= -1 -1 -1 -1 -1 -1 -1 -1 -1 -1 -1 -1 -1 -1
 NAtoms=     34 NQM=       34 NQMF=       0 NMMI=      0 NMMIF=      0
                NMic=       0 NMicF=      0.
                    Isotopes and Nuclear Properties:
 (Nuclear quadrupole moments (NQMom) in fm**2, nuclear magnetic moments (NMagM)
  in nuclear magnetons)

  Atom         1           2           3           4           5           6           7           8           9          10
 IAtWgt=          12          12          12          12          12           1           1           1           1           1
 AtmWgt=  12.0000000  12.0000000  12.0000000  12.0000000  12.0000000   1.0078250   1.0078250   1.0078250   1.0078250   1.0078250
 NucSpn=           0           0           0           0           0           1           1           1           1           1
 AtZEff=   0.0000000   0.0000000   0.0000000   0.0000000   0.0000000   0.0000000   0.0000000   0.0000000   0.0000000   0.0000000
 NQMom=    0.0000000   0.0000000   0.0000000   0.0000000   0.0000000   0.0000000   0.0000000   0.0000000   0.0000000   0.0000000
 NMagM=    0.0000000   0.0000000   0.0000000   0.0000000   0.0000000   2.7928460   2.7928460   2.7928460   2.7928460   2.7928460
 AtZNuc=   6.0000000   6.0000000   6.0000000   6.0000000   6.0000000   1.0000000   1.0000000   1.0000000   1.0000000   1.0000000

  Atom        11          12          13          14          15          16          17          18          19          20
 IAtWgt=          16          16          16          16          12           1           1          16          12           1
 AtmWgt=  15.9949146  15.9949146  15.9949146  15.9949146  12.0000000   1.0078250   1.0078250  15.9949146  12.0000000   1.0078250
 NucSpn=           0           0           0           0           0           1           1           0           0           1
 AtZEff=   0.0000000   0.0000000   0.0000000   0.0000000   0.0000000   0.0000000   0.0000000   0.0000000   0.0000000   0.0000000
 NQMom=    0.0000000   0.0000000   0.0000000   0.0000000   0.0000000   0.0000000   0.0000000   0.0000000   0.0000000   0.0000000
 NMagM=    0.0000000   0.0000000   0.0000000   0.0000000   0.0000000   2.7928460   2.7928460   0.0000000   0.0000000   2.7928460
 AtZNuc=   8.0000000   8.0000000   8.0000000   8.0000000   6.0000000   1.0000000   1.0000000   8.0000000   6.0000000   1.0000000

  Atom        21          22          23          24          25          26          27          28          29          30
 IAtWgt=           1           1          12           1           1           1          12           1           1           1
 AtmWgt=   1.0078250   1.0078250  12.0000000   1.0078250   1.0078250   1.0078250  12.0000000   1.0078250   1.0078250   1.0078250
 NucSpn=           1           1           0           1           1           1           0           1           1           1
 AtZEff=   0.0000000   0.0000000   0.0000000   0.0000000   0.0000000   0.0000000   0.0000000   0.0000000   0.0000000   0.0000000
 NQMom=    0.0000000   0.0000000   0.0000000   0.0000000   0.0000000   0.0000000   0.0000000   0.0000000   0.0000000   0.0000000
 NMagM=    2.7928460   2.7928460   0.0000000   2.7928460   2.7928460   2.7928460   0.0000000   2.7928460   2.7928460   2.7928460
 AtZNuc=   1.0000000   1.0000000   6.0000000   1.0000000   1.0000000   1.0000000   6.0000000   1.0000000   1.0000000   1.0000000

  Atom        31          32          33          34
 IAtWgt=          12           1           1           1
 AtmWgt=  12.0000000   1.0078250   1.0078250   1.0078250
 NucSpn=           0           1           1           1
 AtZEff=   0.0000000   0.0000000   0.0000000   0.0000000
 NQMom=    0.0000000   0.0000000   0.0000000   0.0000000
 NMagM=    0.0000000   2.7928460   2.7928460   2.7928460
 AtZNuc=   6.0000000   1.0000000   1.0000000   1.0000000
 Leave Link  101 at Sat May 25 18:03:12 2019, MaxMem=   402653184 cpu:               0.9 elap:               0.3
 (Enter /n/sw/g16_nehalem/g16/l103.exe)

 GradGradGradGradGradGradGradGradGradGradGradGradGradGradGradGradGradGrad
 Berny optimization.
 Initialization pass.
                           ----------------------------
                           !    Initial Parameters    !
                           ! (Angstroms and Degrees)  !
 --------------------------                            --------------------------
 ! Name  Definition              Value          Derivative Info.                !
 --------------------------------------------------------------------------------
 ! R1    R(1,2)                  1.5604         calculate D2E/DX2 analytically  !
 ! R2    R(1,5)                  1.5463         calculate D2E/DX2 analytically  !
 ! R3    R(1,8)                  1.0951         calculate D2E/DX2 analytically  !
 ! R4    R(1,13)                 1.4034         calculate D2E/DX2 analytically  !
 ! R5    R(2,3)                  1.4878         calculate D2E/DX2 analytically  !
 ! R6    R(2,7)                  1.1061         calculate D2E/DX2 analytically  !
 ! R7    R(2,12)                 1.3953         calculate D2E/DX2 analytically  !
 ! R8    R(3,6)                  1.0918         calculate D2E/DX2 analytically  !
 ! R9    R(3,11)                 1.2564         calculate D2E/DX2 analytically  !
 ! R10   R(4,5)                  1.5435         calculate D2E/DX2 analytically  !
 ! R11   R(4,9)                  1.09           calculate D2E/DX2 analytically  !
 ! R12   R(4,11)                 1.5063         calculate D2E/DX2 analytically  !
 ! R13   R(4,15)                 1.5448         calculate D2E/DX2 analytically  !
 ! R14   R(5,10)                 1.098          calculate D2E/DX2 analytically  !
 ! R15   R(5,14)                 1.4126         calculate D2E/DX2 analytically  !
 ! R16   R(12,19)                1.4377         calculate D2E/DX2 analytically  !
 ! R17   R(13,23)                1.4316         calculate D2E/DX2 analytically  !
 ! R18   R(14,27)                1.4313         calculate D2E/DX2 analytically  !
 ! R19   R(15,16)                1.0985         calculate D2E/DX2 analytically  !
 ! R20   R(15,17)                1.0949         calculate D2E/DX2 analytically  !
 ! R21   R(15,18)                1.4029         calculate D2E/DX2 analytically  !
 ! R22   R(18,31)                1.4297         calculate D2E/DX2 analytically  !
 ! R23   R(19,20)                1.0977         calculate D2E/DX2 analytically  !
 ! R24   R(19,21)                1.0901         calculate D2E/DX2 analytically  !
 ! R25   R(19,22)                1.0935         calculate D2E/DX2 analytically  !
 ! R26   R(23,24)                1.0961         calculate D2E/DX2 analytically  !
 ! R27   R(23,25)                1.0909         calculate D2E/DX2 analytically  !
 ! R28   R(23,26)                1.0961         calculate D2E/DX2 analytically  !
 ! R29   R(27,28)                1.0943         calculate D2E/DX2 analytically  !
 ! R30   R(27,29)                1.097          calculate D2E/DX2 analytically  !
 ! R31   R(27,30)                1.0915         calculate D2E/DX2 analytically  !
 ! R32   R(31,32)                1.0979         calculate D2E/DX2 analytically  !
 ! R33   R(31,33)                1.0964         calculate D2E/DX2 analytically  !
 ! R34   R(31,34)                1.0915         calculate D2E/DX2 analytically  !
 ! A1    A(2,1,5)              108.6094         calculate D2E/DX2 analytically  !
 ! A2    A(2,1,8)              109.4432         calculate D2E/DX2 analytically  !
 ! A3    A(2,1,13)             112.6471         calculate D2E/DX2 analytically  !
 ! A4    A(5,1,8)              107.4551         calculate D2E/DX2 analytically  !
 ! A5    A(5,1,13)             113.8251         calculate D2E/DX2 analytically  !
 ! A6    A(8,1,13)             104.6174         calculate D2E/DX2 analytically  !
 ! A7    A(1,2,3)              109.1964         calculate D2E/DX2 analytically  !
 ! A8    A(1,2,7)              107.633          calculate D2E/DX2 analytically  !
 ! A9    A(1,2,12)             117.7716         calculate D2E/DX2 analytically  !
 ! A10   A(3,2,7)              103.8432         calculate D2E/DX2 analytically  !
 ! A11   A(3,2,12)             111.9652         calculate D2E/DX2 analytically  !
 ! A12   A(7,2,12)             105.3419         calculate D2E/DX2 analytically  !
 ! A13   A(2,3,6)              120.9806         calculate D2E/DX2 analytically  !
 ! A14   A(2,3,11)             124.2566         calculate D2E/DX2 analytically  !
 ! A15   A(6,3,11)             114.7612         calculate D2E/DX2 analytically  !
 ! A16   A(5,4,9)              108.7882         calculate D2E/DX2 analytically  !
 ! A17   A(5,4,11)             114.9335         calculate D2E/DX2 analytically  !
 ! A18   A(5,4,15)             114.5621         calculate D2E/DX2 analytically  !
 ! A19   A(9,4,11)             101.3968         calculate D2E/DX2 analytically  !
 ! A20   A(9,4,15)             112.1993         calculate D2E/DX2 analytically  !
 ! A21   A(11,4,15)            104.2219         calculate D2E/DX2 analytically  !
 ! A22   A(1,5,4)              113.1911         calculate D2E/DX2 analytically  !
 ! A23   A(1,5,10)             109.7278         calculate D2E/DX2 analytically  !
 ! A24   A(1,5,14)             110.6572         calculate D2E/DX2 analytically  !
 ! A25   A(4,5,10)             108.575          calculate D2E/DX2 analytically  !
 ! A26   A(4,5,14)             104.0127         calculate D2E/DX2 analytically  !
 ! A27   A(10,5,14)            110.5435         calculate D2E/DX2 analytically  !
 ! A28   A(3,11,4)             123.706          calculate D2E/DX2 analytically  !
 ! A29   A(2,12,19)            116.3346         calculate D2E/DX2 analytically  !
 ! A30   A(1,13,23)            118.0582         calculate D2E/DX2 analytically  !
 ! A31   A(5,14,27)            115.2976         calculate D2E/DX2 analytically  !
 ! A32   A(4,15,16)            109.3653         calculate D2E/DX2 analytically  !
 ! A33   A(4,15,17)            108.5974         calculate D2E/DX2 analytically  !
 ! A34   A(4,15,18)            111.035          calculate D2E/DX2 analytically  !
 ! A35   A(16,15,17)           108.6007         calculate D2E/DX2 analytically  !
 ! A36   A(16,15,18)           112.2346         calculate D2E/DX2 analytically  !
 ! A37   A(17,15,18)           106.8893         calculate D2E/DX2 analytically  !
 ! A38   A(15,18,31)           114.7326         calculate D2E/DX2 analytically  !
 ! A39   A(12,19,20)           111.6501         calculate D2E/DX2 analytically  !
 ! A40   A(12,19,21)           105.3737         calculate D2E/DX2 analytically  !
 ! A41   A(12,19,22)           111.0648         calculate D2E/DX2 analytically  !
 ! A42   A(20,19,21)           108.9594         calculate D2E/DX2 analytically  !
 ! A43   A(20,19,22)           110.0549         calculate D2E/DX2 analytically  !
 ! A44   A(21,19,22)           109.607          calculate D2E/DX2 analytically  !
 ! A45   A(13,23,24)           112.5292         calculate D2E/DX2 analytically  !
 ! A46   A(13,23,25)           105.4249         calculate D2E/DX2 analytically  !
 ! A47   A(13,23,26)           111.1884         calculate D2E/DX2 analytically  !
 ! A48   A(24,23,25)           108.7315         calculate D2E/DX2 analytically  !
 ! A49   A(24,23,26)           109.8824         calculate D2E/DX2 analytically  !
 ! A50   A(25,23,26)           108.9117         calculate D2E/DX2 analytically  !
 ! A51   A(14,27,28)           111.3295         calculate D2E/DX2 analytically  !
 ! A52   A(14,27,29)           110.6658         calculate D2E/DX2 analytically  !
 ! A53   A(14,27,30)           105.9065         calculate D2E/DX2 analytically  !
 ! A54   A(28,27,29)           110.1011         calculate D2E/DX2 analytically  !
 ! A55   A(28,27,30)           109.4239         calculate D2E/DX2 analytically  !
 ! A56   A(29,27,30)           109.3101         calculate D2E/DX2 analytically  !
 ! A57   A(18,31,32)           110.8809         calculate D2E/DX2 analytically  !
 ! A58   A(18,31,33)           111.6659         calculate D2E/DX2 analytically  !
 ! A59   A(18,31,34)           106.1977         calculate D2E/DX2 analytically  !
 ! A60   A(32,31,33)           109.6695         calculate D2E/DX2 analytically  !
 ! A61   A(32,31,34)           109.333          calculate D2E/DX2 analytically  !
 ! A62   A(33,31,34)           109.0016         calculate D2E/DX2 analytically  !
 ! D1    D(5,1,2,3)            -56.024          calculate D2E/DX2 analytically  !
 ! D2    D(5,1,2,7)             56.0936         calculate D2E/DX2 analytically  !
 ! D3    D(5,1,2,12)           174.8539         calculate D2E/DX2 analytically  !
 ! D4    D(8,1,2,3)             61.0094         calculate D2E/DX2 analytically  !
 ! D5    D(8,1,2,7)            173.127          calculate D2E/DX2 analytically  !
 ! D6    D(8,1,2,12)           -68.1126         calculate D2E/DX2 analytically  !
 ! D7    D(13,1,2,3)           176.939          calculate D2E/DX2 analytically  !
 ! D8    D(13,1,2,7)           -70.9434         calculate D2E/DX2 analytically  !
 ! D9    D(13,1,2,12)           47.817          calculate D2E/DX2 analytically  !
 ! D10   D(2,1,5,4)             50.8618         calculate D2E/DX2 analytically  !
 ! D11   D(2,1,5,10)           -70.5903         calculate D2E/DX2 analytically  !
 ! D12   D(2,1,5,14)           167.1599         calculate D2E/DX2 analytically  !
 ! D13   D(8,1,5,4)            -67.4368         calculate D2E/DX2 analytically  !
 ! D14   D(8,1,5,10)           171.111          calculate D2E/DX2 analytically  !
 ! D15   D(8,1,5,14)            48.8612         calculate D2E/DX2 analytically  !
 ! D16   D(13,1,5,4)           177.2202         calculate D2E/DX2 analytically  !
 ! D17   D(13,1,5,10)           55.768          calculate D2E/DX2 analytically  !
 ! D18   D(13,1,5,14)          -66.4818         calculate D2E/DX2 analytically  !
 ! D19   D(2,1,13,23)           50.1151         calculate D2E/DX2 analytically  !
 ! D20   D(5,1,13,23)          -74.0947         calculate D2E/DX2 analytically  !
 ! D21   D(8,1,13,23)          168.9025         calculate D2E/DX2 analytically  !
 ! D22   D(1,2,3,6)           -147.1675         calculate D2E/DX2 analytically  !
 ! D23   D(1,2,3,11)            33.319          calculate D2E/DX2 analytically  !
 ! D24   D(7,2,3,6)             98.2411         calculate D2E/DX2 analytically  !
 ! D25   D(7,2,3,11)           -81.2725         calculate D2E/DX2 analytically  !
 ! D26   D(12,2,3,6)           -14.9132         calculate D2E/DX2 analytically  !
 ! D27   D(12,2,3,11)          165.5732         calculate D2E/DX2 analytically  !
 ! D28   D(1,2,12,19)           48.7784         calculate D2E/DX2 analytically  !
 ! D29   D(3,2,12,19)          -79.0349         calculate D2E/DX2 analytically  !
 ! D30   D(7,2,12,19)          168.7442         calculate D2E/DX2 analytically  !
 ! D31   D(2,3,11,4)            -1.2222         calculate D2E/DX2 analytically  !
 ! D32   D(6,3,11,4)           179.237          calculate D2E/DX2 analytically  !
 ! D33   D(9,4,5,1)             92.0409         calculate D2E/DX2 analytically  !
 ! D34   D(9,4,5,10)          -145.8606         calculate D2E/DX2 analytically  !
 ! D35   D(9,4,5,14)           -28.123          calculate D2E/DX2 analytically  !
 ! D36   D(11,4,5,1)           -20.8099         calculate D2E/DX2 analytically  !
 ! D37   D(11,4,5,10)          101.2886         calculate D2E/DX2 analytically  !
 ! D38   D(11,4,5,14)         -140.9738         calculate D2E/DX2 analytically  !
 ! D39   D(15,4,5,1)          -141.4975         calculate D2E/DX2 analytically  !
 ! D40   D(15,4,5,10)          -19.3991         calculate D2E/DX2 analytically  !
 ! D41   D(15,4,5,14)           98.3386         calculate D2E/DX2 analytically  !
 ! D42   D(5,4,11,3)            -5.8708         calculate D2E/DX2 analytically  !
 ! D43   D(9,4,11,3)          -123.002          calculate D2E/DX2 analytically  !
 ! D44   D(15,4,11,3)          120.3374         calculate D2E/DX2 analytically  !
 ! D45   D(5,4,15,16)         -173.9422         calculate D2E/DX2 analytically  !
 ! D46   D(5,4,15,17)           67.6989         calculate D2E/DX2 analytically  !
 ! D47   D(5,4,15,18)          -49.5473         calculate D2E/DX2 analytically  !
 ! D48   D(9,4,15,16)          -49.2638         calculate D2E/DX2 analytically  !
 ! D49   D(9,4,15,17)         -167.6227         calculate D2E/DX2 analytically  !
 ! D50   D(9,4,15,18)           75.1311         calculate D2E/DX2 analytically  !
 ! D51   D(11,4,15,16)          59.6166         calculate D2E/DX2 analytically  !
 ! D52   D(11,4,15,17)         -58.7423         calculate D2E/DX2 analytically  !
 ! D53   D(11,4,15,18)        -175.9884         calculate D2E/DX2 analytically  !
 ! D54   D(1,5,14,27)           96.823          calculate D2E/DX2 analytically  !
 ! D55   D(4,5,14,27)         -141.3165         calculate D2E/DX2 analytically  !
 ! D56   D(10,5,14,27)         -24.9484         calculate D2E/DX2 analytically  !
 ! D57   D(2,12,19,20)          56.62           calculate D2E/DX2 analytically  !
 ! D58   D(2,12,19,21)         174.7628         calculate D2E/DX2 analytically  !
 ! D59   D(2,12,19,22)         -66.6273         calculate D2E/DX2 analytically  !
 ! D60   D(1,13,23,24)          57.8497         calculate D2E/DX2 analytically  !
 ! D61   D(1,13,23,25)         176.2163         calculate D2E/DX2 analytically  !
 ! D62   D(1,13,23,26)         -65.908          calculate D2E/DX2 analytically  !
 ! D63   D(5,14,27,28)         -65.6542         calculate D2E/DX2 analytically  !
 ! D64   D(5,14,27,29)          57.1387         calculate D2E/DX2 analytically  !
 ! D65   D(5,14,27,30)         175.497          calculate D2E/DX2 analytically  !
 ! D66   D(4,15,18,31)         -78.6236         calculate D2E/DX2 analytically  !
 ! D67   D(16,15,18,31)         44.1289         calculate D2E/DX2 analytically  !
 ! D68   D(17,15,18,31)        163.0919         calculate D2E/DX2 analytically  !
 ! D69   D(15,18,31,32)        -52.2608         calculate D2E/DX2 analytically  !
 ! D70   D(15,18,31,33)         70.3675         calculate D2E/DX2 analytically  !
 ! D71   D(15,18,31,34)       -170.9325         calculate D2E/DX2 analytically  !
 --------------------------------------------------------------------------------
 Trust Radius=1.00D-02 FncErr=1.00D-07 GrdErr=1.00D-06 EigMax=2.50D+02 EigMin=1.00D-04
 Number of steps in this run=    177 maximum allowed number of steps=    204.
 GradGradGradGradGradGradGradGradGradGradGradGradGradGradGradGradGradGrad

 Leave Link  103 at Sat May 25 18:03:12 2019, MaxMem=   402653184 cpu:               0.2 elap:               0.1
 (Enter /n/sw/g16_nehalem/g16/l202.exe)
                          Input orientation:                          
 ---------------------------------------------------------------------
 Center     Atomic      Atomic             Coordinates (Angstroms)
 Number     Number       Type             X           Y           Z
 ---------------------------------------------------------------------
      1          6           0       -1.041335    0.464074   -0.353144
      2          6           0       -1.720072   -0.698025    0.436629
      3          6           0       -1.095511   -1.988958    0.040414
      4          6           0        1.095020   -0.981032   -0.324794
      5          6           0        0.481630    0.415829   -0.090198
      6          1           0       -1.679360   -2.911122    0.014371
      7          1           0       -1.443134   -0.585896    1.501637
      8          1           0       -1.194220    0.313081   -1.426905
      9          1           0        1.445638   -1.041965   -1.355100
     10          1           0        0.688926    0.719592    0.944377
     11          8           0        0.112873   -2.122081   -0.276639
     12          8           0       -3.113671   -0.766491    0.422788
     13          8           0       -1.623743    1.712392   -0.084561
     14          8           0        1.170879    1.249076   -0.999035
     15          6           0        2.190232   -1.379934    0.689011
     16          1           0        2.640952   -2.333440    0.381937
     17          1           0        1.724938   -1.513804    1.671082
     18          8           0        3.144913   -0.361169    0.825799
     19          6           0       -3.744529   -0.663472   -0.865006
     20          1           0       -3.376129   -1.430126   -1.558951
     21          1           0       -4.805711   -0.832506   -0.681339
     22          1           0       -3.600462    0.331696   -1.294766
     23          6           0       -1.802687    2.091442    1.284306
     24          1           0       -0.860845    2.097833    1.844864
     25          1           0       -2.199577    3.107097    1.254618
     26          1           0       -2.529428    1.440487    1.783894
     27          6           0        1.492681    2.554668   -0.508610
     28          1           0        0.589541    3.145082   -0.326087
     29          1           0        2.090712    2.487174    0.408507
     30          1           0        2.085441    3.030721   -1.291820
     31          6           0        4.108858   -0.299233   -0.228316
     32          1           0        4.579224   -1.278588   -0.386502
     33          1           0        3.661396    0.051007   -1.165936
     34          1           0        4.866377    0.417703    0.093543
 ---------------------------------------------------------------------
                    Distance matrix (angstroms):
                    1          2          3          4          5
     1  C    0.000000
     2  C    1.560416   0.000000
     3  C    2.484993   1.487807   0.000000
     4  C    2.579370   2.929949   2.438794   0.000000
     5  C    1.546250   2.523036   2.878790   1.543536   0.000000
     6  H    3.454575   2.253388   1.091762   3.396684   3.968553
     7  H    2.168892   1.106124   2.055383   3.151858   2.691117
     8  H    1.095050   2.184403   2.731694   2.851315   2.146116
     9  H    3.075240   3.653807   3.049868   1.090035   2.157418
    10  H    2.177763   2.840901   3.367136   2.160516   1.097993
    11  O    2.833063   2.428245   1.256358   1.506295   2.571328
    12  O    2.531983   1.395348   2.390315   4.279952   3.819323
    13  O    1.403436   2.468001   3.740941   3.834569   2.472590
    14  O    2.434603   3.769606   4.086789   2.331038   1.412568
    15  C    3.863868   3.977333   3.404070   1.544802   2.598317
    16  H    4.682485   4.657908   3.767819   2.172184   3.527614
    17  H    3.957494   3.749328   3.292382   2.159667   2.893338
    18  O    4.426692   4.892137   4.609525   2.431081   2.921618
    19  C    2.973318   2.407047   3.097417   4.879950   4.430083
    20  H    3.239325   2.694594   2.841035   4.660043   4.521846
    21  H    3.994917   3.284677   3.952707   5.913359   5.464775
    22  H    2.730075   2.755707   3.666459   4.971082   4.256940
    23  C    2.430890   2.916592   4.324006   4.519514   3.148816
    24  H    2.744628   3.246262   4.473586   4.244082   2.894105
    25  H    3.303331   3.921477   5.353786   5.482856   4.029929
    26  H    2.781139   2.653943   4.105720   4.842204   3.691695
    27  C    3.288767   4.668540   5.257823   3.562737   2.402483
    28  H    3.138199   4.548134   5.415911   4.156961   2.741553
    29  H    3.805623   4.966725   5.506657   3.682063   2.669892
    30  H    4.152772   5.601162   6.090195   4.243847   3.294505
    31  C    5.207947   5.880273   5.478398   3.091501   3.699618
    32  H    5.884613   6.379320   5.734937   3.497431   4.443998
    33  H    4.790296   5.664756   5.314593   2.891178   3.376569
    34  H    5.924757   6.689086   6.429537   4.044082   4.388596
                    6          7          8          9         10
     6  H    0.000000
     7  H    2.770278   0.000000
     8  H    3.564845   3.073512   0.000000
     9  H    3.890348   4.088270   2.968191   0.000000
    10  H    4.433483   2.561351   3.055236   2.993876   0.000000
    11  O    1.979740   2.818384   2.993596   2.026325   3.146081
    12  O    2.612182   1.996803   2.875958   4.901436   4.115852
    13  O    4.624907   2.798352   1.986064   4.315304   2.718971
    14  O    5.143744   4.056297   2.579312   2.334768   2.071107
    15  C    4.215853   3.806863   4.335656   2.201598   2.593673
    16  H    4.374233   4.581200   4.998452   2.472647   3.667117
    17  H    4.035645   3.305511   4.632118   3.075454   2.566998
    18  O    5.516728   4.642998   4.935318   2.847339   2.685885
    19  C    3.176501   3.302035   2.788093   5.226976   4.984201
    20  H    2.747311   3.717041   2.795878   4.841659   5.235705
    21  H    3.818210   4.016606   3.861490   6.291041   5.936581
    22  H    3.990030   3.649097   2.409939   5.230077   4.854181
    23  C    5.162712   2.710101   3.299010   5.228415   2.864552
    24  H    5.395396   2.767538   3.741784   5.041623   2.261021
    25  H    6.166668   3.777754   4.000979   6.108432   3.760303
    26  H    4.773922   2.316448   3.655551   5.640656   3.403275
    27  C    6.341152   4.745866   3.617653   3.695203   2.474813
    28  H    6.476220   4.625207   3.523327   4.395809   2.739883
    29  H    6.596240   4.809029   4.345825   3.997656   2.318730
    30  H    7.154394   5.773574   4.261454   4.123121   3.506016
    31  C    6.354867   5.822330   5.471214   2.985638   3.756215
    32  H    6.480412   6.349306   6.078528   3.288394   4.571475
    33  H    6.220210   5.794637   4.869681   2.477893   3.706212
    34  H    7.343978   6.542161   6.249283   3.991322   4.273892
                   11         12         13         14         15
    11  O    0.000000
    12  O    3.568951   0.000000
    13  O    4.213776   2.936350   0.000000
    14  O    3.606374   4.943830   2.976716   0.000000
    15  C    2.408045   5.345893   4.970644   3.286377   0.000000
    16  H    2.620988   5.964284   5.896948   4.111280   1.098461
    17  H    2.600456   5.052608   4.970341   3.882011   1.094935
    18  O    3.675520   6.284630   5.279062   3.133643   1.402857
    19  C    4.165725   1.437709   3.278957   5.276082   6.176542
    20  H    3.781040   2.106320   3.888458   5.307251   6.003351
    21  H    5.100907   2.021498   4.117957   6.336682   7.149878
    22  H    4.565792   2.095942   2.697839   4.867724   6.355878
    23  C    4.884639   3.260165   1.431606   3.842567   5.324306
    24  H    4.822507   3.911761   2.110275   3.596672   4.768640
    25  H    5.919162   4.065980   2.017471   4.459952   6.302681
    26  H    4.890751   2.657951   2.094116   4.633962   5.606134
    27  C    4.881563   5.754657   3.255971   1.431308   4.171566
    28  H    5.288919   5.438290   2.647558   2.094195   4.905956
    29  H    5.062263   6.137764   3.826301   2.088098   3.878545
    30  H    5.610079   6.662542   4.117464   2.023958   4.836171
    31  C    4.392380   7.266856   6.077007   3.409251   2.385483
    32  H    4.546630   7.752279   6.893035   4.287318   2.621885
    33  H    4.255018   7.006702   5.644667   2.768736   2.766359
    34  H    5.402160   8.074149   6.620393   3.942285   3.278389
                   16         17         18         19         20
    16  H    0.000000
    17  H    1.781230   0.000000
    18  O    2.083469   2.014795   0.000000
    19  C    6.716995   6.088504   7.100325   0.000000
    20  H    6.386571   6.038294   7.025218   1.097742   0.000000
    21  H    7.670473   6.974771   8.105927   1.090144   1.780746
    22  H    6.990675   6.368831   7.104713   1.093530   1.795588
    23  C    6.335596   5.058807   5.541144   3.997480   4.791792
    24  H    5.834288   4.445267   4.809499   4.825333   5.509910
    25  H    7.334285   6.076840   6.385635   4.593133   5.466886
    26  H    6.552926   5.180752   6.030096   3.594410   4.486862
    27  C    5.099529   4.621414   3.607301   6.157257   6.378645
    28  H    5.892689   5.194519   4.488938   5.794798   6.178917
    29  H    4.851988   4.211379   3.065702   6.752662   7.007316
    30  H    5.646617   5.437045   4.136630   6.915040   7.056859
    31  C    2.581696   3.281154   1.429750   7.887568   7.685996
    32  H    2.336688   3.526461   2.090115   8.360155   8.042714
    33  H    3.020398   3.774543   2.098488   7.446393   7.202428
    34  H    3.550278   4.010983   2.026396   8.731292   8.607213
                   21         22         23         24         25
    21  H    0.000000
    22  H    1.784456   0.000000
    23  C    4.629404   3.602820   0.000000
    24  H    5.525446   4.525706   1.096053   0.000000
    25  H    5.104932   4.020533   1.090852   1.777416   0.000000
    26  H    4.052818   3.443062   1.096122   1.794433   1.779473
    27  C    7.153497   5.612464   3.780023   3.359557   4.128792
    28  H    6.712388   5.139028   3.070224   2.813073   3.206127
    29  H    7.731021   6.319548   4.010260   3.305510   4.416649
    30  H    7.923710   6.293984   4.757753   4.403370   4.985134
    31  C    8.941988   7.808265   6.553603   5.894230   7.321102
    32  H    9.400155   8.386013   7.407934   6.780381   8.238911
    33  H    8.526859   7.268422   6.326394   5.805607   7.039160
    34  H    9.783289   8.580336   6.978233   6.220212   7.649094
                   26         27         28         29         30
    26  H    0.000000
    27  C    4.761758   0.000000
    28  H    4.133477   1.094333   0.000000
    29  H    4.932843   1.096950   1.796103   0.000000
    30  H    5.769391   1.091517   1.784218   1.785100   0.000000
    31  C    7.151395   3.881713   4.925288   3.498931   4.039041
    32  H    7.914349   4.922957   5.957355   4.583197   5.060504
    33  H    6.997032   3.376940   4.440151   3.298610   3.373155
    34  H    7.655149   4.038692   5.089795   3.476525   4.059643
                   31         32         33         34
    31  C    0.000000
    32  H    1.097909   0.000000
    33  H    1.096367   1.793808   0.000000
    34  H    1.091524   1.786142   1.781217   0.000000
 Stoichiometry    C10H19O5(1+)
 Framework group  C1[X(C10H19O5)]
 Deg. of freedom    96
 Full point group                 C1      NOp   1
 Largest Abelian subgroup         C1      NOp   1
 Largest concise Abelian subgroup C1      NOp   1
                         Standard orientation:                         
 ---------------------------------------------------------------------
 Center     Atomic      Atomic             Coordinates (Angstroms)
 Number     Number       Type             X           Y           Z
 ---------------------------------------------------------------------
      1          6           0       -1.041335    0.464074   -0.353144
      2          6           0       -1.720072   -0.698025    0.436629
      3          6           0       -1.095511   -1.988958    0.040414
      4          6           0        1.095020   -0.981032   -0.324794
      5          6           0        0.481630    0.415829   -0.090198
      6          1           0       -1.679360   -2.911122    0.014371
      7          1           0       -1.443134   -0.585896    1.501637
      8          1           0       -1.194220    0.313081   -1.426905
      9          1           0        1.445638   -1.041965   -1.355100
     10          1           0        0.688926    0.719592    0.944377
     11          8           0        0.112873   -2.122081   -0.276639
     12          8           0       -3.113671   -0.766491    0.422788
     13          8           0       -1.623743    1.712392   -0.084561
     14          8           0        1.170879    1.249076   -0.999035
     15          6           0        2.190232   -1.379934    0.689011
     16          1           0        2.640952   -2.333440    0.381937
     17          1           0        1.724938   -1.513804    1.671082
     18          8           0        3.144913   -0.361169    0.825799
     19          6           0       -3.744529   -0.663472   -0.865006
     20          1           0       -3.376129   -1.430126   -1.558951
     21          1           0       -4.805711   -0.832506   -0.681339
     22          1           0       -3.600462    0.331696   -1.294766
     23          6           0       -1.802687    2.091442    1.284306
     24          1           0       -0.860845    2.097833    1.844864
     25          1           0       -2.199577    3.107097    1.254618
     26          1           0       -2.529428    1.440487    1.783894
     27          6           0        1.492681    2.554668   -0.508610
     28          1           0        0.589541    3.145082   -0.326087
     29          1           0        2.090712    2.487174    0.408507
     30          1           0        2.085441    3.030721   -1.291820
     31          6           0        4.108858   -0.299233   -0.228316
     32          1           0        4.579224   -1.278588   -0.386502
     33          1           0        3.661396    0.051007   -1.165936
     34          1           0        4.866377    0.417703    0.093543
 ---------------------------------------------------------------------
 Rotational constants (GHZ):           0.9182299           0.4215061           0.3264639
 Leave Link  202 at Sat May 25 18:03:12 2019, MaxMem=   402653184 cpu:               0.4 elap:               0.1
 (Enter /n/sw/g16_nehalem/g16/l301.exe)
 Standard basis: 6-31G(d) (6D, 7F)
 Ernie: Thresh=  0.10000D-02 Tol=  0.10000D-05 Strict=F.
 There are   263 symmetry adapted cartesian basis functions of A   symmetry.
 There are   263 symmetry adapted basis functions of A   symmetry.
   263 basis functions,   496 primitive gaussians,   263 cartesian basis functions
    59 alpha electrons       59 beta electrons
       nuclear repulsion energy      1165.5524629148 Hartrees.
 IExCor=  402 DFT=T Ex+Corr=B3LYP ExCW=0 ScaHFX=  0.200000
 ScaDFX=  0.800000  0.720000  1.000000  0.810000 ScalE2=  1.000000  1.000000
 IRadAn=      5 IRanWt=     -1 IRanGd=            0 ICorTp=0 IEmpDi=  4
 NAtoms=   34 NActive=   34 NUniq=   34 SFac= 1.00D+00 NAtFMM=   60 NAOKFM=F Big=F
 Integral buffers will be    131072 words long.
 Raffenetti 2 integral format.
 Two-electron integral symmetry is turned on.
 Force inversion solution in PCM.
 ------------------------------------------------------------------------------
 Polarizable Continuum Model (PCM)
 =================================
 Model                : PCM.
 Atomic radii         : UFF (Universal Force Field).
 Polarization charges : Total charges.
 Charge compensation  : None.
 Solution method      : Matrix inversion.
 Cavity type          : Scaled VdW (van der Waals Surface) (Alpha=1.100).
 Cavity algorithm     : GePol (No added spheres)
                        Default sphere list used, NSphG=   34.
                        Lebedev-Laikov grids with approx.  5.0 points / Ang**2.
                        Smoothing algorithm: York/Karplus (Gamma=1.0000).
                        Polarization charges: spherical gaussians, with
                                              point-specific exponents (IZeta= 3).
                        Self-potential: point-specific (ISelfS= 7).
                        Self-field    : sphere-specific E.n sum rule (ISelfD= 2).
 1st derivatives      : Analytical E(r).r(x)/FMM algorithm (CHGder, D1EAlg=3).
                        Cavity 1st derivative terms included.
 2nd derivatives      : Analytical E(r).r(xy)/FMM algorithm (CHGder, D2EAlg=3).
                        Cavity 2nd derivative terms included.
 Solvent              : TetraHydroFuran, Eps=   7.425700 Eps(inf)=   1.974025
 ------------------------------------------------------------------------------
 GePol: Number of generator spheres                  =      34
 GePol: Total number of spheres                      =      34
 GePol: Number of exposed spheres                    =      34 (100.00%)
 GePol: Number of points                             =    2241
 GePol: Average weight of points                     =       0.13
 GePol: Minimum weight of points                     =   0.30D-11
 GePol: Maximum weight of points                     =    0.20577
 GePol: Number of points with low weight             =     149
 GePol: Fraction of low-weight points (<1% of avg)   =       6.65%
 GePol: Cavity surface area                          =    294.395 Ang**2
 GePol: Cavity volume                                =    320.380 Ang**3
 Leave Link  301 at Sat May 25 18:03:13 2019, MaxMem=   402653184 cpu:               0.5 elap:               0.2
 (Enter /n/sw/g16_nehalem/g16/l302.exe)
 NPDir=0 NMtPBC=     1 NCelOv=     1 NCel=       1 NClECP=     1 NCelD=      1
         NCelK=      1 NCelE2=     1 NClLst=     1 CellRange=     0.0.
 One-electron integrals computed using PRISM.
 One-electron integral symmetry used in STVInt
 NBasis=   263 RedAO= T EigKep=  1.70D-03  NBF=   263
 NBsUse=   263 1.00D-06 EigRej= -1.00D+00 NBFU=   263
 Precomputing XC quadrature grid using
 IXCGrd= 4 IRadAn=           5 IRanWt=          -1 IRanGd=           0 AccXCQ= 0.00D+00.
 Generated NRdTot=       0 NPtTot=           0 NUsed=           0 NTot=          32
 NSgBfM=   262   262   262   262   262 MxSgAt=    34 MxSgA2=    34.
 Leave Link  302 at Sat May 25 18:03:13 2019, MaxMem=   402653184 cpu:               2.6 elap:               0.7
 (Enter /n/sw/g16_nehalem/g16/l303.exe)
 DipDrv:  MaxL=1.
 Leave Link  303 at Sat May 25 18:03:14 2019, MaxMem=   402653184 cpu:               0.6 elap:               0.2
 (Enter /n/sw/g16_nehalem/g16/l401.exe)
 ExpMin= 1.61D-01 ExpMax= 5.48D+03 ExpMxC= 8.25D+02 IAcc=3 IRadAn=         5 AccDes= 0.00D+00
 Harris functional with IExCor=  402 and IRadAn=       5 diagonalized for initial guess.
 HarFok:  IExCor=  402 AccDes= 0.00D+00 IRadAn=         5 IDoV= 1 UseB2=F ITyADJ=14
 ICtDFT=  3500011 ScaDFX=  1.000000  1.000000  1.000000  1.000000
 FoFCou: FMM=F IPFlag=           0 FMFlag=      100000 FMFlg1=           0
         NFxFlg=           0 DoJE=T BraDBF=F KetDBF=T FulRan=T
         wScrn=  0.000000 ICntrl=       500 IOpCl=  0 I1Cent=   200000004 NGrid=           0
         NMat0=    1 NMatS0=      1 NMatT0=    0 NMatD0=    1 NMtDS0=    0 NMtDT0=    0
 Petite list used in FoFCou.
 Harris En= -768.256535523785    
 JPrj=0 DoOrth=F DoCkMO=F.
 Leave Link  401 at Sat May 25 18:03:19 2019, MaxMem=   402653184 cpu:              20.7 elap:               5.2
 (Enter /n/sw/g16_nehalem/g16/l502.exe)
 Integral symmetry usage will be decided dynamically.
 Closed shell SCF:
 Using DIIS extrapolation, IDIIS=  1040.
 NGot=   402653184 LenX=   402510103 LenY=   402440493
 Requested convergence on RMS density matrix=1.00D-08 within 128 cycles.
 Requested convergence on MAX density matrix=1.00D-06.
 Requested convergence on             energy=1.00D-06.
 No special actions if energy rises.
 Fock matrices will be formed incrementally for  20 cycles.

 Cycle   1  Pass 1  IDiag  1:
 FoFJK:  IHMeth= 1 ICntrl=       0 DoSepK=F KAlg= 0 I1Cent=           0 FoldK=F
 IRaf= 880000000 NMat=       1 IRICut=       1 DoRegI=T DoRafI=F ISym2E= 0 IDoP0=0 IntGTp=1.
 FoFCou: FMM=F IPFlag=           0 FMFlag=      100000 FMFlg1=           0
         NFxFlg=           0 DoJE=F BraDBF=F KetDBF=F FulRan=T
         wScrn=  0.000000 ICntrl=         0 IOpCl=  0 I1Cent=           0 NGrid=           0
         NMat0=    1 NMatS0=      1 NMatT0=    0 NMatD0=    1 NMtDS0=    0 NMtDT0=    0
 Symmetry not used in FoFCou.
 Inv3:  Mode=1 IEnd=    15066243.
 Iteration    1 A*A^-1 deviation from unit magnitude is 6.33D-15 for   2224.
 Iteration    1 A*A^-1 deviation from orthogonality  is 3.76D-15 for   1717   1116.
 Iteration    1 A^-1*A deviation from unit magnitude is 6.33D-15 for   2224.
 Iteration    1 A^-1*A deviation from orthogonality  is 5.03D-15 for   2235   1395.
 E= -768.080969185352    
 DIIS: error= 2.36D-02 at cycle   1 NSaved=   1.
 NSaved= 1 IEnMin= 1 EnMin= -768.080969185352     IErMin= 1 ErrMin= 2.36D-02
 ErrMax= 2.36D-02  0.00D+00 EMaxC= 1.00D-01 BMatC= 2.55D-01 BMatP= 2.55D-01
 IDIUse=3 WtCom= 7.64D-01 WtEn= 2.36D-01
 Coeff-Com:  0.100D+01
 Coeff-En:   0.100D+01
 Coeff:      0.100D+01
 Gap=     0.001 Goal=   None    Shift=    0.000
 GapD=    0.001 DampG=0.250 DampE=0.500 DampFc=0.2500 IDamp=-1.
 Damping current iteration by 2.50D-01
 RMSDP=5.33D-03 MaxDP=1.88D-01              OVMax= 4.66D-01

 Cycle   2  Pass 1  IDiag  1:
 RMSU=  1.33D-03    CP:  9.94D-01
 E= -768.145451916149     Delta-E=       -0.064482730796 Rises=F Damp=T
 DIIS: error= 1.14D-02 at cycle   2 NSaved=   2.
 NSaved= 2 IEnMin= 2 EnMin= -768.145451916149     IErMin= 2 ErrMin= 1.14D-02
 ErrMax= 1.14D-02  0.00D+00 EMaxC= 1.00D-01 BMatC= 6.78D-02 BMatP= 2.55D-01
 IDIUse=3 WtCom= 8.86D-01 WtEn= 1.14D-01
 Coeff-Com: -0.554D+00 0.155D+01
 Coeff-En:   0.000D+00 0.100D+01
 Coeff:     -0.491D+00 0.149D+01
 Gap=     0.092 Goal=   None    Shift=    0.000
 RMSDP=1.63D-03 MaxDP=5.78D-02 DE=-6.45D-02 OVMax= 3.94D-01

 Cycle   3  Pass 1  IDiag  1:
 RMSU=  1.61D-03    CP:  9.85D-01  9.41D-01
 E= -768.261825666204     Delta-E=       -0.116373750056 Rises=F Damp=F
 DIIS: error= 8.96D-03 at cycle   3 NSaved=   3.
 NSaved= 3 IEnMin= 3 EnMin= -768.261825666204     IErMin= 3 ErrMin= 8.96D-03
 ErrMax= 8.96D-03  0.00D+00 EMaxC= 1.00D-01 BMatC= 6.62D-02 BMatP= 6.78D-02
 IDIUse=3 WtCom= 9.10D-01 WtEn= 8.96D-02
 Coeff-Com: -0.483D+00 0.102D+01 0.464D+00
 Coeff-En:   0.000D+00 0.000D+00 0.100D+01
 Coeff:     -0.440D+00 0.927D+00 0.512D+00
 Gap=     0.142 Goal=   None    Shift=    0.000
 RMSDP=1.00D-03 MaxDP=3.41D-02 DE=-1.16D-01 OVMax= 4.72D-02

 Cycle   4  Pass 1  IDiag  1:
 RMSU=  7.43D-04    CP:  9.89D-01  1.16D+00  6.30D-01
 E= -768.318183158094     Delta-E=       -0.056357491889 Rises=F Damp=F
 DIIS: error= 2.77D-03 at cycle   4 NSaved=   4.
 NSaved= 4 IEnMin= 4 EnMin= -768.318183158094     IErMin= 4 ErrMin= 2.77D-03
 ErrMax= 2.77D-03  0.00D+00 EMaxC= 1.00D-01 BMatC= 3.90D-03 BMatP= 6.62D-02
 IDIUse=3 WtCom= 9.72D-01 WtEn= 2.77D-02
 Coeff-Com: -0.241D+00 0.415D+00 0.198D+00 0.628D+00
 Coeff-En:   0.000D+00 0.000D+00 0.000D+00 0.100D+01
 Coeff:     -0.234D+00 0.403D+00 0.192D+00 0.639D+00
 Gap=     0.127 Goal=   None    Shift=    0.000
 RMSDP=2.49D-04 MaxDP=1.39D-02 DE=-5.64D-02 OVMax= 1.26D-02

 Cycle   5  Pass 1  IDiag  1:
 RMSU=  2.30D-04    CP:  9.89D-01  1.20D+00  6.72D-01  9.52D-01
 E= -768.320689158960     Delta-E=       -0.002506000866 Rises=F Damp=F
 DIIS: error= 1.38D-03 at cycle   5 NSaved=   5.
 NSaved= 5 IEnMin= 5 EnMin= -768.320689158960     IErMin= 5 ErrMin= 1.38D-03
 ErrMax= 1.38D-03  0.00D+00 EMaxC= 1.00D-01 BMatC= 1.62D-03 BMatP= 3.90D-03
 IDIUse=3 WtCom= 9.86D-01 WtEn= 1.38D-02
 Coeff-Com: -0.112D+00 0.166D+00 0.227D-01 0.366D+00 0.558D+00
 Coeff-En:   0.000D+00 0.000D+00 0.000D+00 0.149D+00 0.851D+00
 Coeff:     -0.111D+00 0.163D+00 0.224D-01 0.363D+00 0.562D+00
 Gap=     0.126 Goal=   None    Shift=    0.000
 RMSDP=1.25D-04 MaxDP=7.85D-03 DE=-2.51D-03 OVMax= 6.30D-03

 Cycle   6  Pass 1  IDiag  1:
 RMSU=  8.61D-05    CP:  9.89D-01  1.23D+00  6.66D-01  1.04D+00  8.01D-01
 E= -768.321748961043     Delta-E=       -0.001059802083 Rises=F Damp=F
 DIIS: error= 5.31D-04 at cycle   6 NSaved=   6.
 NSaved= 6 IEnMin= 6 EnMin= -768.321748961043     IErMin= 6 ErrMin= 5.31D-04
 ErrMax= 5.31D-04  0.00D+00 EMaxC= 1.00D-01 BMatC= 2.25D-04 BMatP= 1.62D-03
 IDIUse=3 WtCom= 9.95D-01 WtEn= 5.31D-03
 Coeff-Com: -0.445D-01 0.563D-01-0.264D-01 0.133D+00 0.345D+00 0.537D+00
 Coeff-En:   0.000D+00 0.000D+00 0.000D+00 0.000D+00 0.000D+00 0.100D+01
 Coeff:     -0.443D-01 0.560D-01-0.262D-01 0.132D+00 0.343D+00 0.540D+00
 Gap=     0.125 Goal=   None    Shift=    0.000
 RMSDP=4.97D-05 MaxDP=2.81D-03 DE=-1.06D-03 OVMax= 2.58D-03

 Cycle   7  Pass 1  IDiag  1:
 RMSU=  3.28D-05    CP:  9.89D-01  1.24D+00  6.61D-01  1.08D+00  8.77D-01
                    CP:  8.36D-01
 E= -768.321930673993     Delta-E=       -0.000181712951 Rises=F Damp=F
 DIIS: error= 1.77D-04 at cycle   7 NSaved=   7.
 NSaved= 7 IEnMin= 7 EnMin= -768.321930673993     IErMin= 7 ErrMin= 1.77D-04
 ErrMax= 1.77D-04  0.00D+00 EMaxC= 1.00D-01 BMatC= 2.34D-05 BMatP= 2.25D-04
 IDIUse=3 WtCom= 9.98D-01 WtEn= 1.77D-03
 Coeff-Com: -0.108D-01 0.108D-01-0.234D-01 0.148D-01 0.108D+00 0.286D+00
 Coeff-Com:  0.615D+00
 Coeff-En:   0.000D+00 0.000D+00 0.000D+00 0.000D+00 0.000D+00 0.000D+00
 Coeff-En:   0.100D+01
 Coeff:     -0.107D-01 0.107D-01-0.233D-01 0.148D-01 0.107D+00 0.285D+00
 Coeff:      0.616D+00
 Gap=     0.124 Goal=   None    Shift=    0.000
 RMSDP=2.16D-05 MaxDP=9.64D-04 DE=-1.82D-04 OVMax= 1.26D-03

 Cycle   8  Pass 1  IDiag  1:
 RMSU=  1.15D-05    CP:  9.89D-01  1.24D+00  6.59D-01  1.10D+00  9.15D-01
                    CP:  9.10D-01  8.32D-01
 E= -768.321952971819     Delta-E=       -0.000022297826 Rises=F Damp=F
 DIIS: error= 5.23D-05 at cycle   8 NSaved=   8.
 NSaved= 8 IEnMin= 8 EnMin= -768.321952971819     IErMin= 8 ErrMin= 5.23D-05
 ErrMax= 5.23D-05  0.00D+00 EMaxC= 1.00D-01 BMatC= 1.74D-06 BMatP= 2.34D-05
 IDIUse=1 WtCom= 1.00D+00 WtEn= 0.00D+00
 Coeff-Com: -0.470D-03-0.714D-04-0.673D-02-0.107D-01-0.126D-02 0.408D-01
 Coeff-Com:  0.268D+00 0.711D+00
 Coeff:     -0.470D-03-0.714D-04-0.673D-02-0.107D-01-0.126D-02 0.408D-01
 Coeff:      0.268D+00 0.711D+00
 Gap=     0.124 Goal=   None    Shift=    0.000
 RMSDP=7.07D-06 MaxDP=2.40D-04 DE=-2.23D-05 OVMax= 8.09D-04

 Cycle   9  Pass 1  IDiag  1:
 RMSU=  4.10D-06    CP:  9.89D-01  1.24D+00  6.59D-01  1.10D+00  9.25D-01
                    CP:  9.38D-01  9.21D-01  9.63D-01
 E= -768.321954452580     Delta-E=       -0.000001480761 Rises=F Damp=F
 DIIS: error= 1.45D-05 at cycle   9 NSaved=   9.
 NSaved= 9 IEnMin= 9 EnMin= -768.321954452580     IErMin= 9 ErrMin= 1.45D-05
 ErrMax= 1.45D-05  0.00D+00 EMaxC= 1.00D-01 BMatC= 2.26D-07 BMatP= 1.74D-06
 IDIUse=1 WtCom= 1.00D+00 WtEn= 0.00D+00
 Coeff-Com:  0.317D-03-0.424D-03-0.155D-02-0.638D-02-0.956D-02-0.304D-02
 Coeff-Com:  0.895D-01 0.389D+00 0.542D+00
 Coeff:      0.317D-03-0.424D-03-0.155D-02-0.638D-02-0.956D-02-0.304D-02
 Coeff:      0.895D-01 0.389D+00 0.542D+00
 Gap=     0.124 Goal=   None    Shift=    0.000
 RMSDP=2.16D-06 MaxDP=6.14D-05 DE=-1.48D-06 OVMax= 2.40D-04

 Cycle  10  Pass 1  IDiag  1:
 RMSU=  1.36D-06    CP:  9.89D-01  1.24D+00  6.60D-01  1.10D+00  9.27D-01
                    CP:  9.45D-01  9.39D-01  1.03D+00  7.50D-01
 E= -768.321954659145     Delta-E=       -0.000000206565 Rises=F Damp=F
 DIIS: error= 2.43D-06 at cycle  10 NSaved=  10.
 NSaved=10 IEnMin=10 EnMin= -768.321954659145     IErMin=10 ErrMin= 2.43D-06
 ErrMax= 2.43D-06  0.00D+00 EMaxC= 1.00D-01 BMatC= 6.26D-09 BMatP= 2.26D-07
 IDIUse=1 WtCom= 1.00D+00 WtEn= 0.00D+00
 Coeff-Com:  0.271D-03-0.339D-03 0.311D-04-0.122D-02-0.339D-02-0.443D-02
 Coeff-Com:  0.239D-02 0.484D-01 0.153D+00 0.805D+00
 Coeff:      0.271D-03-0.339D-03 0.311D-04-0.122D-02-0.339D-02-0.443D-02
 Coeff:      0.239D-02 0.484D-01 0.153D+00 0.805D+00
 Gap=     0.124 Goal=   None    Shift=    0.000
 RMSDP=7.79D-07 MaxDP=2.28D-05 DE=-2.07D-07 OVMax= 1.15D-04

 Cycle  11  Pass 1  IDiag  1:
 RMSU=  3.27D-07    CP:  9.89D-01  1.24D+00  6.60D-01  1.10D+00  9.28D-01
                    CP:  9.48D-01  9.48D-01  1.05D+00  8.05D-01  1.02D+00
 E= -768.321954668380     Delta-E=       -0.000000009235 Rises=F Damp=F
 DIIS: error= 1.04D-06 at cycle  11 NSaved=  11.
 NSaved=11 IEnMin=11 EnMin= -768.321954668380     IErMin=11 ErrMin= 1.04D-06
 ErrMax= 1.04D-06  0.00D+00 EMaxC= 1.00D-01 BMatC= 1.40D-09 BMatP= 6.26D-09
 IDIUse=1 WtCom= 1.00D+00 WtEn= 0.00D+00
 Coeff-Com:  0.845D-04-0.102D-03 0.123D-03-0.547D-04-0.885D-03-0.146D-02
 Coeff-Com: -0.490D-02-0.345D-02 0.367D-01 0.400D+00 0.574D+00
 Coeff:      0.845D-04-0.102D-03 0.123D-03-0.547D-04-0.885D-03-0.146D-02
 Coeff:     -0.490D-02-0.345D-02 0.367D-01 0.400D+00 0.574D+00
 Gap=     0.124 Goal=   None    Shift=    0.000
 RMSDP=2.30D-07 MaxDP=5.37D-06 DE=-9.23D-09 OVMax= 2.97D-05

 Cycle  12  Pass 1  IDiag  1:
 RMSU=  1.36D-07    CP:  9.89D-01  1.24D+00  6.60D-01  1.10D+00  9.28D-01
                    CP:  9.49D-01  9.48D-01  1.06D+00  8.23D-01  1.07D+00
                    CP:  7.50D-01
 E= -768.321954669921     Delta-E=       -0.000000001542 Rises=F Damp=F
 DIIS: error= 4.04D-07 at cycle  12 NSaved=  12.
 NSaved=12 IEnMin=12 EnMin= -768.321954669921     IErMin=12 ErrMin= 4.04D-07
 ErrMax= 4.04D-07  0.00D+00 EMaxC= 1.00D-01 BMatC= 1.49D-10 BMatP= 1.40D-09
 IDIUse=1 WtCom= 1.00D+00 WtEn= 0.00D+00
 Coeff-Com:  0.187D-04-0.244D-04 0.555D-04 0.139D-03 0.347D-04 0.597D-04
 Coeff-Com: -0.293D-02-0.950D-02-0.732D-02 0.533D-01 0.260D+00 0.706D+00
 Coeff:      0.187D-04-0.244D-04 0.555D-04 0.139D-03 0.347D-04 0.597D-04
 Coeff:     -0.293D-02-0.950D-02-0.732D-02 0.533D-01 0.260D+00 0.706D+00
 Gap=     0.124 Goal=   None    Shift=    0.000
 RMSDP=8.75D-08 MaxDP=2.17D-06 DE=-1.54D-09 OVMax= 1.27D-05

 Cycle  13  Pass 1  IDiag  1:
 RMSU=  3.16D-08    CP:  9.89D-01  1.24D+00  6.60D-01  1.10D+00  9.28D-01
                    CP:  9.49D-01  9.49D-01  1.06D+00  8.27D-01  1.10D+00
                    CP:  8.56D-01  8.76D-01
 E= -768.321954670095     Delta-E=       -0.000000000174 Rises=F Damp=F
 DIIS: error= 9.51D-08 at cycle  13 NSaved=  13.
 NSaved=13 IEnMin=13 EnMin= -768.321954670095     IErMin=13 ErrMin= 9.51D-08
 ErrMax= 9.51D-08  0.00D+00 EMaxC= 1.00D-01 BMatC= 7.84D-12 BMatP= 1.49D-10
 IDIUse=1 WtCom= 1.00D+00 WtEn= 0.00D+00
 Coeff-Com:  0.103D-05-0.197D-05 0.136D-04 0.644D-04 0.799D-04 0.162D-03
 Coeff-Com: -0.791D-03-0.341D-02-0.524D-02-0.617D-02 0.625D-01 0.260D+00
 Coeff-Com:  0.692D+00
 Coeff:      0.103D-05-0.197D-05 0.136D-04 0.644D-04 0.799D-04 0.162D-03
 Coeff:     -0.791D-03-0.341D-02-0.524D-02-0.617D-02 0.625D-01 0.260D+00
 Coeff:      0.692D+00
 Gap=     0.124 Goal=   None    Shift=    0.000
 RMSDP=1.85D-08 MaxDP=5.40D-07 DE=-1.74D-10 OVMax= 2.26D-06

 Cycle  14  Pass 1  IDiag  1:
 RMSU=  1.13D-08    CP:  9.89D-01  1.24D+00  6.60D-01  1.10D+00  9.28D-01
                    CP:  9.49D-01  9.49D-01  1.06D+00  8.28D-01  1.10D+00
                    CP:  8.73D-01  9.20D-01  9.48D-01
 E= -768.321954670069     Delta-E=        0.000000000025 Rises=F Damp=F
 DIIS: error= 4.53D-08 at cycle  14 NSaved=  14.
 NSaved=14 IEnMin=13 EnMin= -768.321954670095     IErMin=14 ErrMin= 4.53D-08
 ErrMax= 4.53D-08  0.00D+00 EMaxC= 1.00D-01 BMatC= 1.24D-12 BMatP= 7.84D-12
 IDIUse=1 WtCom= 1.00D+00 WtEn= 0.00D+00
 Coeff-Com: -0.937D-06 0.945D-06-0.119D-05 0.690D-05 0.213D-04 0.592D-04
 Coeff-Com:  0.480D-04-0.142D-03-0.110D-02-0.843D-02-0.523D-02 0.214D-01
 Coeff-Com:  0.328D+00 0.665D+00
 Coeff:     -0.937D-06 0.945D-06-0.119D-05 0.690D-05 0.213D-04 0.592D-04
 Coeff:      0.480D-04-0.142D-03-0.110D-02-0.843D-02-0.523D-02 0.214D-01
 Coeff:      0.328D+00 0.665D+00
 Gap=     0.124 Goal=   None    Shift=    0.000
 RMSDP=6.21D-09 MaxDP=1.77D-07 DE= 2.55D-11 OVMax= 5.65D-07

 Error on total polarization charges =  0.01277
 SCF Done:  E(RB3LYP) =  -768.321954670     A.U. after   14 cycles
            NFock= 14  Conv=0.62D-08     -V/T= 2.0091
 KE= 7.613794226089D+02 PE=-4.105715675994D+03 EE= 1.410461835800D+03
 Leave Link  502 at Sat May 25 18:05:38 2019, MaxMem=   402653184 cpu:             553.7 elap:             139.0
 (Enter /n/sw/g16_nehalem/g16/l801.exe)
 DoSCS=F DFT=T ScalE2(SS,OS)=  1.000000  1.000000
 Range of M.O.s used for correlation:     1   263
 NBasis=   263 NAE=    59 NBE=    59 NFC=     0 NFV=     0
 NROrb=    263 NOA=    59 NOB=    59 NVA=   204 NVB=   204
 Leave Link  801 at Sat May 25 18:05:38 2019, MaxMem=   402653184 cpu:               0.2 elap:               0.1
 (Enter /n/sw/g16_nehalem/g16/l1101.exe)
 Using compressed storage, NAtomX=    34.
 Will process     35 centers per pass.
 Leave Link 1101 at Sat May 25 18:05:39 2019, MaxMem=   402653184 cpu:               1.7 elap:               0.8
 (Enter /n/sw/g16_nehalem/g16/l1102.exe)
 Symmetrizing basis deriv contribution to polar:
 IMax=3 JMax=2 DiffMx= 0.00D+00
 Leave Link 1102 at Sat May 25 18:05:39 2019, MaxMem=   402653184 cpu:               0.5 elap:               0.2
 (Enter /n/sw/g16_nehalem/g16/l1110.exe)
 Forming Gx(P) for the SCF density, NAtomX=    34.
 Integral derivatives from FoFJK, PRISM(SPDF).
 Do as many integral derivatives as possible in FoFJK.
 G2DrvN: MDV=     402650600.
 G2DrvN: will do    35 centers at a time, making    1 passes.
 Calling FoFCou, ICntrl=  3107 FMM=F I1Cent=   0 AccDes= 0.00D+00.
 FoFJK:  IHMeth= 1 ICntrl=    3107 DoSepK=F KAlg= 0 I1Cent=           0 FoldK=F
 IRaf=         0 NMat=       1 IRICut=       1 DoRegI=T DoRafI=F ISym2E= 0 IDoP0=0 IntGTp=1.
 FoFCou: FMM=F IPFlag=           0 FMFlag=      100000 FMFlg1=           0
         NFxFlg=           0 DoJE=F BraDBF=F KetDBF=F FulRan=T
         wScrn=  0.000000 ICntrl=      3107 IOpCl=  0 I1Cent=           0 NGrid=           0
         NMat0=    1 NMatS0=      1 NMatT0=    0 NMatD0=    1 NMtDS0=    0 NMtDT0=    0
 Symmetry not used in FoFCou.
 NEqPCM:  Using equilibrium solvation (IEInf=0, Eps=   7.4257, EpsInf=   1.9740)
 G2PCM: DoFxE=T DoFxN=T DoGrad=T DoDP/DQ/DG/TGxP=FFFF NFrqRd=   0 IEInf=0 SqF1=F DoCFld=F IF1Alg=4.
 GePol: Maximum number of non-zero 1st derivatives   =     207
 End of G2Drv F.D. properties file   721 does not exist.
 End of G2Drv F.D. properties file   722 does not exist.
 End of G2Drv F.D. properties file   788 does not exist.
 Leave Link 1110 at Sat May 25 18:12:06 2019, MaxMem=   402653184 cpu:            1500.3 elap:             387.0
 (Enter /n/sw/g16_nehalem/g16/l1002.exe)
 Minotr:  Closed shell wavefunction.
          IDoAtm=1111111111111111111111111111111111
 NEqPCM:  Using equilibrium solvation (IEInf=0, Eps=   7.4257, EpsInf=   1.9740)
          Direct CPHF calculation.
          Differentiating once with respect to nuclear coordinates.
          Requested convergence is 1.0D-08 RMS, and 1.0D-07 maximum.
          Secondary convergence is 1.0D-12 RMS, and 1.0D-12 maximum.
          NewPWx=T KeepS1=F KeepF1=F KeepIn=T MapXYZ=F SortEE=F KeepMc=T.
        10224 words used for storage of precomputed grid.
 Two-electron integrals replicated using symmetry.
          MDV=     402653184 using IRadAn=       1.
          Solving linear equations simultaneously, MaxMat=     384.
 FoF2E skips out because all densities are zero.
 CalDSu exits because no D1Ps are significant.
 FoFJK:  IHMeth= 1 ICntrl=       0 DoSepK=F KAlg= 0 I1Cent=           0 FoldK=F
 IRaf= 860000000 NMat=     102 IRICut=     255 DoRegI=T DoRafI=T ISym2E= 2 IDoP0=0 IntGTp=1.
          There are   105 degrees of freedom in the 1st order CPHF.  IDoFFX=6 NUNeed=     0.
     99 vectors produced by pass  0 Test12= 1.20D-14 1.00D-09 XBig12= 1.44D-01 1.29D-01.
 AX will form    99 AO Fock derivatives at one time.
     99 vectors produced by pass  1 Test12= 1.20D-14 1.00D-09 XBig12= 4.37D-02 4.16D-02.
     99 vectors produced by pass  2 Test12= 1.20D-14 1.00D-09 XBig12= 5.77D-04 2.59D-03.
     99 vectors produced by pass  3 Test12= 1.20D-14 1.00D-09 XBig12= 2.25D-06 1.75D-04.
     99 vectors produced by pass  4 Test12= 1.20D-14 1.00D-09 XBig12= 2.79D-09 4.59D-06.
     66 vectors produced by pass  5 Test12= 1.20D-14 1.00D-09 XBig12= 2.37D-12 1.24D-07.
      4 vectors produced by pass  6 Test12= 1.20D-14 1.00D-09 XBig12= 1.64D-15 3.06D-09.
 InvSVY:  IOpt=1 It=  1 EMax= 5.65D-16
 Solved reduced A of dimension   565 with   105 vectors.
 End of Minotr F.D. properties file   721 does not exist.
 End of Minotr F.D. properties file   722 does not exist.
 End of Minotr F.D. properties file   788 does not exist.
 Leave Link 1002 at Sat May 25 18:18:43 2019, MaxMem=   402653184 cpu:            1586.3 elap:             396.6
 (Enter /n/sw/g16_nehalem/g16/l601.exe)
 Copying SCF densities to generalized density rwf, IOpCl= 0 IROHF=0.

 **********************************************************************

            Population analysis using the SCF density.

 **********************************************************************

 Orbital symmetries:
       Occupied  (A) (A) (A) (A) (A) (A) (A) (A) (A) (A) (A) (A)
                 (A) (A) (A) (A) (A) (A) (A) (A) (A) (A) (A) (A)
                 (A) (A) (A) (A) (A) (A) (A) (A) (A) (A) (A) (A)
                 (A) (A) (A) (A) (A) (A) (A) (A) (A) (A) (A) (A)
                 (A) (A) (A) (A) (A) (A) (A) (A) (A) (A) (A)
       Virtual   (A) (A) (A) (A) (A) (A) (A) (A) (A) (A) (A) (A)
                 (A) (A) (A) (A) (A) (A) (A) (A) (A) (A) (A) (A)
                 (A) (A) (A) (A) (A) (A) (A) (A) (A) (A) (A) (A)
                 (A) (A) (A) (A) (A) (A) (A) (A) (A) (A) (A) (A)
                 (A) (A) (A) (A) (A) (A) (A) (A) (A) (A) (A) (A)
                 (A) (A) (A) (A) (A) (A) (A) (A) (A) (A) (A) (A)
                 (A) (A) (A) (A) (A) (A) (A) (A) (A) (A) (A) (A)
                 (A) (A) (A) (A) (A) (A) (A) (A) (A) (A) (A) (A)
                 (A) (A) (A) (A) (A) (A) (A) (A) (A) (A) (A) (A)
                 (A) (A) (A) (A) (A) (A) (A) (A) (A) (A) (A) (A)
                 (A) (A) (A) (A) (A) (A) (A) (A) (A) (A) (A) (A)
                 (A) (A) (A) (A) (A) (A) (A) (A) (A) (A) (A) (A)
                 (A) (A) (A) (A) (A) (A) (A) (A) (A) (A) (A) (A)
                 (A) (A) (A) (A) (A) (A) (A) (A) (A) (A) (A) (A)
                 (A) (A) (A) (A) (A) (A) (A) (A) (A) (A) (A) (A)
                 (A) (A) (A) (A) (A) (A) (A) (A) (A) (A) (A) (A)
                 (A) (A) (A) (A) (A) (A) (A) (A) (A) (A) (A) (A)
 The electronic state is 1-A.
 Alpha  occ. eigenvalues --  -19.33392 -19.20970 -19.19864 -19.19130 -19.18982
 Alpha  occ. eigenvalues --  -10.39909 -10.32196 -10.32066 -10.29869 -10.29599
 Alpha  occ. eigenvalues --  -10.28153 -10.26020 -10.25496 -10.24729 -10.24717
 Alpha  occ. eigenvalues --   -1.22020  -1.09934  -1.08166  -1.07093  -1.06383
 Alpha  occ. eigenvalues --   -0.87177  -0.85996  -0.77744  -0.75148  -0.74575
 Alpha  occ. eigenvalues --   -0.71673  -0.69464  -0.67485  -0.65504  -0.62529
 Alpha  occ. eigenvalues --   -0.60523  -0.59121  -0.55779  -0.54905  -0.54167
 Alpha  occ. eigenvalues --   -0.52623  -0.51978  -0.50942  -0.50473  -0.49035
 Alpha  occ. eigenvalues --   -0.48672  -0.47692  -0.46535  -0.45868  -0.45251
 Alpha  occ. eigenvalues --   -0.44508  -0.43600  -0.42383  -0.41965  -0.40680
 Alpha  occ. eigenvalues --   -0.39871  -0.37198  -0.36012  -0.35087  -0.34768
 Alpha  occ. eigenvalues --   -0.32682  -0.31281  -0.29755  -0.27892
 Alpha virt. eigenvalues --   -0.15475  -0.00711   0.03955   0.05015   0.06370
 Alpha virt. eigenvalues --    0.07113   0.07662   0.08276   0.09677   0.10188
 Alpha virt. eigenvalues --    0.11477   0.11667   0.11890   0.13040   0.13191
 Alpha virt. eigenvalues --    0.13631   0.14155   0.14630   0.14758   0.15511
 Alpha virt. eigenvalues --    0.15782   0.16166   0.16706   0.16872   0.17686
 Alpha virt. eigenvalues --    0.18533   0.19159   0.20584   0.21199   0.22333
 Alpha virt. eigenvalues --    0.23719   0.24611   0.25675   0.27218   0.29013
 Alpha virt. eigenvalues --    0.44005   0.44953   0.46036   0.47119   0.47605
 Alpha virt. eigenvalues --    0.47930   0.49544   0.50074   0.50984   0.51122
 Alpha virt. eigenvalues --    0.52103   0.53178   0.54161   0.55333   0.55632
 Alpha virt. eigenvalues --    0.56923   0.58593   0.61175   0.61913   0.63127
 Alpha virt. eigenvalues --    0.64617   0.65094   0.67666   0.70882   0.72855
 Alpha virt. eigenvalues --    0.73080   0.74610   0.75474   0.77063   0.77749
 Alpha virt. eigenvalues --    0.78686   0.79838   0.80310   0.81844   0.82082
 Alpha virt. eigenvalues --    0.82523   0.83254   0.83833   0.84524   0.85169
 Alpha virt. eigenvalues --    0.86093   0.86777   0.88018   0.88803   0.89900
 Alpha virt. eigenvalues --    0.91060   0.91229   0.93093   0.94021   0.95182
 Alpha virt. eigenvalues --    0.96023   0.97263   0.98721   0.99449   1.01554
 Alpha virt. eigenvalues --    1.04276   1.06740   1.07164   1.11262   1.11690
 Alpha virt. eigenvalues --    1.15688   1.16668   1.17071   1.18247   1.22272
 Alpha virt. eigenvalues --    1.23974   1.26940   1.27737   1.30301   1.31541
 Alpha virt. eigenvalues --    1.33279   1.35192   1.37974   1.38832   1.42996
 Alpha virt. eigenvalues --    1.43409   1.44556   1.45710   1.47804   1.49104
 Alpha virt. eigenvalues --    1.53792   1.55520   1.57122   1.57962   1.60087
 Alpha virt. eigenvalues --    1.64496   1.65598   1.67352   1.68994   1.70496
 Alpha virt. eigenvalues --    1.72004   1.74760   1.77337   1.77982   1.80237
 Alpha virt. eigenvalues --    1.81799   1.82947   1.83864   1.86598   1.88830
 Alpha virt. eigenvalues --    1.91877   1.94507   1.94723   1.97138   2.00877
 Alpha virt. eigenvalues --    2.01306   2.01858   2.02904   2.03385   2.03934
 Alpha virt. eigenvalues --    2.05627   2.07309   2.07791   2.10148   2.11308
 Alpha virt. eigenvalues --    2.12049   2.12989   2.14172   2.16207   2.16853
 Alpha virt. eigenvalues --    2.17278   2.19423   2.22389   2.23730   2.24656
 Alpha virt. eigenvalues --    2.26342   2.28216   2.31482   2.33496   2.36175
 Alpha virt. eigenvalues --    2.37634   2.38723   2.39577   2.41372   2.47407
 Alpha virt. eigenvalues --    2.52449   2.53418   2.55590   2.57339   2.60361
 Alpha virt. eigenvalues --    2.62121   2.65023   2.67085   2.72389   2.73463
 Alpha virt. eigenvalues --    2.76188   2.79531   2.83931   2.87752   2.90985
 Alpha virt. eigenvalues --    2.93653   2.98259   3.02829   3.07410   3.82259
 Alpha virt. eigenvalues --    3.93719   3.94808   4.02322   4.10509   4.15250
 Alpha virt. eigenvalues --    4.21482   4.22706   4.23542   4.25643   4.26085
 Alpha virt. eigenvalues --    4.37083   4.46115   4.51258   4.65690
          Condensed to atoms (all electrons):
               1          2          3          4          5          6
     1  C    5.025637   0.206156  -0.033521  -0.041953   0.282124   0.002899
     2  C    0.206156   5.146625   0.272169  -0.000719  -0.038308  -0.040766
     3  C   -0.033521   0.272169   4.860709  -0.038421  -0.002010   0.358946
     4  C   -0.041953  -0.000719  -0.038421   5.199180   0.276360   0.002871
     5  C    0.282124  -0.038308  -0.002010   0.276360   5.054349  -0.000376
     6  H    0.002899  -0.040766   0.358946   0.002871  -0.000376   0.420871
     7  H   -0.033553   0.368723  -0.045633   0.001363  -0.005679   0.001387
     8  H    0.380050  -0.042989  -0.003678  -0.001831  -0.047445  -0.000006
     9  H   -0.002877   0.000430   0.000830   0.367325  -0.041822  -0.000145
    10  H   -0.047113  -0.002028   0.000198  -0.048396   0.357421  -0.000006
    11  O    0.002319  -0.026893   0.370419   0.110581  -0.024001  -0.032675
    12  O   -0.028782   0.238536  -0.032103   0.000010   0.002342   0.003550
    13  O    0.263884  -0.038561   0.002620   0.002497  -0.037392  -0.000038
    14  O   -0.039079   0.002947  -0.000060  -0.031228   0.195182   0.000003
    15  C    0.001868  -0.000131   0.000622   0.301653  -0.032062  -0.000096
    16  H   -0.000039  -0.000003   0.000170  -0.050474   0.005504   0.000017
    17  H    0.000087  -0.000249   0.001923  -0.046304  -0.007945  -0.000012
    18  O    0.000474  -0.000011   0.000005  -0.055511   0.009507   0.000001
    19  C   -0.002860  -0.048718  -0.004394   0.000004   0.000146   0.000296
    20  H   -0.001867  -0.003770   0.006104  -0.000029   0.000032   0.000016
    21  H    0.000006   0.005107  -0.000084   0.000000  -0.000004  -0.000078
    22  H    0.005845  -0.009105  -0.000519  -0.000006   0.000144   0.000130
    23  C   -0.043022  -0.004906   0.000263   0.000222  -0.006215  -0.000001
    24  H   -0.003500  -0.002217   0.000077  -0.000369   0.004127  -0.000001
    25  H    0.005160  -0.000006  -0.000005   0.000000  -0.000014   0.000000
    26  H   -0.010643   0.006906   0.000122   0.000030  -0.000561   0.000010
    27  C   -0.002124  -0.000016  -0.000002   0.004341  -0.028265   0.000000
    28  H    0.001289  -0.000050  -0.000003   0.000026  -0.004501   0.000000
    29  H   -0.000246   0.000056  -0.000002  -0.000501  -0.009670   0.000000
    30  H   -0.000127   0.000003   0.000000  -0.000139   0.004853   0.000000
    31  C   -0.000019   0.000000   0.000005  -0.002353  -0.001859   0.000000
    32  H    0.000003   0.000000   0.000001  -0.002078   0.000298   0.000000
    33  H   -0.000022   0.000000   0.000000   0.005408  -0.001304   0.000000
    34  H    0.000000   0.000000   0.000000  -0.000140   0.000005   0.000000
               7          8          9         10         11         12
     1  C   -0.033553   0.380050  -0.002877  -0.047113   0.002319  -0.028782
     2  C    0.368723  -0.042989   0.000430  -0.002028  -0.026893   0.238536
     3  C   -0.045633  -0.003678   0.000830   0.000198   0.370419  -0.032103
     4  C    0.001363  -0.001831   0.367325  -0.048396   0.110581   0.000010
     5  C   -0.005679  -0.047445  -0.041822   0.357421  -0.024001   0.002342
     6  H    0.001387  -0.000006  -0.000145  -0.000006  -0.032675   0.003550
     7  H    0.483287   0.004257   0.000007   0.004538  -0.000226  -0.036137
     8  H    0.004257   0.544983   0.001593   0.005426   0.000968  -0.003043
     9  H    0.000007   0.001593   0.472418   0.004995  -0.024781   0.000001
    10  H    0.004538   0.005426   0.004995   0.565100   0.001623  -0.000050
    11  O   -0.000226   0.000968  -0.024781   0.001623   7.950068   0.001678
    12  O   -0.036137  -0.003043   0.000001  -0.000050   0.001678   8.184897
    13  O   -0.004800  -0.042758  -0.000046  -0.003720   0.000020   0.003812
    14  O    0.000001   0.002917   0.005476  -0.032627   0.000986  -0.000008
    15  C    0.000224  -0.000008  -0.029531  -0.001353  -0.027282   0.000000
    16  H   -0.000006   0.000004  -0.005253   0.000391   0.002573   0.000000
    17  H    0.000172   0.000002   0.004027   0.002599   0.000429   0.000001
    18  O   -0.000017  -0.000008  -0.000531   0.002960   0.001032   0.000000
    19  C    0.005127   0.004899  -0.000001   0.000002  -0.000004   0.231386
    20  H   -0.000284   0.000166   0.000001  -0.000001  -0.000424  -0.036371
    21  H   -0.000130  -0.000017   0.000000   0.000000   0.000001  -0.029825
    22  H   -0.000128  -0.002454   0.000000  -0.000007   0.000029  -0.032558
    23  C    0.006275   0.005641  -0.000002   0.002504   0.000001  -0.004208
    24  H   -0.000733  -0.000341   0.000000   0.003353  -0.000004   0.000314
    25  H   -0.000095  -0.000130   0.000000  -0.000061   0.000000   0.000010
    26  H   -0.000294  -0.000088   0.000000  -0.000203  -0.000004   0.006689
    27  C   -0.000021  -0.000222  -0.000169  -0.006381  -0.000040   0.000000
    28  H    0.000000  -0.000005   0.000009  -0.000721   0.000003   0.000001
    29  H    0.000003   0.000051   0.000116   0.010835  -0.000003   0.000000
    30  H    0.000000  -0.000011  -0.000042  -0.000031   0.000000   0.000000
    31  C    0.000000  -0.000001   0.002445  -0.000202  -0.000009   0.000000
    32  H    0.000000   0.000000  -0.000015   0.000025   0.000008   0.000000
    33  H    0.000000   0.000003   0.001107   0.000000  -0.000041   0.000000
    34  H    0.000000   0.000000  -0.000059  -0.000005   0.000001   0.000000
              13         14         15         16         17         18
     1  C    0.263884  -0.039079   0.001868  -0.000039   0.000087   0.000474
     2  C   -0.038561   0.002947  -0.000131  -0.000003  -0.000249  -0.000011
     3  C    0.002620  -0.000060   0.000622   0.000170   0.001923   0.000005
     4  C    0.002497  -0.031228   0.301653  -0.050474  -0.046304  -0.055511
     5  C   -0.037392   0.195182  -0.032062   0.005504  -0.007945   0.009507
     6  H   -0.000038   0.000003  -0.000096   0.000017  -0.000012   0.000001
     7  H   -0.004800   0.000001   0.000224  -0.000006   0.000172  -0.000017
     8  H   -0.042758   0.002917  -0.000008   0.000004   0.000002  -0.000008
     9  H   -0.000046   0.005476  -0.029531  -0.005253   0.004027  -0.000531
    10  H   -0.003720  -0.032627  -0.001353   0.000391   0.002599   0.002960
    11  O    0.000020   0.000986  -0.027282   0.002573   0.000429   0.001032
    12  O    0.003812  -0.000008   0.000000   0.000000   0.000001   0.000000
    13  O    8.186634   0.001395  -0.000029   0.000000  -0.000002   0.000000
    14  O    0.001395   8.247855  -0.001499  -0.000215   0.000076  -0.000260
    15  C   -0.000029  -0.001499   4.871899   0.364899   0.382685   0.268032
    16  H    0.000000  -0.000215   0.364899   0.560668  -0.031654  -0.030044
    17  H   -0.000002   0.000076   0.382685  -0.031654   0.537416  -0.034480
    18  O    0.000000  -0.000260   0.268032  -0.030044  -0.034480   8.162157
    19  C   -0.004066  -0.000001   0.000000   0.000000   0.000000   0.000000
    20  H    0.000240   0.000000   0.000000   0.000000   0.000000   0.000000
    21  H    0.000008   0.000000   0.000000   0.000000   0.000000   0.000000
    22  H    0.007071   0.000003   0.000000   0.000000   0.000000   0.000000
    23  C    0.230453  -0.000024  -0.000006   0.000000  -0.000004   0.000000
    24  H   -0.036280  -0.000014   0.000016   0.000000   0.000002  -0.000004
    25  H   -0.030638  -0.000006   0.000000   0.000000   0.000000   0.000000
    26  H   -0.033615  -0.000001  -0.000002   0.000000   0.000000   0.000000
    27  C   -0.002288   0.230189  -0.000122   0.000003   0.000011  -0.000785
    28  H    0.007113  -0.034087  -0.000028   0.000000   0.000000   0.000036
    29  H    0.000174  -0.035025   0.000098   0.000022  -0.000022   0.003409
    30  H    0.000079  -0.031718   0.000004   0.000000   0.000000  -0.000029
    31  C    0.000000  -0.001924  -0.047075  -0.007947   0.005789   0.238206
    32  H    0.000000   0.000055  -0.007863   0.011927   0.000090  -0.033990
    33  H    0.000000   0.008174  -0.004720  -0.001434  -0.000344  -0.038028
    34  H    0.000000  -0.000038   0.005045  -0.000020  -0.000180  -0.031384
              19         20         21         22         23         24
     1  C   -0.002860  -0.001867   0.000006   0.005845  -0.043022  -0.003500
     2  C   -0.048718  -0.003770   0.005107  -0.009105  -0.004906  -0.002217
     3  C   -0.004394   0.006104  -0.000084  -0.000519   0.000263   0.000077
     4  C    0.000004  -0.000029   0.000000  -0.000006   0.000222  -0.000369
     5  C    0.000146   0.000032  -0.000004   0.000144  -0.006215   0.004127
     6  H    0.000296   0.000016  -0.000078   0.000130  -0.000001  -0.000001
     7  H    0.005127  -0.000284  -0.000130  -0.000128   0.006275  -0.000733
     8  H    0.004899   0.000166  -0.000017  -0.002454   0.005641  -0.000341
     9  H   -0.000001   0.000001   0.000000   0.000000  -0.000002   0.000000
    10  H    0.000002  -0.000001   0.000000  -0.000007   0.002504   0.003353
    11  O   -0.000004  -0.000424   0.000001   0.000029   0.000001  -0.000004
    12  O    0.231386  -0.036371  -0.029825  -0.032558  -0.004208   0.000314
    13  O   -0.004066   0.000240   0.000008   0.007071   0.230453  -0.036280
    14  O   -0.000001   0.000000   0.000000   0.000003  -0.000024  -0.000014
    15  C    0.000000   0.000000   0.000000   0.000000  -0.000006   0.000016
    16  H    0.000000   0.000000   0.000000   0.000000   0.000000   0.000000
    17  H    0.000000   0.000000   0.000000   0.000000  -0.000004   0.000002
    18  O    0.000000   0.000000   0.000000   0.000000   0.000000  -0.000004
    19  C    4.943607   0.362741   0.387199   0.368344   0.000472  -0.000023
    20  H    0.362741   0.578489  -0.027870  -0.040899  -0.000020   0.000001
    21  H    0.387199  -0.027870   0.494720  -0.027312   0.000012   0.000000
    22  H    0.368344  -0.040899  -0.027312   0.544369  -0.000469   0.000044
    23  C    0.000472  -0.000020   0.000012  -0.000469   4.949579   0.360182
    24  H   -0.000023   0.000001   0.000000   0.000044   0.360182   0.580845
    25  H    0.000013   0.000000  -0.000001  -0.000051   0.387394  -0.028976
    26  H   -0.000422   0.000048  -0.000036  -0.000237   0.364454  -0.042247
    27  C    0.000000   0.000000   0.000000   0.000000   0.000181   0.000685
    28  H    0.000000   0.000000   0.000000   0.000000  -0.000345  -0.000335
    29  H    0.000000   0.000000   0.000000   0.000000  -0.000108  -0.000002
    30  H    0.000000   0.000000   0.000000   0.000000   0.000007  -0.000012
    31  C    0.000000   0.000000   0.000000   0.000000   0.000000   0.000000
    32  H    0.000000   0.000000   0.000000   0.000000   0.000000   0.000000
    33  H    0.000000   0.000000   0.000000   0.000000   0.000000   0.000000
    34  H    0.000000   0.000000   0.000000   0.000000   0.000000   0.000000
              25         26         27         28         29         30
     1  C    0.005160  -0.010643  -0.002124   0.001289  -0.000246  -0.000127
     2  C   -0.000006   0.006906  -0.000016  -0.000050   0.000056   0.000003
     3  C   -0.000005   0.000122  -0.000002  -0.000003  -0.000002   0.000000
     4  C    0.000000   0.000030   0.004341   0.000026  -0.000501  -0.000139
     5  C   -0.000014  -0.000561  -0.028265  -0.004501  -0.009670   0.004853
     6  H    0.000000   0.000010   0.000000   0.000000   0.000000   0.000000
     7  H   -0.000095  -0.000294  -0.000021   0.000000   0.000003   0.000000
     8  H   -0.000130  -0.000088  -0.000222  -0.000005   0.000051  -0.000011
     9  H    0.000000   0.000000  -0.000169   0.000009   0.000116  -0.000042
[...]
 013057,0.00008691,0.00006559,-0.00001508,0.00001104,0.00024429,0.00035
 384,-0.00010530,0.00004773,-0.00001034,0.00008374,-0.00000265,0.000004
 76,-0.00001357,-0.00001012,-0.00000256,-0.00000903,-0.00000040,0.00000
 194,-0.00001515,-0.00003316,0.00002655,0.00009050,-0.00002814,-0.00002
 164,-0.00003076,-0.00002836,0.00001595,0.00001261,-0.00000050,-0.00000
 758,-0.00001177,0.01808579,-0.05341728,0.02999587,0.00739674,0.0011646
 9,0.01450291,-0.01188053,0.06226524,0.00023382,-0.00044847,0.00000410,
 -0.00003624,0.00009450,-0.00005697,0.00002787,0.00016868,0.00001886,-0
 .00004794,0.00044914,0.00036029,0.00232787,0.00206762,0.00079636,-0.00
 001531,0.00000350,-0.00004180,0.00002223,0.00001353,-0.00000901,0.0002
 0590,0.00001682,-0.00004167,-0.00015153,0.00013134,-0.00005587,-0.0007
 6738,-0.00085314,0.00093874,-0.00002420,-0.00024938,0.00011202,-0.0002
 4122,-0.00011938,0.00002052,-0.00020626,0.00023452,0.00020428,-0.00760
 138,-0.01168987,-0.00996553,-0.00041407,-0.00020771,-0.00015379,0.0000
 9628,0.00002579,0.00003881,0.00005001,0.00002327,0.00000641,0.00011619
 ,0.00061820,-0.00010616,0.00005181,0.00000665,0.00008752,0.00000061,0.
 00000392,-0.00001569,-0.00001466,-0.00000468,-0.00000460,0.00001390,0.
 00000072,-0.00001078,0.00002730,-0.00006063,-0.00024656,0.00004747,0.0
 0001379,0.00004948,-0.00000405,0.00002203,0.00001581,0.00000395,-0.000
 01414,0.00001908,-0.11511862,0.02352056,-0.22995686,0.00375852,0.00054
 486,0.00639151,0.13069352,-0.01707110,0.24864100,0.00015051,0.00050889
 ,0.00028092,0.00002972,-0.00019836,0.00001937,-0.00009890,0.00015589,0
 .00009313,-0.00027743,0.00005905,0.00017377,0.00117448,0.00023655,-0.0
 0163250,-0.00001244,0.00000416,-0.00004409,0.00001192,0.00006680,-0.00
 002720,0.00002722,-0.00004221,-0.00000968,0.00000286,0.00000425,0.0000
 0650,-0.00014158,-0.00006341,0.00009283,0.00010669,-0.00016841,-0.0000
 1786,-0.00016332,-0.00005824,-0.00002744,-0.00076287,-0.00044784,0.000
 15654,-0.00380363,-0.00839169,0.00374449,-0.00008009,-0.00004336,-0.00
 010529,0.00004320,-0.00001163,0.00002540,-0.00000203,0.00000446,0.0000
 1245,0.00004884,0.00006191,0.00004740,0.00004263,0.00000076,0.00007557
 ,-0.00000235,-0.00000161,-0.00001204,-0.00001131,-0.00000551,-0.000006
 89,0.00000799,0.00000265,0.00000273,0.00023737,-0.00008232,-0.00035540
 ,-0.00001145,0.00003853,-0.00008366,0.00001829,0.00001752,0.00000526,-
 0.00004292,-0.00003623,0.00001091,-0.13312601,-0.05994188,0.10852762,-
 0.01252518,-0.01144347,0.02067112,0.01212589,0.00854751,-0.01315904,0.
 13707462,0.00033449,-0.00141871,0.00050970,-0.00011104,0.00023492,-0.0
 0010776,0.00032249,0.00017986,-0.00004111,-0.00102491,0.00046380,0.000
 81212,-0.00111470,-0.00413990,-0.00321671,-0.00004980,0.00001886,-0.00
 003854,0.00001771,0.00005611,-0.00004476,0.00001014,-0.00000746,0.0000
 0729,-0.00004520,-0.00000830,-0.00007322,0.00011456,-0.00006218,0.0000
 1623,-0.00023192,-0.00096363,0.00000196,-0.00039071,-0.00017786,0.0000
 1087,0.00015142,0.00072311,0.00006054,-0.02150661,-0.02662651,0.022695
 89,-0.00020566,-0.00009450,-0.00022971,0.00009416,-0.00003089,0.000051
 67,0.00001161,0.00001137,0.00000814,0.00030706,0.00005580,-0.00006428,
 0.00007843,-0.00001519,0.00015675,-0.00000103,0.00000462,-0.00002398,-
 0.00001946,-0.00000428,-0.00001578,0.00000676,0.00000489,-0.00002275,-
 0.00011154,0.00001157,-0.00012518,0.00000627,-0.00006380,0.00014029,-0
 .00003098,0.00001509,0.00002756,0.00004648,0.00000401,0.00004153,-0.05
 498748,-0.09165568,0.07704683,0.00808725,0.01004899,-0.01245823,-0.000
 79059,0.00040156,0.00287375,0.07118701,0.11305987,-0.00000147,-0.00022
 258,0.00024983,-0.00009253,0.00000226,0.00005651,0.00003979,0.00003636
 ,0.00000486,-0.00034216,0.00003978,0.00047974,-0.00131971,-0.00302477,
 0.00041169,-0.00001075,0.00000668,-0.00001630,-0.00001676,0.00001501,-
 0.00001590,0.00005021,-0.00000725,0.00001362,-0.00000986,0.00003233,-0
 .00004915,-0.00008096,-0.00018115,0.00049553,0.00006111,-0.00013869,-0
 .00002867,-0.00003212,-0.00001968,0.00001798,0.00019041,0.00017267,-0.
 00009037,-0.00874988,-0.00842003,0.01130335,-0.00000488,-0.00010044,-0
 .00001927,0.00000924,0.00001699,0.00000964,-0.00000693,-0.00000860,-0.
 00000605,-0.00012122,0.00017582,0.00004627,-0.00000224,-0.00001304,0.0
 0000043,-0.00000244,0.00000189,0.00000057,0.00000143,0.00000170,-0.000
 00433,-0.00000613,0.00000166,-0.00000517,-0.00015700,0.00001392,0.0000
 0237,-0.00004308,-0.00001901,0.00010869,0.00001370,-0.00000458,0.00000
 855,0.00004308,0.00001010,0.00000594,0.11254184,0.08833069,-0.20344753
 ,0.00100444,0.00148129,-0.00189997,0.01540707,0.00995389,-0.01692573,-
 0.11847431,-0.08813977,0.20935356,-0.00068711,0.00051036,-0.00012922,-
 0.00066259,-0.00057981,0.00002413,-0.00111795,0.00122154,0.00020872,-0
 .00226861,-0.00037820,0.00024165,-0.00076126,0.00088976,-0.00001646,0.
 00016311,-0.00007347,-0.00039284,0.00007614,-0.00004476,0.00013494,0.0
 0009099,0.00002056,0.00000992,0.00001357,-0.00006166,-0.00007585,-0.00
 041656,0.00015607,0.00019727,0.00374606,-0.00025453,0.00134635,0.00068
 263,0.00000703,0.00018329,0.00059490,-0.00071819,-0.00023071,0.0000331
 6,-0.00089150,0.00060552,-0.03619017,-0.00981694,0.02112785,0.00510249
 ,0.00382615,-0.00011283,0.00026899,-0.00004832,-0.00164384,-0.12785845
 ,-0.01952675,0.05959653,-0.00017591,0.00003116,-0.00033444,-0.00002064
 ,-0.00000160,0.00004943,0.00005031,0.00000686,0.00002356,-0.00002047,-
 0.00001088,0.00003413,-0.00008088,0.00012722,0.00034678,-0.00002079,0.
 00003478,-0.00001744,0.00002671,-0.00005006,-0.00002762,0.00000264,-0.
 00000560,-0.00005656,-0.00006734,0.00124701,-0.00010262,0.00005511,-0.
 00015540,0.00001305,-0.00003352,0.00036141,0.00007022,-0.00001805,-0.0
 0014660,0.00012480,0.53398588,-0.00004143,0.00006675,0.00021740,0.0000
 8916,-0.00000056,0.00007204,0.00012284,-0.00009021,-0.00000262,-0.0000
 2152,0.00055190,-0.00093415,0.00066591,-0.00029619,-0.00059799,-0.0000
 0678,0.00003438,-0.00004954,-0.00001531,0.00000769,-0.00001720,0.00007
 948,-0.00000173,0.00002100,-0.00021162,0.00038092,0.00024097,-0.000197
 48,0.00019917,0.00023985,0.00043856,0.00027825,0.00030358,-0.00005955,
 0.00000368,-0.00002762,-0.00004646,0.00004323,0.00000573,0.00017935,0.
 00002646,0.00013482,-0.02493778,-0.01040268,0.02420869,-0.00306149,0.0
 0187386,0.00290641,-0.00447878,-0.00340378,-0.00055929,0.00485357,-0.0
 7715092,-0.02271459,0.00001544,-0.00000484,0.00002828,0.00000279,0.000
 00027,-0.00000439,-0.00000514,0.00000139,-0.00000379,-0.00000090,0.000
 00179,-0.00000371,-0.00001420,-0.00001502,-0.00003328,0.00000131,0.000
 00749,0.00000178,0.00000538,0.00000286,0.00000227,0.00000014,0.0000019
 5,0.00000363,0.00003727,-0.00018381,0.00011021,-0.00003533,0.00005750,
 -0.00001629,0.00000715,0.00001665,-0.00010327,0.00001535,-0.00002498,0
 .00001147,0.01797167,0.60881970,0.00043606,-0.00041088,0.00006321,0.00
 057010,0.00055893,-0.00010406,0.00157234,-0.00115644,-0.00075023,0.000
 49316,-0.00211282,0.00547417,-0.00060314,-0.00155188,0.00097454,-0.000
 15771,0.00001346,0.00050299,0.00002593,-0.00003852,-0.00005850,-0.0001
 4415,-0.00001102,-0.00003444,-0.00025459,-0.00060773,-0.00035932,0.000
 53421,-0.00029874,-0.00043602,-0.00532403,-0.00040657,-0.00192137,-0.0
 0045543,0.00004498,-0.00016206,-0.00036509,0.00057544,0.00007852,0.001
 59752,0.00053385,-0.00137702,0.00373083,0.00647076,-0.00065066,-0.0033
 5360,-0.00326989,-0.00028378,-0.00169288,-0.00124299,0.00183921,0.0812
 9668,0.00198907,-0.15788015,0.00012490,-0.00001879,0.00025491,0.000017
 41,-0.00000608,-0.00003385,-0.00003216,-0.00000363,-0.00001812,0.00001
 187,0.00000966,-0.00002445,0.00003911,-0.00007558,-0.00017098,0.000006
 79,-0.00002934,0.00001548,-0.00001837,0.00003245,0.00001627,0.00000891
 ,0.00000885,0.00003133,0.00001782,0.00029729,0.00048904,0.00001613,-0.
 00002947,-0.00011133,-0.00005114,-0.00033292,-0.00012180,-0.00006674,0
 .00022634,-0.00011897,0.07686222,0.01378143,0.51750932,0.00006844,-0.0
 0013117,-0.00005994,0.00009818,0.00004992,-0.00002621,-0.00001994,-0.0
 0013963,-0.00002257,-0.00012369,-0.00033016,0.00002190,0.00018050,0.00
 000862,0.00013794,-0.00000630,0.00000924,0.00008108,-0.00000269,0.0000
 1524,-0.00001261,-0.00003212,0.00000101,-0.00000872,-0.00004818,0.0000
 6331,-0.00002932,0.00010799,-0.00008656,-0.00007738,-0.00035047,0.0000
 4992,-0.00032006,-0.00010253,-0.00000629,-0.00002469,-0.00005205,0.000
 07840,0.00003289,-0.00032393,0.00022890,0.00006599,0.00306110,0.006391
 04,0.00077801,0.00024028,-0.00151107,-0.00042604,0.00020137,-0.0002960
 8,-0.00007924,-0.02063860,0.01690904,0.01577344,0.00002478,-0.00000437
 ,0.00005082,0.00000349,0.00000083,-0.00000682,-0.00000749,-0.00000099,
 -0.00000307,0.00000344,0.00000107,-0.00000531,0.00001824,-0.00001448,-
 0.00004045,0.00000167,-0.00000592,0.00000024,-0.00000445,0.00000679,0.
 00000255,-0.00000071,-0.00000078,0.00000697,0.00000712,-0.00027071,-0.
 00003372,-0.00000340,0.00004623,0.00001172,0.00001560,-0.00007704,0.00
 001788,0.00000070,0.00001542,-0.00002458,-0.09345841,0.09017319,0.0076
 4256,0.10274288,-0.00010453,0.00004870,-0.00004397,-0.00006416,-0.0000
 4373,0.00000762,-0.00012619,0.00007614,0.00003723,0.00007439,-0.000399
 29,-0.00008260,-0.00024925,0.00002514,0.00015700,0.00001599,-0.0000105
 9,-0.00002131,0.00000027,-0.00000914,0.00001327,0.00000159,0.00000213,
 -0.00000399,0.00005407,-0.00008123,-0.00000932,-0.00009021,0.00000891,
 -0.00003044,0.00025673,-0.00001130,0.00004865,0.00008918,0.00001399,0.
 00001867,0.00008863,-0.00006381,-0.00003535,0.00034523,-0.00015019,-0.
 00006782,-0.00256807,0.00338136,0.00101745,0.00170787,0.00039452,-0.00
 024699,0.00008707,0.00046092,0.00003752,0.00062928,0.00616514,-0.00364
 667,-0.00002218,-0.00000043,-0.00004306,-0.00000282,0.00000051,0.00000
 662,0.00000642,0.00000102,0.00000317,-0.00000299,-0.00000077,0.0000035
 0,-0.00001899,0.00001345,0.00004655,-0.00000217,0.00000223,0.00000151,
 0.00000254,-0.00000605,-0.00000372,0.00000364,0.00000135,-0.00000737,-
 0.00003620,0.00015720,-0.00002878,0.00004216,-0.00002637,0.00001087,0.
 00000156,0.00002130,0.00004936,-0.00001910,0.00000871,-0.00000753,0.09
 350694,-0.26458789,-0.02518160,-0.10524413,0.27920713,-0.00009656,0.00
 007156,0.00007625,-0.00009525,-0.00007289,0.00001313,-0.00016138,0.000
 14838,0.00008135,-0.00009668,0.00033190,-0.00045283,0.00023273,0.00030
 156,-0.00047462,0.00001251,-0.00000282,-0.00006713,-0.00000060,0.00000
 205,0.00000886,0.00004341,0.00000173,0.00000847,-0.00000769,0.00008955
 ,0.00001201,-0.00011150,0.00006765,0.00014803,0.00054834,-0.00001276,0
 .00026314,0.00005613,-0.00001212,0.00002034,0.00004085,-0.00009067,-0.
 00001348,-0.00065363,0.00010420,0.00025509,-0.00350904,-0.00394864,0.0
 0032241,0.00009835,0.00131694,0.00045200,-0.00023574,0.00007722,-0.000
 02504,0.02423843,-0.02317509,-0.01292869,-0.00001519,0.00000389,-0.000
 02913,-0.00000236,-0.00000051,0.00000425,0.00000468,0.00000046,0.00000
 165,-0.00000200,-0.00000066,0.00000312,-0.00000800,0.00000859,0.000019
 55,-0.00000125,0.00000565,-0.00000242,0.00000349,-0.00000446,-0.000002
 01,-0.00000100,-0.00000118,-0.00000338,-0.00000708,-0.00015074,-0.0001
 0464,-0.00001982,0.00001435,0.00001654,0.00002126,0.00007547,-0.000015
 23,0.00002331,-0.00004604,0.00003828,0.00817488,-0.02053989,-0.0547254
 9,-0.02154344,0.03020833,0.06093433,-0.00000379,0.00008635,-0.00012862
 ,0.00007845,-0.00003625,0.00007033,-0.00016119,-0.00000216,0.00010199,
 -0.00164166,-0.00030724,-0.00099440,-0.00024613,-0.00063092,0.00038435
 ,0.00004764,0.00001117,0.00000064,-0.00002699,0.00001161,-0.00001281,-
 0.00000796,0.00000252,-0.00000338,-0.00124174,-0.00036678,0.00018805,0
 .00011477,0.00003412,-0.00004032,0.00096077,0.00059607,-0.00014719,0.0
 0003250,0.00005123,-0.00001855,0.00003823,0.00000978,-0.00001631,-0.00
 055653,0.00030842,-0.00017510,0.00441834,0.00134525,0.00214699,-0.0005
 6759,-0.00023479,-0.00005312,-0.00049249,-0.00028904,-0.00020338,0.006
 87555,-0.01013103,0.03171192,-0.00000622,-0.00001080,-0.00001113,0.000
 00163,0.00000183,0.00000314,0.00000069,0.00000177,0.00000058,-0.000002
 89,0.00000114,-0.00000054,-0.00003260,-0.00000063,0.00004055,0.0000001
 6,0.00000097,0.00000245,0.00000335,-0.00000197,-0.00000258,0.00000620,
 0.00000742,-0.00000434,0.00029758,0.00057801,0.00004246,-0.00005117,-0
 .00019976,-0.00006059,-0.00003116,-0.00005976,-0.00006017,-0.00002047,
 -0.00006506,0.00004234,-0.10688408,0.03722454,-0.10244939,-0.00391067,
 0.00276320,-0.01090399,0.11097129,-0.00004844,-0.00005291,0.00003136,-
 0.00008021,0.00001683,-0.00004188,-0.00005925,0.00017569,0.00005292,-0
 .00028631,0.00016413,0.00030266,0.00011736,0.00039198,-0.00019779,0.00
 002009,-0.00001630,-0.00002346,0.00001885,-0.00000772,0.00001423,-0.00
 000842,0.00000580,0.00000144,-0.00067235,-0.00010851,-0.00014465,0.000
 02505,-0.00009501,0.00001287,0.00034817,-0.00010917,-0.00015816,0.0000
 1658,-0.00003540,0.00001931,0.00002793,-0.00006707,-0.00000135,0.00023
 288,-0.00057852,0.00014673,0.00094111,0.00030078,0.00098021,0.00027337
 ,-0.00021404,0.00003884,-0.00017475,-0.00001086,-0.00007920,-0.0030210
 5,0.00301617,0.00152526,-0.00000553,0.00001158,-0.00000797,-0.00000075
 ,-0.00000207,0.00000105,0.00000227,-0.00000074,0.00000112,0.00000106,-
 0.00000185,0.00000214,0.00002140,0.00001118,0.00000649,-0.00000334,0.0
 0000159,-0.00000494,-0.00000064,-0.00000186,-0.00000126,-0.00000473,-0
 .00000581,-0.00000141,0.00016179,-0.00025471,-0.00005708,-0.00000401,0
 .00004325,-0.00000801,0.00002785,-0.00002046,-0.00004581,0.00003276,-0
 .00000812,-0.00000219,0.03701412,-0.08280251,0.06977089,0.01394715,-0.
 00801987,0.02483838,-0.03925614,0.07921404,-0.00002197,0.00004932,0.00
 003644,-0.00008660,-0.00013119,0.00001891,-0.00021608,0.00023248,0.000
 02549,0.00026055,0.00062172,-0.00050083,0.00059692,0.00060696,-0.00059
 518,0.00000786,0.00001283,-0.00013747,0.00000157,0.00002427,0.00000365
 ,0.00003303,-0.00000345,0.00001058,0.00026565,0.00014727,0.00037901,-0
 .00009054,0.00004817,0.00015385,0.00077013,-0.00009871,0.00067785,-0.0
 0000478,-0.00004111,0.00002610,-0.00001520,-0.00008141,0.00002939,-0.0
 0155993,0.00054177,0.00008410,-0.00386537,-0.00341168,-0.00086683,0.00
 036672,0.00051263,0.00017270,0.00073586,0.00037390,0.00006623,0.006657
 69,0.00887659,-0.03069289,-0.00000449,0.00000402,-0.00001207,-0.000003
 05,0.00000213,0.00000061,0.00000030,-0.00000110,0.00000070,0.00000142,
 -0.00000124,0.00000196,0.00001957,0.00000111,-0.00003072,0.00000175,0.
 00000455,-0.00000554,0.00000057,-0.00000041,0.00000096,-0.00000758,-0.
 00000641,0.00000243,-0.00004430,-0.00066014,-0.00020729,-0.00003072,0.
 00009588,0.00003467,0.00005842,0.00004993,-0.00002874,0.00006086,-0.00
 005175,0.00004405,-0.09703924,0.06834724,-0.22743498,0.00052792,-0.001
 41381,0.00628355,0.09830670,-0.07792804,0.25873091,0.00008338,-0.00009
 047,0.00004435,0.00014898,0.00009262,0.00001042,0.00026524,-0.00022760
 ,-0.00012233,0.00040063,-0.00023309,0.00036992,-0.00000451,-0.00026337
 ,0.00003765,-0.00001723,0.00001463,0.00007826,-0.00000997,0.00000590,-
 0.00002278,-0.00000627,-0.00000339,-0.00000441,0.00005664,0.00005359,0
 .00000177,0.00003658,-0.00002979,-0.00000771,-0.00063979,0.00004662,-0
 .00025462,-0.00012540,0.00001249,-0.00003729,-0.00009050,0.00015504,0.
 00003777,-0.00005526,0.00037005,0.00002187,-0.00116854,0.00245017,0.00
 312003,0.00003394,-0.00025190,-0.00006825,-0.00087663,-0.00077848,-0.0
 0010324,-0.02322192,-0.01856343,0.00109626,0.00003154,-0.00001166,0.00
 005985,0.00000346,0.00000179,-0.00000838,-0.00000930,-0.00000069,-0.00
 000455,0.00000281,0.00000279,-0.00000757,-0.00000402,-0.00002832,-0.00
 006617,0.00000528,-0.00000779,0.00000815,-0.00000424,0.00000910,0.0000
 0519,0.00000435,0.00000376,0.00001040,-0.00012512,-0.00027160,-0.00015
 146,0.00002852,0.00005101,0.00004467,0.00001542,-0.00001153,0.00009673
 ,-0.00000289,0.00004203,-0.00003046,-0.17414991,-0.11874934,-0.0600361
 3,0.01230986,0.00887424,0.00397379,-0.00796183,-0.00960387,-0.00568363
 ,0.19504671,0.00005011,-0.00002760,0.00000376,0.00001157,0.00003807,-0
 .00000688,0.00017409,-0.00003080,-0.00002681,0.00009801,0.00006954,0.0
 0016720,-0.00006353,-0.00000525,-0.00000786,-0.00001299,-0.00000141,0.
 00000324,0.00000291,-0.00000594,-0.00000717,-0.00000528,-0.00000096,0.
 00000055,-0.00005709,-0.00007452,-0.00005327,0.00002149,-0.00001483,-0
 .00002454,-0.00029405,-0.00006034,-0.00002139,-0.00002848,-0.00000457,
 -0.00000373,-0.00003923,0.00003415,0.00001970,0.00002091,-0.00001924,-
 0.00005904,0.00065741,0.00137610,0.00064046,0.00010708,0.00048820,0.00
 000045,-0.00040786,0.00010404,0.00002125,-0.00175615,-0.00001362,0.002
 04215,0.00000667,0.00000075,0.00001187,0.00000035,-0.00000021,-0.00000
 263,-0.00000209,-0.00000071,-0.00000082,0.00000134,0.00000005,-0.00000
 115,0.00000701,-0.00000583,-0.00002099,0.00000150,-0.00000196,0.000000
 58,-0.00000193,0.00000257,0.00000149,-0.00000120,-0.00000023,0.0000034
 0,0.00003098,-0.00002240,0.00001680,-0.00000565,-0.00001099,-0.0000048
 1,0.00001976,-0.00002214,-0.00001497,0.00001121,-0.00000114,0.00000481
 ,-0.12416836,-0.17341078,-0.05752851,-0.01987595,-0.01657920,-0.009609
 39,0.00855694,0.00906049,0.00327769,0.13694051,0.17914074,0.00001147,0
 .00003317,-0.00001895,-0.00004818,-0.00005291,0.00000986,-0.00014319,0
 .00009634,0.00007764,-0.00005953,0.00042311,-0.00095415,0.00014169,0.0
 0016766,-0.00003720,0.00000167,0.00000488,-0.00007733,-0.00000479,0.00
 000872,0.00000393,0.00000736,-0.00000135,0.00000436,0.00027495,0.00008
 319,0.00026890,-0.00005404,0.00003946,0.00001812,0.00049072,0.00005032
 ,0.00042584,0.00002428,-0.00000998,0.00001425,0.00000644,-0.00003787,0
 .00000050,-0.00032957,0.00015665,0.00010338,0.00435623,-0.00006341,-0.
 00307122,-0.00012622,0.00006823,-0.00008383,0.00103620,0.00076711,0.00
 006603,0.02624278,0.02204482,0.00471959,-0.00000716,0.00000136,-0.0000
 1622,-0.00000164,0.00000088,0.00000162,0.00000171,-0.00000031,0.000001
 55,0.,-0.00000074,0.00000192,0.00000613,0.00000602,0.00000809,-0.00000
 105,0.00000049,-0.00000235,-0.00000061,-0.00000122,-0.00000038,-0.0000
 0223,-0.00000160,-0.00000138,-0.00007081,-0.00017566,-0.00003913,0.000
 01890,0.00005097,0.00002385,0.00000446,0.00001583,0.00005200,-0.000008
 02,0.00001213,-0.00002403,-0.06919553,-0.06502918,-0.08047138,-0.00240
 776,-0.00079297,-0.00011828,-0.01775657,-0.01904270,-0.00627162,0.0575
 9189,0.06117855,0.08538606\\0.00000066,-0.00000380,-0.00000119,0.00000
 246,0.00000077,-0.00001037,0.00000630,-0.00000284,0.00000397,0.0000076
 7,0.00000484,0.00000625,-0.00000290,-0.00000220,0.00000151,0.00000102,
 -0.00000028,-0.00000132,-0.00000507,0.00000006,-0.00000340,0.00000420,
 -0.00000462,-0.00000540,0.00000370,-0.00000284,0.00000810,-0.00000508,
 0.00000396,-0.00000007,-0.00000309,-0.00000588,0.00000517,-0.00000215,
 -0.00000059,-0.00001051,0.00000178,0.00000437,-0.00000903,0.00000261,0
 .00000143,-0.00000020,-0.00000643,-0.00000168,0.00000978,0.00000130,0.
 00000411,0.00001575,-0.00000451,0.00000344,0.00000816,0.00000089,0.000
 00494,0.00001327,0.00000386,-0.00000442,-0.00001118,0.00000723,-0.0000
 0596,-0.00000869,0.00000352,-0.00000550,-0.00001556,0.00000450,-0.0000
 0549,-0.00001370,-0.00000664,0.00000059,-0.00001227,-0.00000750,0.0000
 0384,-0.00000750,-0.00000747,0.00000065,-0.00001452,-0.00000754,0.0000
 0286,-0.00001131,0.00000147,0.00000029,0.00000251,-0.00000186,-0.00000
 065,-0.00000406,-0.00000313,0.00000244,0.00000169,0.00000119,-0.000000
 89,0.00000050,0.00000244,0.00000377,0.00001467,0.00000298,0.00000205,0
 .00001955,0.00000447,-0.00000045,0.00001343,-0.00000089,0.00000371,0.0
 0001599\\\@


 SIC AS THE CAWSE OF EWERY THING IS, SIC WILBE THE EFFECT.
 -- PROVERBS AND REASONS OF THE YEAR 1585
           AS REPRINTED IN PAISLEY MAGAZINE 1828.
 Job cpu time:       0 days  1 hours 17 minutes 23.7 seconds.
 Elapsed time:       0 days  0 hours 19 minutes 30.9 seconds.
 File lengths (MBytes):  RWF=    380 Int=      0 D2E=      0 Chk=     14 Scr=      1
 Normal termination of Gaussian 16 at Sat May 25 18:43:38 2019.
