 Entering Gaussian System, Link 0=g16
 Input=clay-glucose_cation-087-b3lyp_d3bj-631gd-pcm_thf.gjf
 Output=clay-glucose_cation-087-b3lyp_d3bj-631gd-pcm_thf.out
 Initial command:
 /n/sw/g16_nehalem/g16/l1.exe "/scratch/Gau-3229.inp" -scrdir="/scratch/"
 Entering Link 1 = /n/sw/g16_nehalem/g16/l1.exe PID=      3233.
  
 Copyright (c) 1988,1990,1992,1993,1995,1998,2003,2009,2016,
            Gaussian, Inc.  All Rights Reserved.
  
 This is part of the Gaussian(R) 16 program.  It is based on
 the Gaussian(R) 09 system (copyright 2009, Gaussian, Inc.),
 the Gaussian(R) 03 system (copyright 2003, Gaussian, Inc.),
 the Gaussian(R) 98 system (copyright 1998, Gaussian, Inc.),
 the Gaussian(R) 94 system (copyright 1995, Gaussian, Inc.),
 the Gaussian 92(TM) system (copyright 1992, Gaussian, Inc.),
 the Gaussian 90(TM) system (copyright 1990, Gaussian, Inc.),
 the Gaussian 88(TM) system (copyright 1988, Gaussian, Inc.),
 the Gaussian 86(TM) system (copyright 1986, Carnegie Mellon
 University), and the Gaussian 82(TM) system (copyright 1983,
 Carnegie Mellon University). Gaussian is a federally registered
 trademark of Gaussian, Inc.
  
 This software contains proprietary and confidential information,
 including trade secrets, belonging to Gaussian, Inc.
  
 This software is provided under written license and may be
 used, copied, transmitted, or stored only in accord with that
 written license.
  
 The following legend is applicable only to US Government
 contracts under FAR:
  
                    RESTRICTED RIGHTS LEGEND
  
 Use, reproduction and disclosure by the US Government is
 subject to restrictions as set forth in subparagraphs (a)
 and (c) of the Commercial Computer Software - Restricted
 Rights clause in FAR 52.227-19.
  
 Gaussian, Inc.
 340 Quinnipiac St., Bldg. 40, Wallingford CT 06492
  
  
 ---------------------------------------------------------------
 Warning -- This program may not be used in any manner that
 competes with the business of Gaussian, Inc. or will provide
 assistance to any competitor of Gaussian, Inc.  The licensee
 of this program is prohibited from giving any competitor of
 Gaussian, Inc. access to this program.  By using this program,
 the user acknowledges that Gaussian, Inc. is engaged in the
 business of creating and licensing software in the field of
 computational chemistry and represents and warrants to the
 licensee that it is not a competitor of Gaussian, Inc. and that
 it will not use this program in any manner prohibited above.
 ---------------------------------------------------------------
  

 Cite this work as:
 Gaussian 16, Revision A.03,
 M. J. Frisch, G. W. Trucks, H. B. Schlegel, G. E. Scuseria, 
 M. A. Robb, J. R. Cheeseman, G. Scalmani, V. Barone, 
 G. A. Petersson, H. Nakatsuji, X. Li, M. Caricato, A. V. Marenich, 
 J. Bloino, B. G. Janesko, R. Gomperts, B. Mennucci, H. P. Hratchian, 
 J. V. Ortiz, A. F. Izmaylov, J. L. Sonnenberg, D. Williams-Young, 
 F. Ding, F. Lipparini, F. Egidi, J. Goings, B. Peng, A. Petrone, 
 T. Henderson, D. Ranasinghe, V. G. Zakrzewski, J. Gao, N. Rega, 
 G. Zheng, W. Liang, M. Hada, M. Ehara, K. Toyota, R. Fukuda, 
 J. Hasegawa, M. Ishida, T. Nakajima, Y. Honda, O. Kitao, H. Nakai, 
 T. Vreven, K. Throssell, J. A. Montgomery, Jr., J. E. Peralta, 
 F. Ogliaro, M. J. Bearpark, J. J. Heyd, E. N. Brothers, K. N. Kudin, 
 V. N. Staroverov, T. A. Keith, R. Kobayashi, J. Normand, 
 K. Raghavachari, A. P. Rendell, J. C. Burant, S. S. Iyengar, 
 J. Tomasi, M. Cossi, J. M. Millam, M. Klene, C. Adamo, R. Cammi, 
 J. W. Ochterski, R. L. Martin, K. Morokuma, O. Farkas, 
 J. B. Foresman, and D. J. Fox, Gaussian, Inc., Wallingford CT, 2016.
 
 ******************************************
 Gaussian 16:  ES64L-G16RevA.03 25-Dec-2016
                24-May-2019 
 ******************************************
 %nprocshared=4
 Will use up to    4 processors via shared memory.
 %mem=3GB
 -------------------------------------------------------------------
 #p b3lyp 6-31g* opt freq=noraman scrf=(pcm,solvent=tetrahydrofuran)
 -------------------------------------------------------------------
 1/18=20,19=15,26=3,38=1/1,3;
 2/9=110,12=2,17=6,18=5,40=1/2;
 3/5=1,6=6,7=1,11=2,25=1,30=1,70=2201,71=1,72=20,74=-5/1,2,3;
 4//1;
 5/5=2,38=5,53=20/2;
 6/7=2,8=2,9=2,10=2,28=1/1;
 7//1,2,3,16;
 1/18=20,19=15,26=3/3(2);
 2/9=110/2;
 99//99;
 2/9=110/2;
 3/5=1,6=6,7=1,11=2,25=1,30=1,70=2205,71=1,72=20,74=-5/1,2,3;
 4/5=5,16=3,69=1/1;
 5/5=2,38=5,53=20/2;
 7//1,2,3,16;
 1/18=20,19=15,26=3/3(-5);
 2/9=110/2;
 6/7=2,8=2,9=2,10=2,19=2,28=1/1;
 99/9=1/99;
 Leave Link    1 at Fri May 24 08:31:17 2019, MaxMem=   402653184 cpu:               0.4 elap:               0.2
 (Enter /n/sw/g16_nehalem/g16/l101.exe)
 -----
 title
 -----
 Symbolic Z-matrix:
 Charge =  1 Multiplicity = 1
 6                    -1.04242   0.07603   0.20131 
 6                    -0.45346  -1.34653  -0.00673 
 6                     0.30239  -1.3693   -1.28909 
 6                     1.25689   0.80499  -0.84788 
 6                     0.11198   1.11131   0.16163 
 1                     0.26098  -2.23337  -1.95474 
 1                     0.31281  -1.48931   0.77471 
 1                    -1.76581   0.28616  -0.59811 
 1                     1.33706   1.58631  -1.6014 
 1                     0.55436   1.07736   1.16061 
 8                     1.01777  -0.42291  -1.70055 
 8                    -1.32481  -2.43119   0.0899 
 8                    -1.67502   0.05047   1.45282 
 8                    -0.31073   2.45319   0.00818 
 6                     2.60973   0.56797  -0.19901 
 1                     2.89209   1.50217   0.31091 
 1                     3.36833   0.3554   -0.96595 
 8                     2.46824  -0.50752   0.7005 
 6                    -2.54133  -2.3413   -0.66197 
 1                    -2.3541   -2.10149  -1.71846 
 1                    -2.9996   -3.32877  -0.59966 
 1                    -3.2212   -1.59937  -0.23119 
 6                    -2.69216   1.0389    1.64815 
 1                    -3.46835   0.96032   0.87508 
 1                    -3.13565   0.8247    2.62187 
 1                    -2.2744    2.05041   1.64864 
 6                    -1.06427   2.78274  -1.16097 
 1                    -0.61269   2.38027  -2.07718 
 1                    -2.10076   2.43397  -1.092 
 1                    -1.06212   3.87227  -1.21993 
 6                     3.67109  -0.821     1.40292 
 1                     4.46949  -1.10689   0.70579 
 1                     4.0056    0.03278   2.00603 
 1                     3.43976  -1.66201   2.05806 
 
 ITRead=  0  0  0  0  0  0  0  0  0  0  0  0  0  0  0  0  0  0  0  0
 ITRead=  0  0  0  0  0  0  0  0  0  0  0  0  0  0
 MicOpt= -1 -1 -1 -1 -1 -1 -1 -1 -1 -1 -1 -1 -1 -1 -1 -1 -1 -1 -1 -1
 MicOpt= -1 -1 -1 -1 -1 -1 -1 -1 -1 -1 -1 -1 -1 -1
 NAtoms=     34 NQM=       34 NQMF=       0 NMMI=      0 NMMIF=      0
                NMic=       0 NMicF=      0.
                    Isotopes and Nuclear Properties:
 (Nuclear quadrupole moments (NQMom) in fm**2, nuclear magnetic moments (NMagM)
  in nuclear magnetons)

  Atom         1           2           3           4           5           6           7           8           9          10
 IAtWgt=          12          12          12          12          12           1           1           1           1           1
 AtmWgt=  12.0000000  12.0000000  12.0000000  12.0000000  12.0000000   1.0078250   1.0078250   1.0078250   1.0078250   1.0078250
 NucSpn=           0           0           0           0           0           1           1           1           1           1
 AtZEff=   0.0000000   0.0000000   0.0000000   0.0000000   0.0000000   0.0000000   0.0000000   0.0000000   0.0000000   0.0000000
 NQMom=    0.0000000   0.0000000   0.0000000   0.0000000   0.0000000   0.0000000   0.0000000   0.0000000   0.0000000   0.0000000
 NMagM=    0.0000000   0.0000000   0.0000000   0.0000000   0.0000000   2.7928460   2.7928460   2.7928460   2.7928460   2.7928460
 AtZNuc=   6.0000000   6.0000000   6.0000000   6.0000000   6.0000000   1.0000000   1.0000000   1.0000000   1.0000000   1.0000000

  Atom        11          12          13          14          15          16          17          18          19          20
 IAtWgt=          16          16          16          16          12           1           1          16          12           1
 AtmWgt=  15.9949146  15.9949146  15.9949146  15.9949146  12.0000000   1.0078250   1.0078250  15.9949146  12.0000000   1.0078250
 NucSpn=           0           0           0           0           0           1           1           0           0           1
 AtZEff=   0.0000000   0.0000000   0.0000000   0.0000000   0.0000000   0.0000000   0.0000000   0.0000000   0.0000000   0.0000000
 NQMom=    0.0000000   0.0000000   0.0000000   0.0000000   0.0000000   0.0000000   0.0000000   0.0000000   0.0000000   0.0000000
 NMagM=    0.0000000   0.0000000   0.0000000   0.0000000   0.0000000   2.7928460   2.7928460   0.0000000   0.0000000   2.7928460
 AtZNuc=   8.0000000   8.0000000   8.0000000   8.0000000   6.0000000   1.0000000   1.0000000   8.0000000   6.0000000   1.0000000

  Atom        21          22          23          24          25          26          27          28          29          30
 IAtWgt=           1           1          12           1           1           1          12           1           1           1
 AtmWgt=   1.0078250   1.0078250  12.0000000   1.0078250   1.0078250   1.0078250  12.0000000   1.0078250   1.0078250   1.0078250
 NucSpn=           1           1           0           1           1           1           0           1           1           1
 AtZEff=   0.0000000   0.0000000   0.0000000   0.0000000   0.0000000   0.0000000   0.0000000   0.0000000   0.0000000   0.0000000
 NQMom=    0.0000000   0.0000000   0.0000000   0.0000000   0.0000000   0.0000000   0.0000000   0.0000000   0.0000000   0.0000000
 NMagM=    2.7928460   2.7928460   0.0000000   2.7928460   2.7928460   2.7928460   0.0000000   2.7928460   2.7928460   2.7928460
 AtZNuc=   1.0000000   1.0000000   6.0000000   1.0000000   1.0000000   1.0000000   6.0000000   1.0000000   1.0000000   1.0000000

  Atom        31          32          33          34
 IAtWgt=          12           1           1           1
 AtmWgt=  12.0000000   1.0078250   1.0078250   1.0078250
 NucSpn=           0           1           1           1
 AtZEff=   0.0000000   0.0000000   0.0000000   0.0000000
 NQMom=    0.0000000   0.0000000   0.0000000   0.0000000
 NMagM=    0.0000000   2.7928460   2.7928460   2.7928460
 AtZNuc=   6.0000000   1.0000000   1.0000000   1.0000000
 Leave Link  101 at Fri May 24 08:31:17 2019, MaxMem=   402653184 cpu:               0.8 elap:               0.3
 (Enter /n/sw/g16_nehalem/g16/l103.exe)

 GradGradGradGradGradGradGradGradGradGradGradGradGradGradGradGradGradGrad
 Berny optimization.
 Initialization pass.
                           ----------------------------
                           !    Initial Parameters    !
                           ! (Angstroms and Degrees)  !
 --------------------------                            --------------------------
 ! Name  Definition              Value          Derivative Info.                !
 --------------------------------------------------------------------------------
 ! R1    R(1,2)                  1.5536         estimate D2E/DX2                !
 ! R2    R(1,5)                  1.5511         estimate D2E/DX2                !
 ! R3    R(1,8)                  1.0984         estimate D2E/DX2                !
 ! R4    R(1,13)                 1.4025         estimate D2E/DX2                !
 ! R5    R(2,3)                  1.4887         estimate D2E/DX2                !
 ! R6    R(2,7)                  1.1037         estimate D2E/DX2                !
 ! R7    R(2,12)                 1.3947         estimate D2E/DX2                !
 ! R8    R(3,6)                  1.0915         estimate D2E/DX2                !
 ! R9    R(3,11)                 1.2557         estimate D2E/DX2                !
 ! R10   R(4,5)                  1.5568         estimate D2E/DX2                !
 ! R11   R(4,9)                  1.0884         estimate D2E/DX2                !
 ! R12   R(4,11)                 1.5139         estimate D2E/DX2                !
 ! R13   R(4,15)                 1.519          estimate D2E/DX2                !
 ! R14   R(5,10)                 1.0931         estimate D2E/DX2                !
 ! R15   R(5,14)                 1.4152         estimate D2E/DX2                !
 ! R16   R(12,19)                1.4329         estimate D2E/DX2                !
 ! R17   R(13,23)                1.4317         estimate D2E/DX2                !
 ! R18   R(14,27)                1.4294         estimate D2E/DX2                !
 ! R19   R(15,16)                1.1011         estimate D2E/DX2                !
 ! R20   R(15,17)                1.0995         estimate D2E/DX2                !
 ! R21   R(15,18)                1.4092         estimate D2E/DX2                !
 ! R22   R(18,31)                1.4278         estimate D2E/DX2                !
 ! R23   R(19,20)                1.0994         estimate D2E/DX2                !
 ! R24   R(19,21)                1.0904         estimate D2E/DX2                !
 ! R25   R(19,22)                1.0946         estimate D2E/DX2                !
 ! R26   R(23,24)                1.0983         estimate D2E/DX2                !
 ! R27   R(23,25)                1.0912         estimate D2E/DX2                !
 ! R28   R(23,26)                1.0944         estimate D2E/DX2                !
 ! R29   R(27,28)                1.0979         estimate D2E/DX2                !
 ! R30   R(27,29)                1.0958         estimate D2E/DX2                !
 ! R31   R(27,30)                1.0911         estimate D2E/DX2                !
 ! R32   R(31,32)                1.0978         estimate D2E/DX2                !
 ! R33   R(31,33)                1.0975         estimate D2E/DX2                !
 ! R34   R(31,34)                1.0909         estimate D2E/DX2                !
 ! A1    A(2,1,5)              109.0004         estimate D2E/DX2                !
 ! A2    A(2,1,8)              109.1091         estimate D2E/DX2                !
 ! A3    A(2,1,13)             105.8891         estimate D2E/DX2                !
 ! A4    A(5,1,8)              110.1105         estimate D2E/DX2                !
 ! A5    A(5,1,13)             111.7566         estimate D2E/DX2                !
 ! A6    A(8,1,13)             110.846          estimate D2E/DX2                !
 ! A7    A(1,2,3)              108.7725         estimate D2E/DX2                !
 ! A8    A(1,2,7)              106.6679         estimate D2E/DX2                !
 ! A9    A(1,2,12)             117.7737         estimate D2E/DX2                !
 ! A10   A(3,2,7)              104.7973         estimate D2E/DX2                !
 ! A11   A(3,2,12)             111.4071         estimate D2E/DX2                !
 ! A12   A(7,2,12)             106.5053         estimate D2E/DX2                !
 ! A13   A(2,3,6)              121.2089         estimate D2E/DX2                !
 ! A14   A(2,3,11)             124.0549         estimate D2E/DX2                !
 ! A15   A(6,3,11)             114.7342         estimate D2E/DX2                !
 ! A16   A(5,4,9)              111.2128         estimate D2E/DX2                !
 ! A17   A(5,4,11)             114.1196         estimate D2E/DX2                !
 ! A18   A(5,4,15)             114.1213         estimate D2E/DX2                !
 ! A19   A(9,4,11)             101.7672         estimate D2E/DX2                !
 ! A20   A(9,4,15)             110.0075         estimate D2E/DX2                !
 ! A21   A(11,4,15)            104.7557         estimate D2E/DX2                !
 ! A22   A(1,5,4)              115.6308         estimate D2E/DX2                !
 ! A23   A(1,5,10)             104.8974         estimate D2E/DX2                !
 ! A24   A(1,5,14)             114.414          estimate D2E/DX2                !
 ! A25   A(4,5,10)             106.7905         estimate D2E/DX2                !
 ! A26   A(4,5,14)             109.6277         estimate D2E/DX2                !
 ! A27   A(10,5,14)            104.4439         estimate D2E/DX2                !
 ! A28   A(3,11,4)             121.1126         estimate D2E/DX2                !
 ! A29   A(2,12,19)            116.4408         estimate D2E/DX2                !
 ! A30   A(1,13,23)            115.4424         estimate D2E/DX2                !
 ! A31   A(5,14,27)            117.6931         estimate D2E/DX2                !
 ! A32   A(4,15,16)            107.0863         estimate D2E/DX2                !
 ! A33   A(4,15,17)            110.2845         estimate D2E/DX2                !
 ! A34   A(4,15,18)            107.5979         estimate D2E/DX2                !
 ! A35   A(16,15,17)           108.0669         estimate D2E/DX2                !
 ! A36   A(16,15,18)           112.188          estimate D2E/DX2                !
 ! A37   A(17,15,18)           111.5296         estimate D2E/DX2                !
 ! A38   A(15,18,31)           113.3917         estimate D2E/DX2                !
 ! A39   A(12,19,20)           111.921          estimate D2E/DX2                !
 ! A40   A(12,19,21)           105.6642         estimate D2E/DX2                !
 ! A41   A(12,19,22)           111.3037         estimate D2E/DX2                !
 ! A42   A(20,19,21)           108.9057         estimate D2E/DX2                !
 ! A43   A(20,19,22)           109.6392         estimate D2E/DX2                !
 ! A44   A(21,19,22)           109.2859         estimate D2E/DX2                !
 ! A45   A(13,23,24)           110.8952         estimate D2E/DX2                !
 ! A46   A(13,23,25)           105.9605         estimate D2E/DX2                !
 ! A47   A(13,23,26)           111.5295         estimate D2E/DX2                !
 ! A48   A(24,23,25)           109.076          estimate D2E/DX2                !
 ! A49   A(24,23,26)           109.646          estimate D2E/DX2                !
 ! A50   A(25,23,26)           109.6445         estimate D2E/DX2                !
 ! A51   A(14,27,28)           112.4083         estimate D2E/DX2                !
 ! A52   A(14,27,29)           111.9488         estimate D2E/DX2                !
 ! A53   A(14,27,30)           105.8646         estimate D2E/DX2                !
 ! A54   A(28,27,29)           108.9606         estimate D2E/DX2                !
 ! A55   A(28,27,30)           108.6716         estimate D2E/DX2                !
 ! A56   A(29,27,30)           108.8502         estimate D2E/DX2                !
 ! A57   A(18,31,32)           110.9451         estimate D2E/DX2                !
 ! A58   A(18,31,33)           110.8738         estimate D2E/DX2                !
 ! A59   A(18,31,34)           106.6234         estimate D2E/DX2                !
 ! A60   A(32,31,33)           109.261          estimate D2E/DX2                !
 ! A61   A(32,31,34)           109.5624         estimate D2E/DX2                !
 ! A62   A(33,31,34)           109.5323         estimate D2E/DX2                !
 ! D1    D(5,1,2,3)            -56.4733         estimate D2E/DX2                !
 ! D2    D(5,1,2,7)             56.0678         estimate D2E/DX2                !
 ! D3    D(5,1,2,12)           175.5966         estimate D2E/DX2                !
 ! D4    D(8,1,2,3)             63.8015         estimate D2E/DX2                !
 ! D5    D(8,1,2,7)            176.3427         estimate D2E/DX2                !
 ! D6    D(8,1,2,12)           -64.1285         estimate D2E/DX2                !
 ! D7    D(13,1,2,3)          -176.8453         estimate D2E/DX2                !
 ! D8    D(13,1,2,7)           -64.3042         estimate D2E/DX2                !
 ! D9    D(13,1,2,12)           55.2246         estimate D2E/DX2                !
 ! D10   D(2,1,5,4)             36.3501         estimate D2E/DX2                !
 ! D11   D(2,1,5,10)           -80.9841         estimate D2E/DX2                !
 ! D12   D(2,1,5,14)           165.1743         estimate D2E/DX2                !
 ! D13   D(8,1,5,4)            -83.306          estimate D2E/DX2                !
 ! D14   D(8,1,5,10)           159.3598         estimate D2E/DX2                !
 ! D15   D(8,1,5,14)            45.5183         estimate D2E/DX2                !
 ! D16   D(13,1,5,4)           153.0413         estimate D2E/DX2                !
 ! D17   D(13,1,5,10)           35.707          estimate D2E/DX2                !
 ! D18   D(13,1,5,14)          -78.1345         estimate D2E/DX2                !
 ! D19   D(2,1,13,23)         -157.4504         estimate D2E/DX2                !
 ! D20   D(5,1,13,23)           83.99           estimate D2E/DX2                !
 ! D21   D(8,1,13,23)          -39.2469         estimate D2E/DX2                !
 ! D22   D(1,2,3,6)           -140.5556         estimate D2E/DX2                !
 ! D23   D(1,2,3,11)            38.9021         estimate D2E/DX2                !
 ! D24   D(7,2,3,6)            105.6712         estimate D2E/DX2                !
 ! D25   D(7,2,3,11)           -74.8711         estimate D2E/DX2                !
 ! D26   D(12,2,3,6)            -9.112          estimate D2E/DX2                !
 ! D27   D(12,2,3,11)          170.3457         estimate D2E/DX2                !
 ! D28   D(1,2,12,19)           49.311          estimate D2E/DX2                !
 ! D29   D(3,2,12,19)          -77.3538         estimate D2E/DX2                !
 ! D30   D(7,2,12,19)          168.9252         estimate D2E/DX2                !
 ! D31   D(2,3,11,4)             4.9062         estimate D2E/DX2                !
 ! D32   D(6,3,11,4)          -175.6044         estimate D2E/DX2                !
 ! D33   D(9,4,5,1)            118.0405         estimate D2E/DX2                !
 ! D34   D(9,4,5,10)          -125.6889         estimate D2E/DX2                !
 ! D35   D(9,4,5,14)           -13.0935         estimate D2E/DX2                !
 ! D36   D(11,4,5,1)             3.6179         estimate D2E/DX2                !
 ! D37   D(11,4,5,10)          119.8886         estimate D2E/DX2                !
 ! D38   D(11,4,5,14)         -127.5161         estimate D2E/DX2                !
 ! D39   D(15,4,5,1)          -116.7957         estimate D2E/DX2                !
 ! D40   D(15,4,5,10)           -0.5251         estimate D2E/DX2                !
 ! D41   D(15,4,5,14)          112.0703         estimate D2E/DX2                !
 ! D42   D(5,4,11,3)           -27.3093         estimate D2E/DX2                !
 ! D43   D(9,4,11,3)          -147.1918         estimate D2E/DX2                !
 ! D44   D(15,4,11,3)           98.2086         estimate D2E/DX2                !
 ! D45   D(5,4,15,16)          -62.8051         estimate D2E/DX2                !
 ! D46   D(5,4,15,17)          179.8396         estimate D2E/DX2                !
 ! D47   D(5,4,15,18)           57.9904         estimate D2E/DX2                !
 ! D48   D(9,4,15,16)           62.9946         estimate D2E/DX2                !
 ! D49   D(9,4,15,17)          -54.3607         estimate D2E/DX2                !
 ! D50   D(9,4,15,18)         -176.2099         estimate D2E/DX2                !
 ! D51   D(11,4,15,16)         171.678          estimate D2E/DX2                !
 ! D52   D(11,4,15,17)          54.3227         estimate D2E/DX2                !
 ! D53   D(11,4,15,18)         -67.5264         estimate D2E/DX2                !
 ! D54   D(1,5,14,27)          -59.4669         estimate D2E/DX2                !
 ! D55   D(4,5,14,27)           72.31           estimate D2E/DX2                !
 ! D56   D(10,5,14,27)        -173.5754         estimate D2E/DX2                !
 ! D57   D(2,12,19,20)          52.2237         estimate D2E/DX2                !
 ! D58   D(2,12,19,21)         170.6208         estimate D2E/DX2                !
 ! D59   D(2,12,19,22)         -70.8549         estimate D2E/DX2                !
 ! D60   D(1,13,23,24)          56.8571         estimate D2E/DX2                !
 ! D61   D(1,13,23,25)         175.0889         estimate D2E/DX2                !
 ! D62   D(1,13,23,26)         -65.6548         estimate D2E/DX2                !
 ! D63   D(5,14,27,28)         -47.1106         estimate D2E/DX2                !
 ! D64   D(5,14,27,29)          75.92           estimate D2E/DX2                !
 ! D65   D(5,14,27,30)        -165.6124         estimate D2E/DX2                !
 ! D66   D(4,15,18,31)        -178.8787         estimate D2E/DX2                !
 ! D67   D(16,15,18,31)        -61.3464         estimate D2E/DX2                !
 ! D68   D(17,15,18,31)         60.0495         estimate D2E/DX2                !
 ! D69   D(15,18,31,32)        -60.5416         estimate D2E/DX2                !
 ! D70   D(15,18,31,33)         61.0583         estimate D2E/DX2                !
 ! D71   D(15,18,31,34)       -179.7796         estimate D2E/DX2                !
 --------------------------------------------------------------------------------
 Trust Radius=3.00D-01 FncErr=1.00D-07 GrdErr=1.00D-06 EigMax=2.50D+02 EigMin=1.00D-04
 Number of steps in this run=    177 maximum allowed number of steps=    204.
 GradGradGradGradGradGradGradGradGradGradGradGradGradGradGradGradGradGrad

 Leave Link  103 at Fri May 24 08:31:17 2019, MaxMem=   402653184 cpu:               0.1 elap:               0.1
 (Enter /n/sw/g16_nehalem/g16/l202.exe)
                          Input orientation:                          
 ---------------------------------------------------------------------
 Center     Atomic      Atomic             Coordinates (Angstroms)
 Number     Number       Type             X           Y           Z
 ---------------------------------------------------------------------
      1          6           0       -1.042416    0.076026    0.201306
      2          6           0       -0.453455   -1.346533   -0.006728
      3          6           0        0.302385   -1.369304   -1.289089
      4          6           0        1.256891    0.804991   -0.847878
      5          6           0        0.111980    1.111313    0.161630
      6          1           0        0.260979   -2.233369   -1.954743
      7          1           0        0.312814   -1.489308    0.774707
      8          1           0       -1.765808    0.286158   -0.598106
      9          1           0        1.337057    1.586310   -1.601395
     10          1           0        0.554363    1.077359    1.160611
     11          8           0        1.017774   -0.422908   -1.700553
     12          8           0       -1.324814   -2.431194    0.089897
     13          8           0       -1.675020    0.050465    1.452817
     14          8           0       -0.310731    2.453190    0.008177
     15          6           0        2.609727    0.567966   -0.199008
     16          1           0        2.892094    1.502173    0.310914
     17          1           0        3.368326    0.355395   -0.965950
     18          8           0        2.468235   -0.507515    0.700502
     19          6           0       -2.541326   -2.341295   -0.661970
     20          1           0       -2.354103   -2.101485   -1.718457
     21          1           0       -2.999596   -3.328772   -0.599663
     22          1           0       -3.221195   -1.599367   -0.231185
     23          6           0       -2.692156    1.038895    1.648151
     24          1           0       -3.468353    0.960321    0.875079
     25          1           0       -3.135651    0.824697    2.621874
     26          1           0       -2.274398    2.050412    1.648635
     27          6           0       -1.064274    2.782741   -1.160966
     28          1           0       -0.612686    2.380265   -2.077176
     29          1           0       -2.100757    2.433972   -1.091996
     30          1           0       -1.062117    3.872269   -1.219932
     31          6           0        3.671086   -0.821003    1.402917
     32          1           0        4.469485   -1.106887    0.705789
     33          1           0        4.005597    0.032782    2.006025
     34          1           0        3.439757   -1.662006    2.058061
 ---------------------------------------------------------------------
                    Distance matrix (angstroms):
                    1          2          3          4          5
     1  C    0.000000
     2  C    1.553650   0.000000
     3  C    2.473610   1.488712   0.000000
     4  C    2.630397   2.874347   2.415224   0.000000
     5  C    1.551136   2.527661   2.879983   1.556843   0.000000
     6  H    3.417703   2.256470   1.091521   3.383581   3.960825
     7  H    2.148420   1.103718   2.067308   2.964434   2.679445
     8  H    1.098413   2.176621   2.737779   3.077058   2.187274
     9  H    3.345531   3.788201   3.147020   1.088427   2.198794
    10  H    2.114861   2.872913   3.471409   2.145171   1.093078
    11  O    2.847874   2.426240   1.255687   1.513925   2.577212
    12  O    2.525532   1.394666   2.382643   4.244704   3.823464
    13  O    1.402541   2.360952   3.666596   3.802448   2.446616
    14  O    2.494708   3.802432   4.082924   2.430397   1.415227
    15  C    3.706805   3.617369   3.203922   1.519006   2.581477
    16  H    4.186440   4.405533   4.184732   2.121969   2.811422
    17  H    4.571124   4.292164   3.532563   2.161998   3.527979
    18  O    3.593659   3.120961   3.064647   2.363791   2.909111
    19  C    2.972443   2.403768   3.069973   4.935598   4.431574
    20  H    3.185525   2.666914   2.788794   4.716438   4.465239
    21  H    4.008086   3.280804   3.901013   5.938627   5.475018
    22  H    2.782278   2.788313   3.686151   5.120010   4.314180
    23  C    2.396272   3.666152   4.836742   4.677590   3.174613
    24  H    2.668542   3.897277   4.932468   5.031962   3.653846
    25  H    3.286532   4.337968   5.650607   5.597677   4.084367
    26  H    2.740573   4.194675   5.192734   4.500406   2.964438
    27  C    3.030275   4.330851   4.373060   3.065506   2.434441
    28  H    3.268894   4.266279   3.939252   2.736417   2.673506
    29  H    2.890091   4.264227   4.503204   3.739916   2.866568
    30  H    4.053612   5.392423   5.416709   3.863213   3.303043
    31  C    4.946274   4.390344   4.346916   3.679439   4.235785
    32  H    5.659933   4.980005   4.627432   4.048446   4.919794
    33  H    5.361093   5.082994   5.151446   4.036887   4.441315
    34  H    5.153462   4.418142   4.596976   4.392660   4.728832
                    6          7          8          9         10
     6  H    0.000000
     7  H    2.829525   0.000000
     8  H    3.506615   3.059014   0.000000
     9  H    3.984062   4.019249   3.510663   0.000000
    10  H    4.555483   2.606731   3.016998   2.915531   0.000000
    11  O    1.978666   2.785873   3.076767   2.036843   3.263711
    12  O    2.595077   2.009462   2.837574   5.107481   4.121611
    13  O    4.536018   2.604269   2.066417   4.556275   2.471850
    14  O    5.113095   4.064439   2.679712   2.461180   1.992336
    15  C    4.055453   3.233621   4.402727   2.150210   2.516459
    16  H    5.100024   3.977028   4.899088   2.466200   2.523378
    17  H    4.163534   3.971016   5.147760   2.458657   3.600261
    18  O    3.860165   2.369655   4.499269   3.310951   2.527139
    19  C    3.088013   3.306968   2.740258   5.599148   4.959061
    20  H    2.629045   3.701766   2.702243   5.219023   5.182013
    21  H    3.696958   4.030457   3.819680   6.630841   5.928168
    22  H    3.936769   3.676024   2.409977   5.727449   4.832887
    23  C    5.692940   4.023004   2.543699   5.205168   3.283148
    24  H    5.667051   4.506438   2.350198   5.442127   4.034535
    25  H    6.467943   4.545168   3.540447   6.198481   3.976849
    26  H    6.145181   4.470686   2.901569   4.880645   3.030988
    27  C    5.248594   4.888108   2.653656   2.718789   3.304245
    28  H    4.697222   4.895241   2.811160   2.158293   3.680059
    29  H    5.301528   4.970114   2.229175   3.577231   3.736884
    30  H    6.290417   5.883496   3.707026   3.335740   4.011423
    31  C    4.989738   3.481274   5.898281   4.502082   3.657383
    32  H    5.104793   4.174795   6.520705   4.731650   4.506215
    33  H    5.902990   4.179659   6.336783   4.748477   3.703631
    34  H    5.151085   3.384464   6.160233   5.325835   4.078607
                   11         12         13         14         15
    11  O    0.000000
    12  O    3.567442   0.000000
    13  O    4.173603   2.852863   0.000000
    14  O    3.599531   4.989213   3.117909   0.000000
    15  C    2.402245   4.955708   4.621189   3.482251   0.000000
    16  H    3.356339   5.770835   4.926452   3.354724   1.101133
    17  H    2.582730   5.559267   5.601674   4.345702   1.099481
    18  O    2.806432   4.296580   4.247809   4.119192   1.409183
    19  C    4.174453   1.432930   3.308070   5.330266   5.933926
    20  H    3.766629   2.106724   3.892174   5.282206   5.837320
    21  H    5.078904   2.021394   4.169702   6.405509   6.841754
    22  H    4.638098   2.095541   2.819302   4.995129   6.220773
    23  C    5.207136   4.042190   1.431683   3.218840   5.634158
    24  H    5.354674   4.088232   2.092286   3.598716   6.184712
    25  H    6.122976   4.504538   2.024740   4.178944   6.405674
    26  H    5.307803   4.839025   2.096995   2.590236   5.428269
    27  C    3.860345   5.368208   3.830170   1.429450   4.396462
    28  H    3.264663   5.324798   4.360891   2.108362   4.146793
    29  H    4.272861   5.066438   3.512610   2.101177   5.144712
    30  H    4.796404   6.443470   4.703767   2.021538   5.044120
    31  C    4.102447   5.410707   5.416899   5.340459   2.371051
    32  H    4.262935   5.975535   6.297020   6.000940   2.661295
    33  H    4.782621   6.177055   5.707518   5.336709   2.664028
    34  H    4.639886   5.212145   5.427690   5.933214   3.279647
                   16         17         18         19         20
    16  H    0.000000
    17  H    1.781089   0.000000
    18  O    2.090522   2.081307   0.000000
    19  C    6.726128   6.502963   5.505886   0.000000
    20  H    6.680365   6.272856   5.625571   1.099421   0.000000
    21  H    7.673278   7.365981   6.288648   1.090415   1.781739
    22  H    6.876462   6.912508   5.867691   1.094648   1.793307
    23  C    5.760788   6.635521   5.469832   4.096961   4.616310
    24  H    6.408367   7.106019   6.117851   3.758000   4.164449
    25  H    6.491011   7.442744   6.072067   4.600039   5.292620
    26  H    5.364951   6.445888   5.471244   4.969631   5.346205
    27  C    4.411251   5.057468   5.173922   5.355971   5.082334
    28  H    4.330993   4.602540   5.054388   5.292975   4.821545
    29  H    5.269247   5.852114   5.721982   4.814790   4.585522
    30  H    4.857636   5.662308   5.944238   6.411533   6.132169
    31  C    2.682619   2.662162   1.427765   6.720797   6.905470
    32  H    3.074294   2.479018   2.089085   7.248862   7.309415
    33  H    2.504476   3.056604   2.088012   7.457656   7.672851
    34  H    3.655747   3.635884   2.029697   6.605555   6.929938
                   21         22         23         24         25
    21  H    0.000000
    22  H    1.782056   0.000000
    23  C    4.921758   3.282105   0.000000
    24  H    4.559706   2.799448   1.098315   0.000000
    25  H    5.258148   3.744776   1.091194   1.783361   0.000000
    26  H    5.875064   4.213198   1.094390   1.792266   1.786429
    27  C    6.435148   4.971888   3.685395   3.639545   4.736498
    28  H    6.361878   5.103868   4.472307   4.345904   5.555737
    29  H    5.853163   4.273664   3.131198   2.812712   4.177751
    30  H    7.482884   5.964733   4.348671   4.319547   5.324163
    31  C    7.402515   7.125986   6.634019   7.377216   7.108154
    32  H    7.901149   7.763183   7.535352   8.204345   8.077159
    33  H    8.195266   7.739221   6.782347   7.615727   7.211368
    34  H    7.162882   7.043639   6.712917   7.483183   7.052487
                   26         27         28         29         30
    26  H    0.000000
    27  C    3.145563   0.000000
    28  H    4.092891   1.097889   0.000000
    29  H    2.772783   1.095762   1.785447   0.000000
    30  H    3.607972   1.091125   1.778463   1.778718   0.000000
    31  C    6.607131   6.479514   6.380428   7.080510   7.163054
    32  H    7.505828   7.016870   6.762661   7.677095   7.687588
    33  H    6.605823   6.579947   6.596343   7.256101   7.129529
    34  H    6.826510   7.099592   7.061334   7.576093   7.851134
                   31         32         33         34
    31  C    0.000000
    32  H    1.097797   0.000000
    33  H    1.097536   1.790154   0.000000
    34  H    1.090877   1.788054   1.787509   0.000000
 Stoichiometry    C10H19O5(1+)
 Framework group  C1[X(C10H19O5)]
 Deg. of freedom    96
 Full point group                 C1      NOp   1
 Largest Abelian subgroup         C1      NOp   1
 Largest concise Abelian subgroup C1      NOp   1
                         Standard orientation:                         
 ---------------------------------------------------------------------
 Center     Atomic      Atomic             Coordinates (Angstroms)
 Number     Number       Type             X           Y           Z
 ---------------------------------------------------------------------
      1          6           0       -1.042416    0.076026    0.201306
      2          6           0       -0.453455   -1.346533   -0.006728
      3          6           0        0.302385   -1.369304   -1.289089
      4          6           0        1.256891    0.804991   -0.847878
      5          6           0        0.111980    1.111313    0.161630
      6          1           0        0.260979   -2.233369   -1.954743
      7          1           0        0.312814   -1.489308    0.774707
      8          1           0       -1.765808    0.286158   -0.598106
      9          1           0        1.337057    1.586310   -1.601395
     10          1           0        0.554363    1.077359    1.160611
     11          8           0        1.017774   -0.422908   -1.700553
     12          8           0       -1.324815   -2.431194    0.089897
     13          8           0       -1.675020    0.050465    1.452817
     14          8           0       -0.310731    2.453190    0.008177
     15          6           0        2.609727    0.567966   -0.199008
     16          1           0        2.892094    1.502172    0.310914
     17          1           0        3.368326    0.355394   -0.965950
     18          8           0        2.468235   -0.507515    0.700502
     19          6           0       -2.541326   -2.341295   -0.661970
     20          1           0       -2.354103   -2.101485   -1.718457
     21          1           0       -2.999597   -3.328772   -0.599663
     22          1           0       -3.221195   -1.599367   -0.231185
     23          6           0       -2.692156    1.038895    1.648151
     24          1           0       -3.468353    0.960322    0.875079
     25          1           0       -3.135651    0.824697    2.621874
     26          1           0       -2.274398    2.050412    1.648635
     27          6           0       -1.064274    2.782741   -1.160966
     28          1           0       -0.612686    2.380265   -2.077176
     29          1           0       -2.100757    2.433972   -1.091996
     30          1           0       -1.062116    3.872269   -1.219932
     31          6           0        3.671086   -0.821004    1.402917
     32          1           0        4.469485   -1.106888    0.705789
     33          1           0        4.005597    0.032781    2.006025
     34          1           0        3.439757   -1.662007    2.058061
 ---------------------------------------------------------------------
 Rotational constants (GHZ):           0.6727114           0.4990874           0.3904310
 Leave Link  202 at Fri May 24 08:31:17 2019, MaxMem=   402653184 cpu:               0.4 elap:               0.2
 (Enter /n/sw/g16_nehalem/g16/l301.exe)
 Standard basis: 6-31G(d) (6D, 7F)
 Ernie: Thresh=  0.10000D-02 Tol=  0.10000D-05 Strict=F.
 There are   263 symmetry adapted cartesian basis functions of A   symmetry.
 There are   263 symmetry adapted basis functions of A   symmetry.
   263 basis functions,   496 primitive gaussians,   263 cartesian basis functions
    59 alpha electrons       59 beta electrons
       nuclear repulsion energy      1175.1506002553 Hartrees.
 IExCor=  402 DFT=T Ex+Corr=B3LYP ExCW=0 ScaHFX=  0.200000
 ScaDFX=  0.800000  0.720000  1.000000  0.810000 ScalE2=  1.000000  1.000000
 IRadAn=      5 IRanWt=     -1 IRanGd=            0 ICorTp=0 IEmpDi=  4
 NAtoms=   34 NActive=   34 NUniq=   34 SFac= 1.00D+00 NAtFMM=   60 NAOKFM=F Big=F
 Integral buffers will be    131072 words long.
 Raffenetti 2 integral format.
 Two-electron integral symmetry is turned on.
 ------------------------------------------------------------------------------
 Polarizable Continuum Model (PCM)
 =================================
 Model                : PCM.
 Atomic radii         : UFF (Universal Force Field).
 Polarization charges : Total charges.
 Charge compensation  : None.
 Solution method      : On-the-fly selection.
 Cavity type          : Scaled VdW (van der Waals Surface) (Alpha=1.100).
 Cavity algorithm     : GePol (No added spheres)
                        Default sphere list used, NSphG=   34.
                        Lebedev-Laikov grids with approx.  5.0 points / Ang**2.
                        Smoothing algorithm: York/Karplus (Gamma=1.0000).
                        Polarization charges: spherical gaussians, with
                                              point-specific exponents (IZeta= 3).
                        Self-potential: point-specific (ISelfS= 7).
                        Self-field    : sphere-specific E.n sum rule (ISelfD= 2).
 1st derivatives      : Analytical E(r).r(x)/FMM algorithm (CHGder, D1EAlg=3).
                        Cavity 1st derivative terms included.
 Solvent              : TetraHydroFuran, Eps=   7.425700 Eps(inf)=   1.974025
 ------------------------------------------------------------------------------
 GePol: Number of generator spheres                  =      34
 GePol: Total number of spheres                      =      34
 GePol: Number of exposed spheres                    =      34 (100.00%)
 GePol: Number of points                             =    2259
 GePol: Average weight of points                     =       0.13
 GePol: Minimum weight of points                     =   0.43D-10
 GePol: Maximum weight of points                     =    0.20577
 GePol: Number of points with low weight             =     161
 GePol: Fraction of low-weight points (<1% of avg)   =       7.13%
 GePol: Cavity surface area                          =    295.911 Ang**2
 GePol: Cavity volume                                =    319.298 Ang**3
 Leave Link  301 at Fri May 24 08:31:18 2019, MaxMem=   402653184 cpu:               0.6 elap:               0.3
 (Enter /n/sw/g16_nehalem/g16/l302.exe)
 NPDir=0 NMtPBC=     1 NCelOv=     1 NCel=       1 NClECP=     1 NCelD=      1
         NCelK=      1 NCelE2=     1 NClLst=     1 CellRange=     0.0.
 One-electron integrals computed using PRISM.
 One-electron integral symmetry used in STVInt
 NBasis=   263 RedAO= T EigKep=  1.52D-03  NBF=   263
 NBsUse=   263 1.00D-06 EigRej= -1.00D+00 NBFU=   263
 Precomputing XC quadrature grid using
 IXCGrd= 4 IRadAn=           5 IRanWt=          -1 IRanGd=           0 AccXCQ= 0.00D+00.
 Generated NRdTot=       0 NPtTot=           0 NUsed=           0 NTot=          32
 NSgBfM=   262   262   262   262   262 MxSgAt=    34 MxSgA2=    34.
 Leave Link  302 at Fri May 24 08:31:24 2019, MaxMem=   402653184 cpu:              18.3 elap:               5.8
 (Enter /n/sw/g16_nehalem/g16/l303.exe)
 DipDrv:  MaxL=1.
 Leave Link  303 at Fri May 24 08:31:24 2019, MaxMem=   402653184 cpu:               0.4 elap:               0.2
 (Enter /n/sw/g16_nehalem/g16/l401.exe)
 ExpMin= 1.61D-01 ExpMax= 5.48D+03 ExpMxC= 8.25D+02 IAcc=3 IRadAn=         5 AccDes= 0.00D+00
 Harris functional with IExCor=  402 and IRadAn=       5 diagonalized for initial guess.
 HarFok:  IExCor=  402 AccDes= 0.00D+00 IRadAn=         5 IDoV= 1 UseB2=F ITyADJ=14
 ICtDFT=  3500011 ScaDFX=  1.000000  1.000000  1.000000  1.000000
 FoFCou: FMM=F IPFlag=           0 FMFlag=      100000 FMFlg1=           0
         NFxFlg=           0 DoJE=T BraDBF=F KetDBF=T FulRan=T
         wScrn=  0.000000 ICntrl=       500 IOpCl=  0 I1Cent=   200000004 NGrid=           0
         NMat0=    1 NMatS0=      1 NMatT0=    0 NMatD0=    1 NMtDS0=    0 NMtDT0=    0
 Petite list used in FoFCou.
 Harris En= -768.256436374907    
 JPrj=0 DoOrth=F DoCkMO=F.
 Leave Link  401 at Fri May 24 08:31:35 2019, MaxMem=   402653184 cpu:              45.8 elap:              11.6
 (Enter /n/sw/g16_nehalem/g16/l502.exe)
 Integral symmetry usage will be decided dynamically.
 Closed shell SCF:
 Using DIIS extrapolation, IDIIS=  1040.
 NGot=   402653184 LenX=   402510103 LenY=   402440493
 Requested convergence on RMS density matrix=1.00D-08 within 128 cycles.
 Requested convergence on MAX density matrix=1.00D-06.
 Requested convergence on             energy=1.00D-06.
 No special actions if energy rises.
 Fock matrices will be formed incrementally for  20 cycles.

 Cycle   1  Pass 1  IDiag  1:
 FoFJK:  IHMeth= 1 ICntrl=       0 DoSepK=F KAlg= 0 I1Cent=           0 FoldK=F
 IRaf= 890000000 NMat=       1 IRICut=       1 DoRegI=T DoRafI=F ISym2E= 0 IDoP0=0 IntGTp=1.
 FoFCou: FMM=F IPFlag=           0 FMFlag=      100000 FMFlg1=           0
         NFxFlg=           0 DoJE=F BraDBF=F KetDBF=F FulRan=T
         wScrn=  0.000000 ICntrl=         0 IOpCl=  0 I1Cent=           0 NGrid=           0
         NMat0=    1 NMatS0=      1 NMatT0=    0 NMatD0=    1 NMtDS0=    0 NMtDT0=    0
 Symmetry not used in FoFCou.
 Inv3:  Mode=1 IEnd=    15309243.
 Iteration    1 A*A^-1 deviation from unit magnitude is 5.55D-15 for    564.
 Iteration    1 A*A^-1 deviation from orthogonality  is 2.96D-15 for   2096    558.
 Iteration    1 A^-1*A deviation from unit magnitude is 5.33D-15 for    564.
 Iteration    1 A^-1*A deviation from orthogonality  is 1.64D-15 for   1741   1117.
 E= -768.087078062911    
 DIIS: error= 2.11D-02 at cycle   1 NSaved=   1.
 NSaved= 1 IEnMin= 1 EnMin= -768.087078062911     IErMin= 1 ErrMin= 2.11D-02
 ErrMax= 2.11D-02  0.00D+00 EMaxC= 1.00D-01 BMatC= 2.55D-01 BMatP= 2.55D-01
 IDIUse=3 WtCom= 7.89D-01 WtEn= 2.11D-01
 Coeff-Com:  0.100D+01
 Coeff-En:   0.100D+01
 Coeff:      0.100D+01
 Gap=     0.006 Goal=   None    Shift=    0.000
 GapD=    0.006 DampG=0.250 DampE=0.500 DampFc=0.2500 IDamp=-1.
 Damping current iteration by 2.50D-01
 RMSDP=4.74D-03 MaxDP=1.20D-01              OVMax= 3.98D-01

 Cycle   2  Pass 1  IDiag  1:
 RMSU=  1.18D-03    CP:  9.95D-01
 E= -768.163457455963     Delta-E=       -0.076379393053 Rises=F Damp=T
 DIIS: error= 1.03D-02 at cycle   2 NSaved=   2.
 NSaved= 2 IEnMin= 2 EnMin= -768.163457455963     IErMin= 2 ErrMin= 1.03D-02
 ErrMax= 1.03D-02  0.00D+00 EMaxC= 1.00D-01 BMatC= 7.02D-02 BMatP= 2.55D-01
 IDIUse=3 WtCom= 8.97D-01 WtEn= 1.03D-01
 Coeff-Com: -0.746D+00 0.175D+01
 Coeff-En:   0.000D+00 0.100D+01
 Coeff:     -0.669D+00 0.167D+01
 Gap=     0.129 Goal=   None    Shift=    0.000
 RMSDP=1.36D-03 MaxDP=3.05D-02 DE=-7.64D-02 OVMax= 3.19D-01

 Cycle   3  Pass 1  IDiag  1:
 RMSU=  1.30D-03    CP:  9.86D-01  1.31D+00
 E= -768.296994571891     Delta-E=       -0.133537115928 Rises=F Damp=F
 DIIS: error= 6.92D-03 at cycle   3 NSaved=   3.
 NSaved= 3 IEnMin= 3 EnMin= -768.296994571891     IErMin= 3 ErrMin= 6.92D-03
 ErrMax= 6.92D-03  0.00D+00 EMaxC= 1.00D-01 BMatC= 3.42D-02 BMatP= 7.02D-02
 IDIUse=3 WtCom= 9.31D-01 WtEn= 6.92D-02
 Coeff-Com: -0.508D+00 0.101D+01 0.501D+00
 Coeff-En:   0.000D+00 0.000D+00 0.100D+01
 Coeff:     -0.473D+00 0.938D+00 0.535D+00
 Gap=     0.139 Goal=   None    Shift=    0.000
 RMSDP=7.76D-04 MaxDP=3.13D-02 DE=-1.34D-01 OVMax= 3.56D-02

 Cycle   4  Pass 1  IDiag  1:
 RMSU=  5.64D-04    CP:  9.90D-01  1.52D+00  6.38D-01
 E= -768.323578566344     Delta-E=       -0.026583994453 Rises=F Damp=F
 DIIS: error= 2.04D-03 at cycle   4 NSaved=   4.
 NSaved= 4 IEnMin= 4 EnMin= -768.323578566344     IErMin= 4 ErrMin= 2.04D-03
 ErrMax= 2.04D-03  0.00D+00 EMaxC= 1.00D-01 BMatC= 2.69D-03 BMatP= 3.42D-02
 IDIUse=3 WtCom= 9.80D-01 WtEn= 2.04D-02
 Coeff-Com: -0.198D+00 0.333D+00 0.232D+00 0.632D+00
 Coeff-En:   0.000D+00 0.000D+00 0.000D+00 0.100D+01
 Coeff:     -0.194D+00 0.326D+00 0.228D+00 0.640D+00
 Gap=     0.130 Goal=   None    Shift=    0.000
 RMSDP=2.14D-04 MaxDP=1.01D-02 DE=-2.66D-02 OVMax= 1.36D-02

 Cycle   5  Pass 1  IDiag  1:
 RMSU=  1.78D-04    CP:  9.89D-01  1.53D+00  7.02D-01  8.53D-01
 E= -768.325505170794     Delta-E=       -0.001926604450 Rises=F Damp=F
 DIIS: error= 8.35D-04 at cycle   5 NSaved=   5.
 NSaved= 5 IEnMin= 5 EnMin= -768.325505170794     IErMin= 5 ErrMin= 8.35D-04
 ErrMax= 8.35D-04  0.00D+00 EMaxC= 1.00D-01 BMatC= 5.68D-04 BMatP= 2.69D-03
 IDIUse=3 WtCom= 9.92D-01 WtEn= 8.35D-03
 Coeff-Com: -0.736D-01 0.110D+00 0.551D-01 0.344D+00 0.564D+00
 Coeff-En:   0.000D+00 0.000D+00 0.000D+00 0.896D-01 0.910D+00
 Coeff:     -0.730D-01 0.109D+00 0.546D-01 0.342D+00 0.567D+00
 Gap=     0.131 Goal=   None    Shift=    0.000
 RMSDP=8.39D-05 MaxDP=4.10D-03 DE=-1.93D-03 OVMax= 4.43D-03

 Cycle   6  Pass 1  IDiag  1:
 RMSU=  6.08D-05    CP:  9.89D-01  1.55D+00  7.01D-01  9.29D-01  7.91D-01
 E= -768.325882418799     Delta-E=       -0.000377248005 Rises=F Damp=F
 DIIS: error= 3.05D-04 at cycle   6 NSaved=   6.
 NSaved= 6 IEnMin= 6 EnMin= -768.325882418799     IErMin= 6 ErrMin= 3.05D-04
 ErrMax= 3.05D-04  0.00D+00 EMaxC= 1.00D-01 BMatC= 7.88D-05 BMatP= 5.68D-04
 IDIUse=3 WtCom= 9.97D-01 WtEn= 3.05D-03
 Coeff-Com: -0.250D-01 0.318D-01 0.440D-03 0.140D+00 0.347D+00 0.506D+00
 Coeff-En:   0.000D+00 0.000D+00 0.000D+00 0.000D+00 0.000D+00 0.100D+01
 Coeff:     -0.250D-01 0.317D-01 0.439D-03 0.139D+00 0.346D+00 0.508D+00
 Gap=     0.131 Goal=   None    Shift=    0.000
 RMSDP=3.01D-05 MaxDP=1.87D-03 DE=-3.77D-04 OVMax= 2.32D-03

 Cycle   7  Pass 1  IDiag  1:
 RMSU=  2.26D-05    CP:  9.89D-01  1.55D+00  7.00D-01  9.52D-01  8.50D-01
                    CP:  8.29D-01
 E= -768.325943341163     Delta-E=       -0.000060922364 Rises=F Damp=F
 DIIS: error= 1.06D-04 at cycle   7 NSaved=   7.
 NSaved= 7 IEnMin= 7 EnMin= -768.325943341163     IErMin= 7 ErrMin= 1.06D-04
 ErrMax= 1.06D-04  0.00D+00 EMaxC= 1.00D-01 BMatC= 7.00D-06 BMatP= 7.88D-05
 IDIUse=3 WtCom= 9.99D-01 WtEn= 1.06D-03
 Coeff-Com: -0.549D-02 0.511D-02-0.941D-02 0.337D-01 0.124D+00 0.281D+00
 Coeff-Com:  0.572D+00
 Coeff-En:   0.000D+00 0.000D+00 0.000D+00 0.000D+00 0.000D+00 0.000D+00
 Coeff-En:   0.100D+01
 Coeff:     -0.548D-02 0.510D-02-0.940D-02 0.337D-01 0.123D+00 0.280D+00
 Coeff:      0.572D+00
 Gap=     0.130 Goal=   None    Shift=    0.000
 RMSDP=1.19D-05 MaxDP=5.59D-04 DE=-6.09D-05 OVMax= 1.13D-03

 Cycle   8  Pass 1  IDiag  1:
 RMSU=  7.42D-06    CP:  9.89D-01  1.55D+00  7.01D-01  9.62D-01  8.79D-01
                    CP:  8.80D-01  8.32D-01
 E= -768.325949624835     Delta-E=       -0.000006283672 Rises=F Damp=F
 DIIS: error= 2.40D-05 at cycle   8 NSaved=   8.
 NSaved= 8 IEnMin= 8 EnMin= -768.325949624835     IErMin= 8 ErrMin= 2.40D-05
 ErrMax= 2.40D-05  0.00D+00 EMaxC= 1.00D-01 BMatC= 4.93D-07 BMatP= 7.00D-06
 IDIUse=1 WtCom= 1.00D+00 WtEn= 0.00D+00
 Coeff-Com:  0.736D-03-0.146D-02-0.415D-02-0.696D-02-0.332D-02 0.353D-01
 Coeff-Com:  0.235D+00 0.745D+00
 Coeff:      0.736D-03-0.146D-02-0.415D-02-0.696D-02-0.332D-02 0.353D-01
 Coeff:      0.235D+00 0.745D+00
 Gap=     0.130 Goal=   None    Shift=    0.000
 RMSDP=5.03D-06 MaxDP=1.25D-04 DE=-6.28D-06 OVMax= 7.81D-04

 Cycle   9  Pass 1  IDiag  1:
 RMSU=  2.46D-06    CP:  9.89D-01  1.54D+00  7.02D-01  9.67D-01  8.89D-01
                    CP:  9.12D-01  9.18D-01  9.78D-01
 E= -768.325950165120     Delta-E=       -0.000000540286 Rises=F Damp=F
 DIIS: error= 9.91D-06 at cycle   9 NSaved=   9.
 NSaved= 9 IEnMin= 9 EnMin= -768.325950165120     IErMin= 9 ErrMin= 9.91D-06
 ErrMax= 9.91D-06  0.00D+00 EMaxC= 1.00D-01 BMatC= 8.24D-08 BMatP= 4.93D-07
 IDIUse=1 WtCom= 1.00D+00 WtEn= 0.00D+00
 Coeff-Com:  0.504D-03-0.697D-03-0.124D-02-0.529D-02-0.105D-01-0.270D-02
 Coeff-Com:  0.744D-01 0.393D+00 0.552D+00
 Coeff:      0.504D-03-0.697D-03-0.124D-02-0.529D-02-0.105D-01-0.270D-02
 Coeff:      0.744D-01 0.393D+00 0.552D+00
 Gap=     0.130 Goal=   None    Shift=    0.000
 RMSDP=1.43D-06 MaxDP=3.82D-05 DE=-5.40D-07 OVMax= 1.79D-04

 Cycle  10  Pass 1  IDiag  1:
 RMSU=  9.04D-07    CP:  9.89D-01  1.54D+00  7.02D-01  9.67D-01  8.92D-01
                    CP:  9.22D-01  9.37D-01  1.03D+00  7.93D-01
 E= -768.325950241494     Delta-E=       -0.000000076373 Rises=F Damp=F
 DIIS: error= 2.60D-06 at cycle  10 NSaved=  10.
 NSaved=10 IEnMin=10 EnMin= -768.325950241494     IErMin=10 ErrMin= 2.60D-06
 ErrMax= 2.60D-06  0.00D+00 EMaxC= 1.00D-01 BMatC= 4.33D-09 BMatP= 8.24D-08
 IDIUse=1 WtCom= 1.00D+00 WtEn= 0.00D+00
 Coeff-Com:  0.202D-03-0.248D-03-0.938D-04-0.146D-02-0.427D-02-0.487D-02
 Coeff-Com:  0.256D-03 0.635D-01 0.208D+00 0.739D+00
 Coeff:      0.202D-03-0.248D-03-0.938D-04-0.146D-02-0.427D-02-0.487D-02
 Coeff:      0.256D-03 0.635D-01 0.208D+00 0.739D+00
 Gap=     0.130 Goal=   None    Shift=    0.000
 RMSDP=5.51D-07 MaxDP=1.05D-05 DE=-7.64D-08 OVMax= 8.27D-05

 Cycle  11  Pass 1  IDiag  1:
 RMSU=  2.15D-07    CP:  9.89D-01  1.54D+00  7.02D-01  9.67D-01  8.92D-01
                    CP:  9.25D-01  9.45D-01  1.05D+00  8.36D-01  9.00D-01
 E= -768.325950247043     Delta-E=       -0.000000005549 Rises=F Damp=F
 DIIS: error= 8.84D-07 at cycle  11 NSaved=  11.
 NSaved=11 IEnMin=11 EnMin= -768.325950247043     IErMin=11 ErrMin= 8.84D-07
 ErrMax= 8.84D-07  0.00D+00 EMaxC= 1.00D-01 BMatC= 4.98D-10 BMatP= 4.33D-09
 IDIUse=1 WtCom= 1.00D+00 WtEn= 0.00D+00
 Coeff-Com:  0.469D-04-0.498D-04 0.559D-04-0.224D-03-0.114D-02-0.172D-02
 Coeff-Com: -0.585D-02 0.122D-03 0.533D-01 0.328D+00 0.628D+00
 Coeff:      0.469D-04-0.498D-04 0.559D-04-0.224D-03-0.114D-02-0.172D-02
 Coeff:     -0.585D-02 0.122D-03 0.533D-01 0.328D+00 0.628D+00
 Gap=     0.130 Goal=   None    Shift=    0.000
 RMSDP=1.46D-07 MaxDP=4.68D-06 DE=-5.55D-09 OVMax= 1.94D-05

 Cycle  12  Pass 1  IDiag  1:
 RMSU=  7.83D-08    CP:  9.89D-01  1.54D+00  7.02D-01  9.67D-01  8.93D-01
                    CP:  9.25D-01  9.45D-01  1.05D+00  8.58D-01  9.44D-01
                    CP:  7.71D-01
 E= -768.325950247567     Delta-E=       -0.000000000524 Rises=F Damp=F
 DIIS: error= 3.26D-07 at cycle  12 NSaved=  12.
 NSaved=12 IEnMin=12 EnMin= -768.325950247567     IErMin=12 ErrMin= 3.26D-07
 ErrMax= 3.26D-07  0.00D+00 EMaxC= 1.00D-01 BMatC= 6.54D-11 BMatP= 4.98D-10
 IDIUse=1 WtCom= 1.00D+00 WtEn= 0.00D+00
 Coeff-Com:  0.665D-05-0.628D-05 0.354D-04 0.547D-04-0.726D-04-0.175D-03
 Coeff-Com: -0.317D-02-0.776D-02 0.461D-03 0.661D-01 0.302D+00 0.642D+00
 Coeff:      0.665D-05-0.628D-05 0.354D-04 0.547D-04-0.726D-04-0.175D-03
 Coeff:     -0.317D-02-0.776D-02 0.461D-03 0.661D-01 0.302D+00 0.642D+00
 Gap=     0.130 Goal=   None    Shift=    0.000
 RMSDP=4.61D-08 MaxDP=1.12D-06 DE=-5.24D-10 OVMax= 5.76D-06

 Cycle  13  Pass 1  IDiag  1:
 RMSU=  2.02D-08    CP:  9.89D-01  1.54D+00  7.02D-01  9.67D-01  8.93D-01
                    CP:  9.25D-01  9.46D-01  1.06D+00  8.60D-01  9.55D-01
                    CP:  8.43D-01  7.46D-01
 E= -768.325950247638     Delta-E=       -0.000000000071 Rises=F Damp=F
 DIIS: error= 4.65D-08 at cycle  13 NSaved=  13.
 NSaved=13 IEnMin=13 EnMin= -768.325950247638     IErMin=13 ErrMin= 4.65D-08
 ErrMax= 4.65D-08  0.00D+00 EMaxC= 1.00D-01 BMatC= 2.56D-12 BMatP= 6.54D-11
 IDIUse=1 WtCom= 1.00D+00 WtEn= 0.00D+00
 Coeff-Com: -0.774D-06 0.126D-05 0.102D-04 0.378D-04 0.463D-04 0.744D-04
 Coeff-Com: -0.843D-03-0.269D-02-0.308D-02 0.315D-02 0.691D-01 0.231D+00
 Coeff-Com:  0.703D+00
 Coeff:     -0.774D-06 0.126D-05 0.102D-04 0.378D-04 0.463D-04 0.744D-04
 Coeff:     -0.843D-03-0.269D-02-0.308D-02 0.315D-02 0.691D-01 0.231D+00
 Coeff:      0.703D+00
 Gap=     0.130 Goal=   None    Shift=    0.000
 RMSDP=8.88D-09 MaxDP=2.40D-07 DE=-7.09D-11 OVMax= 8.43D-07

 Error on total polarization charges =  0.01236
 SCF Done:  E(RB3LYP) =  -768.325950248     A.U. after   13 cycles
            NFock= 13  Conv=0.89D-08     -V/T= 2.0091
 KE= 7.613948524776D+02 PE=-4.125113569879D+03 EE= 1.420242166898D+03
 Leave Link  502 at Fri May 24 08:36:35 2019, MaxMem=   402653184 cpu:            1190.9 elap:             299.6
 (Enter /n/sw/g16_nehalem/g16/l601.exe)
 Copying SCF densities to generalized density rwf, IOpCl= 0 IROHF=0.

 **********************************************************************

            Population analysis using the SCF density.

 **********************************************************************

 Orbital symmetries:
       Occupied  (A) (A) (A) (A) (A) (A) (A) (A) (A) (A) (A) (A)
                 (A) (A) (A) (A) (A) (A) (A) (A) (A) (A) (A) (A)
                 (A) (A) (A) (A) (A) (A) (A) (A) (A) (A) (A) (A)
                 (A) (A) (A) (A) (A) (A) (A) (A) (A) (A) (A) (A)
                 (A) (A) (A) (A) (A) (A) (A) (A) (A) (A) (A)
       Virtual   (A) (A) (A) (A) (A) (A) (A) (A) (A) (A) (A) (A)
                 (A) (A) (A) (A) (A) (A) (A) (A) (A) (A) (A) (A)
                 (A) (A) (A) (A) (A) (A) (A) (A) (A) (A) (A) (A)
                 (A) (A) (A) (A) (A) (A) (A) (A) (A) (A) (A) (A)
                 (A) (A) (A) (A) (A) (A) (A) (A) (A) (A) (A) (A)
                 (A) (A) (A) (A) (A) (A) (A) (A) (A) (A) (A) (A)
                 (A) (A) (A) (A) (A) (A) (A) (A) (A) (A) (A) (A)
                 (A) (A) (A) (A) (A) (A) (A) (A) (A) (A) (A) (A)
                 (A) (A) (A) (A) (A) (A) (A) (A) (A) (A) (A) (A)
                 (A) (A) (A) (A) (A) (A) (A) (A) (A) (A) (A) (A)
                 (A) (A) (A) (A) (A) (A) (A) (A) (A) (A) (A) (A)
                 (A) (A) (A) (A) (A) (A) (A) (A) (A) (A) (A) (A)
                 (A) (A) (A) (A) (A) (A) (A) (A) (A) (A) (A) (A)
                 (A) (A) (A) (A) (A) (A) (A) (A) (A) (A) (A) (A)
                 (A) (A) (A) (A) (A) (A) (A) (A) (A) (A) (A) (A)
                 (A) (A) (A) (A) (A) (A) (A) (A) (A) (A) (A) (A)
                 (A) (A) (A) (A) (A) (A) (A) (A) (A) (A) (A) (A)
 The electronic state is 1-A.
 Alpha  occ. eigenvalues --  -19.32996 -19.20460 -19.19690 -19.19617 -19.19112
 Alpha  occ. eigenvalues --  -10.39594 -10.32317 -10.31488 -10.29939 -10.29615
 Alpha  occ. eigenvalues --  -10.28508 -10.26026 -10.25677 -10.25271 -10.24913
 Alpha  occ. eigenvalues --   -1.21750  -1.09584  -1.08115  -1.07670  -1.06497
 Alpha  occ. eigenvalues --   -0.87155  -0.85767  -0.77600  -0.75568  -0.74113
 Alpha  occ. eigenvalues --   -0.71939  -0.69287  -0.67857  -0.66001  -0.62515
 Alpha  occ. eigenvalues --   -0.59658  -0.58761  -0.56600  -0.54474  -0.54153
 Alpha  occ. eigenvalues --   -0.52441  -0.51897  -0.51446  -0.50659  -0.49037
 Alpha  occ. eigenvalues --   -0.48305  -0.47905  -0.46927  -0.46057  -0.45461
 Alpha  occ. eigenvalues --   -0.44287  -0.43493  -0.42840  -0.41999  -0.40869
 Alpha  occ. eigenvalues --   -0.40088  -0.37242  -0.36571  -0.35330  -0.34850
 Alpha  occ. eigenvalues --   -0.32220  -0.31258  -0.30099  -0.28155
 Alpha virt. eigenvalues --   -0.15128  -0.00040   0.04384   0.04779   0.06021
 Alpha virt. eigenvalues --    0.06652   0.08119   0.08315   0.09543   0.09825
 Alpha virt. eigenvalues --    0.11258   0.11615   0.12011   0.12896   0.13167
 Alpha virt. eigenvalues --    0.13889   0.13927   0.14293   0.14841   0.15167
 Alpha virt. eigenvalues --    0.15738   0.15803   0.16334   0.17200   0.18560
 Alpha virt. eigenvalues --    0.18807   0.19309   0.20146   0.21619   0.22282
 Alpha virt. eigenvalues --    0.23229   0.24890   0.25946   0.28467   0.29445
 Alpha virt. eigenvalues --    0.43969   0.45658   0.46463   0.47816   0.48167
 Alpha virt. eigenvalues --    0.48436   0.49352   0.50120   0.50923   0.51359
 Alpha virt. eigenvalues --    0.52413   0.52966   0.54467   0.55032   0.55866
 Alpha virt. eigenvalues --    0.56302   0.58394   0.59569   0.61118   0.62029
 Alpha virt. eigenvalues --    0.63504   0.64551   0.67659   0.68802   0.69572
 Alpha virt. eigenvalues --    0.72806   0.74309   0.75988   0.76358   0.78972
 Alpha virt. eigenvalues --    0.79213   0.79750   0.80753   0.81351   0.81867
 Alpha virt. eigenvalues --    0.82791   0.83661   0.85005   0.85188   0.85976
 Alpha virt. eigenvalues --    0.86177   0.86936   0.87567   0.89058   0.89455
 Alpha virt. eigenvalues --    0.90865   0.92529   0.93259   0.93677   0.94926
 Alpha virt. eigenvalues --    0.97050   0.97425   0.99405   1.00555   1.02775
 Alpha virt. eigenvalues --    1.03728   1.05877   1.07920   1.10243   1.11544
 Alpha virt. eigenvalues --    1.12675   1.15589   1.16462   1.20721   1.22156
 Alpha virt. eigenvalues --    1.23589   1.25316   1.29029   1.30457   1.33143
 Alpha virt. eigenvalues --    1.34146   1.35019   1.36980   1.39359   1.41958
 Alpha virt. eigenvalues --    1.42826   1.45173   1.46050   1.47469   1.48411
 Alpha virt. eigenvalues --    1.51798   1.51999   1.56148   1.56761   1.61052
 Alpha virt. eigenvalues --    1.63193   1.64984   1.67197   1.70355   1.72497
 Alpha virt. eigenvalues --    1.74005   1.75893   1.77411   1.78740   1.80305
 Alpha virt. eigenvalues --    1.81609   1.83413   1.84649   1.88449   1.88954
 Alpha virt. eigenvalues --    1.91928   1.94132   1.96365   1.97226   2.00125
 Alpha virt. eigenvalues --    2.00606   2.01904   2.02450   2.03942   2.04002
 Alpha virt. eigenvalues --    2.05161   2.07001   2.08302   2.10458   2.10964
 Alpha virt. eigenvalues --    2.11928   2.13677   2.14444   2.15798   2.19251
 Alpha virt. eigenvalues --    2.19542   2.20789   2.23515   2.24134   2.25425
 Alpha virt. eigenvalues --    2.28595   2.29382   2.30958   2.34373   2.36130
 Alpha virt. eigenvalues --    2.36347   2.39215   2.41862   2.43628   2.46841
 Alpha virt. eigenvalues --    2.49296   2.51677   2.54875   2.55789   2.58631
 Alpha virt. eigenvalues --    2.61857   2.65384   2.69373   2.73148   2.75116
 Alpha virt. eigenvalues --    2.79349   2.81298   2.83381   2.90429   2.91039
 Alpha virt. eigenvalues --    2.95448   2.97505   3.02011   3.07528   3.85341
 Alpha virt. eigenvalues --    3.91195   3.92767   4.05869   4.08480   4.14130
 Alpha virt. eigenvalues --    4.21978   4.23319   4.23962   4.24976   4.34049
 Alpha virt. eigenvalues --    4.40684   4.46783   4.50152   4.72370
          Condensed to atoms (all electrons):
               1          2          3          4          5          6
     1  C    5.032911   0.266979  -0.040333  -0.036196   0.287877   0.003277
     2  C    0.266979   5.095897   0.249917  -0.000642  -0.031344  -0.040200
     3  C   -0.040333   0.249917   4.896954  -0.043234  -0.003818   0.360247
     4  C   -0.036196  -0.000642  -0.043234   5.194846   0.230992   0.003102
     5  C    0.287877  -0.031344  -0.003818   0.230992   5.023329  -0.000284
     6  H    0.003277  -0.040200   0.360247   0.003102  -0.000284   0.421232
     7  H   -0.029058   0.348626  -0.038170  -0.000138  -0.006540   0.001546
     8  H    0.356931  -0.043595  -0.001392   0.001022  -0.055356   0.000075
     9  H    0.001034  -0.000034   0.002348   0.366803  -0.031436  -0.000106
    10  H   -0.038481  -0.004278   0.000212  -0.053177   0.375578   0.000007
    11  O   -0.000835  -0.022875   0.358346   0.124444  -0.023548  -0.033078
    12  O   -0.031867   0.245630  -0.034124   0.000081   0.001970   0.002911
    13  O    0.220941  -0.041654   0.003097   0.003427  -0.042507  -0.000041
    14  O   -0.030950   0.002075  -0.000044  -0.034951   0.235840   0.000003
    15  C    0.000942   0.000863  -0.003070   0.337486  -0.020716  -0.000236
    16  H    0.000360  -0.000155   0.000364  -0.036306  -0.005082   0.000007
    17  H   -0.000274   0.000069  -0.000429  -0.028603   0.004613  -0.000049
    18  O   -0.001173  -0.010228   0.010788  -0.053025  -0.003135   0.000084
    19  C   -0.004605  -0.045347  -0.005488   0.000000   0.000219   0.000515
    20  H   -0.002680  -0.003498   0.007168  -0.000013  -0.000006   0.000283
    21  H    0.000015   0.005007  -0.000089   0.000000  -0.000003  -0.000109
    22  H    0.006619  -0.009580  -0.000438  -0.000004   0.000080   0.000124
    23  C   -0.034022   0.004970  -0.000166   0.000052  -0.002114   0.000003
    24  H   -0.010830   0.000339   0.000021   0.000037  -0.000985   0.000000
    25  H    0.004768  -0.000168   0.000000   0.000006  -0.000077   0.000000
    26  H   -0.004306  -0.000301   0.000017  -0.000083   0.002652   0.000000
    27  C   -0.007073  -0.000020   0.000061  -0.007916  -0.040433   0.000001
    28  H   -0.001028   0.000031   0.000021   0.007950  -0.007372  -0.000005
    29  H    0.002317  -0.000214   0.000023  -0.000965  -0.003653   0.000000
    30  H    0.000106  -0.000002   0.000000   0.000025   0.004633   0.000000
    31  C    0.000000   0.000321  -0.000295   0.005642   0.000102   0.000001
    32  H   -0.000005  -0.000013  -0.000051   0.000037   0.000029  -0.000001
    33  H    0.000002  -0.000022   0.000028  -0.000076  -0.000048   0.000000
    34  H    0.000007   0.000068   0.000012  -0.000251  -0.000009   0.000000
               7          8          9         10         11         12
     1  C   -0.029058   0.356931   0.001034  -0.038481  -0.000835  -0.031867
     2  C    0.348626  -0.043595  -0.000034  -0.004278  -0.022875   0.245630
     3  C   -0.038170  -0.001392   0.002348   0.000212   0.358346  -0.034124
     4  C   -0.000138   0.001022   0.366803  -0.053177   0.124444   0.000081
     5  C   -0.006540  -0.055356  -0.031436   0.375578  -0.023548   0.001970
     6  H    0.001546   0.000075  -0.000106   0.000007  -0.033078   0.002911
     7  H    0.454021   0.004982  -0.000021   0.004879  -0.000714  -0.029300
     8  H    0.004982   0.590862  -0.000117   0.005515   0.000844  -0.003628
     9  H   -0.000021  -0.000117   0.463642   0.002799  -0.026496   0.000002
    10  H    0.004879   0.005515   0.002799   0.514474   0.002140  -0.000067
    11  O   -0.000714   0.000844  -0.026496   0.002140   7.957938   0.001788
    12  O   -0.029300  -0.003628   0.000002  -0.000067   0.001788   8.178481
    13  O    0.000291  -0.039475  -0.000041   0.003025   0.000007   0.002780
    14  O    0.000017  -0.004653  -0.001125  -0.035187   0.000919  -0.000006
    15  C   -0.001357   0.000017  -0.028198  -0.003478  -0.037636  -0.000016
    16  H    0.000049  -0.000006   0.001326  -0.001610   0.002819   0.000000
    17  H    0.000190   0.000004  -0.001857   0.000786  -0.001736   0.000000
    18  O    0.020248  -0.000016   0.002377   0.010388  -0.001559   0.000066
    19  C    0.004425   0.005045   0.000000   0.000001   0.000023   0.233458
    20  H   -0.000154   0.000578   0.000000  -0.000001  -0.000494  -0.037352
    21  H   -0.000107  -0.000029   0.000000   0.000000   0.000001  -0.030108
    22  H   -0.000201  -0.001731   0.000000  -0.000004   0.000026  -0.033507
    23  C   -0.000104  -0.006354   0.000000   0.000083   0.000000  -0.000083
    24  H    0.000042   0.012438  -0.000001   0.000169  -0.000001  -0.000044
    25  H   -0.000004  -0.000047   0.000000  -0.000088   0.000000   0.000006
    26  H   -0.000025  -0.001793   0.000007  -0.000371  -0.000001  -0.000001
    27  C    0.000011   0.005435   0.002642   0.005131   0.000055   0.000000
    28  H    0.000000   0.000321   0.003036  -0.000162  -0.000533   0.000000
    29  H   -0.000005   0.002229   0.000165  -0.000131   0.000042   0.000005
    30  H    0.000000  -0.000044  -0.000362  -0.000119   0.000003   0.000000
    31  C   -0.000527   0.000000  -0.000147  -0.000272   0.000041  -0.000002
    32  H    0.000092   0.000000   0.000006   0.000052   0.000009   0.000000
    33  H    0.000063   0.000000   0.000008  -0.000132  -0.000002   0.000000
    34  H   -0.000244   0.000000   0.000003   0.000002   0.000000  -0.000001
              13         14         15         16         17         18
     1  C    0.220941  -0.030950   0.000942   0.000360  -0.000274  -0.001173
     2  C   -0.041654   0.002075   0.000863  -0.000155   0.000069  -0.010228
     3  C    0.003097  -0.000044  -0.003070   0.000364  -0.000429   0.010788
     4  C    0.003427  -0.034951   0.337486  -0.036306  -0.028603  -0.053025
     5  C   -0.042507   0.235840  -0.020716  -0.005082   0.004613  -0.003135
     6  H   -0.000041   0.000003  -0.000236   0.000007  -0.000049   0.000084
     7  H    0.000291   0.000017  -0.001357   0.000049   0.000190   0.020248
     8  H   -0.039475  -0.004653   0.000017  -0.000006   0.000004  -0.000016
     9  H   -0.000041  -0.001125  -0.028198   0.001326  -0.001857   0.002377
    10  H    0.003025  -0.035187  -0.003478  -0.001610   0.000786   0.010388
    11  O    0.000007   0.000919  -0.037636   0.002819  -0.001736  -0.001559
    12  O    0.002780  -0.000006  -0.000016   0.000000   0.000000   0.000066
    13  O    8.234827   0.001723  -0.000041  -0.000002   0.000001  -0.000008
    14  O    0.001723   8.210669   0.000777   0.000818  -0.000060   0.000105
    15  C   -0.000041   0.000777   4.883950   0.360187   0.358554   0.233627
    16  H   -0.000002   0.000818   0.360187   0.557376  -0.042635  -0.035446
    17  H    0.000001  -0.000060   0.358554  -0.042635   0.560138  -0.038932
    18  O   -0.000008   0.000105   0.233627  -0.035446  -0.038932   8.217790
    19  C   -0.001757   0.000000   0.000000   0.000000   0.000000  -0.000002
    20  H    0.000184   0.000000   0.000000   0.000000   0.000000   0.000000
    21  H   -0.000007   0.000000   0.000000   0.000000   0.000000   0.000000
    22  H    0.003453   0.000003   0.000000   0.000000   0.000000   0.000000
    23  C    0.232821  -0.002629  -0.000002   0.000000   0.000000  -0.000001
    24  H   -0.034925   0.000141   0.000000   0.000000   0.000000   0.000000
    25  H   -0.031607   0.000118   0.000000   0.000000   0.000000   0.000000
    26  H   -0.033882   0.008489   0.000000  -0.000001   0.000000   0.000000
    27  C   -0.000210   0.232227   0.000429  -0.000016  -0.000004  -0.000004
    28  H    0.000020  -0.034855   0.000052  -0.000028   0.000017  -0.000001
    29  H   -0.000040  -0.037497  -0.000011   0.000003   0.000000   0.000000
    30  H   -0.000006  -0.031287  -0.000001  -0.000002   0.000000   0.000000
    31  C    0.000000  -0.000001  -0.039752  -0.003564  -0.003684   0.238976
    32  H    0.000000   0.000000  -0.006577  -0.001847   0.009915  -0.035220
    33  H    0.000000  -0.000001  -0.006721   0.009735  -0.001890  -0.035275
    34  H    0.000000   0.000000   0.005306  -0.000116  -0.000121  -0.030715
              19         20         21         22         23         24
     1  C   -0.004605  -0.002680   0.000015   0.006619  -0.034022  -0.010830
     2  C   -0.045347  -0.003498   0.005007  -0.009580   0.004970   0.000339
     3  C   -0.005488   0.007168  -0.000089  -0.000438  -0.000166   0.000021
     4  C    0.000000  -0.000013   0.000000  -0.000004   0.000052   0.000037
     5  C    0.000219  -0.000006  -0.000003   0.000080  -0.002114  -0.000985
     6  H    0.000515   0.000283  -0.000109   0.000124   0.000003   0.000000
     7  H    0.004425  -0.000154  -0.000107  -0.000201  -0.000104   0.000042
     8  H    0.005045   0.000578  -0.000029  -0.001731  -0.006354   0.012438
     9  H    0.000000   0.000000   0.000000   0.000000   0.000000  -0.000001
    10  H    0.000001  -0.000001   0.000000  -0.000004   0.000083   0.000169
    11  O    0.000023  -0.000494   0.000001   0.000026   0.000000  -0.000001
    12  O    0.233458  -0.037352  -0.030108  -0.033507  -0.000083  -0.000044
    13  O   -0.001757   0.000184  -0.000007   0.003453   0.232821  -0.034925
    14  O    0.000000   0.000000   0.000000   0.000003  -0.002629   0.000141
    15  C    0.000000   0.000000   0.000000   0.000000  -0.000002   0.000000
    16  H    0.000000   0.000000   0.000000   0.000000   0.000000   0.000000
    17  H    0.000000   0.000000   0.000000   0.000000   0.000000   0.000000
    18  O   -0.000002   0.000000   0.000000   0.000000  -0.000001   0.000000
    19  C    4.937020   0.359989   0.387871   0.370466  -0.000358   0.000098
    20  H    0.359989   0.588920  -0.027469  -0.043282  -0.000003  -0.000012
    21  H    0.387871  -0.027469   0.495724  -0.028808   0.000001   0.000000
    22  H    0.370466  -0.043282  -0.028808   0.554883   0.000708   0.000318
    23  C   -0.000358  -0.000003   0.000001   0.000708   4.919402   0.366203
    24  H    0.000098  -0.000012   0.000000   0.000318   0.366203   0.578297
    25  H    0.000018   0.000000   0.000000  -0.000097   0.383452  -0.028092
    26  H    0.000004   0.000000   0.000000   0.000068   0.367537  -0.042450
    27  C   -0.000007  -0.000001   0.000000  -0.000002  -0.000465  -0.000336
    28  H    0.000000   0.000002   0.000000  -0.000001   0.000003   0.000007
    29  H   -0.000008  -0.000001   0.000000  -0.000004   0.001241   0.000774
    30  H    0.000000   0.000000   0.000000   0.000000   0.000006   0.000015
    31  C    0.000000   0.000000   0.000000   0.000000   0.000000   0.000000
    32  H    0.000000   0.000000   0.000000   0.000000   0.000000   0.000000
    33  H    0.000000   0.000000   0.000000   0.000000   0.000000   0.000000
    34  H    0.000000   0.000000   0.000000   0.000000   0.000000   0.000000
              25         26         27         28         29         30
     1  C    0.004768  -0.004306  -0.007073  -0.001028   0.002317   0.000106
     2  C   -0.000168  -0.000301  -0.000020   0.000031  -0.000214  -0.000002
     3  C    0.000000   0.000017   0.000061   0.000021   0.000023   0.000000
     4  C    0.000006  -0.000083  -0.007916   0.007950  -0.000965   0.000025
     5  C   -0.000077   0.002652  -0.040433  -0.007372  -0.003653   0.004633
     6  H    0.000000   0.000000   0.000001  -0.000005   0.000000   0.000000
     7  H   -0.000004  -0.000025   0.000011   0.000000  -0.000005   0.000000
     8  H   -0.000047  -0.001793   0.005435   0.000321   0.002229  -0.000044
     9  H    0.000000   0.000007   0.002642   0.003036   0.000165  -0.000362
    10  H   -0.000088  -0.000371   0.005131  -0.000162  -0.000131  -0.000119
    11  O    0.000000  -0.000001   0.000055  -0.000533   0.000042   0.000003
    12  O    0.000006  -0.000001   0.000000   0.000000   0.000005   0.000000
    13  O   -0.031607  -0.033882  -0.000210   0.000020  -0.000040  -0.000006
    14  O    0.000118   0.008489   0.232227  -0.034855  -0.037497  -0.031287
    15  C    0.000000   0.000000   0.000429   0.000052  -0.000011  -0.000001
    16  H    0.000000  -0.000001  -0.000016  -0.000028   0.000003  -0.000002
    17  H    0.000000   0.000000  -0.000004   0.000017   0.000000   0.000000
    18  O    0.000000   0.000000  -0.000004  -0.000001   0.000000   0.000000
    19  C    0.000018   0.000004  -0.000007   0.000000  -0.000008   0.000000
    20  H    0.000000   0.000000  -0.000001   0.000002  -0.000001   0.000000
    21  H    0.000000   0.000000   0.000000   0.000000   0.000000   0.000000
    22  H   -0.000097   0.000068  -0.000002  -0.000001  -0.000004   0.000000
    23  C    0.383452   0.367537  -0.000465   0.000003   0.001241   0.000006
    24  H   -0.028092  -0.042450  -0.000336   0.000007   0.000774   0.000015
    25  H    0.516515  -0.029383   0.000025   0.000000  -0.000053   0.000000
    26  H   -0.029383   0.560176  -0.000711   0.000170  -0.000594  -0.000023
    27  C    0.000025  -0.000711   4.936866   0.359267   0.369315   0.387561
    28  H    0.000000   0.000170   0.359267   0.587056  -0.045419  -0.027035
    29  H   -0.000053  -0.000594   0.369315  -0.045419   0.576050  -0.031490
    30  H    0.000000  -0.000023   0.387561  -0.027035  -0.031490   0.504325
    31  C    0.000000   0.000000   0.000000   0.000000   0.000000   0.000000
    32  H    0.000000   0.000000   0.000000   0.000000   0.000000   0.000000
    33  H    0.000000   0.000000   0.000000   0.000000   0.000000   0.000000
    34  H    0.000000   0.000000   0.000000   0.000000   0.000000   0.000000
              31         32         33         34
     1  C    0.000000  -0.000005   0.000002   0.000007
     2  C    0.000321  -0.000013  -0.000022   0.000068
     3  C   -0.000295  -0.000051   0.000028   0.000012
     4  C    0.005642   0.000037  -0.000076  -0.000251
     5  C    0.000102   0.000029  -0.000048  -0.000009
     6  H    0.000001  -0.000001   0.000000   0.000000
     7  H   -0.000527   0.000092   0.000063  -0.000244
     8  H    0.000000   0.000000   0.000000   0.000000
     9  H   -0.000147   0.000006   0.000008   0.000003
    10  H   -0.000272   0.000052  -0.000132   0.000002
    11  O    0.000041   0.000009  -0.000002   0.000000
    12  O   -0.000002   0.000000   0.000000  -0.000001
    13  O    0.000000   0.000000   0.000000   0.000000
    14  O   -0.000001   0.000000  -0.000001   0.000000
    15  C   -0.039752  -0.006577  -0.006721   0.005306
    16  H   -0.003564  -0.001847   0.009735  -0.000116
    17  H   -0.003684   0.009915  -0.001890  -0.000121
    18  O    0.238976  -0.035220  -0.035275  -0.030715
    19  C    0.000000   0.000000   0.000000   0.000000
    20  H    0.000000   0.000000   0.000000   0.000000
    21  H    0.000000   0.000000   0.000000   0.000000
    22  H    0.000000   0.000000   0.000000   0.000000
    23  C    0.000000   0.000000   0.000000   0.000000
    24  H    0.000000   0.000000   0.000000   0.000000
    25  H    0.000000   0.000000   0.000000   0.000000
    26  H    0.000000   0.000000   0.000000   0.000000
    27  C    0.000000   0.000000   0.000000   0.000000
    28  H    0.000000   0.000000   0.000000   0.000000
    29  H    0.000000   0.000000   0.000000   0.000000
    30  H    0.000000   0.000000   0.000000   0.000000
    31  C    4.890116   0.369567   0.371842   0.385398
    32  H    0.369567   0.572635  -0.042642  -0.029723
    33  H    0.371842  -0.042642   0.568165  -0.029313
    34  H    0.385398  -0.029723  -0.029313   0.514791
 Mulliken charges:
               1
     1  C    0.088627
     2  C    0.033381
     3  C    0.281516
     4  C    0.019630
     5  C    0.110552
     6  H    0.280691
     7  H    0.267187
     8  H    0.171937
     9  H    0.243743
    10  H    0.212318
    11  O   -0.299939
    12  O   -0.467072
    13  O   -0.480394
    14  O   -0.480677
    15  C   -0.034377
    16  H    0.193769
    17  H    0.185987
    18  O   -0.489708
    19  C   -0.241579
    20  H    0.157841
    21  H    0.198109
    22  H    0.180913
    23  C   -0.230182
    24  H    0.158774
    25  H    0.184710
    26  H    0.174806
    27  C   -0.241826
    28  H    0.158486
    29  H    0.167922
    30  H    0.193699
    31  C   -0.213762
    32  H    0.163737
    33  H    0.166278
    34  H    0.184908
 Sum of Mulliken charges =   1.00000
 Mulliken charges with hydrogens summed into heavy atoms:
               1
     1  C    0.260564
     2  C    0.300568
     3  C    0.562206
     4  C    0.263373
     5  C    0.322870
    11  O   -0.299939
    12  O   -0.467072
    13  O   -0.480394
    14  O   -0.480677
    15  C    0.345379
    18  O   -0.489708
    19  C    0.295283
    23  C    0.288108
    27  C    0.278280
    31  C    0.301160
 Electronic spatial extent (au):  <R**2>=           3309.5769
 Charge=              1.0000 electrons
 Dipole moment (field-independent basis, Debye):
    X=              1.6991    Y=             -0.3526    Z=             -5.2503  Tot=              5.5297
 Quadrupole moment (field-independent basis, Debye-Ang):
   XX=            -57.0951   YY=            -76.9444   ZZ=            -77.8882
   XY=             -1.3103   XZ=              4.1721   YZ=              3.0257
 Traceless Quadrupole moment (field-independent basis, Debye-Ang):
   XX=             13.5474   YY=             -6.3018   ZZ=             -7.2456
   XY=             -1.3103   XZ=              4.1721   YZ=              3.0257
[...]
 000847,0.00003901,-0.00002781,0.00003198,-0.00003414,-0.00000799,-0.00
 002914,0.00000666,-0.00000406,-0.00000133,0.00000352,0.00000565,0.0000
 0200,-0.00000005,-0.00001908,0.00000460,0.00007638,-0.00010982,0.00023
 344,0.00004897,0.00005556,0.00015263,-0.00005525,0.00000330,-0.0000694
 8,0.00005300,0.00006132,-0.00004991,-0.08261358,-0.08404854,0.00937138
 ,0.01306936,0.00505942,-0.00215523,0.08778762,0.08289768,0.00028653,0.
 00110099,0.00119377,0.00019335,-0.00028037,0.00002712,0.00001059,-0.00
 004934,-0.00008404,0.00038778,0.00069316,-0.00057136,0.00018606,-0.004
 73372,0.00080347,0.00002782,-0.00000855,0.00001051,-0.00000625,-0.0000
 2030,-0.00002541,-0.00054953,0.00109062,-0.00041685,-0.00021878,-0.000
 00722,0.00004538,0.00006092,0.00030217,-0.00013508,-0.00017074,0.00022
 938,0.00022519,0.00006179,0.00017776,0.00000902,0.00037044,-0.00032285
 ,-0.00061126,-0.03784115,-0.00507430,-0.00774625,-0.00019404,-0.000170
 08,0.00007887,0.00005177,0.00000677,-0.00000503,-0.00004285,0.00002332
 ,-0.00001390,-0.00001133,0.00001219,0.00005438,-0.00005662,0.00000800,
 -0.00001429,0.00001432,-0.00001181,-0.00001799,0.00000406,0.00001108,-
 0.00000261,0.00000110,0.00000047,0.00001595,-0.00056964,0.00087468,-0.
 00010252,0.00021699,0.00018699,0.00018093,0.00011817,-0.00022549,0.000
 09940,-0.00031592,-0.00028118,-0.00011091,0.03148218,0.01046761,-0.054
 41893,0.02513705,0.00951575,-0.00039566,-0.01934979,-0.01258893,0.0606
 5714,-0.00095053,-0.00036130,-0.00059248,0.00026974,0.00010084,0.00013
 677,-0.00014531,-0.00015379,0.00011433,0.00039198,-0.00022462,-0.00048
 578,-0.00112699,0.00045988,-0.00357631,0.00002261,0.00000928,-0.000011
 99,0.00006132,-0.00013060,-0.00000963,0.00037161,0.00021845,0.00041444
 ,0.00026711,-0.00002625,0.00013395,-0.00028508,0.00100163,-0.00015458,
 0.00000644,0.00020216,0.00009040,0.00004336,0.00010150,0.00001412,0.00
 032251,0.00001285,0.00020747,-0.00393159,0.02429364,-0.00624413,0.0001
 4751,0.00006243,0.00003075,0.00001361,0.00000015,-0.00001628,-0.000048
 69,0.00002008,-0.00001274,-0.00018938,0.00008801,-0.00006601,-0.000066
 09,0.00002966,-0.00001299,0.00000272,0.00000221,0.00000826,0.00001208,
 -0.00000682,0.00000458,0.00001466,-0.00000082,-0.00000890,-0.00024603,
 -0.00004310,-0.00009415,0.00011149,0.00008906,0.00003958,0.00005058,-0
 .00003141,0.00004694,-0.00002824,-0.00001262,-0.00004612,-0.05036725,-
 0.01219459,0.00297722,0.00081580,0.01531145,-0.00002592,0.00165677,-0.
 03113316,0.00070112,0.05277430,0.00010737,0.00022961,-0.00048726,0.000
 06859,0.00012685,0.00003645,-0.00000244,0.00011953,0.00005577,-0.00016
 966,0.00008508,0.00026272,-0.00094631,0.00282752,0.00104077,-0.0000218
 7,0.00000525,-0.00001181,-0.00001345,-0.00000958,-0.00000986,0.0001558
 0,0.00003844,0.00013946,-0.00017792,0.00003488,0.00001886,0.00017265,-
 0.00043091,0.00001406,0.00004286,-0.00015469,-0.00008513,-0.00010389,-
 0.00016877,-0.00004150,-0.00017470,0.00002773,0.00032643,0.00531645,-0
 .00703658,0.00542304,-0.00009506,-0.00002454,-0.00008846,-0.00001158,-
 0.00000191,0.00001438,0.00005385,-0.00002721,0.00001766,0.00017641,-0.
 00007702,0.00008302,0.00006327,0.00000679,0.00004801,-0.00000927,0.000
 00733,0.00000533,-0.00000725,-0.00001395,-0.00000398,0.00000544,0.0000
 1317,-0.00000886,0.00008696,-0.00013821,-0.00006115,0.00001867,0.00004
 977,-0.00000540,-0.00000867,-0.00001679,0.00003386,0.00002693,0.000002
 39,-0.00006992,-0.00522397,-0.32879679,0.00847291,-0.00104344,-0.00927
 788,-0.00027120,-0.00054918,-0.00853067,-0.00089956,0.00231588,0.35112
 037,-0.00119092,-0.00015516,-0.00020853,0.00015725,0.00001733,0.000068
 68,0.00004593,0.00005671,-0.00017433,0.00022891,-0.00025334,-0.0000619
 5,-0.00054697,0.00023940,-0.00495252,0.00001534,-0.00000170,0.00001432
 ,0.00005226,-0.00005639,-0.00000141,0.00035553,-0.00009166,0.00021064,
 -0.00041428,0.00004062,0.00010493,-0.00046894,0.00126990,-0.00007826,-
 0.00010856,0.00014507,0.00021059,0.00008427,0.00021025,0.00006836,0.00
 028485,-0.00010532,0.00001072,-0.00858905,0.03618920,-0.00860293,-0.00
 004642,-0.00004728,0.00006348,0.00002564,0.00000507,0.00000050,-0.0000
 4484,0.00002452,-0.00001283,-0.00009823,0.00004329,0.00002443,-0.00007
 762,0.00001491,-0.00006544,0.00000764,-0.00000142,0.00001422,0.0000107
 4,0.00000393,0.00001099,0.00000136,-0.00001203,0.00000374,-0.00005492,
 0.00007820,0.00001979,0.00001433,-0.00000642,-0.00001045,0.00001224,-0
 .00000061,-0.00001666,-0.00002639,0.00002150,0.00002045,0.00380294,-0.
 00152710,-0.04807789,-0.00120874,-0.02665143,0.00324674,0.00135643,0.0
 0448066,0.00122263,0.00639262,-0.01390142,0.05688704,-0.00079210,-0.00
 002786,0.00035304,-0.00041992,-0.00110606,-0.00023171,-0.00242880,-0.0
 0084209,-0.00040732,-0.00071443,-0.00329262,0.00169988,-0.00110768,0.0
 0144924,0.00021645,-0.00003413,0.00012758,-0.00020144,-0.00097349,-0.0
 0037163,0.00007180,0.00019730,0.00002313,0.00000621,0.00128667,0.00001
 465,0.00088266,-0.00051811,0.00045336,0.00030542,0.00170289,0.00010287
 ,0.00014372,0.00101211,0.00060282,0.00018241,0.00099751,-0.00015380,-0
 .00074976,0.00087223,-0.00103030,0.00044190,-0.00085372,0.00898159,-0.
 00657617,0.00149421,-0.00433319,0.00350400,0.00218986,-0.00467053,0.00
 461820,-0.18607609,0.02979433,-0.07011203,-0.00046706,0.00009297,-0.00
 027335,0.00002944,-0.00003679,0.00001873,0.00008999,0.00004342,0.00003
 516,0.00003702,-0.00006160,0.00003183,-0.00051991,0.00041202,0.0000549
 1,0.00006410,-0.00005567,0.00005453,0.00008259,-0.00004064,-0.00006149
 ,0.00001742,-0.00006866,0.00005079,-0.00045719,0.00013799,-0.00042220,
 0.00002627,0.00001800,-0.00001486,0.00012703,0.00001381,0.00002812,0.0
 0007304,-0.00010135,0.00006382,0.49229478,0.00031856,-0.00025026,-0.00
 024008,-0.00010871,0.00010457,0.00038320,0.00153083,0.00040322,0.00145
 861,-0.00028567,-0.00499233,0.00322476,-0.00004415,-0.00029077,0.00041
 283,0.00008898,-0.00003024,0.00002925,0.00041714,0.00049509,-0.0006467
 5,-0.00008651,0.00004151,0.00001487,0.00103278,0.00019528,0.00045826,0
 .00012448,-0.00010138,-0.00020647,-0.00089266,0.00108007,-0.00090340,-
 0.00070911,-0.00020521,-0.00025588,-0.00026640,0.00011017,0.00020592,-
 0.00018127,0.00027048,-0.00016602,0.02909593,-0.01718089,0.02120510,0.
 00196925,0.00187747,0.00120786,-0.00047505,0.00212818,-0.00162597,-0.0
 0137106,-0.07964722,0.01510317,0.00019076,-0.00012248,0.00016487,-0.00
 000660,0.00002270,-0.00002394,-0.00006953,-0.00001485,-0.00003382,-0.0
 0002458,0.00002829,-0.00001889,0.00016547,-0.00011481,-0.00001088,-0.0
 0002115,0.00001316,-0.00001980,-0.00002538,0.00001906,0.00002131,-0.00
 000973,0.00002094,-0.00000513,0.00011508,-0.00003044,0.00020254,-0.000
 00331,-0.00001767,-0.00006554,-0.00001424,-0.00001852,-0.00002995,-0.0
 0000539,0.00001536,-0.00003240,0.03675870,0.60556296,-0.00078431,-0.00
 003329,0.00024441,-0.00019238,-0.00026483,-0.00017061,-0.00089733,-0.0
 0056376,-0.00065682,0.00003655,0.00131707,-0.00335534,-0.00066191,0.00
 040199,0.00007715,-0.00006287,0.00004524,-0.00005821,-0.00090543,-0.00
 074748,0.00044024,0.00018336,0.00000954,-0.00001999,-0.00048990,0.0001
 4021,0.00030414,-0.00057776,0.00073230,0.00068501,0.00071343,0.0008125
 0,0.00012747,0.00088703,0.00039953,0.00030017,0.00066014,-0.00009702,-
 0.00052028,0.00073652,-0.00070261,0.00066877,-0.02394283,0.01399687,-0
 .02552453,0.00146359,-0.00304497,0.00395698,-0.00230736,-0.00095354,0.
 00223679,-0.04396140,0.02661481,-0.10045911,-0.00029740,0.00013807,-0.
 00020963,0.00002077,-0.00002596,0.00001839,0.00008311,0.00002735,0.000
 04103,0.00003364,-0.00004646,0.00002433,-0.00033670,0.00028737,0.00004
 963,0.00003942,-0.00004031,0.00002910,0.00006281,-0.00002883,-0.000042
 65,0.00001227,-0.00004988,0.00003717,-0.00024062,-0.00002724,-0.000400
 09,0.00000962,0.00003114,0.00003542,0.00008253,0.00000913,0.00005625,0
 .00006913,-0.00007120,0.00008107,-0.06220758,-0.01005683,0.56572444,0.
 00027402,-0.00000431,-0.00007934,0.00009744,0.00008680,0.00003753,0.00
 023463,0.00019413,0.00030690,0.00041232,0.00030001,-0.00005669,0.00044
 776,-0.00016760,0.00014329,0.00000862,-0.00002181,0.00001502,0.0003046
 5,0.00028992,-0.00009813,-0.00006441,-0.00000291,0.00000544,-0.0001672
 2,-0.00005116,-0.00016429,0.00019350,-0.00024845,-0.00023489,-0.000146
 65,-0.00013026,-0.00002353,-0.00029958,-0.00014732,-0.00011968,-0.0002
 1289,0.00004296,0.00014497,-0.00023672,0.00021856,-0.00024374,0.000256
 04,-0.00449698,0.00409823,-0.00003954,0.00062770,-0.00038567,0.0004446
 6,0.00110214,-0.00145642,-0.03736328,0.01347140,0.00546253,0.00010399,
 -0.00004574,0.00008279,-0.00000581,0.00001140,-0.00001056,-0.00003044,
 -0.00000884,-0.00001255,-0.00001015,0.00001399,-0.00000976,0.00011656,
 -0.00009592,-0.00001574,-0.00001622,0.00001312,-0.00001346,-0.00001781
 ,0.00000901,0.00001361,-0.00000313,0.00001475,-0.00001063,0.00008546,0
 .00000367,0.00012536,-0.00000622,-0.00000583,-0.00000706,-0.00002994,-
 0.00000013,-0.00001466,-0.00002485,0.00002440,-0.00002554,-0.17176361,
 0.04433497,0.11790758,0.20112476,-0.00004174,0.00002920,0.00003885,-0.
 00001998,0.00000793,-0.00002664,-0.00008258,-0.00000084,-0.00010355,-0
 .00016372,-0.00000643,0.00021934,-0.00012034,-0.00006745,-0.00009816,-
 0.00000553,-0.00000225,-0.00000087,-0.00003078,-0.00005524,0.00003749,
 0.00001211,-0.00000059,-0.00000357,0.00005593,0.00000968,0.00005388,-0
 .00004108,0.00003702,0.00005904,0.00002303,-0.00005029,0.00001232,0.00
 005224,0.00001384,0.00001912,0.00001253,-0.00001340,-0.00000745,0.0000
 3809,-0.00001455,0.00005845,0.00156591,0.00113771,-0.00272120,-0.00003
 430,-0.00026372,-0.00009823,-0.00020393,-0.00018595,0.00025226,0.00975
 656,-0.00090674,0.00090036,-0.00001749,0.00001000,-0.00001387,0.000000
 36,-0.00000155,0.00000227,0.00000431,0.00000096,0.00000293,0.00000251,
 -0.00000281,0.00000149,-0.00001240,0.00000737,0.00000123,0.00000160,-0
 .00000046,0.00000188,0.00000152,-0.00000124,-0.00000155,0.00000024,-0.
 00000090,-0.00000009,-0.00000222,-0.00000463,-0.00001843,0.00000105,0.
 00000121,0.00000254,0.00000380,-0.00000108,0.00000399,0.00000467,-0.00
 000351,0.00000386,0.04368357,-0.07183943,-0.04350749,-0.05431184,0.068
 40290,0.00005581,-0.00002333,-0.00005183,-0.00000922,-0.00004618,-0.00
 000804,-0.00008314,-0.00001368,0.00006772,-0.00010963,-0.00008359,0.00
 016957,0.00003254,0.00016447,0.00003183,0.00000463,0.00000020,-0.00000
 393,0.00005688,0.00008639,-0.00005340,-0.00000933,-0.00000281,0.000006
 28,0.00002893,-0.00003228,-0.00005113,0.00002127,-0.00003994,-0.000118
 02,0.00006236,-0.00002419,0.00004734,-0.00004210,-0.00000928,-0.000022
 87,0.00000106,0.00000779,0.00002579,-0.00008094,0.00003271,-0.00006145
 ,-0.00245026,-0.00094097,0.00434385,0.00009375,0.00004986,-0.00060784,
 0.00135009,-0.00125106,0.00008615,-0.02033948,0.00874727,0.01333019,0.
 00000030,-0.00001278,0.00000369,-0.00000060,0.00000043,0.00000084,-0.0
 0000423,-0.00000014,-0.00000310,-0.00000215,0.00000167,-0.00000085,-0.
 00000048,-0.00000146,-0.00000182,0.00000239,0.00000125,0.00000333,-0.0
 0000471,0.00000009,0.00000120,-0.00000130,0.00000181,-0.00000303,-0.00
 000837,0.00001911,0.00001730,-0.00000068,-0.00000095,0.00000005,-0.000
 00457,0.00000218,-0.00000567,-0.00000573,0.00000292,-0.00000771,0.1228
 5426,-0.04402236,-0.17046179,-0.12591858,0.04702859,0.17423581,0.00017
 363,-0.00008917,-0.00010691,0.00006210,0.00012123,0.00011943,0.0006525
 6,0.00023180,0.00042898,0.00011832,-0.00001114,0.00008712,0.00020178,-
 0.00022821,-0.00009820,0.00000881,-0.00000743,0.00001739,0.00023762,0.
 00015619,-0.00023530,-0.00003525,0.00002092,0.00000883,-0.00012871,-0.
 00001053,-0.00006846,0.00003372,-0.00008144,-0.00006206,-0.00025208,0.
 00025299,-0.00005292,-0.00030474,-0.00010608,-0.00008805,-0.00016699,0
 .00005111,0.00015173,-0.00012518,0.00017860,-0.00003665,0.00027473,-0.
 00468693,0.00331687,0.00035848,0.00145083,0.00001493,-0.00004706,0.000
 65356,-0.00040067,-0.02348886,-0.01871969,-0.02824724,0.00010282,-0.00
 004533,0.00007280,-0.00000527,0.00000978,-0.00000803,-0.00002791,-0.00
 000749,-0.00001301,-0.00001394,0.00001468,-0.00000827,0.00008707,-0.00
 007478,-0.00000782,-0.00000805,0.00001099,-0.00000552,-0.00001857,0.00
 000832,0.00001136,-0.00000646,0.00001686,-0.00000975,0.00006357,-0.000
 01909,0.00005833,-0.00000600,-0.00000167,0.00000303,-0.00001581,-0.000
 00154,-0.00000421,-0.00001019,0.00001471,-0.00001097,-0.06803355,-0.05
 135439,-0.03266629,0.00919141,0.01814497,0.01251329,0.08178365,0.00004
 428,-0.00000251,-0.00003418,0.00003170,0.00008048,0.00002464,0.0001310
 9,-0.00007256,0.00000926,0.00016724,0.00046995,-0.00003594,0.00006424,
 -0.00005873,-0.00003743,0.00001411,-0.00001265,0.00002166,0.00002783,0
 .00000190,0.00001415,-0.00001170,-0.00000082,0.00000234,-0.00004267,-0
 .00003672,-0.00004817,0.00004664,-0.00004549,-0.00003314,-0.00002534,-
 0.00008391,0.00012454,-0.00005267,-0.00002072,-0.00000531,-0.00006332,
 0.00001845,0.00006010,-0.00007023,0.00007438,-0.00003168,0.00081316,0.
 00382884,0.00139671,-0.00076677,-0.00025687,-0.00179112,0.00012566,-0.
 00040438,-0.00012641,0.00257068,0.01160886,0.00752532,0.00003767,-0.00
 000310,0.00001600,-0.00000289,0.00000150,-0.00000123,-0.00000229,-0.00
 000263,-0.00000210,-0.00000461,0.00000574,-0.00000174,0.00003176,-0.00
 003009,-0.00000488,-0.00000251,0.00000444,-0.00000106,-0.00000766,0.00
 000189,0.00000410,-0.00000182,0.00000691,-0.00000509,0.00002329,-0.000
 00587,0.00002731,-0.00000127,-0.00000141,0.00000323,-0.00000814,-0.000
 00022,-0.00000349,-0.00000542,0.00000731,-0.00000519,-0.05602777,-0.22
 047423,-0.11048615,-0.00237677,-0.00536513,-0.00326397,0.06056664,0.22
 802793,0.00009856,-0.00004857,-0.00005863,0.00003924,0.00006143,0.0000
 7584,0.00036749,0.00011633,0.00032393,0.00001795,0.00015378,-0.0000391
 5,0.00011976,-0.00012878,0.00002128,0.00000025,0.00001154,-0.00000481,
 0.00014186,0.00009625,-0.00015403,-0.00002208,0.00001042,0.00000453,-0
 .00011745,-0.00000066,-0.00006103,0.00004323,-0.00008280,-0.00005014,0
 .00002177,0.00027586,0.00002863,-0.00017351,-0.00005751,-0.00005369,-0
 .00009384,0.00003475,0.00007350,-0.00006609,0.00010768,-0.00005077,-0.
 00040164,-0.00427593,0.00193992,0.00023742,0.00091947,0.00006340,0.000
 21049,0.00008967,-0.00043238,-0.01715960,-0.00667990,-0.01325769,0.000
 05906,-0.00002730,0.00004418,-0.00000249,0.00000544,-0.00000528,-0.000
 01572,-0.00000420,-0.00000786,-0.00000761,0.00000850,-0.00000443,0.000
 05335,-0.00004654,-0.00000537,-0.00000622,0.00000620,-0.00000502,-0.00
 000873,0.00000502,0.00000622,-0.00000314,0.00000939,-0.00000389,0.0000
 3022,-0.00000512,0.00003152,-0.00000396,-0.00000166,0.00000023,-0.0000
 0693,-0.00000019,-0.00000253,-0.00000855,0.00000992,-0.00000793,-0.033
 37864,-0.10811064,-0.12668991,-0.00470929,-0.01839943,-0.01014191,0.04
 880888,0.12075192,0.13502643,0.00005626,0.00003597,-0.00002749,0.00001
 979,0.00012057,0.00007456,0.00025293,0.00012344,-0.00022819,0.00040641
 ,0.00160413,-0.00123833,0.00023963,-0.00019032,-0.00011527,-0.00002434
 ,-0.00001200,0.00001541,-0.00009764,0.00002067,-0.00001935,-0.00000592
 ,-0.00001324,-0.00000377,-0.00052913,-0.00004167,-0.00023982,0.0000281
 3,-0.00000892,0.00002292,-0.00012859,-0.00015012,0.00017539,-0.0000060
 4,-0.00004198,0.00002731,-0.00007578,-0.00001913,0.00006754,-0.0000751
 0,0.00007017,-0.00000678,-0.00457371,0.00050044,-0.00204803,-0.0001222
 8,0.00023376,0.00004351,0.00009430,0.00011308,-0.00051548,0.00133513,0
 .02986426,-0.02581460,0.00000676,0.00000622,-0.00000623,-0.00000334,-0
 .00000105,0.00000719,0.00000024,-0.00000279,0.00000027,0.00000288,0.00
 000164,0.00000069,0.00002696,-0.00002127,-0.00000047,-0.00000185,0.000
 00299,-0.00000162,-0.00000708,0.00000271,0.00000423,0.00000089,0.00000
 187,-0.00000626,0.00004214,-0.00001764,0.00000274,-0.00000449,0.000004
 84,0.00002105,-0.00001653,0.00000401,0.00000534,-0.00000901,0.00000979
 ,0.00000027,-0.06743466,-0.06018803,0.04753060,-0.00285734,-0.01827705
 ,0.01199798,-0.00065564,-0.00522216,0.00593595,0.07411604,-0.00008181,
 0.00000139,0.00006015,-0.00000106,-0.00007514,-0.00002973,-0.00018106,
 -0.00011253,0.00003987,-0.00034180,-0.00028858,0.00033609,-0.00010251,
 0.00012933,0.00007756,-0.00000787,0.00001790,-0.00002717,-0.00006841,-
 0.00002446,0.00008772,0.00001603,0.00000192,-0.00000311,0.00016211,0.0
 0000178,0.00007507,-0.00004158,0.00001652,0.00003099,0.00023314,0.0001
 2997,0.00000107,0.00009824,0.00004511,0.00001035,0.00008279,-0.0000025
 5,-0.00008995,0.00008687,-0.00008655,0.00002045,0.00173480,0.00191670,
 -0.00084256,-0.00006458,0.00022921,-0.00016314,-0.00011105,-0.00007930
 ,0.00020213,0.00275774,-0.00573560,0.00630395,-0.00003865,0.00001213,-
 0.00001961,0.00000377,-0.00000246,-0.00000152,0.00000795,0.00000384,0.
 00000431,0.00000490,-0.00000665,0.00000271,-0.00003675,0.00002749,0.00
 000219,0.00000175,-0.00000388,0.00000103,0.00001099,-0.00000383,-0.000
 00600,0.00000162,-0.00000547,0.00000652,-0.00004293,0.00001265,-0.0000
 3200,0.00000337,0.00000006,-0.00000508,0.00001297,0.00000099,0.0000022
 1,0.00000606,-0.00000837,0.00000444,-0.05048948,-0.21705776,0.12578473
 ,0.00135691,0.00913038,-0.00637779,-0.00645928,-0.01726052,0.01519564,
 0.05148681,0.22907631,0.00009169,0.00003843,-0.00001576,0.00001546,0.0
 0009776,0.00004184,0.00024163,0.00016318,-0.00008457,0.00029271,0.0011
 6832,-0.00036555,0.00012220,-0.00019301,-0.00010609,-0.00001509,-0.000
 01489,0.00001124,0.00001047,0.00007462,-0.00002029,-0.00001741,-0.0000
 1206,-0.00000567,-0.00032058,-0.00003943,-0.00016019,0.00002224,-0.000
 01501,-0.00002389,-0.00014424,-0.00011235,0.00010334,-0.00007325,-0.00
 007269,-0.00000977,-0.00010617,-0.00000761,0.00008291,-0.00010937,0.00
 011177,-0.00002958,-0.00326767,-0.00109568,0.00022817,-0.00002914,0.00
 039403,-0.00005074,0.00006611,-0.00017548,0.00015555,-0.00199600,0.015
 75384,-0.01431584,0.00002485,-0.00000548,0.00001317,-0.00000343,0.0000
 0215,0.00000338,-0.00000850,-0.00000418,-0.00000215,0.00000112,0.00000
 289,-0.00000154,0.00004918,-0.00003536,-0.00000372,-0.00000612,0.00000
 501,-0.00000567,-0.00000779,0.00000407,0.00000613,-0.00000074,0.000004
 06,-0.00000597,0.00005611,-0.00001699,0.00003584,-0.00000332,0.0000001
 6,0.00000982,-0.00001731,0.00000046,0.00000027,-0.00000937,0.00001115,
 -0.00000446,0.03901871,0.12238220,-0.14656899,0.00526694,0.01630065,-0
 .01076655,-0.00348265,-0.01406299,0.01339683,-0.03566125,-0.14065153,0
 .15845850\\0.00001339,0.00000050,-0.00000899,-0.00000754,0.00002207,0.
 00001326,-0.00000790,-0.00001928,0.00001334,0.00001112,-0.00000114,0.0
 0001982,-0.00000105,-0.00000028,-0.00001446,0.00000015,-0.00001890,0.0
 0002193,0.00000625,-0.00000549,0.00001683,-0.00001173,-0.00000142,-0.0
 0000815,0.00000390,-0.00001824,-0.00001385,0.00000684,0.00001576,-0.00
 000815,-0.00000592,-0.00001842,-0.00001098,-0.00000801,0.00000770,0.00
 003033,-0.00000747,0.00001608,0.00001163,-0.00001121,-0.00000404,-0.00
 002096,-0.00000210,0.00000439,-0.00002537,0.,-0.00000087,-0.00001240,-
 0.00000341,-0.00001177,-0.00000826,0.00000064,-0.00000385,0.00001160,0
 .00000407,-0.00000684,0.00002070,-0.00000399,-0.00001559,0.00002476,-0
 .00000157,-0.00000521,0.00002962,-0.00000182,0.00000202,0.00002151,0.0
 0000906,0.00001832,-0.00001309,-0.00000219,0.00000665,-0.00000378,0.00
 000497,0.00002685,-0.00000062,0.00000234,0.00001591,-0.00001546,0.0000
 0516,-0.00001346,-0.00001736,-0.00000116,-0.00001884,-0.00001946,0.000
 00126,-0.00001167,-0.00001730,0.00000376,-0.00000853,-0.00003452,-0.00
 000190,0.00001212,0.00000178,0.00000139,0.00000332,0.00000627,0.000003
 24,0.00001577,-0.00000347,0.00000140,0.00001640,0.00001326\\\@


 NO SCIENCE HAS EVER MADE MORE RAPID PROGRESS IN A
 SHORTER TIME THAN CHEMISTRY.
   -- MARTIN HEINRICH KLOPROTH, 1791
 (FIRST PROFESSOR OF CHEMISTRY AT THE UNIVERSITY OF BERLIN)
 Job cpu time:       0 days  2 hours 58 minutes 40.6 seconds.
 Elapsed time:       0 days  0 hours 44 minutes 47.8 seconds.
 File lengths (MBytes):  RWF=    375 Int=      0 D2E=      0 Chk=     16 Scr=      1
 Normal termination of Gaussian 16 at Fri May 24 09:22:36 2019.
