 Entering Gaussian System, Link 0=g16
 Input=clay-glucose_cation-065-b3lyp_d3bj-631gd-pcm_thf.gjf
 Output=clay-glucose_cation-065-b3lyp_d3bj-631gd-pcm_thf.out
 Initial command:
 /n/sw/g16_nehalem/g16/l1.exe "/scratch/Gau-50677.inp" -scrdir="/scratch/"
 Entering Link 1 = /n/sw/g16_nehalem/g16/l1.exe PID=     50679.
  
 Copyright (c) 1988,1990,1992,1993,1995,1998,2003,2009,2016,
            Gaussian, Inc.  All Rights Reserved.
  
 This is part of the Gaussian(R) 16 program.  It is based on
 the Gaussian(R) 09 system (copyright 2009, Gaussian, Inc.),
 the Gaussian(R) 03 system (copyright 2003, Gaussian, Inc.),
 the Gaussian(R) 98 system (copyright 1998, Gaussian, Inc.),
 the Gaussian(R) 94 system (copyright 1995, Gaussian, Inc.),
 the Gaussian 92(TM) system (copyright 1992, Gaussian, Inc.),
 the Gaussian 90(TM) system (copyright 1990, Gaussian, Inc.),
 the Gaussian 88(TM) system (copyright 1988, Gaussian, Inc.),
 the Gaussian 86(TM) system (copyright 1986, Carnegie Mellon
 University), and the Gaussian 82(TM) system (copyright 1983,
 Carnegie Mellon University). Gaussian is a federally registered
 trademark of Gaussian, Inc.
  
 This software contains proprietary and confidential information,
 including trade secrets, belonging to Gaussian, Inc.
  
 This software is provided under written license and may be
 used, copied, transmitted, or stored only in accord with that
 written license.
  
 The following legend is applicable only to US Government
 contracts under FAR:
  
                    RESTRICTED RIGHTS LEGEND
  
 Use, reproduction and disclosure by the US Government is
 subject to restrictions as set forth in subparagraphs (a)
 and (c) of the Commercial Computer Software - Restricted
 Rights clause in FAR 52.227-19.
  
 Gaussian, Inc.
 340 Quinnipiac St., Bldg. 40, Wallingford CT 06492
  
  
 ---------------------------------------------------------------
 Warning -- This program may not be used in any manner that
 competes with the business of Gaussian, Inc. or will provide
 assistance to any competitor of Gaussian, Inc.  The licensee
 of this program is prohibited from giving any competitor of
 Gaussian, Inc. access to this program.  By using this program,
 the user acknowledges that Gaussian, Inc. is engaged in the
 business of creating and licensing software in the field of
 computational chemistry and represents and warrants to the
 licensee that it is not a competitor of Gaussian, Inc. and that
 it will not use this program in any manner prohibited above.
 ---------------------------------------------------------------
  

 Cite this work as:
 Gaussian 16, Revision A.03,
 M. J. Frisch, G. W. Trucks, H. B. Schlegel, G. E. Scuseria, 
 M. A. Robb, J. R. Cheeseman, G. Scalmani, V. Barone, 
 G. A. Petersson, H. Nakatsuji, X. Li, M. Caricato, A. V. Marenich, 
 J. Bloino, B. G. Janesko, R. Gomperts, B. Mennucci, H. P. Hratchian, 
 J. V. Ortiz, A. F. Izmaylov, J. L. Sonnenberg, D. Williams-Young, 
 F. Ding, F. Lipparini, F. Egidi, J. Goings, B. Peng, A. Petrone, 
 T. Henderson, D. Ranasinghe, V. G. Zakrzewski, J. Gao, N. Rega, 
 G. Zheng, W. Liang, M. Hada, M. Ehara, K. Toyota, R. Fukuda, 
 J. Hasegawa, M. Ishida, T. Nakajima, Y. Honda, O. Kitao, H. Nakai, 
 T. Vreven, K. Throssell, J. A. Montgomery, Jr., J. E. Peralta, 
 F. Ogliaro, M. J. Bearpark, J. J. Heyd, E. N. Brothers, K. N. Kudin, 
 V. N. Staroverov, T. A. Keith, R. Kobayashi, J. Normand, 
 K. Raghavachari, A. P. Rendell, J. C. Burant, S. S. Iyengar, 
 J. Tomasi, M. Cossi, J. M. Millam, M. Klene, C. Adamo, R. Cammi, 
 J. W. Ochterski, R. L. Martin, K. Morokuma, O. Farkas, 
 J. B. Foresman, and D. J. Fox, Gaussian, Inc., Wallingford CT, 2016.
 
 ******************************************
 Gaussian 16:  ES64L-G16RevA.03 25-Dec-2016
                24-May-2019 
 ******************************************
 %nprocshared=4
 Will use up to    4 processors via shared memory.
 %mem=3GB
 -------------------------------------------------------------------
 #p b3lyp 6-31g* opt freq=noraman scrf=(pcm,solvent=tetrahydrofuran)
 -------------------------------------------------------------------
 1/18=20,19=15,26=3,38=1/1,3;
 2/9=110,12=2,17=6,18=5,40=1/2;
 3/5=1,6=6,7=1,11=2,25=1,30=1,70=2201,71=1,72=20,74=-5/1,2,3;
 4//1;
 5/5=2,38=5,53=20/2;
 6/7=2,8=2,9=2,10=2,28=1/1;
 7//1,2,3,16;
 1/18=20,19=15,26=3/3(2);
 2/9=110/2;
 99//99;
 2/9=110/2;
 3/5=1,6=6,7=1,11=2,25=1,30=1,70=2205,71=1,72=20,74=-5/1,2,3;
 4/5=5,16=3,69=1/1;
 5/5=2,38=5,53=20/2;
 7//1,2,3,16;
 1/18=20,19=15,26=3/3(-5);
 2/9=110/2;
 6/7=2,8=2,9=2,10=2,19=2,28=1/1;
 99/9=1/99;
 Leave Link    1 at Fri May 24 08:31:22 2019, MaxMem=   402653184 cpu:               0.9 elap:               0.3
 (Enter /n/sw/g16_nehalem/g16/l101.exe)
 -----
 title
 -----
 Symbolic Z-matrix:
 Charge =  1 Multiplicity = 1
 6                     1.13364   0.51482  -0.11162 
 6                     1.77775  -0.82516  -0.56734 
 6                     0.87584  -2.01243  -0.3948 
 6                    -1.09512  -0.68614   0.09296 
 6                    -0.34123   0.48205  -0.5714 
 1                     1.29039  -3.01791  -0.49394 
 1                     1.88005  -0.74736  -1.6657 
 1                     1.19271   0.60294   0.98296 
 1                    -1.09482  -0.62974   1.1836 
 1                    -0.34702   0.312    -1.65503 
 8                    -0.35673  -1.97914  -0.16231 
 8                     3.06541  -1.13354  -0.10319 
 8                     1.74482   1.6044   -0.7444 
 8                    -1.04954   1.67984  -0.40954 
 6                    -2.53012  -0.9044   -0.38385 
 1                    -2.75032  -1.98302  -0.39764 
 1                    -2.66258  -0.51442  -1.40344 
 8                    -3.34641  -0.22149   0.54017 
 6                     3.20477  -1.30398   1.31723 
 1                     2.49361  -2.04339   1.70935 
 1                     4.21914  -1.67252   1.46987 
 1                     3.07904  -0.35796   1.8529 
 6                     2.94065   2.09405  -0.12997 
 1                     3.75844   1.36965  -0.20327 
 1                     3.20907   3.00081  -0.67458 
 1                     2.76374   2.34737   0.92373 
 6                    -1.08555   2.26902   0.89466 
 1                    -1.66914   3.1836    0.7792 
 1                    -1.58586   1.62277   1.6237 
 1                    -0.08274   2.53257   1.24746 
 6                    -4.70742  -0.16055   0.12897 
 1                    -4.80997   0.36997  -0.8278 
 1                    -5.13878  -1.16643   0.02813 
 1                    -5.24468   0.38677   0.90564 
 
 ITRead=  0  0  0  0  0  0  0  0  0  0  0  0  0  0  0  0  0  0  0  0
 ITRead=  0  0  0  0  0  0  0  0  0  0  0  0  0  0
 MicOpt= -1 -1 -1 -1 -1 -1 -1 -1 -1 -1 -1 -1 -1 -1 -1 -1 -1 -1 -1 -1
 MicOpt= -1 -1 -1 -1 -1 -1 -1 -1 -1 -1 -1 -1 -1 -1
 NAtoms=     34 NQM=       34 NQMF=       0 NMMI=      0 NMMIF=      0
                NMic=       0 NMicF=      0.
                    Isotopes and Nuclear Properties:
 (Nuclear quadrupole moments (NQMom) in fm**2, nuclear magnetic moments (NMagM)
  in nuclear magnetons)

  Atom         1           2           3           4           5           6           7           8           9          10
 IAtWgt=          12          12          12          12          12           1           1           1           1           1
 AtmWgt=  12.0000000  12.0000000  12.0000000  12.0000000  12.0000000   1.0078250   1.0078250   1.0078250   1.0078250   1.0078250
 NucSpn=           0           0           0           0           0           1           1           1           1           1
 AtZEff=   0.0000000   0.0000000   0.0000000   0.0000000   0.0000000   0.0000000   0.0000000   0.0000000   0.0000000   0.0000000
 NQMom=    0.0000000   0.0000000   0.0000000   0.0000000   0.0000000   0.0000000   0.0000000   0.0000000   0.0000000   0.0000000
 NMagM=    0.0000000   0.0000000   0.0000000   0.0000000   0.0000000   2.7928460   2.7928460   2.7928460   2.7928460   2.7928460
 AtZNuc=   6.0000000   6.0000000   6.0000000   6.0000000   6.0000000   1.0000000   1.0000000   1.0000000   1.0000000   1.0000000

  Atom        11          12          13          14          15          16          17          18          19          20
 IAtWgt=          16          16          16          16          12           1           1          16          12           1
 AtmWgt=  15.9949146  15.9949146  15.9949146  15.9949146  12.0000000   1.0078250   1.0078250  15.9949146  12.0000000   1.0078250
 NucSpn=           0           0           0           0           0           1           1           0           0           1
 AtZEff=   0.0000000   0.0000000   0.0000000   0.0000000   0.0000000   0.0000000   0.0000000   0.0000000   0.0000000   0.0000000
 NQMom=    0.0000000   0.0000000   0.0000000   0.0000000   0.0000000   0.0000000   0.0000000   0.0000000   0.0000000   0.0000000
 NMagM=    0.0000000   0.0000000   0.0000000   0.0000000   0.0000000   2.7928460   2.7928460   0.0000000   0.0000000   2.7928460
 AtZNuc=   8.0000000   8.0000000   8.0000000   8.0000000   6.0000000   1.0000000   1.0000000   8.0000000   6.0000000   1.0000000

  Atom        21          22          23          24          25          26          27          28          29          30
 IAtWgt=           1           1          12           1           1           1          12           1           1           1
 AtmWgt=   1.0078250   1.0078250  12.0000000   1.0078250   1.0078250   1.0078250  12.0000000   1.0078250   1.0078250   1.0078250
 NucSpn=           1           1           0           1           1           1           0           1           1           1
 AtZEff=   0.0000000   0.0000000   0.0000000   0.0000000   0.0000000   0.0000000   0.0000000   0.0000000   0.0000000   0.0000000
 NQMom=    0.0000000   0.0000000   0.0000000   0.0000000   0.0000000   0.0000000   0.0000000   0.0000000   0.0000000   0.0000000
 NMagM=    2.7928460   2.7928460   0.0000000   2.7928460   2.7928460   2.7928460   0.0000000   2.7928460   2.7928460   2.7928460
 AtZNuc=   1.0000000   1.0000000   6.0000000   1.0000000   1.0000000   1.0000000   6.0000000   1.0000000   1.0000000   1.0000000

  Atom        31          32          33          34
 IAtWgt=          12           1           1           1
 AtmWgt=  12.0000000   1.0078250   1.0078250   1.0078250
 NucSpn=           0           1           1           1
 AtZEff=   0.0000000   0.0000000   0.0000000   0.0000000
 NQMom=    0.0000000   0.0000000   0.0000000   0.0000000
 NMagM=    0.0000000   2.7928460   2.7928460   2.7928460
 AtZNuc=   6.0000000   1.0000000   1.0000000   1.0000000
 Leave Link  101 at Fri May 24 08:31:22 2019, MaxMem=   402653184 cpu:               0.8 elap:               0.3
 (Enter /n/sw/g16_nehalem/g16/l103.exe)

 GradGradGradGradGradGradGradGradGradGradGradGradGradGradGradGradGradGrad
 Berny optimization.
 Initialization pass.
                           ----------------------------
                           !    Initial Parameters    !
                           ! (Angstroms and Degrees)  !
 --------------------------                            --------------------------
 ! Name  Definition              Value          Derivative Info.                !
 --------------------------------------------------------------------------------
 ! R1    R(1,2)                  1.555          estimate D2E/DX2                !
 ! R2    R(1,5)                  1.5452         estimate D2E/DX2                !
 ! R3    R(1,8)                  1.0997         estimate D2E/DX2                !
 ! R4    R(1,13)                 1.4004         estimate D2E/DX2                !
 ! R5    R(2,3)                  1.5009         estimate D2E/DX2                !
 ! R6    R(2,7)                  1.1058         estimate D2E/DX2                !
 ! R7    R(2,12)                 1.4031         estimate D2E/DX2                !
 ! R8    R(3,6)                  1.0921         estimate D2E/DX2                !
 ! R9    R(3,11)                 1.2548         estimate D2E/DX2                !
 ! R10   R(4,5)                  1.5409         estimate D2E/DX2                !
 ! R11   R(4,9)                  1.0921         estimate D2E/DX2                !
 ! R12   R(4,11)                 1.5107         estimate D2E/DX2                !
 ! R13   R(4,15)                 1.5278         estimate D2E/DX2                !
 ! R14   R(5,10)                 1.0969         estimate D2E/DX2                !
 ! R15   R(5,14)                 1.4009         estimate D2E/DX2                !
 ! R16   R(12,19)                1.4374         estimate D2E/DX2                !
 ! R17   R(13,23)                1.4308         estimate D2E/DX2                !
 ! R18   R(14,27)                1.4316         estimate D2E/DX2                !
 ! R19   R(15,16)                1.101          estimate D2E/DX2                !
 ! R20   R(15,17)                1.0996         estimate D2E/DX2                !
 ! R21   R(15,18)                1.4094         estimate D2E/DX2                !
 ! R22   R(18,31)                1.4231         estimate D2E/DX2                !
 ! R23   R(19,20)                1.0983         estimate D2E/DX2                !
 ! R24   R(19,21)                1.09           estimate D2E/DX2                !
 ! R25   R(19,22)                1.0944         estimate D2E/DX2                !
 ! R26   R(23,24)                1.0949         estimate D2E/DX2                !
 ! R27   R(23,25)                1.0913         estimate D2E/DX2                !
 ! R28   R(23,26)                1.0981         estimate D2E/DX2                !
 ! R29   R(27,28)                1.091          estimate D2E/DX2                !
 ! R30   R(27,29)                1.0952         estimate D2E/DX2                !
 ! R31   R(27,30)                1.0952         estimate D2E/DX2                !
 ! R32   R(31,32)                1.0988         estimate D2E/DX2                !
 ! R33   R(31,33)                1.0991         estimate D2E/DX2                !
 ! R34   R(31,34)                1.0915         estimate D2E/DX2                !
 ! A1    A(2,1,5)              106.8507         estimate D2E/DX2                !
 ! A2    A(2,1,8)              109.7854         estimate D2E/DX2                !
 ! A3    A(2,1,13)             110.9316         estimate D2E/DX2                !
 ! A4    A(5,1,8)              110.4341         estimate D2E/DX2                !
 ! A5    A(5,1,13)             107.3741         estimate D2E/DX2                !
 ! A6    A(8,1,13)             111.3434         estimate D2E/DX2                !
 ! A7    A(1,2,3)              113.5181         estimate D2E/DX2                !
 ! A8    A(1,2,7)              105.5917         estimate D2E/DX2                !
 ! A9    A(1,2,12)             118.2023         estimate D2E/DX2                !
 ! A10   A(3,2,7)              103.0274         estimate D2E/DX2                !
 ! A11   A(3,2,12)             109.8514         estimate D2E/DX2                !
 ! A12   A(7,2,12)             105.0184         estimate D2E/DX2                !
 ! A13   A(2,3,6)              119.3241         estimate D2E/DX2                !
 ! A14   A(2,3,11)             126.1989         estimate D2E/DX2                !
 ! A15   A(6,3,11)             114.4646         estimate D2E/DX2                !
 ! A16   A(5,4,9)              113.0342         estimate D2E/DX2                !
 ! A17   A(5,4,11)             109.6874         estimate D2E/DX2                !
 ! A18   A(5,4,15)             115.6755         estimate D2E/DX2                !
 ! A19   A(9,4,11)             102.2876         estimate D2E/DX2                !
 ! A20   A(9,4,15)             108.6212         estimate D2E/DX2                !
 ! A21   A(11,4,15)            106.5034         estimate D2E/DX2                !
 ! A22   A(1,5,4)              110.7789         estimate D2E/DX2                !
 ! A23   A(1,5,10)             107.5941         estimate D2E/DX2                !
 ! A24   A(1,5,14)             115.4723         estimate D2E/DX2                !
 ! A25   A(4,5,10)             107.8073         estimate D2E/DX2                !
 ! A26   A(4,5,14)             110.5492         estimate D2E/DX2                !
 ! A27   A(10,5,14)            104.1237         estimate D2E/DX2                !
 ! A28   A(3,11,4)             122.286          estimate D2E/DX2                !
 ! A29   A(2,12,19)            116.2282         estimate D2E/DX2                !
 ! A30   A(1,13,23)            115.9109         estimate D2E/DX2                !
 ! A31   A(5,14,27)            118.0255         estimate D2E/DX2                !
 ! A32   A(4,15,16)            109.3736         estimate D2E/DX2                !
 ! A33   A(4,15,17)            110.6006         estimate D2E/DX2                !
 ! A34   A(4,15,18)            105.6735         estimate D2E/DX2                !
 ! A35   A(16,15,17)           108.1644         estimate D2E/DX2                !
 ! A36   A(16,15,18)           111.535          estimate D2E/DX2                !
 ! A37   A(17,15,18)           111.4859         estimate D2E/DX2                !
 ! A38   A(15,18,31)           112.6571         estimate D2E/DX2                !
 ! A39   A(12,19,20)           111.7076         estimate D2E/DX2                !
 ! A40   A(12,19,21)           105.5872         estimate D2E/DX2                !
 ! A41   A(12,19,22)           111.7187         estimate D2E/DX2                !
 ! A42   A(20,19,21)           108.9632         estimate D2E/DX2                !
 ! A43   A(20,19,22)           109.4403         estimate D2E/DX2                !
 ! A44   A(21,19,22)           109.308          estimate D2E/DX2                !
 ! A45   A(13,23,24)           111.6572         estimate D2E/DX2                !
 ! A46   A(13,23,25)           105.9988         estimate D2E/DX2                !
 ! A47   A(13,23,26)           110.8769         estimate D2E/DX2                !
 ! A48   A(24,23,25)           109.4278         estimate D2E/DX2                !
 ! A49   A(24,23,26)           109.7058         estimate D2E/DX2                !
 ! A50   A(25,23,26)           109.077          estimate D2E/DX2                !
 ! A51   A(14,27,28)           105.1916         estimate D2E/DX2                !
 ! A52   A(14,27,29)           112.029          estimate D2E/DX2                !
 ! A53   A(14,27,30)           111.6823         estimate D2E/DX2                !
 ! A54   A(28,27,29)           108.7076         estimate D2E/DX2                !
 ! A55   A(28,27,30)           108.7919         estimate D2E/DX2                !
 ! A56   A(29,27,30)           110.2332         estimate D2E/DX2                !
 ! A57   A(18,31,32)           111.1942         estimate D2E/DX2                !
 ! A58   A(18,31,33)           111.2641         estimate D2E/DX2                !
 ! A59   A(18,31,34)           106.6554         estimate D2E/DX2                !
 ! A60   A(32,31,33)           108.9868         estimate D2E/DX2                !
 ! A61   A(32,31,34)           109.362          estimate D2E/DX2                !
 ! A62   A(33,31,34)           109.3295         estimate D2E/DX2                !
 ! D1    D(5,1,2,3)            -40.0483         estimate D2E/DX2                !
 ! D2    D(5,1,2,7)             72.0791         estimate D2E/DX2                !
 ! D3    D(5,1,2,12)          -170.8619         estimate D2E/DX2                !
 ! D4    D(8,1,2,3)             79.7295         estimate D2E/DX2                !
 ! D5    D(8,1,2,7)           -168.1431         estimate D2E/DX2                !
 ! D6    D(8,1,2,12)           -51.0841         estimate D2E/DX2                !
 ! D7    D(13,1,2,3)          -156.7857         estimate D2E/DX2                !
 ! D8    D(13,1,2,7)           -44.6583         estimate D2E/DX2                !
 ! D9    D(13,1,2,12)           72.4007         estimate D2E/DX2                !
 ! D10   D(2,1,5,4)             61.4896         estimate D2E/DX2                !
 ! D11   D(2,1,5,10)           -56.1215         estimate D2E/DX2                !
 ! D12   D(2,1,5,14)          -171.8825         estimate D2E/DX2                !
 ! D13   D(8,1,5,4)            -57.8695         estimate D2E/DX2                !
 ! D14   D(8,1,5,10)          -175.4806         estimate D2E/DX2                !
 ! D15   D(8,1,5,14)            68.7584         estimate D2E/DX2                !
 ! D16   D(13,1,5,4)          -179.4394         estimate D2E/DX2                !
 ! D17   D(13,1,5,10)           62.9495         estimate D2E/DX2                !
 ! D18   D(13,1,5,14)          -52.8115         estimate D2E/DX2                !
 ! D19   D(2,1,13,23)          -84.4293         estimate D2E/DX2                !
 ! D20   D(5,1,13,23)          159.1554         estimate D2E/DX2                !
 ! D21   D(8,1,13,23)           38.1566         estimate D2E/DX2                !
 ! D22   D(1,2,3,6)           -167.9317         estimate D2E/DX2                !
 ! D23   D(1,2,3,11)            13.4249         estimate D2E/DX2                !
 ! D24   D(7,2,3,6)             78.3924         estimate D2E/DX2                !
 ! D25   D(7,2,3,11)          -100.251          estimate D2E/DX2                !
 ! D26   D(12,2,3,6)           -33.0959         estimate D2E/DX2                !
 ! D27   D(12,2,3,11)          148.2607         estimate D2E/DX2                !
 ! D28   D(1,2,12,19)           63.2254         estimate D2E/DX2                !
 ! D29   D(3,2,12,19)          -69.2289         estimate D2E/DX2                !
 ! D30   D(7,2,12,19)         -179.4105         estimate D2E/DX2                !
 ! D31   D(2,3,11,4)            -5.2333         estimate D2E/DX2                !
 ! D32   D(6,3,11,4)           176.0661         estimate D2E/DX2                !
 ! D33   D(9,4,5,1)             59.4513         estimate D2E/DX2                !
 ! D34   D(9,4,5,10)           176.932          estimate D2E/DX2                !
 ! D35   D(9,4,5,14)           -69.8569         estimate D2E/DX2                !
 ! D36   D(11,4,5,1)           -53.9859         estimate D2E/DX2                !
 ! D37   D(11,4,5,10)           63.4948         estimate D2E/DX2                !
 ! D38   D(11,4,5,14)          176.7059         estimate D2E/DX2                !
 ! D39   D(15,4,5,1)          -174.435          estimate D2E/DX2                !
 ! D40   D(15,4,5,10)          -56.9544         estimate D2E/DX2                !
 ! D41   D(15,4,5,14)           56.2568         estimate D2E/DX2                !
 ! D42   D(5,4,11,3)            25.1825         estimate D2E/DX2                !
 ! D43   D(9,4,11,3)           -95.0327         estimate D2E/DX2                !
 ! D44   D(15,4,11,3)          151.053          estimate D2E/DX2                !
 ! D45   D(5,4,15,16)          144.4171         estimate D2E/DX2                !
 ! D46   D(5,4,15,17)           25.391          estimate D2E/DX2                !
 ! D47   D(5,4,15,18)          -95.3979         estimate D2E/DX2                !
 ! D48   D(9,4,15,16)          -87.2583         estimate D2E/DX2                !
 ! D49   D(9,4,15,17)          153.7156         estimate D2E/DX2                !
 ! D50   D(9,4,15,18)           32.9268         estimate D2E/DX2                !
 ! D51   D(11,4,15,16)          22.2568         estimate D2E/DX2                !
 ! D52   D(11,4,15,17)         -96.7693         estimate D2E/DX2                !
 ! D53   D(11,4,15,18)         142.4419         estimate D2E/DX2                !
 ! D54   D(1,5,14,27)          -54.9324         estimate D2E/DX2                !
 ! D55   D(4,5,14,27)           71.8117         estimate D2E/DX2                !
 ! D56   D(10,5,14,27)        -172.6507         estimate D2E/DX2                !
 ! D57   D(2,12,19,20)          53.8505         estimate D2E/DX2                !
 ! D58   D(2,12,19,21)         172.1562         estimate D2E/DX2                !
 ! D59   D(2,12,19,22)         -69.1179         estimate D2E/DX2                !
 ! D60   D(1,13,23,24)          67.5079         estimate D2E/DX2                !
 ! D61   D(1,13,23,25)        -173.4039         estimate D2E/DX2                !
 ! D62   D(1,13,23,26)         -55.1581         estimate D2E/DX2                !
 ! D63   D(5,14,27,28)         179.1782         estimate D2E/DX2                !
 ! D64   D(5,14,27,29)         -62.8916         estimate D2E/DX2                !
 ! D65   D(5,14,27,30)          61.3273         estimate D2E/DX2                !
 ! D66   D(4,15,18,31)         171.2955         estimate D2E/DX2                !
 ! D67   D(16,15,18,31)        -69.946          estimate D2E/DX2                !
 ! D68   D(17,15,18,31)         51.0849         estimate D2E/DX2                !
 ! D69   D(15,18,31,32)        -60.619          estimate D2E/DX2                !
 ! D70   D(15,18,31,33)         61.0727         estimate D2E/DX2                !
 ! D71   D(15,18,31,34)       -179.7732         estimate D2E/DX2                !
 --------------------------------------------------------------------------------
 Trust Radius=3.00D-01 FncErr=1.00D-07 GrdErr=1.00D-06 EigMax=2.50D+02 EigMin=1.00D-04
 Number of steps in this run=    177 maximum allowed number of steps=    204.
 GradGradGradGradGradGradGradGradGradGradGradGradGradGradGradGradGradGrad

 Leave Link  103 at Fri May 24 08:31:22 2019, MaxMem=   402653184 cpu:               0.3 elap:               0.2
 (Enter /n/sw/g16_nehalem/g16/l202.exe)
                          Input orientation:                          
 ---------------------------------------------------------------------
 Center     Atomic      Atomic             Coordinates (Angstroms)
 Number     Number       Type             X           Y           Z
 ---------------------------------------------------------------------
      1          6           0        1.133642    0.514819   -0.111619
      2          6           0        1.777750   -0.825158   -0.567344
      3          6           0        0.875840   -2.012431   -0.394797
      4          6           0       -1.095119   -0.686141    0.092961
      5          6           0       -0.341230    0.482054   -0.571398
      6          1           0        1.290394   -3.017913   -0.493938
      7          1           0        1.880054   -0.747364   -1.665699
      8          1           0        1.192714    0.602938    0.982957
      9          1           0       -1.094817   -0.629736    1.183601
     10          1           0       -0.347020    0.312004   -1.655028
     11          8           0       -0.356734   -1.979143   -0.162308
     12          8           0        3.065408   -1.133538   -0.103194
     13          8           0        1.744823    1.604404   -0.744398
     14          8           0       -1.049536    1.679835   -0.409541
     15          6           0       -2.530118   -0.904399   -0.383852
     16          1           0       -2.750320   -1.983016   -0.397638
     17          1           0       -2.662581   -0.514423   -1.403438
     18          8           0       -3.346408   -0.221488    0.540167
     19          6           0        3.204766   -1.303980    1.317232
     20          1           0        2.493614   -2.043394    1.709352
     21          1           0        4.219137   -1.672521    1.469872
     22          1           0        3.079036   -0.357961    1.852900
     23          6           0        2.940651    2.094053   -0.129972
     24          1           0        3.758438    1.369646   -0.203271
     25          1           0        3.209066    3.000813   -0.674577
     26          1           0        2.763737    2.347365    0.923729
     27          6           0       -1.085547    2.269022    0.894663
     28          1           0       -1.669137    3.183599    0.779203
     29          1           0       -1.585858    1.622765    1.623699
     30          1           0       -0.082737    2.532568    1.247456
     31          6           0       -4.707420   -0.160548    0.128968
     32          1           0       -4.809967    0.369973   -0.827803
     33          1           0       -5.138781   -1.166425    0.028132
     34          1           0       -5.244679    0.386772    0.905636
 ---------------------------------------------------------------------
                    Distance matrix (angstroms):
                    1          2          3          4          5
     1  C    0.000000
     2  C    1.555024   0.000000
     3  C    2.556099   1.500943   0.000000
     4  C    2.539987   2.951051   2.425208   0.000000
     5  C    1.545224   2.489758   2.781169   1.540909   0.000000
     6  H    3.556815   2.247461   1.092098   3.387076   3.862378
     7  H    2.136680   1.105849   2.055245   3.456630   2.764610
     8  H    1.099705   2.187501   2.973007   2.772724   2.187148
     9  H    2.820218   3.369813   2.878658   1.092098   2.209976
    10  H    2.148396   2.644020   2.913171   2.147420   1.096907
    11  O    2.905794   2.460032   1.254750   1.510705   2.495012
    12  O    2.539463   1.403067   2.377329   4.189108   3.799281
    13  O    1.400410   2.436227   3.736154   3.743399   2.375124
    14  O    2.492446   3.780666   4.164147   2.419179   1.400919
    15  C    3.938455   4.312502   3.581676   1.527812   2.597818
    16  H    4.626678   4.676842   3.626280   2.159227   3.451156
    17  H    4.139981   4.529034   3.972632   2.173852   2.659686
    18  O    4.586700   5.277120   4.680706   2.341836   3.280494
    19  C    3.104706   2.411902   2.976045   4.513267   4.396695
    20  H    3.421975   2.679534   2.654354   4.163395   4.429001
    21  H    4.099494   3.290690   3.843197   5.577647   5.441133
    22  H    2.899248   2.787328   3.555768   4.541878   4.275636
    23  C    2.399916   3.172606   4.603997   4.905774   3.682953
    24  H    2.762007   2.978731   4.447977   5.279302   4.210774
    25  H    3.287016   4.086345   5.536681   5.719157   4.354239
    26  H    2.662213   3.641479   4.930567   4.978263   3.918623
    27  C    3.002438   4.462049   4.882682   3.061994   2.428291
    28  H    3.971337   5.455671   5.903720   3.971815   3.299364
    29  H    3.410946   4.701793   4.832073   2.813366   2.769255
    30  H    2.719922   4.246085   4.926752   3.566211   2.753118
    31  C    5.884897   6.556217   5.905641   3.650515   4.468452
    32  H    5.988354   6.700313   6.179947   3.970300   4.477490
    33  H    6.495337   6.950500   6.088535   4.072601   5.108171
    34  H    6.460200   7.276878   6.701347   4.362388   5.121964
                    6          7          8          9         10
     6  H    0.000000
     7  H    2.622235   0.000000
     8  H    3.911690   3.051414   0.000000
     9  H    3.769185   4.120947   2.606250   0.000000
    10  H    3.888136   2.466218   3.068288   3.082838   0.000000
    11  O    1.975361   2.963222   3.221733   2.043804   2.734531
    12  O    2.618057   1.998904   2.775258   4.383735   4.017766
    13  O    4.651349   2.529406   2.071597   4.095378   2.622089
    14  O    5.248927   4.006460   2.850692   2.806113   1.978820
    15  C    4.367536   4.595368   4.242606   2.142997   2.803826
    16  H    4.172248   4.957336   4.913320   2.659393   3.553026
    17  H    4.766620   4.556158   4.669762   3.027202   2.471457
    18  O    5.512649   5.697218   4.634584   2.377043   3.754973
    19  C    3.143680   3.310976   2.792209   4.354179   4.905193
    20  H    2.692938   3.667031   3.036950   3.892516   4.993611
    21  H    3.774144   4.019830   3.817596   5.422864   5.878191
    22  H    3.972686   3.737610   2.288742   4.235903   4.948967
    23  C    5.384052   3.399555   2.552904   5.042767   4.038598
    24  H    5.042460   3.185711   2.928808   5.429091   4.481182
    25  H    6.319731   4.098466   3.544418   5.929344   4.564726
    26  H    5.741666   4.130785   2.348329   4.880482   4.524322
    27  C    5.960284   4.944576   2.823846   2.913137   3.297918
    28  H    6.988452   5.833247   3.858953   3.877487   3.989929
    29  H    5.856031   5.333873   3.028376   2.347034   3.742040
    30  H    5.977105   4.805931   2.328134   3.320926   3.664036
    31  C    6.672804   6.852736   6.010307   3.792531   4.734874
    32  H    6.985960   6.834244   6.274178   4.341371   4.539334
    33  H    6.710801   7.232477   6.643054   4.239904   5.289589
    34  H    7.500524   7.658972   6.441485   4.281578   5.527174
                   11         12         13         14         15
    11  O    0.000000
    12  O    3.525564   0.000000
    13  O    4.194899   3.106672   0.000000
    14  O    3.732187   4.994165   2.815362   0.000000
    15  C    2.434698   5.607244   4.969830   2.978431   0.000000
    16  H    2.405130   5.884811   5.761609   4.038476   1.100951
    17  H    3.000456   5.906251   4.934468   2.899054   1.099629
    18  O    3.538499   6.508236   5.559193   3.129312   1.409435
    19  C    3.915248   1.437387   3.852330   5.475763   5.995185
    20  H    3.410531   2.107157   4.459597   5.559321   5.560278
    21  H    4.867918   2.023890   4.665132   6.521457   7.041218
    22  H    4.300443   2.104284   3.518090   5.129947   6.063354
    23  C    5.240679   3.230112   1.430832   4.021359   6.243756
    24  H    5.305724   2.599276   2.098231   4.822383   6.689531
    25  H    6.146325   4.176120   2.024559   4.466645   6.947909
    26  H    5.443849   3.641739   2.091130   4.094418   6.348908
    27  C    4.437934   5.459264   3.337549   1.431568   3.713756
    28  H    5.409505   6.467783   4.058367   2.014528   4.336555
    29  H    4.204082   5.675706   4.086766   2.103560   3.362803
    30  H    4.734770   5.017510   2.858137   2.099403   4.523669
    31  C    4.724468   7.836929   6.746055   4.130026   2.357317
    32  H    5.078633   8.050288   6.670536   4.003938   2.649307
    33  H    4.854354   8.205306   7.460449   5.001468   2.653961
    34  H    5.534443   8.508033   7.284118   4.582677   3.270893
                   16         17         18         19         20
    16  H    0.000000
    17  H    1.782161   0.000000
    18  O    2.082734   2.081113   0.000000
    19  C    6.234173   6.515459   6.685320   0.000000
    20  H    5.651716   6.213981   6.228338   1.098284   0.000000
    21  H    7.222003   7.546863   7.759338   1.089986   1.781103
    22  H    6.456556   6.602604   6.559590   1.094395   1.789975
    23  C    7.005804   6.310473   6.733344   3.702808   4.549882
    24  H    7.324073   6.798500   7.318691   3.125181   4.111782
    25  H    7.773643   6.882177   7.404935   4.743265   5.624857
    26  H    7.134636   6.561285   6.639277   3.698874   4.468661
    27  C    4.745665   3.939019   3.382277   5.599258   5.663130
    28  H    5.408126   4.407519   3.803287   6.647012   6.746490
    29  H    4.294582   3.858816   2.770351   5.622263   5.485449
    30  H    5.496620   4.792389   4.328583   5.052885   5.271656
    31  C    2.725609   2.579702   1.423078   8.082209   7.609048
    32  H    3.156540   2.392651   2.088821   8.463997   8.099617
    33  H    2.559853   2.933610   2.089901   8.443665   7.864415
    34  H    3.679164   3.579274   2.026569   8.626771   8.150635
                   21         22         23         24         25
    21  H    0.000000
    22  H    1.781743   0.000000
    23  C    4.287319   3.156470   0.000000
    24  H    3.502347   2.770208   1.094949   0.000000
    25  H    5.240129   4.205521   1.091263   1.784557   0.000000
    26  H    4.309982   2.877770   1.098067   1.793180   1.783226
    27  C    6.633724   5.016274   4.158216   5.047626   4.630522
    28  H    7.663595   6.020018   4.823262   5.806397   5.093501
    29  H    6.676866   5.073169   4.877167   5.653617   5.492940
    30  H    6.019831   4.326492   3.351191   4.267508   3.840499
    31  C    9.152459   7.977456   7.977673   8.609450   8.562163
    32  H    9.538124   8.363757   7.970665   8.649101   8.440953
    33  H    9.481845   8.456708   8.713951   9.254497   9.356614
    34  H    9.701694   8.410480   8.425374   9.124244   8.988664
                   26         27         28         29         30
    26  H    0.000000
    27  C    3.850191   0.000000
    28  H    4.513374   1.091036   0.000000
    29  H    4.464749   1.095195   1.776601   0.000000
    30  H    2.870804   1.095238   1.777573   1.796851   0.000000
    31  C    7.920824   4.427986   4.564788   3.893402   5.467319
    32  H    8.021156   4.521568   4.512624   4.239602   5.597340
    33  H    8.694746   5.383482   5.614735   4.790478   6.382232
    34  H    8.244937   4.565234   4.541225   3.928138   5.600618
                   31         32         33         34
    31  C    0.000000
    32  H    1.098808   0.000000
    33  H    1.099104   1.789207   0.000000
    34  H    1.091522   1.787195   1.787078   0.000000
 Stoichiometry    C10H19O5(1+)
 Framework group  C1[X(C10H19O5)]
 Deg. of freedom    96
 Full point group                 C1      NOp   1
 Largest Abelian subgroup         C1      NOp   1
 Largest concise Abelian subgroup C1      NOp   1
                         Standard orientation:                         
 ---------------------------------------------------------------------
 Center     Atomic      Atomic             Coordinates (Angstroms)
 Number     Number       Type             X           Y           Z
 ---------------------------------------------------------------------
      1          6           0        1.133642    0.514819   -0.111619
      2          6           0        1.777750   -0.825158   -0.567344
      3          6           0        0.875840   -2.012431   -0.394797
      4          6           0       -1.095119   -0.686141    0.092961
      5          6           0       -0.341230    0.482054   -0.571398
      6          1           0        1.290394   -3.017913   -0.493938
      7          1           0        1.880054   -0.747364   -1.665699
      8          1           0        1.192714    0.602938    0.982957
      9          1           0       -1.094817   -0.629736    1.183601
     10          1           0       -0.347020    0.312004   -1.655028
     11          8           0       -0.356734   -1.979143   -0.162308
     12          8           0        3.065408   -1.133538   -0.103194
     13          8           0        1.744823    1.604404   -0.744398
     14          8           0       -1.049536    1.679835   -0.409541
     15          6           0       -2.530118   -0.904399   -0.383852
     16          1           0       -2.750320   -1.983016   -0.397638
     17          1           0       -2.662581   -0.514423   -1.403438
     18          8           0       -3.346408   -0.221488    0.540167
     19          6           0        3.204766   -1.303980    1.317232
     20          1           0        2.493614   -2.043394    1.709352
     21          1           0        4.219137   -1.672521    1.469872
     22          1           0        3.079036   -0.357961    1.852900
     23          6           0        2.940651    2.094053   -0.129972
     24          1           0        3.758438    1.369646   -0.203271
     25          1           0        3.209066    3.000813   -0.674577
     26          1           0        2.763737    2.347365    0.923729
     27          6           0       -1.085547    2.269022    0.894663
     28          1           0       -1.669137    3.183599    0.779203
     29          1           0       -1.585858    1.622765    1.623699
     30          1           0       -0.082737    2.532568    1.247456
     31          6           0       -4.707420   -0.160548    0.128968
     32          1           0       -4.809967    0.369973   -0.827803
     33          1           0       -5.138781   -1.166425    0.028132
     34          1           0       -5.244679    0.386772    0.905636
 ---------------------------------------------------------------------
 Rotational constants (GHZ):           0.9558772           0.3835611           0.3016996
 Leave Link  202 at Fri May 24 08:31:23 2019, MaxMem=   402653184 cpu:               0.4 elap:               0.2
 (Enter /n/sw/g16_nehalem/g16/l301.exe)
 Standard basis: 6-31G(d) (6D, 7F)
 Ernie: Thresh=  0.10000D-02 Tol=  0.10000D-05 Strict=F.
 There are   263 symmetry adapted cartesian basis functions of A   symmetry.
 There are   263 symmetry adapted basis functions of A   symmetry.
   263 basis functions,   496 primitive gaussians,   263 cartesian basis functions
    59 alpha electrons       59 beta electrons
       nuclear repulsion energy      1152.3909340935 Hartrees.
 IExCor=  402 DFT=T Ex+Corr=B3LYP ExCW=0 ScaHFX=  0.200000
 ScaDFX=  0.800000  0.720000  1.000000  0.810000 ScalE2=  1.000000  1.000000
 IRadAn=      5 IRanWt=     -1 IRanGd=            0 ICorTp=0 IEmpDi=  4
 NAtoms=   34 NActive=   34 NUniq=   34 SFac= 1.00D+00 NAtFMM=   60 NAOKFM=F Big=F
 Integral buffers will be    131072 words long.
 Raffenetti 2 integral format.
 Two-electron integral symmetry is turned on.
 ------------------------------------------------------------------------------
 Polarizable Continuum Model (PCM)
 =================================
 Model                : PCM.
 Atomic radii         : UFF (Universal Force Field).
 Polarization charges : Total charges.
 Charge compensation  : None.
 Solution method      : On-the-fly selection.
 Cavity type          : Scaled VdW (van der Waals Surface) (Alpha=1.100).
 Cavity algorithm     : GePol (No added spheres)
                        Default sphere list used, NSphG=   34.
                        Lebedev-Laikov grids with approx.  5.0 points / Ang**2.
                        Smoothing algorithm: York/Karplus (Gamma=1.0000).
                        Polarization charges: spherical gaussians, with
                                              point-specific exponents (IZeta= 3).
                        Self-potential: point-specific (ISelfS= 7).
                        Self-field    : sphere-specific E.n sum rule (ISelfD= 2).
 1st derivatives      : Analytical E(r).r(x)/FMM algorithm (CHGder, D1EAlg=3).
                        Cavity 1st derivative terms included.
 Solvent              : TetraHydroFuran, Eps=   7.425700 Eps(inf)=   1.974025
 ------------------------------------------------------------------------------
 GePol: Number of generator spheres                  =      34
 GePol: Total number of spheres                      =      34
 GePol: Number of exposed spheres                    =      34 (100.00%)
 GePol: Number of points                             =    2268
 GePol: Average weight of points                     =       0.13
 GePol: Minimum weight of points                     =   0.47D-10
 GePol: Maximum weight of points                     =    0.20577
 GePol: Number of points with low weight             =     143
 GePol: Fraction of low-weight points (<1% of avg)   =       6.31%
 GePol: Cavity surface area                          =    299.212 Ang**2
 GePol: Cavity volume                                =    321.223 Ang**3
 Leave Link  301 at Fri May 24 08:31:23 2019, MaxMem=   402653184 cpu:               0.9 elap:               0.3
 (Enter /n/sw/g16_nehalem/g16/l302.exe)
 NPDir=0 NMtPBC=     1 NCelOv=     1 NCel=       1 NClECP=     1 NCelD=      1
         NCelK=      1 NCelE2=     1 NClLst=     1 CellRange=     0.0.
 One-electron integrals computed using PRISM.
 One-electron integral symmetry used in STVInt
 NBasis=   263 RedAO= T EigKep=  1.59D-03  NBF=   263
 NBsUse=   263 1.00D-06 EigRej= -1.00D+00 NBFU=   263
 Precomputing XC quadrature grid using
 IXCGrd= 4 IRadAn=           5 IRanWt=          -1 IRanGd=           0 AccXCQ= 0.00D+00.
 Generated NRdTot=       0 NPtTot=           0 NUsed=           0 NTot=          32
 NSgBfM=   262   262   262   262   262 MxSgAt=    34 MxSgA2=    34.
 Leave Link  302 at Fri May 24 08:31:25 2019, MaxMem=   402653184 cpu:               6.7 elap:               1.9
 (Enter /n/sw/g16_nehalem/g16/l303.exe)
 DipDrv:  MaxL=1.
 Leave Link  303 at Fri May 24 08:31:26 2019, MaxMem=   402653184 cpu:               1.2 elap:               0.5
 (Enter /n/sw/g16_nehalem/g16/l401.exe)
 ExpMin= 1.61D-01 ExpMax= 5.48D+03 ExpMxC= 8.25D+02 IAcc=3 IRadAn=         5 AccDes= 0.00D+00
 Harris functional with IExCor=  402 and IRadAn=       5 diagonalized for initial guess.
 HarFok:  IExCor=  402 AccDes= 0.00D+00 IRadAn=         5 IDoV= 1 UseB2=F ITyADJ=14
 ICtDFT=  3500011 ScaDFX=  1.000000  1.000000  1.000000  1.000000
 FoFCou: FMM=F IPFlag=           0 FMFlag=      100000 FMFlg1=           0
         NFxFlg=           0 DoJE=T BraDBF=F KetDBF=T FulRan=T
         wScrn=  0.000000 ICntrl=       500 IOpCl=  0 I1Cent=   200000004 NGrid=           0
         NMat0=    1 NMatS0=      1 NMatT0=    0 NMatD0=    1 NMtDS0=    0 NMtDT0=    0
 Petite list used in FoFCou.
 Harris En= -768.256428219807    
 JPrj=0 DoOrth=F DoCkMO=F.
 Leave Link  401 at Fri May 24 08:31:35 2019, MaxMem=   402653184 cpu:              36.2 elap:               9.3
 (Enter /n/sw/g16_nehalem/g16/l502.exe)
 Integral symmetry usage will be decided dynamically.
 Closed shell SCF:
 Using DIIS extrapolation, IDIIS=  1040.
 NGot=   402653184 LenX=   402510103 LenY=   402440493
 Requested convergence on RMS density matrix=1.00D-08 within 128 cycles.
 Requested convergence on MAX density matrix=1.00D-06.
 Requested convergence on             energy=1.00D-06.
 No special actions if energy rises.
 Fock matrices will be formed incrementally for  20 cycles.

 Cycle   1  Pass 1  IDiag  1:
 FoFJK:  IHMeth= 1 ICntrl=       0 DoSepK=F KAlg= 0 I1Cent=           0 FoldK=F
 IRaf= 870000000 NMat=       1 IRICut=       1 DoRegI=T DoRafI=F ISym2E= 0 IDoP0=0 IntGTp=1.
 FoFCou: FMM=F IPFlag=           0 FMFlag=      100000 FMFlg1=           0
         NFxFlg=           0 DoJE=F BraDBF=F KetDBF=F FulRan=T
         wScrn=  0.000000 ICntrl=         0 IOpCl=  0 I1Cent=           0 NGrid=           0
         NMat0=    1 NMatS0=      1 NMatT0=    0 NMatD0=    1 NMtDS0=    0 NMtDT0=    0
 Symmetry not used in FoFCou.
 Inv3:  Mode=1 IEnd=    15431472.
 Iteration    1 A*A^-1 deviation from unit magnitude is 7.11D-15 for    565.
 Iteration    1 A*A^-1 deviation from orthogonality  is 2.08D-15 for   1652   1133.
 Iteration    1 A^-1*A deviation from unit magnitude is 6.88D-15 for    565.
 Iteration    1 A^-1*A deviation from orthogonality  is 1.53D-15 for   1927   1288.
 E= -768.074534030931    
 DIIS: error= 1.92D-02 at cycle   1 NSaved=   1.
 NSaved= 1 IEnMin= 1 EnMin= -768.074534030931     IErMin= 1 ErrMin= 1.92D-02
 ErrMax= 1.92D-02  0.00D+00 EMaxC= 1.00D-01 BMatC= 2.59D-01 BMatP= 2.59D-01
 IDIUse=3 WtCom= 8.08D-01 WtEn= 1.92D-01
 Coeff-Com:  0.100D+01
 Coeff-En:   0.100D+01
 Coeff:      0.100D+01
 Gap=     0.014 Goal=   None    Shift=    0.000
 GapD=    0.014 DampG=0.250 DampE=0.500 DampFc=0.2500 IDamp=-1.
 Damping current iteration by 2.50D-01
 RMSDP=6.19D-03 MaxDP=3.29D-01              OVMax= 7.39D-01

 Cycle   2  Pass 1  IDiag  1:
 RMSU=  1.54D-03    CP:  9.92D-01
 E= -768.090745817475     Delta-E=       -0.016211786544 Rises=F Damp=T
 DIIS: error= 8.90D-03 at cycle   2 NSaved=   2.
 NSaved= 2 IEnMin= 2 EnMin= -768.090745817475     IErMin= 2 ErrMin= 8.90D-03
 ErrMax= 8.90D-03  0.00D+00 EMaxC= 1.00D-01 BMatC= 7.55D-02 BMatP= 2.59D-01
 IDIUse=3 WtCom= 9.11D-01 WtEn= 8.90D-02
 Coeff-Com: -0.231D+00 0.123D+01
 Coeff-En:   0.425D+00 0.575D+00
 Coeff:     -0.172D+00 0.117D+01
 Gap=    -0.140 Goal=   None    Shift=    0.000
 RMSDP=2.16D-03 MaxDP=1.02D-01 DE=-1.62D-02 OVMax= 6.64D-01

 Cycle   3  Pass 1  IDiag  1:
 RMSU=  2.11D-03    CP:  9.83D-01  7.52D-01
 E= -768.180858211373     Delta-E=       -0.090112393899 Rises=F Damp=F
 DIIS: error= 1.30D-02 at cycle   3 NSaved=   3.
 NSaved= 3 IEnMin= 3 EnMin= -768.180858211373     IErMin= 2 ErrMin= 8.90D-03
 ErrMax= 1.30D-02  0.00D+00 EMaxC= 1.00D-01 BMatC= 1.56D-01 BMatP= 7.55D-02
 IDIUse=2 WtCom= 0.00D+00 WtEn= 1.00D+00
 Coeff-En:   0.000D+00 0.293D+00 0.707D+00
 Coeff:      0.000D+00 0.293D+00 0.707D+00
 Gap=     0.095 Goal=   None    Shift=    0.000
 RMSDP=5.21D-03 MaxDP=3.78D-01 DE=-9.01D-02 OVMax= 9.85D-01

 Cycle   4  Pass 1  IDiag  1:
 RMSU=  2.20D-03    CP:  9.74D-01  3.00D+00 -4.75D-01
 E= -766.647504270078     Delta-E=        1.533353941295 Rises=F Damp=F
 DIIS: error= 4.55D-02 at cycle   4 NSaved=   4.
 NSaved= 4 IEnMin= 3 EnMin= -768.180858211373     IErMin= 2 ErrMin= 8.90D-03
 ErrMax= 4.55D-02  0.00D+00 EMaxC= 1.00D-01 BMatC= 1.11D+00 BMatP= 7.55D-02
 IDIUse=2 WtCom= 0.00D+00 WtEn= 1.00D+00
 Coeff-En:   0.000D+00 0.000D+00 0.868D+00 0.132D+00
 Coeff:      0.000D+00 0.000D+00 0.868D+00 0.132D+00
 Gap=    -0.056 Goal=   None    Shift=    0.000
 RMSDP=4.79D-03 MaxDP=3.51D-01 DE= 1.53D+00 OVMax= 9.88D-01

 Cycle   5  Pass 1  IDiag  1:
 RMSU=  1.52D-03    CP:  9.92D-01  8.61D-01  3.47D-01 -1.13D-01
 E= -768.279192482716     Delta-E=       -1.631688212638 Rises=F Damp=F
 DIIS: error= 7.62D-03 at cycle   5 NSaved=   5.
 NSaved= 5 IEnMin= 5 EnMin= -768.279192482716     IErMin= 5 ErrMin= 7.62D-03
 ErrMax= 7.62D-03  0.00D+00 EMaxC= 1.00D-01 BMatC= 5.13D-02 BMatP= 7.55D-02
 IDIUse=3 WtCom= 9.24D-01 WtEn= 7.62D-02
 Coeff-Com: -0.156D+00 0.332D+00 0.383D+00 0.968D-02 0.432D+00
 Coeff-En:   0.000D+00 0.000D+00 0.216D+00 0.000D+00 0.784D+00
 Coeff:     -0.144D+00 0.307D+00 0.370D+00 0.895D-02 0.459D+00
 Gap=     0.146 Goal=   None    Shift=    0.000
 RMSDP=8.64D-04 MaxDP=4.02D-02 DE=-1.63D+00 OVMax= 3.70D-02

 Cycle   6  Pass 1  IDiag  1:
 RMSU=  3.75D-04    CP:  9.88D-01  8.07D-01  5.84D-01 -7.97D-02  6.17D-01
 E= -768.313145707976     Delta-E=       -0.033953225259 Rises=F Damp=F
 DIIS: error= 2.90D-03 at cycle   6 NSaved=   6.
 NSaved= 6 IEnMin= 6 EnMin= -768.313145707976     IErMin= 6 ErrMin= 2.90D-03
 ErrMax= 2.90D-03  0.00D+00 EMaxC= 1.00D-01 BMatC= 7.27D-03 BMatP= 5.13D-02
 IDIUse=3 WtCom= 9.71D-01 WtEn= 2.90D-02
 Coeff-Com: -0.126D+00 0.192D+00 0.130D+00-0.617D-02 0.290D+00 0.520D+00
 Coeff-En:   0.000D+00 0.000D+00 0.000D+00 0.000D+00 0.870D-01 0.913D+00
 Coeff:     -0.122D+00 0.186D+00 0.126D+00-0.599D-02 0.284D+00 0.532D+00
 Gap=     0.129 Goal=   None    Shift=    0.000
 RMSDP=2.51D-04 MaxDP=1.20D-02 DE=-3.40D-02 OVMax= 1.08D-02

 Cycle   7  Pass 1  IDiag  1:
 RMSU=  1.26D-04    CP:  9.89D-01  8.63D-01  5.59D-01 -9.63D-02  7.20D-01
                    CP:  7.21D-01
 E= -768.318213115109     Delta-E=       -0.005067407133 Rises=F Damp=F
 DIIS: error= 9.16D-04 at cycle   7 NSaved=   7.
 NSaved= 7 IEnMin= 7 EnMin= -768.318213115109     IErMin= 7 ErrMin= 9.16D-04
 ErrMax= 9.16D-04  0.00D+00 EMaxC= 1.00D-01 BMatC= 6.53D-04 BMatP= 7.27D-03
 IDIUse=3 WtCom= 9.91D-01 WtEn= 9.16D-03
 Coeff-Com: -0.680D-01 0.905D-01 0.132D-02-0.371D-02 0.901D-01 0.287D+00
 Coeff-Com:  0.602D+00
 Coeff-En:   0.000D+00 0.000D+00 0.000D+00 0.000D+00 0.000D+00 0.000D+00
 Coeff-En:   0.100D+01
 Coeff:     -0.674D-01 0.897D-01 0.131D-02-0.367D-02 0.893D-01 0.285D+00
 Coeff:      0.606D+00
 Gap=     0.128 Goal=   None    Shift=    0.000
 RMSDP=7.73D-05 MaxDP=4.80D-03 DE=-5.07D-03 OVMax= 3.62D-03

 Cycle   8  Pass 1  IDiag  1:
 RMSU=  5.03D-05    CP:  9.89D-01  8.70D-01  5.49D-01 -1.01D-01  7.47D-01
                    CP:  7.93D-01  8.44D-01
 E= -768.318692630817     Delta-E=       -0.000479515708 Rises=F Damp=F
 DIIS: error= 4.52D-04 at cycle   8 NSaved=   8.
 NSaved= 8 IEnMin= 8 EnMin= -768.318692630817     IErMin= 8 ErrMin= 4.52D-04
 ErrMax= 4.52D-04  0.00D+00 EMaxC= 1.00D-01 BMatC= 1.47D-04 BMatP= 6.53D-04
 IDIUse=3 WtCom= 9.95D-01 WtEn= 4.52D-03
 Coeff-Com: -0.248D-01 0.289D-01-0.346D-01-0.496D-03-0.713D-02 0.709D-01
 Coeff-Com:  0.383D+00 0.584D+00
 Coeff-En:   0.000D+00 0.000D+00 0.000D+00 0.000D+00 0.000D+00 0.000D+00
 Coeff-En:   0.000D+00 0.100D+01
 Coeff:     -0.247D-01 0.288D-01-0.345D-01-0.494D-03-0.710D-02 0.706D-01
 Coeff:      0.382D+00 0.586D+00
 Gap=     0.126 Goal=   None    Shift=    0.000
 RMSDP=3.99D-05 MaxDP=1.96D-03 DE=-4.80D-04 OVMax= 1.41D-03

 Cycle   9  Pass 1  IDiag  1:
 RMSU=  1.53D-05    CP:  9.89D-01  8.77D-01  5.44D-01 -1.03D-01  7.64D-01
                    CP:  8.28D-01  9.48D-01  7.40D-01
 E= -768.318815989047     Delta-E=       -0.000123358230 Rises=F Damp=F
 DIIS: error= 1.25D-04 at cycle   9 NSaved=   9.
 NSaved= 9 IEnMin= 9 EnMin= -768.318815989047     IErMin= 9 ErrMin= 1.25D-04
 ErrMax= 1.25D-04  0.00D+00 EMaxC= 1.00D-01 BMatC= 1.65D-05 BMatP= 1.47D-04
 IDIUse=3 WtCom= 9.99D-01 WtEn= 1.25D-03
 Coeff-Com: -0.869D-02 0.110D-01-0.154D-01-0.353D-03-0.102D-01 0.105D-02
 Coeff-Com:  0.668D-01 0.200D+00 0.756D+00
 Coeff-En:   0.000D+00 0.000D+00 0.000D+00 0.000D+00 0.000D+00 0.000D+00
 Coeff-En:   0.000D+00 0.000D+00 0.100D+01
 Coeff:     -0.868D-02 0.110D-01-0.154D-01-0.353D-03-0.102D-01 0.105D-02
 Coeff:      0.668D-01 0.200D+00 0.756D+00
 Gap=     0.126 Goal=   None    Shift=    0.000
 RMSDP=1.50D-05 MaxDP=4.33D-04 DE=-1.23D-04 OVMax= 5.36D-04

 Cycle  10  Pass 1  IDiag  1:
 RMSU=  7.09D-06    CP:  9.89D-01  8.79D-01  5.42D-01 -1.04D-01  7.70D-01
                    CP:  8.38D-01  9.78D-01  7.98D-01  9.64D-01
 E= -768.318829685931     Delta-E=       -0.000013696884 Rises=F Damp=F
 DIIS: error= 5.38D-05 at cycle  10 NSaved=  10.
 NSaved=10 IEnMin=10 EnMin= -768.318829685931     IErMin=10 ErrMin= 5.38D-05
 ErrMax= 5.38D-05  0.00D+00 EMaxC= 1.00D-01 BMatC= 2.68D-06 BMatP= 1.65D-05
 IDIUse=1 WtCom= 1.00D+00 WtEn= 0.00D+00
 Coeff-Com: -0.155D-02 0.251D-02-0.326D-02-0.119D-03-0.408D-02-0.115D-01
 Coeff-Com: -0.372D-01-0.384D-02 0.426D+00 0.633D+00
 Coeff:     -0.155D-02 0.251D-02-0.326D-02-0.119D-03-0.408D-02-0.115D-01
 Coeff:     -0.372D-01-0.384D-02 0.426D+00 0.633D+00
 Gap=     0.125 Goal=   None    Shift=    0.000
 RMSDP=6.31D-06 MaxDP=2.30D-04 DE=-1.37D-05 OVMax= 3.05D-04

 Cycle  11  Pass 1  IDiag  1:
 RMSU=  1.92D-06    CP:  9.89D-01  8.80D-01  5.41D-01 -1.05D-01  7.73D-01
                    CP:  8.42D-01  9.85D-01  8.28D-01  1.09D+00  7.20D-01
 E= -768.318832127549     Delta-E=       -0.000002441619 Rises=F Damp=F
 DIIS: error= 1.10D-05 at cycle  11 NSaved=  11.
 NSaved=11 IEnMin=11 EnMin= -768.318832127549     IErMin=11 ErrMin= 1.10D-05
 ErrMax= 1.10D-05  0.00D+00 EMaxC= 1.00D-01 BMatC= 1.07D-07 BMatP= 2.68D-06
 IDIUse=1 WtCom= 1.00D+00 WtEn= 0.00D+00
 Coeff-Com: -0.347D-04 0.160D-03-0.158D-03-0.125D-04-0.465D-03-0.394D-02
 Coeff-Com: -0.192D-01-0.210D-01 0.880D-01 0.224D+00 0.733D+00
 Coeff:     -0.347D-04 0.160D-03-0.158D-03-0.125D-04-0.465D-03-0.394D-02
 Coeff:     -0.192D-01-0.210D-01 0.880D-01 0.224D+00 0.733D+00
 Gap=     0.125 Goal=   None    Shift=    0.000
 RMSDP=1.70D-06 MaxDP=4.34D-05 DE=-2.44D-06 OVMax= 6.44D-05

 Cycle  12  Pass 1  IDiag  1:
 RMSU=  5.38D-07    CP:  9.89D-01  8.80D-01  5.41D-01 -1.05D-01  7.73D-01
                    CP:  8.43D-01  9.87D-01  8.33D-01  1.11D+00  7.74D-01
                    CP:  8.22D-01
 E= -768.318832226978     Delta-E=       -0.000000099429 Rises=F Damp=F
 DIIS: error= 2.97D-06 at cycle  12 NSaved=  12.
 NSaved=12 IEnMin=12 EnMin= -768.318832226978     IErMin=12 ErrMin= 2.97D-06
 ErrMax= 2.97D-06  0.00D+00 EMaxC= 1.00D-01 BMatC= 5.10D-09 BMatP= 1.07D-07
 IDIUse=1 WtCom= 1.00D+00 WtEn= 0.00D+00
 Coeff-Com:  0.182D-04 0.108D-04 0.858D-04-0.575D-05 0.255D-04-0.125D-02
 Coeff-Com: -0.744D-02-0.106D-01 0.214D-01 0.782D-01 0.386D+00 0.534D+00
 Coeff:      0.182D-04 0.108D-04 0.858D-04-0.575D-05 0.255D-04-0.125D-02
 Coeff:     -0.744D-02-0.106D-01 0.214D-01 0.782D-01 0.386D+00 0.534D+00
 Gap=     0.125 Goal=   None    Shift=    0.000
 RMSDP=2.86D-07 MaxDP=1.18D-05 DE=-9.94D-08 OVMax= 1.44D-05

 Cycle  13  Pass 1  IDiag  1:
 RMSU=  1.97D-07    CP:  9.89D-01  8.80D-01  5.41D-01 -1.05D-01  7.73D-01
                    CP:  8.43D-01  9.87D-01  8.33D-01  1.11D+00  7.80D-01
                    CP:  8.54D-01  7.01D-01
 E= -768.318832230827     Delta-E=       -0.000000003849 Rises=F Damp=F
 DIIS: error= 7.18D-07 at cycle  13 NSaved=  13.
 NSaved=13 IEnMin=13 EnMin= -768.318832230827     IErMin=13 ErrMin= 7.18D-07
 ErrMax= 7.18D-07  0.00D+00 EMaxC= 1.00D-01 BMatC= 3.48D-10 BMatP= 5.10D-09
 IDIUse=1 WtCom= 1.00D+00 WtEn= 0.00D+00
 Coeff-Com:  0.270D-04-0.332D-04 0.522D-04-0.269D-06 0.487D-04-0.162D-03
 Coeff-Com: -0.124D-02-0.248D-02 0.838D-03 0.111D-01 0.902D-01 0.238D+00
 Coeff-Com:  0.664D+00
 Coeff:      0.270D-04-0.332D-04 0.522D-04-0.269D-06 0.487D-04-0.162D-03
 Coeff:     -0.124D-02-0.248D-02 0.838D-03 0.111D-01 0.902D-01 0.238D+00
 Coeff:      0.664D+00
 Gap=     0.125 Goal=   None    Shift=    0.000
 RMSDP=7.92D-08 MaxDP=2.59D-06 DE=-3.85D-09 OVMax= 6.31D-06

 Cycle  14  Pass 1  IDiag  1:
 RMSU=  5.01D-08    CP:  9.89D-01  8.80D-01  5.41D-01 -1.05D-01  7.73D-01
                    CP:  8.43D-01  9.87D-01  8.33D-01  1.11D+00  7.80D-01
                    CP:  8.69D-01  7.60D-01  8.03D-01
 E= -768.318832231071     Delta-E=       -0.000000000244 Rises=F Damp=F
 DIIS: error= 2.54D-07 at cycle  14 NSaved=  14.
 NSaved=14 IEnMin=14 EnMin= -768.318832231071     IErMin=14 ErrMin= 2.54D-07
 ErrMax= 2.54D-07  0.00D+00 EMaxC= 1.00D-01 BMatC= 6.04D-11 BMatP= 3.48D-10
 IDIUse=1 WtCom= 1.00D+00 WtEn= 0.00D+00
 Coeff-Com:  0.996D-05-0.132D-04 0.191D-04-0.836D-07 0.197D-04-0.121D-04
 Coeff-Com: -0.177D-03-0.544D-03-0.132D-03 0.189D-02 0.226D-01 0.819D-01
 Coeff-Com:  0.298D+00 0.596D+00
 Coeff:      0.996D-05-0.132D-04 0.191D-04-0.836D-07 0.197D-04-0.121D-04
 Coeff:     -0.177D-03-0.544D-03-0.132D-03 0.189D-02 0.226D-01 0.819D-01
 Coeff:      0.298D+00 0.596D+00
 Gap=     0.125 Goal=   None    Shift=    0.000
 RMSDP=2.71D-08 MaxDP=9.67D-07 DE=-2.44D-10 OVMax= 1.24D-06

 Cycle  15  Pass 1  IDiag  1:
 RMSU=  1.48D-08    CP:  9.89D-01  8.80D-01  5.41D-01 -1.05D-01  7.73D-01
                    CP:  8.43D-01  9.87D-01  8.33D-01  1.11D+00  7.81D-01
                    CP:  8.70D-01  7.69D-01  8.42D-01  9.55D-01
 E= -768.318832231142     Delta-E=       -0.000000000071 Rises=F Damp=F
 DIIS: error= 1.03D-07 at cycle  15 NSaved=  15.
 NSaved=15 IEnMin=15 EnMin= -768.318832231142     IErMin=15 ErrMin= 1.03D-07
 ErrMax= 1.03D-07  0.00D+00 EMaxC= 1.00D-01 BMatC= 9.09D-12 BMatP= 6.04D-11
 IDIUse=1 WtCom= 1.00D+00 WtEn= 0.00D+00
 Coeff-Com:  0.249D-05-0.345D-05 0.326D-05-0.172D-07 0.206D-05 0.157D-04
 Coeff-Com:  0.993D-04 0.109D-03-0.123D-03-0.564D-03-0.196D-02 0.532D-02
 Coeff-Com:  0.500D-01 0.255D+00 0.692D+00
 Coeff:      0.249D-05-0.345D-05 0.326D-05-0.172D-07 0.206D-05 0.157D-04
 Coeff:      0.993D-04 0.109D-03-0.123D-03-0.564D-03-0.196D-02 0.532D-02
 Coeff:      0.500D-01 0.255D+00 0.692D+00
 Gap=     0.125 Goal=   None    Shift=    0.000
 RMSDP=1.24D-08 MaxDP=3.56D-07 DE=-7.12D-11 OVMax= 9.69D-07

 Cycle  16  Pass 1  IDiag  1:
 RMSU=  5.23D-09    CP:  9.89D-01  8.80D-01  5.41D-01 -1.05D-01  7.73D-01
                    CP:  8.43D-01  9.87D-01  8.33D-01  1.11D+00  7.81D-01
                    CP:  8.71D-01  7.75D-01  8.57D-01  1.04D+00  8.92D-01
 E= -768.318832231163     Delta-E=       -0.000000000020 Rises=F Damp=F
 DIIS: error= 2.32D-08 at cycle  16 NSaved=  16.
 NSaved=16 IEnMin=16 EnMin= -768.318832231163     IErMin=16 ErrMin= 2.32D-08
 ErrMax= 2.32D-08  0.00D+00 EMaxC= 1.00D-01 BMatC= 5.51D-13 BMatP= 9.09D-12
 IDIUse=1 WtCom= 1.00D+00 WtEn= 0.00D+00
 Coeff-Com:  0.630D-06-0.908D-06 0.609D-07 0.190D-07-0.704D-06 0.607D-05
 Coeff-Com:  0.481D-04 0.796D-04-0.103D-04-0.274D-03-0.223D-02-0.350D-02
 Coeff-Com: -0.833D-03 0.383D-01 0.241D+00 0.728D+00
 Coeff:      0.630D-06-0.908D-06 0.609D-07 0.190D-07-0.704D-06 0.607D-05
 Coeff:      0.481D-04 0.796D-04-0.103D-04-0.274D-03-0.223D-02-0.350D-02
 Coeff:     -0.833D-03 0.383D-01 0.241D+00 0.728D+00
 Gap=     0.125 Goal=   None    Shift=    0.000
 RMSDP=3.99D-09 MaxDP=9.63D-08 DE=-2.02D-11 OVMax= 3.99D-07

 Error on total polarization charges =  0.01270
 SCF Done:  E(RB3LYP) =  -768.318832231     A.U. after   16 cycles
            NFock= 16  Conv=0.40D-08     -V/T= 2.0091
 KE= 7.613882539441D+02 PE=-4.079544440883D+03 EE= 1.397446420614D+03
 Leave Link  502 at Fri May 24 08:36:08 2019, MaxMem=   402653184 cpu:            1084.7 elap:             272.7
 (Enter /n/sw/g16_nehalem/g16/l601.exe)
 Copying SCF densities to generalized density rwf, IOpCl= 0 IROHF=0.

 **********************************************************************

            Population analysis using the SCF density.

 **********************************************************************

 Orbital symmetries:
       Occupied  (A) (A) (A) (A) (A) (A) (A) (A) (A) (A) (A) (A)
                 (A) (A) (A) (A) (A) (A) (A) (A) (A) (A) (A) (A)
                 (A) (A) (A) (A) (A) (A) (A) (A) (A) (A) (A) (A)
                 (A) (A) (A) (A) (A) (A) (A) (A) (A) (A) (A) (A)
                 (A) (A) (A) (A) (A) (A) (A) (A) (A) (A) (A)
       Virtual   (A) (A) (A) (A) (A) (A) (A) (A) (A) (A) (A) (A)
                 (A) (A) (A) (A) (A) (A) (A) (A) (A) (A) (A) (A)
                 (A) (A) (A) (A) (A) (A) (A) (A) (A) (A) (A) (A)
                 (A) (A) (A) (A) (A) (A) (A) (A) (A) (A) (A) (A)
                 (A) (A) (A) (A) (A) (A) (A) (A) (A) (A) (A) (A)
                 (A) (A) (A) (A) (A) (A) (A) (A) (A) (A) (A) (A)
                 (A) (A) (A) (A) (A) (A) (A) (A) (A) (A) (A) (A)
                 (A) (A) (A) (A) (A) (A) (A) (A) (A) (A) (A) (A)
                 (A) (A) (A) (A) (A) (A) (A) (A) (A) (A) (A) (A)
                 (A) (A) (A) (A) (A) (A) (A) (A) (A) (A) (A) (A)
                 (A) (A) (A) (A) (A) (A) (A) (A) (A) (A) (A) (A)
                 (A) (A) (A) (A) (A) (A) (A) (A) (A) (A) (A) (A)
                 (A) (A) (A) (A) (A) (A) (A) (A) (A) (A) (A) (A)
                 (A) (A) (A) (A) (A) (A) (A) (A) (A) (A) (A) (A)
                 (A) (A) (A) (A) (A) (A) (A) (A) (A) (A) (A) (A)
                 (A) (A) (A) (A) (A) (A) (A) (A) (A) (A) (A) (A)
                 (A) (A) (A) (A) (A) (A) (A) (A) (A) (A) (A) (A)
 The electronic state is 1-A.
 Alpha  occ. eigenvalues --  -19.33918 -19.21493 -19.19389 -19.19077 -19.18376
 Alpha  occ. eigenvalues --  -10.40404 -10.32315 -10.32184 -10.29877 -10.29752
 Alpha  occ. eigenvalues --  -10.27764 -10.26684 -10.25013 -10.24985 -10.24559
 Alpha  occ. eigenvalues --   -1.22478  -1.10023  -1.08370  -1.06786  -1.06303
 Alpha  occ. eigenvalues --   -0.87518  -0.86070  -0.77848  -0.75294  -0.73844
 Alpha  occ. eigenvalues --   -0.72292  -0.68566  -0.67609  -0.66024  -0.63167
 Alpha  occ. eigenvalues --   -0.60736  -0.58831  -0.56040  -0.55543  -0.53688
 Alpha  occ. eigenvalues --   -0.52436  -0.52025  -0.50972  -0.50354  -0.49479
 Alpha  occ. eigenvalues --   -0.48683  -0.48040  -0.46305  -0.45991  -0.45332
 Alpha  occ. eigenvalues --   -0.44207  -0.43602  -0.42801  -0.41537  -0.41032
 Alpha  occ. eigenvalues --   -0.39765  -0.37290  -0.36114  -0.35451  -0.34225
 Alpha  occ. eigenvalues --   -0.33367  -0.30149  -0.28964  -0.28586
 Alpha virt. eigenvalues --   -0.16071  -0.01042   0.04274   0.04684   0.06786
 Alpha virt. eigenvalues --    0.07497   0.07598   0.08476   0.09562   0.10493
 Alpha virt. eigenvalues --    0.10581   0.11584   0.11925   0.12731   0.13029
 Alpha virt. eigenvalues --    0.13565   0.14005   0.14593   0.15061   0.15549
 Alpha virt. eigenvalues --    0.15631   0.15948   0.16216   0.17125   0.17867
 Alpha virt. eigenvalues --    0.18082   0.18877   0.19731   0.21227   0.22170
 Alpha virt. eigenvalues --    0.24635   0.25551   0.25737   0.26338   0.30082
 Alpha virt. eigenvalues --    0.43320   0.45207   0.46724   0.46956   0.48080
 Alpha virt. eigenvalues --    0.49209   0.49480   0.50050   0.50209   0.51504
 Alpha virt. eigenvalues --    0.52168   0.53181   0.54639   0.55194   0.56457
 Alpha virt. eigenvalues --    0.57453   0.58167   0.58434   0.61392   0.61674
 Alpha virt. eigenvalues --    0.63269   0.65451   0.68541   0.70219   0.72743
 Alpha virt. eigenvalues --    0.74406   0.75331   0.75372   0.76425   0.77335
 Alpha virt. eigenvalues --    0.77685   0.79462   0.81083   0.81374   0.81731
 Alpha virt. eigenvalues --    0.82536   0.83625   0.84286   0.84603   0.84916
 Alpha virt. eigenvalues --    0.86292   0.87468   0.88181   0.88795   0.89753
 Alpha virt. eigenvalues --    0.90338   0.92310   0.92885   0.94204   0.94357
 Alpha virt. eigenvalues --    0.95157   0.97467   0.98563   1.01524   1.02872
 Alpha virt. eigenvalues --    1.03798   1.06588   1.09252   1.09704   1.11724
 Alpha virt. eigenvalues --    1.13064   1.15114   1.17100   1.19555   1.23139
 Alpha virt. eigenvalues --    1.24864   1.25664   1.27495   1.28746   1.32476
 Alpha virt. eigenvalues --    1.34361   1.35217   1.39573   1.40370   1.42230
 Alpha virt. eigenvalues --    1.44091   1.45082   1.46385   1.47501   1.48042
 Alpha virt. eigenvalues --    1.50524   1.51231   1.53945   1.58490   1.60325
 Alpha virt. eigenvalues --    1.62992   1.65602   1.66780   1.68221   1.70328
 Alpha virt. eigenvalues --    1.70719   1.75714   1.77548   1.79019   1.79891
 Alpha virt. eigenvalues --    1.83318   1.83972   1.85635   1.87468   1.89546
 Alpha virt. eigenvalues --    1.91588   1.93513   1.95699   1.96793   1.99574
 Alpha virt. eigenvalues --    2.00032   2.01997   2.02736   2.02965   2.04194
 Alpha virt. eigenvalues --    2.06523   2.06710   2.07818   2.08712   2.10246
 Alpha virt. eigenvalues --    2.11612   2.12739   2.14316   2.15889   2.17761
 Alpha virt. eigenvalues --    2.18715   2.20454   2.22519   2.24161   2.24813
 Alpha virt. eigenvalues --    2.26158   2.28470   2.30221   2.32051   2.35292
 Alpha virt. eigenvalues --    2.36198   2.37020   2.40636   2.43053   2.46898
 Alpha virt. eigenvalues --    2.48920   2.51308   2.55714   2.57258   2.57734
 Alpha virt. eigenvalues --    2.62149   2.66228   2.67989   2.71883   2.74919
 Alpha virt. eigenvalues --    2.78110   2.79625   2.86303   2.89529   2.92185
 Alpha virt. eigenvalues --    2.93916   2.99365   3.02707   3.04788   3.84431
 Alpha virt. eigenvalues --    3.88024   3.94154   4.04825   4.11296   4.14473
 Alpha virt. eigenvalues --    4.21541   4.22660   4.23414   4.24175   4.26334
 Alpha virt. eigenvalues --    4.35081   4.44239   4.54198   4.63729
          Condensed to atoms (all electrons):
               1          2          3          4          5          6
     1  C    5.048878   0.270938  -0.041152  -0.050295   0.290033   0.003194
     2  C    0.270938   5.102328   0.233257  -0.005774  -0.033015  -0.038270
     3  C   -0.041152   0.233257   4.892772  -0.035586   0.002357   0.353266
     4  C   -0.050295  -0.005774  -0.035586   5.173010   0.264718   0.002957
     5  C    0.290033  -0.033015   0.002357   0.264718   4.937981  -0.000194
     6  H    0.003194  -0.038270   0.353266   0.002957  -0.000194   0.424520
     7  H   -0.034158   0.358090  -0.036940   0.001322  -0.005504  -0.000942
     8  H    0.357992  -0.056432   0.001094  -0.001784  -0.039328  -0.000193
     9  H   -0.006034   0.000884  -0.001994   0.361784  -0.032085  -0.000156
    10  H   -0.047303  -0.006379   0.002502  -0.048824   0.381829  -0.000120
    11  O   -0.000281  -0.023016   0.376868   0.101183  -0.015184  -0.034314
    12  O   -0.033576   0.250074  -0.034173  -0.000055   0.001867   0.004805
    13  O    0.215372  -0.040346   0.003741   0.002994  -0.038772  -0.000042
    14  O   -0.032851   0.001830  -0.000088  -0.049201   0.270485   0.000003
    15  C    0.004872  -0.000173   0.002125   0.331690  -0.027334  -0.000105
    16  H   -0.000141   0.000010   0.000885  -0.044472   0.002766  -0.000018
    17  H    0.000460  -0.000026  -0.000065  -0.037901  -0.003392   0.000005
    18  O   -0.000087  -0.000003  -0.000031  -0.031896  -0.002005   0.000001
    19  C   -0.005400  -0.048015  -0.005861   0.000002   0.000125  -0.000318
    20  H   -0.000891  -0.007389   0.009653  -0.000076   0.000022  -0.000329
    21  H   -0.000016   0.004846  -0.000042   0.000001  -0.000002  -0.000095
    22  H    0.004167  -0.003893  -0.000829   0.000027  -0.000214   0.000192
    23  C   -0.032507  -0.002429   0.000044  -0.000148   0.004647   0.000001
    24  H   -0.004107   0.002652  -0.000110   0.000012  -0.000275   0.000007
    25  H    0.004672  -0.000108   0.000006   0.000001  -0.000127   0.000000
    26  H   -0.011102  -0.000817   0.000050   0.000016   0.000202   0.000000
    27  C   -0.005434   0.000335  -0.000002  -0.004910  -0.046892   0.000000
    28  H   -0.000029  -0.000005   0.000000  -0.000067   0.005239   0.000000
    29  H   -0.001384   0.000021   0.000022   0.005348  -0.005886   0.000000
    30  H    0.006668   0.000063  -0.000016  -0.000996  -0.009010   0.000000
    31  C    0.000002   0.000000   0.000002   0.004924  -0.000009   0.000000
    32  H    0.000001   0.000000   0.000000   0.000051   0.000016   0.000000
    33  H    0.000000   0.000000   0.000000  -0.000092  -0.000019   0.000000
    34  H    0.000000   0.000000   0.000000  -0.000243   0.000006   0.000000
               7          8          9         10         11         12
     1  C   -0.034158   0.357992  -0.006034  -0.047303  -0.000281  -0.033576
     2  C    0.358090  -0.056432   0.000884  -0.006379  -0.023016   0.250074
     3  C   -0.036940   0.001094  -0.001994   0.002502   0.376868  -0.034173
     4  C    0.001322  -0.001784   0.361784  -0.048824   0.101183  -0.000055
     5  C   -0.005504  -0.039328  -0.032085   0.381829  -0.015184   0.001867
     6  H   -0.000942  -0.000193  -0.000156  -0.000120  -0.034314   0.004805
     7  H    0.472039   0.004792  -0.000021   0.004726   0.000503  -0.031509
     8  H    0.004792   0.583006   0.003555   0.005387   0.000215  -0.002532
     9  H   -0.000021   0.003555   0.481455   0.004400  -0.023376  -0.000003
    10  H    0.004726   0.005387   0.004400   0.549556  -0.000852   0.000002
    11  O    0.000503   0.000215  -0.023376  -0.000852   7.943893   0.001419
    12  O   -0.031509  -0.002532  -0.000003   0.000002   0.001419   8.176088
    13  O    0.002459  -0.037588  -0.000007   0.000682  -0.000003   0.001412
    14  O   -0.000080  -0.003037  -0.001278  -0.039065   0.001185  -0.000006
    15  C    0.000002  -0.000023  -0.042751  -0.006898  -0.024849   0.000000
    16  H   -0.000001   0.000001  -0.001709   0.000022   0.002695   0.000000
    17  H   -0.000012  -0.000003   0.005187   0.003625   0.001505   0.000000
    18  O    0.000000  -0.000009   0.006229   0.000050   0.000782   0.000000
    19  C    0.005203   0.003459   0.000027   0.000011  -0.000151   0.227792
    20  H   -0.000101   0.000153   0.000055   0.000001  -0.000826  -0.034902
    21  H   -0.000114  -0.000007   0.000000   0.000000   0.000003  -0.029206
    22  H   -0.000168   0.001897  -0.000007  -0.000004   0.000041  -0.036187
    23  C   -0.000139  -0.006835  -0.000008  -0.000208   0.000000  -0.002222
    24  H   -0.000165  -0.001593   0.000000  -0.000008  -0.000002   0.007321
    25  H   -0.000057  -0.000030   0.000000   0.000004   0.000000   0.000105
    26  H    0.000111   0.012255  -0.000002   0.000024   0.000000   0.000122
    27  C    0.000001   0.003492   0.002599   0.005746   0.000037   0.000000
    28  H    0.000000  -0.000016  -0.000051  -0.000122   0.000000   0.000000
    29  H    0.000000  -0.000385   0.002224  -0.000281  -0.000092   0.000000
    30  H   -0.000009  -0.000897  -0.000258  -0.000216   0.000010   0.000004
    31  C    0.000000   0.000000  -0.000039  -0.000003  -0.000044   0.000000
    32  H    0.000000   0.000000   0.000084  -0.000002   0.000000   0.000000
    33  H    0.000000   0.000000  -0.000033   0.000000   0.000006   0.000000
    34  H    0.000000   0.000000  -0.000021   0.000000   0.000000   0.000000
              13         14         15         16         17         18
     1  C    0.215372  -0.032851   0.004872  -0.000141   0.000460  -0.000087
     2  C   -0.040346   0.001830  -0.000173   0.000010  -0.000026  -0.000003
     3  C    0.003741  -0.000088   0.002125   0.000885  -0.000065  -0.000031
     4  C    0.002994  -0.049201   0.331690  -0.044472  -0.037901  -0.031896
     5  C   -0.038772   0.270485  -0.027334   0.002766  -0.003392  -0.002005
     6  H   -0.000042   0.000003  -0.000105  -0.000018   0.000005   0.000001
     7  H    0.002459  -0.000080   0.000002  -0.000001  -0.000012   0.000000
     8  H   -0.037588  -0.003037  -0.000023   0.000001  -0.000003  -0.000009
     9  H   -0.000007  -0.001278  -0.042751  -0.001709   0.005187   0.006229
    10  H    0.000682  -0.039065  -0.006898   0.000022   0.003625   0.000050
    11  O   -0.000003   0.001185  -0.024849   0.002695   0.001505   0.000782
    12  O    0.001412  -0.000006   0.000000   0.000000   0.000000   0.000000
    13  O    8.235515   0.002261  -0.000036   0.000000  -0.000002   0.000000
    14  O    0.002261   8.176054   0.007430   0.000180   0.001259  -0.000329
    15  C   -0.000036   0.007430   4.892686   0.360896   0.356110   0.228212
    16  H    0.000000   0.000180   0.360896   0.583416  -0.047132  -0.036636
    17  H   -0.000002   0.001259   0.356110  -0.047132   0.578879  -0.037069
    18  O    0.000000  -0.000329   0.228212  -0.036636  -0.037069   8.204239
    19  C   -0.000159   0.000000   0.000000   0.000000   0.000000   0.000000
    20  H    0.000008   0.000000   0.000000   0.000000   0.000000   0.000000
    21  H   -0.000005   0.000000   0.000000   0.000000   0.000000   0.000000
    22  H   -0.000104   0.000004   0.000000   0.000000   0.000000   0.000000
    23  C    0.233008  -0.000018   0.000002   0.000000   0.000000   0.000000
    24  H   -0.034633  -0.000002   0.000000   0.000000   0.000000   0.000000
    25  H   -0.031631   0.000008   0.000000   0.000000   0.000000   0.000000
    26  H   -0.034433  -0.000034   0.000000   0.000000   0.000000   0.000000
    27  C   -0.000487   0.237367  -0.001230  -0.000008  -0.000146  -0.000280
    28  H   -0.000044  -0.031355  -0.000031  -0.000001   0.000003  -0.000065
    29  H    0.000166  -0.036328  -0.001656   0.000045  -0.000002   0.006899
    30  H    0.002523  -0.034938   0.000177   0.000003   0.000004   0.000088
    31  C    0.000000   0.000041  -0.039067  -0.003492  -0.004899   0.242562
    32  H    0.000000   0.000089  -0.008132  -0.001878   0.012699  -0.035937
    33  H    0.000000   0.000002  -0.007030   0.009572  -0.002474  -0.035781
    34  H    0.000000  -0.000008   0.005561  -0.000128  -0.000110  -0.031523
              19         20         21         22         23         24
     1  C   -0.005400  -0.000891  -0.000016   0.004167  -0.032507  -0.004107
     2  C   -0.048015  -0.007389   0.004846  -0.003893  -0.002429   0.002652
     3  C   -0.005861   0.009653  -0.000042  -0.000829   0.000044  -0.000110
     4  C    0.000002  -0.000076   0.000001   0.000027  -0.000148   0.000012
     5  C    0.000125   0.000022  -0.000002  -0.000214   0.004647  -0.000275
     6  H   -0.000318  -0.000329  -0.000095   0.000192   0.000001   0.000007
     7  H    0.005203  -0.000101  -0.000114  -0.000168  -0.000139  -0.000165
     8  H    0.003459   0.000153  -0.000007   0.001897  -0.006835  -0.001593
     9  H    0.000027   0.000055   0.000000  -0.000007  -0.000008   0.000000
    10  H    0.000011   0.000001   0.000000  -0.000004  -0.000208  -0.000008
    11  O   -0.000151  -0.000826   0.000003   0.000041   0.000000  -0.000002
    12  O    0.227792  -0.034902  -0.029206  -0.036187  -0.002222   0.007321
    13  O   -0.000159   0.000008  -0.000005  -0.000104   0.233008  -0.034633
    14  O    0.000000   0.000000   0.000000   0.000004  -0.000018  -0.000002
    15  C    0.000000   0.000000   0.000000   0.000000   0.000002   0.000000
    16  H    0.000000   0.000000   0.000000   0.000000   0.000000   0.000000
    17  H    0.000000   0.000000   0.000000   0.000000   0.000000   0.000000
    18  O    0.000000   0.000000   0.000000   0.000000   0.000000   0.000000
    19  C    4.950187   0.364518   0.387811   0.368054  -0.000211  -0.000667
    20  H    0.364518   0.572617  -0.026214  -0.042787   0.000003   0.000151
    21  H    0.387811  -0.026214   0.485670  -0.028296   0.000012  -0.000045
    22  H    0.368054  -0.042787  -0.028296   0.558120   0.001082  -0.000351
    23  C   -0.000211   0.000003   0.000012   0.001082   4.916998   0.366988
    24  H   -0.000667   0.000151  -0.000045  -0.000351   0.366988   0.566239
    25  H    0.000020   0.000000   0.000000  -0.000044   0.384287  -0.030069
    26  H   -0.000284   0.000005   0.000011   0.000670   0.366920  -0.042644
    27  C   -0.000002   0.000000   0.000000  -0.000002  -0.000296   0.000007
    28  H    0.000000   0.000000   0.000000   0.000000   0.000001   0.000000
    29  H    0.000000   0.000000   0.000000   0.000001   0.000000   0.000000
    30  H   -0.000002   0.000000   0.000000  -0.000013   0.000513   0.000052
    31  C    0.000000   0.000000   0.000000   0.000000   0.000000   0.000000
    32  H    0.000000   0.000000   0.000000   0.000000   0.000000   0.000000
    33  H    0.000000   0.000000   0.000000   0.000000   0.000000   0.000000
    34  H    0.000000   0.000000   0.000000   0.000000   0.000000   0.000000
              25         26         27         28         29         30
     1  C    0.004672  -0.011102  -0.005434  -0.000029  -0.001384   0.006668
     2  C   -0.000108  -0.000817   0.000335  -0.000005   0.000021   0.000063
     3  C    0.000006   0.000050  -0.000002   0.000000   0.000022  -0.000016
     4  C    0.000001   0.000016  -0.004910  -0.000067   0.005348  -0.000996
     5  C   -0.000127   0.000202  -0.046892   0.005239  -0.005886  -0.009010
     6  H    0.000000   0.000000   0.000000   0.000000   0.000000   0.000000
     7  H   -0.000057   0.000111   0.000001   0.000000   0.000000  -0.000009
     8  H   -0.000030   0.012255   0.003492  -0.000016  -0.000385  -0.000897
     9  H    0.000000  -0.000002   0.002599  -0.000051   0.002224  -0.000258
    10  H    0.000004   0.000024   0.005746  -0.000122  -0.000281  -0.000216
    11  O    0.000000   0.000000   0.000037   0.000000  -0.000092   0.000010
    12  O    0.000105   0.000122   0.000000   0.000000   0.000000   0.000004
    13  O   -0.031631  -0.034433  -0.000487  -0.000044   0.000166   0.002523
    14  O    0.000008  -0.000034   0.237367  -0.031355  -0.036328  -0.034938
    15  C    0.000000   0.000000  -0.001230  -0.000031  -0.001656   0.000177
    16  H    0.000000   0.000000  -0.000008  -0.000001   0.000045   0.000003
    17  H    0.000000   0.000000  -0.000146   0.000003  -0.000002   0.000004
    18  O    0.000000   0.000000  -0.000280  -0.000065   0.006899   0.000088
    19  C    0.000020  -0.000284  -0.000002   0.000000   0.000000  -0.000002
    20  H    0.000000   0.000005   0.000000   0.000000   0.000000   0.000000
    21  H    0.000000   0.000011   0.000000   0.000000   0.000000   0.000000
    22  H   -0.000044   0.000670  -0.000002   0.000000   0.000001  -0.000013
    23  C    0.384287   0.366920  -0.000296   0.000001   0.000000   0.000513
    24  H   -0.030069  -0.042644   0.000007   0.000000   0.000000   0.000052
    25  H    0.515435  -0.027686   0.000013   0.000000   0.000000  -0.000071
    26  H   -0.027686   0.576689   0.000020   0.000003  -0.000012   0.000298
    27  C    0.000013   0.000020   4.936319   0.388653   0.360819   0.362343
    28  H    0.000000   0.000003   0.388653   0.507879  -0.029240  -0.029263
    29  H    0.000000  -0.000012   0.360819  -0.029240   0.576163  -0.042479
    30  H   -0.000071   0.000298   0.362343  -0.029263  -0.042479   0.580084
    31  C    0.000000   0.000000   0.000102   0.000006  -0.000224  -0.000001
    32  H    0.000000   0.000000  -0.000042   0.000003   0.000002   0.000000
    33  H    0.000000   0.000000   0.000002   0.000000   0.000018   0.000000
    34  H    0.000000   0.000000   0.000013   0.000001  -0.000029   0.000000
              31         32         33         34
     1  C    0.000002   0.000001   0.000000   0.000000
     2  C    0.000000   0.000000   0.000000   0.000000
     3  C    0.000002   0.000000   0.000000   0.000000
     4  C    0.004924   0.000051  -0.000092  -0.000243
     5  C   -0.000009   0.000016  -0.000019   0.000006
     6  H    0.000000   0.000000   0.000000   0.000000
     7  H    0.000000   0.000000   0.000000   0.000000
     8  H    0.000000   0.000000   0.000000   0.000000
     9  H   -0.000039   0.000084  -0.000033  -0.000021
    10  H   -0.000003  -0.000002   0.000000   0.000000
[...]
 0.00003941,0.00001387,0.00006326,-0.00001942,-0.00013625,-0.00078165,-
 0.00023746,0.00000261,-0.00002179,-0.00000067,0.00000310,0.00000448,0.
 00000042,-0.00000144,-0.00000051,0.00000487,0.00000047,0.00000211,0.00
 000405,0.00005633,-0.00002420,0.00000634,-0.00000812,0.00001253,0.0000
 0846,-0.00000520,-0.00000490,-0.00000998,0.00001405,-0.00000202,0.0000
 1798,-0.07466623,-0.15691972,0.10577116,-0.01397208,-0.01476250,0.0164
 2213,0.08080775,0.16159674,0.00001532,-0.00077058,-0.00034454,0.000117
 57,0.00023918,0.00024234,0.00004259,0.00033329,-0.00005163,0.00067152,
 -0.00066288,-0.00032406,-0.00248222,0.00595406,0.00084095,-0.00001701,
 -0.00001639,-0.00005468,-0.00003522,0.00001280,0.00003500,0.00018034,-
 0.00001606,-0.00000646,-0.00008459,-0.00106134,-0.00015186,0.00008882,
 -0.00074665,-0.00011159,-0.00030308,-0.00073901,0.00042643,0.00024641,
 -0.00022342,0.00008065,0.00009306,0.00020823,0.00018047,0.01447755,0.0
 0668354,-0.03713457,0.00067771,-0.00042381,-0.00054910,-0.00010843,0.0
 0013929,0.00012307,0.00002589,0.00005886,0.00017310,0.00063090,0.00068
 549,0.00078474,-0.00000358,0.00002264,-0.00013170,-0.00000629,-0.00000
 317,0.00001724,0.00000666,-0.00001084,0.00001883,-0.00000980,0.0000042
 9,0.00000907,-0.00012373,-0.00011820,-0.00011612,0.00004084,0.00000714
 ,0.00003558,0.00002440,0.00002387,0.00000028,0.00005780,-0.00000451,0.
 00004416,0.07459285,0.10031643,-0.15249347,0.00162489,0.00354009,-0.00
 054070,-0.08614685,-0.10844002,0.17936939,-0.00081913,0.00076212,-0.00
 082970,0.00043461,-0.00023574,0.00035496,-0.00008358,0.00000089,0.0000
 3900,-0.00014927,0.00007611,0.00006128,0.00038800,0.00141419,0.0001215
 5,0.00002400,0.00002695,-0.00002577,-0.00006552,0.00018547,0.00008500,
 -0.00023386,0.00093692,0.00112330,-0.00005865,0.00002122,-0.00002077,0
 .00006445,-0.00026034,-0.00009986,0.00004566,-0.00007503,-0.00003012,0
 .00016718,-0.00012279,0.00002738,0.00007233,0.00006813,0.00031708,0.00
 977918,-0.00167438,-0.00358060,-0.00000609,0.00018812,0.00021339,-0.00
 001228,-0.00004366,-0.00000818,0.00002201,0.00002332,-0.00000604,-0.00
 031371,-0.00032431,-0.00018777,-0.00002231,-0.00004845,-0.00011813,0.0
 0000490,-0.00000143,0.00000850,-0.00000016,0.00000423,0.00001793,0.000
 00709,0.00002829,0.00001041,-0.00032561,0.00010981,0.00016274,0.000059
 50,0.00000857,0.00000854,0.00002733,-0.00000448,-0.00007858,-0.0013567
 2,-0.00041678,0.00042142,-0.28138951,-0.05479195,-0.06854098,-0.014472
 20,-0.00451655,-0.00343095,-0.01179467,-0.00136767,-0.00394433,0.29987
 171,0.00078955,-0.00061557,-0.00049197,-0.00006997,0.00010000,0.000257
 08,-0.00033182,-0.00013324,0.00014297,0.00009882,-0.00002318,-0.000054
 72,-0.00367777,0.00226970,-0.00013149,0.00002137,0.00001794,-0.0000878
 8,0.00000873,0.00007720,0.00002851,0.00116141,-0.00145805,-0.00057908,
 -0.00014049,-0.00001336,0.00003578,0.00025600,-0.00002081,0.00001239,0
 .00025273,-0.00025456,0.00005727,-0.00004154,0.00009618,0.00000081,-0.
 00027069,0.00001349,0.00038676,-0.01112848,-0.00605333,-0.01357007,-0.
 00002342,0.00020547,0.00010702,0.00001321,-0.00005027,0.00001587,0.000
 05385,0.00003539,0.00000934,-0.00032819,-0.00022976,-0.00022433,0.0000
 0687,-0.00004047,-0.00001735,-0.00000406,-0.00000100,-0.00000680,-0.00
 000185,0.00001018,-0.00000126,-0.00000016,0.00000722,-0.00000149,0.000
 22921,-0.00000697,0.00001512,-0.00003066,-0.00000255,-0.00000611,-0.00
 004079,-0.00000102,0.00003158,-0.00013162,0.00004855,0.00005104,-0.052
 90411,-0.06751822,-0.01304408,0.02546600,0.00905757,0.00801332,-0.0194
 2810,-0.00288244,-0.00534404,0.06007301,0.06746204,0.00033842,-0.00199
 429,0.00062511,0.00012626,0.00028775,0.00029625,-0.00030699,0.00009097
 ,0.00009965,0.00038638,0.00023306,-0.00067963,-0.00376600,0.00475528,0
 .00138299,0.00003878,0.00002718,-0.00006260,-0.00004980,0.00005243,0.0
 0001448,0.00049776,-0.00065085,-0.00041053,0.00006141,-0.00009608,0.00
 006218,0.00025882,-0.00010667,-0.00009926,0.00020772,-0.00070940,0.000
 19061,0.00023379,-0.00013745,0.00002312,-0.00054270,0.00112393,0.00030
 361,-0.02803347,-0.01739970,-0.02626557,0.00033540,-0.00000182,-0.0002
 9868,-0.00005922,0.00000843,0.00008931,0.00005539,0.00006290,0.0001372
 0,0.00012018,0.00035141,0.00028188,-0.00000407,-0.00001459,-0.00008222
 ,-0.00000278,0.00000432,0.00000811,0.00000456,-0.00000373,0.00000829,-
 0.00001232,0.00000970,0.00001412,0.00078474,0.00013154,0.00006091,-0.0
 0009101,-0.00001165,-0.00002440,0.00002163,-0.00001605,-0.00000023,0.0
 0058284,0.00010492,-0.00007493,-0.06358647,-0.01455611,-0.07070884,-0.
 00450568,-0.00014764,0.00032028,0.01898775,0.00411817,0.00952046,0.077
 93304,0.02441439,0.08522597,-0.00040098,-0.00023749,-0.00011822,-0.000
 40984,0.00035255,-0.00032895,-0.00156535,-0.00041956,0.00036511,-0.003
 73736,0.00295575,0.00077542,-0.00071895,-0.00066082,0.00058564,0.00022
 537,0.00005646,-0.00006870,0.00008172,0.00006980,0.00013753,-0.0000121
 9,0.00005860,-0.00002181,-0.00040185,-0.00029517,0.00006351,-0.0000177
 3,-0.00003569,-0.00005686,0.00301494,-0.00106838,-0.00051815,0.0005575
 9,-0.00014139,0.00033775,0.00077939,0.00054959,-0.00000302,0.00117081,
 0.00091297,0.00017392,-0.04288808,0.00804947,0.00241787,0.00556701,-0.
 00376114,-0.00351893,0.00458677,-0.00246420,-0.00487585,-0.20630295,0.
 01535988,-0.02752770,-0.00006472,0.00001052,-0.00030671,-0.00002319,0.
 00001784,0.00004007,0.00003658,-0.00001466,0.00003023,-0.00002259,0.00
 000844,0.00003718,-0.00036268,-0.00016716,-0.00025996,0.00006508,-0.00
 000973,0.00004468,0.00007098,0.00006210,0.00000923,0.00002413,-0.00000
 452,0.00006081,-0.00032921,-0.00103652,-0.00014285,-0.00000391,0.00015
 680,-0.00003754,-0.00029269,-0.00014645,-0.00064812,0.00020856,0.00022
 373,-0.00003507,0.47751975,-0.00007202,0.00007626,-0.00005654,-0.00002
 835,0.00000130,0.00002751,0.00023158,-0.00005909,-0.00006788,0.0021638
 5,-0.00146957,-0.00219613,0.00054887,-0.00034233,-0.00007554,-0.000009
 08,0.00000590,-0.00008725,-0.00000493,0.00000118,0.00000086,0.00001358
 ,-0.00000346,0.00001424,0.00009840,-0.00002977,0.00002464,-0.00006119,
 0.00000200,0.00002597,0.00052472,0.00008961,0.00047447,0.00000618,-0.0
 0001037,0.00001442,0.00004825,0.00002120,0.00001911,-0.00031441,-0.000
 16344,0.00013921,0.02355278,-0.00650139,0.00478165,0.00301125,0.001372
 57,0.00012869,-0.00194761,0.00140602,-0.00010635,-0.00570252,-0.068758
 31,-0.01443048,0.00000613,0.00001294,-0.00001643,-0.00000456,-0.000003
 04,-0.00000313,0.00000044,0.00000031,0.00000130,0.00000087,-0.00000163
 ,0.00000013,-0.00000141,0.00000247,-0.00001448,0.00000324,-0.00000058,
 0.00000085,0.00000003,-0.00000029,0.00000237,0.00000022,0.00000174,0.0
 0000247,-0.00003607,0.00016351,-0.00023967,-0.00003395,-0.00008174,0.0
 0005612,0.00011149,0.00010824,0.00036019,-0.00003606,-0.00009531,0.000
 08032,-0.00827712,0.58734998,-0.00012350,-0.00005873,-0.00008876,-0.00
 022060,0.00018861,-0.00013297,-0.00080088,-0.00061469,0.00019860,0.000
 02414,-0.00177678,-0.00407914,0.00023472,-0.00056043,0.00078481,0.0001
 7290,0.00004393,-0.00018799,0.00004912,0.00003489,0.00007039,-0.000002
 88,0.00003272,-0.00000354,0.00007119,-0.00030906,0.00043914,-0.0000068
 6,-0.00008132,0.00001149,0.00331593,-0.00053581,0.00051825,0.00025082,
 -0.00002937,0.00015067,0.00035916,0.00030814,-0.00002104,0.00005441,0.
 00068996,-0.00005558,0.02897468,-0.00195721,0.00253436,0.00093255,-0.0
 0073017,-0.00028033,0.00442554,-0.00192848,0.00072451,-0.06555733,-0.0
 0480150,-0.09773596,-0.00003444,-0.00000275,-0.00013674,-0.00001028,0.
 00000879,0.00001557,0.00001687,-0.00000425,0.00001363,-0.00000788,0.00
 000383,0.00001888,-0.00013274,-0.00006602,-0.00011643,0.00002379,-0.00
 000284,0.00002120,0.00003425,0.00002927,0.00000571,0.00001216,-0.00000
 236,0.00002468,-0.00004883,-0.00025038,-0.00024854,-0.00002433,0.00003
 192,0.00005109,0.00001902,0.00007655,-0.00001772,0.00002765,0.00002228
 ,0.00001517,-0.05170762,0.02375403,0.59701523,0.00006340,0.00001439,0.
 00003584,0.00004846,-0.00003389,0.00004736,0.00017797,0.00006358,-0.00
 004878,0.00012747,-0.00041270,-0.00007205,-0.00001845,0.00021801,-0.00
 000230,-0.00002543,-0.00000990,-0.00000760,-0.00001249,-0.00000790,-0.
 00001606,0.00000885,-0.00000187,0.00000290,0.00017062,0.00006952,0.000
 26384,-0.00003661,-0.00003133,0.00002454,-0.00031934,0.00004119,0.0001
 6109,-0.00005539,0.00000817,-0.00003711,-0.00008503,-0.00006238,0.0000
 0077,0.00004699,-0.00008124,-0.00000268,0.00416343,-0.00154718,-0.0071
 2659,-0.00050018,0.00027546,0.00080075,0.00064563,-0.00058687,0.001792
 48,-0.02193522,0.01999523,-0.03495528,0.00000682,-0.00000032,0.0000317
 4,0.00000251,-0.00000205,-0.00000375,-0.00000385,0.00000127,-0.0000030
 3,0.00000242,-0.00000097,-0.00000394,0.00003440,0.00001588,0.00002647,
 -0.00000605,0.00000064,-0.00000454,-0.00000761,-0.00000623,-0.00000110
 ,-0.00000254,0.00000040,-0.00000632,0.00004775,0.00009413,-0.00006096,
 -0.00000733,-0.00002963,0.00000980,0.00003854,0.00004477,0.00008128,-0
 .00001830,-0.00002175,0.00001957,-0.05129219,0.00400759,-0.00348687,0.
 06244028,0.00000422,-0.00001612,-0.00000997,0.00000286,0.00000675,0.00
 000028,-0.00003151,-0.00001087,0.00001662,-0.00008484,0.00010985,-0.00
 027103,-0.00000851,0.00005448,0.00004318,0.00000524,-0.00000018,0.0000
 0293,0.00000237,0.00000086,0.00000035,-0.00000532,0.00000091,-0.000002
 98,-0.00011369,-0.00001771,-0.00004876,0.00002382,0.00000761,-0.000013
 54,0.00008412,-0.00003652,-0.00003092,0.00000428,-0.00000130,-0.000005
 08,0.00000582,0.00000216,-0.00000395,0.00010298,0.00000210,-0.00003264
 ,-0.00065070,0.00038322,0.00169166,-0.00020134,-0.00028445,0.00001316,
 0.00031160,-0.00009946,-0.00035423,0.00540396,0.00389574,-0.00103156,-
 0.00000223,-0.00000234,0.00000455,0.00000090,0.00000130,0.00000146,0.0
 0000045,0.00000002,-0.00000020,-0.00000035,-0.00000026,0.00000012,-0.0
 0000248,-0.00000063,0.00000084,0.00000065,-0.00000032,0.00000054,0.000
 00058,0.00000107,0.00000018,0.00000041,-0.00000030,-0.00000072,-0.0000
 3071,-0.00002697,0.00000172,-0.00000404,-0.00000368,-0.00000210,-0.000
 01029,-0.00000049,-0.00002444,0.00000783,0.00000597,-0.00000641,0.0051
 2161,-0.11585181,0.10741636,-0.00868948,0.11586805,0.00005704,0.000020
 40,0.00001209,0.00005625,-0.00004542,0.00004856,0.00022989,0.00009039,
 -0.00005689,0.00047529,-0.00024538,0.00052473,-0.00001706,0.00019653,-
 0.00011797,-0.00003187,-0.00001083,0.00000820,-0.00001315,-0.00000856,
 -0.00001891,0.00000045,-0.00000674,0.00000625,0.00031405,0.00008754,-0
 .00001974,-0.00000405,0.00000148,0.00000160,-0.00047858,0.00007760,0.0
 0009385,-0.00006524,0.00000622,-0.00003564,-0.00009870,-0.00008408,0.0
 0000908,-0.00001364,-0.00017432,0.00002790,0.00221747,-0.00256051,0.00
 143578,-0.00009241,0.00047221,-0.00004222,-0.00157850,0.00109444,0.000
 34977,-0.01365902,0.00339450,-0.00784076,0.00001086,0.00000421,0.00002
 898,0.00000153,-0.00000429,-0.00000602,-0.00000483,0.00000150,-0.00000
 299,0.00000323,-0.00000065,-0.00000510,0.00003969,0.00001977,0.0000301
 8,-0.00000649,0.00000038,-0.00000596,-0.00001040,-0.00000838,-0.000000
 67,-0.00000399,0.00000146,-0.00000724,0.00003463,0.00012919,-0.0000320
 8,-0.00000969,-0.00004556,0.00000068,0.00002617,0.00002806,0.00007745,
 -0.00001060,-0.00003106,0.00001313,-0.00811046,0.10682706,-0.24292330,
 0.01981943,-0.11953328,0.26251806,0.00004731,0.00008524,-0.00000921,0.
 00006144,-0.00006222,0.00004885,0.00025895,0.00015037,-0.00006268,0.00
 104097,-0.00005092,-0.00020330,0.00039259,-0.00002356,-0.00008882,-0.0
 0005646,-0.00001440,0.00000461,-0.00001416,-0.00001136,-0.00002147,0.0
 0000535,-0.00000979,0.00000521,0.00017014,0.00008066,0.00012227,-0.000
 02421,-0.00000413,0.00001807,-0.00073922,0.00021094,0.00018162,-0.0000
 8628,0.00002546,-0.00005376,-0.00009445,-0.00006775,0.00000677,-0.0003
 1356,-0.00021487,0.00001727,0.00368496,-0.00509158,-0.00360240,0.00023
 601,0.00165045,0.00058141,-0.00053592,0.00031945,0.00059220,-0.0344398
 1,-0.02922859,-0.00827720,0.00000852,-0.00000399,0.00005102,0.00000439
 ,-0.00000207,-0.00000529,-0.00000547,0.00000225,-0.00000516,0.00000313
 ,-0.00000134,-0.00000584,0.00005768,0.00002776,0.00003337,-0.00000970,
 0.00000180,-0.00000622,-0.00000895,-0.00000871,-0.00000068,-0.00000318
 ,0.00000061,-0.00000814,0.00005143,0.00023830,-0.00003622,-0.00000841,
 -0.00004363,0.00002491,0.00009058,0.00005513,0.00022046,-0.00005132,-0
 .00006598,0.00003290,-0.08044839,-0.07732568,-0.00370355,0.00338277,0.
 00061877,0.00145904,0.09913025,0.00002733,0.00002109,0.00000881,0.0000
 3848,-0.00003362,0.00002600,0.00011346,0.00003243,-0.00002983,-0.00003
 425,0.00012828,0.00023920,0.00008492,0.00003296,-0.00005812,-0.0000187
 3,-0.00000651,0.00001522,-0.00000691,-0.00000745,-0.00001129,0.0000027
 1,-0.00000496,0.00000077,0.00009163,-0.00001216,0.00000816,-0.00000033
 ,0.00000536,0.00000550,-0.00028149,0.00001588,-0.00002855,-0.00005427,
 0.00002131,-0.00003277,-0.00007139,-0.00004094,-0.00000251,-0.00009718
 ,-0.00003120,-0.00001734,0.00126817,0.00287189,-0.00051615,-0.00197505
 ,-0.00015975,0.00085086,0.00009893,-0.00041919,0.00031823,-0.00350678,
 0.00952541,-0.00215841,0.00000446,-0.00000516,0.00003132,0.00000309,-0
 .00000106,-0.00000338,-0.00000362,0.00000149,-0.00000315,0.00000191,-0
 .00000018,-0.00000337,0.00003675,0.00001351,0.00002277,-0.00000705,0.0
 0000225,-0.00000356,-0.00000522,-0.00000564,-0.00000128,-0.00000189,-0
 .00000004,-0.00000475,0.00004534,0.00006659,0.00000166,0.00000922,0.00
 001051,0.00000255,0.00002167,-0.00000162,0.00005456,-0.00003038,-0.000
 01352,0.00000193,-0.08091538,-0.27391215,-0.01790535,-0.00455073,-0.01
 396792,-0.00168312,0.09467443,0.28895873,0.00002814,0.00002013,0.00001
 458,0.00004284,-0.00003039,0.00004328,0.00014680,0.00004932,-0.0000330
 2,0.00023607,-0.00007328,-0.00009885,0.00006619,0.00007537,-0.00009238
 ,-0.00002120,-0.00000825,0.00000442,-0.00001013,-0.00000795,-0.0000136
 4,0.00000481,-0.00000570,0.00000131,0.00000878,0.00000309,0.00002678,-
 0.00000234,0.00000743,0.00001222,-0.00026172,0.00002729,0.00004304,-0.
 00005102,0.00001103,-0.00003682,-0.00006788,-0.00004996,0.00000061,-0.
 00008104,-0.00011360,0.00001282,0.00171564,0.00061716,-0.00060177,-0.0
 0039835,0.00050215,0.00033539,-0.00020080,0.00039724,0.00002762,-0.010
 73604,-0.01082469,0.00046189,0.00000516,-0.00000195,0.00003299,0.00000
 247,-0.00000088,-0.00000246,-0.00000315,0.00000129,-0.00000311,0.00000
 166,-0.00000129,-0.00000375,0.00003077,0.00001454,0.00002331,-0.000005
 31,0.00000071,-0.00000362,-0.00000637,-0.00000534,-0.00000087,-0.00000
 179,0.00000026,-0.00000539,0.00002790,0.00008902,-0.00000538,-0.000000
 74,-0.00001781,0.00000272,0.00002854,0.00002273,0.00007546,-0.00001963
 ,-0.00002302,0.00001286,-0.00474823,-0.01632554,-0.05587167,0.01046939
 ,0.02711735,0.00364168,0.01262366,0.02064332,0.05210468,0.00008800,0.0
 0002348,0.00007098,0.00010476,-0.00008235,0.00006619,0.00035275,0.0002
 5233,-0.00008737,0.00028756,0.00068132,0.00149558,-0.00012055,0.000350
 26,-0.00023420,-0.00007237,-0.00002112,0.00006226,-0.00002038,-0.00001
 555,-0.00003285,-0.00000130,-0.00001154,-0.00000538,0.00008076,0.00010
 512,-0.00003403,0.00000542,0.00000500,0.00000382,-0.00135471,0.0001927
 9,-0.00009726,-0.00011776,0.00001777,-0.00008213,-0.00016938,-0.000140
 50,-0.00000743,-0.00002141,-0.00029779,-0.00011028,-0.00489652,-0.0009
 1195,-0.00362561,-0.00014068,0.00041465,0.00007507,-0.00004864,-0.0001
 8186,0.00021713,-0.02961307,0.01965888,0.02430461,0.00001332,-0.000001
 80,0.00007635,0.00000583,-0.00000141,-0.00000585,-0.00000708,0.0000022
 3,-0.00000724,0.00000329,-0.00000342,-0.00000818,0.00006541,0.00003388
 ,0.00006212,-0.00001186,0.00000080,-0.00001006,-0.00001538,-0.00001231
 ,-0.00000284,-0.00000516,0.00000012,-0.00001426,0.00000796,0.00012575,
 0.00018709,-0.00000628,-0.00004180,-0.00000333,0.00000502,0.00002821,-
 0.00000360,-0.00000360,-0.00001303,-0.00003175,-0.10461382,0.05952551,
 0.08686969,0.00291771,-0.00186697,-0.00053632,0.00821303,-0.00496184,-
 0.00882305,0.12908916,-0.00002916,0.00001832,-0.00003333,-0.00002627,0
 .00001774,-0.00001218,-0.00007364,-0.00000364,0.00001674,0.00005575,0.
 00028982,-0.00022215,0.00010108,-0.00007040,0.00009863,0.00000648,0.00
 000227,0.00000681,0.00000245,0.00000235,0.00000451,-0.00000266,0.00000
 260,0.00000146,-0.00000559,-0.00000528,-0.00001534,-0.00000048,-0.0000
 0663,-0.00000623,0.00003147,0.00000508,-0.00005474,0.00002729,-0.00001
 103,0.00001916,0.00005617,0.00003036,0.00000645,0.00000764,0.00002458,
 0.00000807,-0.00068010,0.00128094,0.00122101,-0.00031064,0.00026317,0.
 00006942,0.00007684,-0.00006558,-0.00028737,0.00264871,0.00021951,0.00
 076718,-0.00000203,0.00000290,-0.00001906,-0.00000163,-0.00000042,0.00
 000117,0.00000148,-0.00000092,0.00000165,-0.00000076,0.00000091,0.0000
 0151,-0.00001921,-0.00000848,-0.00001847,0.00000435,-0.00000039,0.0000
 0236,0.00000423,0.00000331,0.00000126,0.00000064,0.00000027,0.00000365
 ,-0.00001081,-0.00003018,0.00001669,-0.00000778,-0.00000256,0.00000039
 ,-0.00002013,0.00000699,-0.00003860,0.00001483,0.00000672,-0.00000620,
 0.06568925,-0.12333095,-0.10102379,-0.00877382,0.00998126,0.01198923,0
 .01408891,-0.01308463,-0.02210975,-0.07285287,0.12446198,-0.00001112,-
 0.00000565,0.00000416,-0.00000454,0.00000037,-0.00000462,-0.00002780,0
 .00002452,0.00000484,-0.00016575,0.00007815,0.00064291,-0.00006213,-0.
 00001937,-0.00004418,-0.00000492,0.00000041,0.00001410,-0.00000041,-0.
 00000082,0.00000116,0.00000116,0.00000041,-0.00000106,0.00006859,0.000
 03336,-0.00002006,-0.00000733,0.00000821,-0.00000558,-0.00014280,0.000
 02895,-0.00006544,0.00000663,-0.00000139,0.00000449,0.00000909,0.00000
 644,0.00000092,0.00002696,0.00001344,0.00001186,-0.00266491,0.00090958
 ,0.00078467,-0.00001276,-0.00008321,-0.00005284,-0.00024892,-0.0000295
 7,0.00042587,-0.00729127,0.00728624,0.01054869,-0.00000108,-0.00000077
 ,-0.00000341,-0.00000014,0.00000043,0.00000099,0.00000041,-0.00000045,
 0.00000024,-0.00000059,0.00000030,0.00000062,-0.00000683,-0.00000385,-
 0.00000467,0.00000076,0.00000015,0.00000065,0.00000115,0.00000061,-0.0
 0000042,0.00000044,-0.00000028,0.00000191,0.00000510,-0.00005062,0.000
 01075,0.00000704,0.00002008,-0.00000639,-0.00001890,-0.00001511,-0.000
 02647,-0.00000115,0.00001322,0.00000118,0.09795583,-0.10311618,-0.2007
 1370,0.01225172,-0.01493952,-0.01771250,0.00006633,0.00023205,-0.00010
 491,-0.09972786,0.10960987,0.20630624\\0.00000459,-0.00000810,0.000005
 49,0.00000512,-0.00001437,0.00003101,0.00000495,-0.00001411,0.00001358
 ,0.00000432,0.00000176,0.00000802,-0.00000661,0.00000190,-0.00001200,-
 0.00000800,-0.00001326,0.00005281,0.00000844,-0.00002946,0.00002379,-0
 .00000447,0.00000654,0.00000320,-0.00000902,0.00001883,0.00000106,0.00
 001237,-0.00001947,-0.00000305,-0.00001159,0.00000022,0.00002633,0.000
 00078,-0.00001402,0.00003572,0.00000895,-0.00001662,-0.00000585,0.0000
 2147,-0.00000686,-0.00002673,-0.00000882,0.00000018,-0.00000750,-0.000
 00200,0.00000175,0.00000907,0.00000933,-0.00000984,-0.00000969,-0.0000
 0031,0.00001556,-0.00002071,-0.00001276,0.00000056,0.00003980,-0.00002
 062,0.00001032,0.00004553,-0.00001530,0.00000321,0.00004845,-0.0000143
 1,0.00001119,0.00002636,0.00000711,-0.00001284,-0.00000455,0.00000855,
 -0.00001878,0.00001034,0.00001460,-0.00002178,-0.00001486,0.00000225,-
 0.00000198,-0.00001039,-0.00000298,0.00001439,-0.00003236,0.00000656,0
 .00001307,-0.00005049,-0.00000383,0.00002421,-0.00002977,0.00000365,0.
 00001381,-0.00003007,-0.00000234,0.00001530,-0.00003020,0.00000769,0.0
 0000463,-0.00003546,-0.00000325,0.00001649,-0.00001880,-0.00000451,0.0
 0002755,-0.00003809\\\@


 WHERE THERE IS MUCH DESIRE TO LEARN, THERE OF NECESSITY WILL BE
 MUCH ARGUING, MUCH WRITING, MANY OPINIONS; FOR OPINION IN GOOD MEN
 IS BUT KNOWLEDGE IN THE MAKING. -- JOHN MILTON.
 Job cpu time:       0 days  2 hours 12 minutes  2.7 seconds.
 Elapsed time:       0 days  0 hours 33 minutes 38.4 seconds.
 File lengths (MBytes):  RWF=    375 Int=      0 D2E=      0 Chk=     16 Scr=      1
 Normal termination of Gaussian 16 at Fri May 24 09:10:59 2019.
