 Entering Gaussian System, Link 0=g16
 Input=clay-glucose_cation-017-b3lyp_d3bj-631gd-pcm_thf.gjf
 Output=clay-glucose_cation-017-b3lyp_d3bj-631gd-pcm_thf.out
 Initial command:
 /n/sw/g16_nehalem/g16/l1.exe "/scratch/Gau-10163.inp" -scrdir="/scratch/"
 Entering Link 1 = /n/sw/g16_nehalem/g16/l1.exe PID=     10164.
  
 Copyright (c) 1988,1990,1992,1993,1995,1998,2003,2009,2016,
            Gaussian, Inc.  All Rights Reserved.
  
 This is part of the Gaussian(R) 16 program.  It is based on
 the Gaussian(R) 09 system (copyright 2009, Gaussian, Inc.),
 the Gaussian(R) 03 system (copyright 2003, Gaussian, Inc.),
 the Gaussian(R) 98 system (copyright 1998, Gaussian, Inc.),
 the Gaussian(R) 94 system (copyright 1995, Gaussian, Inc.),
 the Gaussian 92(TM) system (copyright 1992, Gaussian, Inc.),
 the Gaussian 90(TM) system (copyright 1990, Gaussian, Inc.),
 the Gaussian 88(TM) system (copyright 1988, Gaussian, Inc.),
 the Gaussian 86(TM) system (copyright 1986, Carnegie Mellon
 University), and the Gaussian 82(TM) system (copyright 1983,
 Carnegie Mellon University). Gaussian is a federally registered
 trademark of Gaussian, Inc.
  
 This software contains proprietary and confidential information,
 including trade secrets, belonging to Gaussian, Inc.
  
 This software is provided under written license and may be
 used, copied, transmitted, or stored only in accord with that
 written license.
  
 The following legend is applicable only to US Government
 contracts under FAR:
  
                    RESTRICTED RIGHTS LEGEND
  
 Use, reproduction and disclosure by the US Government is
 subject to restrictions as set forth in subparagraphs (a)
 and (c) of the Commercial Computer Software - Restricted
 Rights clause in FAR 52.227-19.
  
 Gaussian, Inc.
 340 Quinnipiac St., Bldg. 40, Wallingford CT 06492
  
  
 ---------------------------------------------------------------
 Warning -- This program may not be used in any manner that
 competes with the business of Gaussian, Inc. or will provide
 assistance to any competitor of Gaussian, Inc.  The licensee
 of this program is prohibited from giving any competitor of
 Gaussian, Inc. access to this program.  By using this program,
 the user acknowledges that Gaussian, Inc. is engaged in the
 business of creating and licensing software in the field of
 computational chemistry and represents and warrants to the
 licensee that it is not a competitor of Gaussian, Inc. and that
 it will not use this program in any manner prohibited above.
 ---------------------------------------------------------------
  

 Cite this work as:
 Gaussian 16, Revision A.03,
 M. J. Frisch, G. W. Trucks, H. B. Schlegel, G. E. Scuseria, 
 M. A. Robb, J. R. Cheeseman, G. Scalmani, V. Barone, 
 G. A. Petersson, H. Nakatsuji, X. Li, M. Caricato, A. V. Marenich, 
 J. Bloino, B. G. Janesko, R. Gomperts, B. Mennucci, H. P. Hratchian, 
 J. V. Ortiz, A. F. Izmaylov, J. L. Sonnenberg, D. Williams-Young, 
 F. Ding, F. Lipparini, F. Egidi, J. Goings, B. Peng, A. Petrone, 
 T. Henderson, D. Ranasinghe, V. G. Zakrzewski, J. Gao, N. Rega, 
 G. Zheng, W. Liang, M. Hada, M. Ehara, K. Toyota, R. Fukuda, 
 J. Hasegawa, M. Ishida, T. Nakajima, Y. Honda, O. Kitao, H. Nakai, 
 T. Vreven, K. Throssell, J. A. Montgomery, Jr., J. E. Peralta, 
 F. Ogliaro, M. J. Bearpark, J. J. Heyd, E. N. Brothers, K. N. Kudin, 
 V. N. Staroverov, T. A. Keith, R. Kobayashi, J. Normand, 
 K. Raghavachari, A. P. Rendell, J. C. Burant, S. S. Iyengar, 
 J. Tomasi, M. Cossi, J. M. Millam, M. Klene, C. Adamo, R. Cammi, 
 J. W. Ochterski, R. L. Martin, K. Morokuma, O. Farkas, 
 J. B. Foresman, and D. J. Fox, Gaussian, Inc., Wallingford CT, 2016.
 
 ******************************************
 Gaussian 16:  ES64L-G16RevA.03 25-Dec-2016
                24-May-2019 
 ******************************************
 %nprocshared=4
 Will use up to    4 processors via shared memory.
 %mem=3GB
 -------------------------------------------------------------------
 #p b3lyp 6-31g* opt freq=noraman scrf=(pcm,solvent=tetrahydrofuran)
 -------------------------------------------------------------------
 1/18=20,19=15,26=3,38=1/1,3;
 2/9=110,12=2,17=6,18=5,40=1/2;
 3/5=1,6=6,7=1,11=2,25=1,30=1,70=2201,71=1,72=20,74=-5/1,2,3;
 4//1;
 5/5=2,38=5,53=20/2;
 6/7=2,8=2,9=2,10=2,28=1/1;
 7//1,2,3,16;
 1/18=20,19=15,26=3/3(2);
 2/9=110/2;
 99//99;
 2/9=110/2;
 3/5=1,6=6,7=1,11=2,25=1,30=1,70=2205,71=1,72=20,74=-5/1,2,3;
 4/5=5,16=3,69=1/1;
 5/5=2,38=5,53=20/2;
 7//1,2,3,16;
 1/18=20,19=15,26=3/3(-5);
 2/9=110/2;
 6/7=2,8=2,9=2,10=2,19=2,28=1/1;
 99/9=1/99;
 Leave Link    1 at Fri May 24 08:31:31 2019, MaxMem=   402653184 cpu:               0.6 elap:               0.4
 (Enter /n/sw/g16_nehalem/g16/l101.exe)
 -----
 title
 -----
 Symbolic Z-matrix:
 Charge =  1 Multiplicity = 1
 6                     1.1702    0.31841  -0.17362 
 6                     1.24586  -1.19424  -0.48513 
 6                     0.27553  -2.00854   0.30744 
 6                    -1.15802  -0.12278   0.88208 
 6                    -0.3219    0.72472  -0.10152 
 1                     0.43974  -3.08286   0.4135 
 1                     0.87691  -1.30408  -1.52274 
 1                     1.68126   0.52858   0.77602 
 1                    -0.96554   0.13528   1.92486 
 1                    -0.7383    0.58116  -1.10246 
 8                    -0.7679   -1.58468   0.8556 
 8                     2.50579  -1.80117  -0.47837 
 8                     1.82364   0.94077  -1.25061 
 8                    -0.53899   2.09731   0.16646 
 6                    -2.64919  -0.10989   0.60585 
 1                    -2.99343   0.92832   0.7322 
 1                    -3.16845  -0.7337    1.34857 
 8                    -2.85234  -0.58202  -0.70346 
 6                     3.25155  -1.69925   0.74335 
 1                     2.65308  -1.99546   1.61728 
 1                     4.08727  -2.39128   0.6356 
 1                     3.63995  -0.68686   0.8946 
 6                     2.40963   2.21861  -0.9927 
 1                     3.06493   2.18279  -0.11221 
 1                     3.01106   2.45479  -1.87259 
 1                     1.64695   2.99056  -0.85473 
 6                    -0.13149   2.62665   1.43442 
 1                    -0.25262   3.7073    1.34699 
 1                    -0.76399   2.2708    2.25618 
 1                     0.91665   2.40764   1.66438 
 6                    -4.22192  -0.5637   -1.09328 
 1                    -4.82865  -1.20553  -0.43977 
 1                    -4.62764   0.45697  -1.06928 
 1                    -4.26233  -0.94611  -2.1147 
 
 ITRead=  0  0  0  0  0  0  0  0  0  0  0  0  0  0  0  0  0  0  0  0
 ITRead=  0  0  0  0  0  0  0  0  0  0  0  0  0  0
 MicOpt= -1 -1 -1 -1 -1 -1 -1 -1 -1 -1 -1 -1 -1 -1 -1 -1 -1 -1 -1 -1
 MicOpt= -1 -1 -1 -1 -1 -1 -1 -1 -1 -1 -1 -1 -1 -1
 NAtoms=     34 NQM=       34 NQMF=       0 NMMI=      0 NMMIF=      0
                NMic=       0 NMicF=      0.
                    Isotopes and Nuclear Properties:
 (Nuclear quadrupole moments (NQMom) in fm**2, nuclear magnetic moments (NMagM)
  in nuclear magnetons)

  Atom         1           2           3           4           5           6           7           8           9          10
 IAtWgt=          12          12          12          12          12           1           1           1           1           1
 AtmWgt=  12.0000000  12.0000000  12.0000000  12.0000000  12.0000000   1.0078250   1.0078250   1.0078250   1.0078250   1.0078250
 NucSpn=           0           0           0           0           0           1           1           1           1           1
 AtZEff=   0.0000000   0.0000000   0.0000000   0.0000000   0.0000000   0.0000000   0.0000000   0.0000000   0.0000000   0.0000000
 NQMom=    0.0000000   0.0000000   0.0000000   0.0000000   0.0000000   0.0000000   0.0000000   0.0000000   0.0000000   0.0000000
 NMagM=    0.0000000   0.0000000   0.0000000   0.0000000   0.0000000   2.7928460   2.7928460   2.7928460   2.7928460   2.7928460
 AtZNuc=   6.0000000   6.0000000   6.0000000   6.0000000   6.0000000   1.0000000   1.0000000   1.0000000   1.0000000   1.0000000

  Atom        11          12          13          14          15          16          17          18          19          20
 IAtWgt=          16          16          16          16          12           1           1          16          12           1
 AtmWgt=  15.9949146  15.9949146  15.9949146  15.9949146  12.0000000   1.0078250   1.0078250  15.9949146  12.0000000   1.0078250
 NucSpn=           0           0           0           0           0           1           1           0           0           1
 AtZEff=   0.0000000   0.0000000   0.0000000   0.0000000   0.0000000   0.0000000   0.0000000   0.0000000   0.0000000   0.0000000
 NQMom=    0.0000000   0.0000000   0.0000000   0.0000000   0.0000000   0.0000000   0.0000000   0.0000000   0.0000000   0.0000000
 NMagM=    0.0000000   0.0000000   0.0000000   0.0000000   0.0000000   2.7928460   2.7928460   0.0000000   0.0000000   2.7928460
 AtZNuc=   8.0000000   8.0000000   8.0000000   8.0000000   6.0000000   1.0000000   1.0000000   8.0000000   6.0000000   1.0000000

  Atom        21          22          23          24          25          26          27          28          29          30
 IAtWgt=           1           1          12           1           1           1          12           1           1           1
 AtmWgt=   1.0078250   1.0078250  12.0000000   1.0078250   1.0078250   1.0078250  12.0000000   1.0078250   1.0078250   1.0078250
 NucSpn=           1           1           0           1           1           1           0           1           1           1
 AtZEff=   0.0000000   0.0000000   0.0000000   0.0000000   0.0000000   0.0000000   0.0000000   0.0000000   0.0000000   0.0000000
 NQMom=    0.0000000   0.0000000   0.0000000   0.0000000   0.0000000   0.0000000   0.0000000   0.0000000   0.0000000   0.0000000
 NMagM=    2.7928460   2.7928460   0.0000000   2.7928460   2.7928460   2.7928460   0.0000000   2.7928460   2.7928460   2.7928460
 AtZNuc=   1.0000000   1.0000000   6.0000000   1.0000000   1.0000000   1.0000000   6.0000000   1.0000000   1.0000000   1.0000000

  Atom        31          32          33          34
 IAtWgt=          12           1           1           1
 AtmWgt=  12.0000000   1.0078250   1.0078250   1.0078250
 NucSpn=           0           1           1           1
 AtZEff=   0.0000000   0.0000000   0.0000000   0.0000000
 NQMom=    0.0000000   0.0000000   0.0000000   0.0000000
 NMagM=    0.0000000   2.7928460   2.7928460   2.7928460
 AtZNuc=   6.0000000   1.0000000   1.0000000   1.0000000
 Leave Link  101 at Fri May 24 08:31:32 2019, MaxMem=   402653184 cpu:               1.2 elap:               0.7
 (Enter /n/sw/g16_nehalem/g16/l103.exe)

 GradGradGradGradGradGradGradGradGradGradGradGradGradGradGradGradGradGrad
 Berny optimization.
 Initialization pass.
                           ----------------------------
                           !    Initial Parameters    !
                           ! (Angstroms and Degrees)  !
 --------------------------                            --------------------------
 ! Name  Definition              Value          Derivative Info.                !
 --------------------------------------------------------------------------------
 ! R1    R(1,2)                  1.5462         estimate D2E/DX2                !
 ! R2    R(1,5)                  1.5481         estimate D2E/DX2                !
 ! R3    R(1,8)                  1.0987         estimate D2E/DX2                !
 ! R4    R(1,13)                 1.4051         estimate D2E/DX2                !
 ! R5    R(2,3)                  1.4942         estimate D2E/DX2                !
 ! R6    R(2,7)                  1.1067         estimate D2E/DX2                !
 ! R7    R(2,12)                 1.3985         estimate D2E/DX2                !
 ! R8    R(3,6)                  1.092          estimate D2E/DX2                !
 ! R9    R(3,11)                 1.2526         estimate D2E/DX2                !
 ! R10   R(4,5)                  1.5443         estimate D2E/DX2                !
 ! R11   R(4,9)                  1.0913         estimate D2E/DX2                !
 ! R12   R(4,11)                 1.5133         estimate D2E/DX2                !
 ! R13   R(4,15)                 1.5166         estimate D2E/DX2                !
 ! R14   R(5,10)                 1.0936         estimate D2E/DX2                !
 ! R15   R(5,14)                 1.4153         estimate D2E/DX2                !
 ! R16   R(12,19)                1.435          estimate D2E/DX2                !
 ! R17   R(13,23)                1.4293         estimate D2E/DX2                !
 ! R18   R(14,27)                1.4332         estimate D2E/DX2                !
 ! R19   R(15,16)                1.1011         estimate D2E/DX2                !
 ! R20   R(15,17)                1.1002         estimate D2E/DX2                !
 ! R21   R(15,18)                1.4066         estimate D2E/DX2                !
 ! R22   R(18,31)                1.4241         estimate D2E/DX2                !
 ! R23   R(19,20)                1.0998         estimate D2E/DX2                !
 ! R24   R(19,21)                1.0904         estimate D2E/DX2                !
 ! R25   R(19,22)                1.0948         estimate D2E/DX2                !
 ! R26   R(23,24)                1.0982         estimate D2E/DX2                !
 ! R27   R(23,25)                1.0917         estimate D2E/DX2                !
 ! R28   R(23,26)                1.0939         estimate D2E/DX2                !
 ! R29   R(27,28)                1.0909         estimate D2E/DX2                !
 ! R30   R(27,29)                1.0963         estimate D2E/DX2                !
 ! R31   R(27,30)                1.0952         estimate D2E/DX2                !
 ! R32   R(31,32)                1.0987         estimate D2E/DX2                !
 ! R33   R(31,33)                1.0986         estimate D2E/DX2                !
 ! R34   R(31,34)                1.0914         estimate D2E/DX2                !
 ! A1    A(2,1,5)              108.2581         estimate D2E/DX2                !
 ! A2    A(2,1,8)              109.7851         estimate D2E/DX2                !
 ! A3    A(2,1,13)             104.841          estimate D2E/DX2                !
 ! A4    A(5,1,8)              110.969          estimate D2E/DX2                !
 ! A5    A(5,1,13)             111.5727         estimate D2E/DX2                !
 ! A6    A(8,1,13)             111.1894         estimate D2E/DX2                !
 ! A7    A(1,2,3)              113.2339         estimate D2E/DX2                !
 ! A8    A(1,2,7)              105.6442         estimate D2E/DX2                !
 ! A9    A(1,2,12)             117.8827         estimate D2E/DX2                !
 ! A10   A(3,2,7)              103.1044         estimate D2E/DX2                !
 ! A11   A(3,2,12)             110.2406         estimate D2E/DX2                !
 ! A12   A(7,2,12)             105.1761         estimate D2E/DX2                !
 ! A13   A(2,3,6)              119.3419         estimate D2E/DX2                !
 ! A14   A(2,3,11)             126.0628         estimate D2E/DX2                !
 ! A15   A(6,3,11)             114.5632         estimate D2E/DX2                !
 ! A16   A(5,4,9)              112.5398         estimate D2E/DX2                !
 ! A17   A(5,4,11)             112.2986         estimate D2E/DX2                !
 ! A18   A(5,4,15)             114.3103         estimate D2E/DX2                !
 ! A19   A(9,4,11)             101.5182         estimate D2E/DX2                !
 ! A20   A(9,4,15)             110.2088         estimate D2E/DX2                !
 ! A21   A(11,4,15)            104.981          estimate D2E/DX2                !
 ! A22   A(1,5,4)              114.0459         estimate D2E/DX2                !
 ! A23   A(1,5,10)             106.853          estimate D2E/DX2                !
 ! A24   A(1,5,14)             114.2806         estimate D2E/DX2                !
 ! A25   A(4,5,10)             107.7445         estimate D2E/DX2                !
 ! A26   A(4,5,14)             109.1834         estimate D2E/DX2                !
 ! A27   A(10,5,14)            104.0181         estimate D2E/DX2                !
 ! A28   A(3,11,4)             123.3204         estimate D2E/DX2                !
 ! A29   A(2,12,19)            116.1991         estimate D2E/DX2                !
 ! A30   A(1,13,23)            116.6391         estimate D2E/DX2                !
 ! A31   A(5,14,27)            118.8241         estimate D2E/DX2                !
 ! A32   A(4,15,16)            107.1284         estimate D2E/DX2                !
 ! A33   A(4,15,17)            109.6505         estimate D2E/DX2                !
 ! A34   A(4,15,18)            107.9806         estimate D2E/DX2                !
 ! A35   A(16,15,17)           108.0354         estimate D2E/DX2                !
 ! A36   A(16,15,18)           112.2203         estimate D2E/DX2                !
 ! A37   A(17,15,18)           111.7105         estimate D2E/DX2                !
 ! A38   A(15,18,31)           112.9157         estimate D2E/DX2                !
 ! A39   A(12,19,20)           111.9989         estimate D2E/DX2                !
 ! A40   A(12,19,21)           105.6115         estimate D2E/DX2                !
 ! A41   A(12,19,22)           111.5709         estimate D2E/DX2                !
 ! A42   A(20,19,21)           108.9446         estimate D2E/DX2                !
 ! A43   A(20,19,22)           109.4091         estimate D2E/DX2                !
 ! A44   A(21,19,22)           109.1849         estimate D2E/DX2                !
 ! A45   A(13,23,24)           111.111          estimate D2E/DX2                !
 ! A46   A(13,23,25)           105.8941         estimate D2E/DX2                !
 ! A47   A(13,23,26)           111.5813         estimate D2E/DX2                !
 ! A48   A(24,23,25)           108.9388         estimate D2E/DX2                !
 ! A49   A(24,23,26)           109.751          estimate D2E/DX2                !
 ! A50   A(25,23,26)           109.4575         estimate D2E/DX2                !
 ! A51   A(14,27,28)           105.2715         estimate D2E/DX2                !
 ! A52   A(14,27,29)           112.2852         estimate D2E/DX2                !
 ! A53   A(14,27,30)           112.5837         estimate D2E/DX2                !
 ! A54   A(28,27,29)           108.5137         estimate D2E/DX2                !
 ! A55   A(28,27,30)           108.7344         estimate D2E/DX2                !
 ! A56   A(29,27,30)           109.259          estimate D2E/DX2                !
 ! A57   A(18,31,32)           111.1467         estimate D2E/DX2                !
 ! A58   A(18,31,33)           111.1698         estimate D2E/DX2                !
 ! A59   A(18,31,34)           106.6948         estimate D2E/DX2                !
 ! A60   A(32,31,33)           109.0142         estimate D2E/DX2                !
 ! A61   A(32,31,34)           109.3618         estimate D2E/DX2                !
 ! A62   A(33,31,34)           109.408          estimate D2E/DX2                !
 ! D1    D(5,1,2,3)            -43.6759         estimate D2E/DX2                !
 ! D2    D(5,1,2,7)             68.4379         estimate D2E/DX2                !
 ! D3    D(5,1,2,12)          -174.4503         estimate D2E/DX2                !
 ! D4    D(8,1,2,3)             77.5995         estimate D2E/DX2                !
 ! D5    D(8,1,2,7)           -170.2867         estimate D2E/DX2                !
 ! D6    D(8,1,2,12)           -53.1749         estimate D2E/DX2                !
 ! D7    D(13,1,2,3)          -162.882          estimate D2E/DX2                !
 ! D8    D(13,1,2,7)           -50.7682         estimate D2E/DX2                !
 ! D9    D(13,1,2,12)           66.3436         estimate D2E/DX2                !
 ! D10   D(2,1,5,4)             54.0026         estimate D2E/DX2                !
 ! D11   D(2,1,5,10)           -64.9361         estimate D2E/DX2                !
 ! D12   D(2,1,5,14)          -179.4123         estimate D2E/DX2                !
 ! D13   D(8,1,5,4)            -66.5383         estimate D2E/DX2                !
 ! D14   D(8,1,5,10)           174.523          estimate D2E/DX2                !
 ! D15   D(8,1,5,14)            60.0469         estimate D2E/DX2                !
 ! D16   D(13,1,5,4)           168.8669         estimate D2E/DX2                !
 ! D17   D(13,1,5,10)           49.9281         estimate D2E/DX2                !
 ! D18   D(13,1,5,14)          -64.548          estimate D2E/DX2                !
 ! D19   D(2,1,13,23)         -153.9239         estimate D2E/DX2                !
 ! D20   D(5,1,13,23)           89.1212         estimate D2E/DX2                !
 ! D21   D(8,1,13,23)          -35.3502         estimate D2E/DX2                !
 ! D22   D(1,2,3,6)           -160.9075         estimate D2E/DX2                !
 ! D23   D(1,2,3,11)            21.2744         estimate D2E/DX2                !
 ! D24   D(7,2,3,6)             85.4365         estimate D2E/DX2                !
 ! D25   D(7,2,3,11)           -92.3816         estimate D2E/DX2                !
 ! D26   D(12,2,3,6)           -26.4218         estimate D2E/DX2                !
 ! D27   D(12,2,3,11)          155.7601         estimate D2E/DX2                !
 ! D28   D(1,2,12,19)           57.8498         estimate D2E/DX2                !
 ! D29   D(3,2,12,19)          -74.2762         estimate D2E/DX2                !
 ! D30   D(7,2,12,19)          175.2122         estimate D2E/DX2                !
 ! D31   D(2,3,11,4)            -4.7852         estimate D2E/DX2                !
 ! D32   D(6,3,11,4)           177.306          estimate D2E/DX2                !
 ! D33   D(9,4,5,1)             74.907          estimate D2E/DX2                !
 ! D34   D(9,4,5,10)          -166.6617         estimate D2E/DX2                !
 ! D35   D(9,4,5,14)           -54.2901         estimate D2E/DX2                !
 ! D36   D(11,4,5,1)           -38.9133         estimate D2E/DX2                !
 ! D37   D(11,4,5,10)           79.518          estimate D2E/DX2                !
 ! D38   D(11,4,5,14)         -168.1104         estimate D2E/DX2                !
 ! D39   D(15,4,5,1)          -158.3745         estimate D2E/DX2                !
 ! D40   D(15,4,5,10)          -39.9432         estimate D2E/DX2                !
 ! D41   D(15,4,5,14)           72.4284         estimate D2E/DX2                !
 ! D42   D(5,4,11,3)            13.2649         estimate D2E/DX2                !
 ! D43   D(9,4,11,3)          -107.1589         estimate D2E/DX2                !
 ! D44   D(15,4,11,3)          138.0395         estimate D2E/DX2                !
 ! D45   D(5,4,15,16)          -62.9291         estimate D2E/DX2                !
 ! D46   D(5,4,15,17)         -179.9332         estimate D2E/DX2                !
 ! D47   D(5,4,15,18)           58.1391         estimate D2E/DX2                !
 ! D48   D(9,4,15,16)           64.9863         estimate D2E/DX2                !
 ! D49   D(9,4,15,17)          -52.0177         estimate D2E/DX2                !
 ! D50   D(9,4,15,18)         -173.9455         estimate D2E/DX2                !
 ! D51   D(11,4,15,16)         173.5747         estimate D2E/DX2                !
 ! D52   D(11,4,15,17)          56.5706         estimate D2E/DX2                !
 ! D53   D(11,4,15,18)         -65.3571         estimate D2E/DX2                !
 ! D54   D(1,5,14,27)          -65.2642         estimate D2E/DX2                !
 ! D55   D(4,5,14,27)           63.8035         estimate D2E/DX2                !
 ! D56   D(10,5,14,27)         178.6038         estimate D2E/DX2                !
 ! D57   D(2,12,19,20)          49.9886         estimate D2E/DX2                !
 ! D58   D(2,12,19,21)         168.4421         estimate D2E/DX2                !
 ! D59   D(2,12,19,22)         -73.0441         estimate D2E/DX2                !
 ! D60   D(1,13,23,24)          52.0329         estimate D2E/DX2                !
 ! D61   D(1,13,23,25)         170.176          estimate D2E/DX2                !
 ! D62   D(1,13,23,26)         -70.8056         estimate D2E/DX2                !
 ! D63   D(5,14,27,28)         171.3644         estimate D2E/DX2                !
 ! D64   D(5,14,27,29)         -70.7556         estimate D2E/DX2                !
 ! D65   D(5,14,27,30)          53.0604         estimate D2E/DX2                !
 ! D66   D(4,15,18,31)        -177.664          estimate D2E/DX2                !
 ! D67   D(16,15,18,31)        -59.8208         estimate D2E/DX2                !
 ! D68   D(17,15,18,31)         61.6878         estimate D2E/DX2                !
 ! D69   D(15,18,31,32)        -60.861          estimate D2E/DX2                !
 ! D70   D(15,18,31,33)         60.7671         estimate D2E/DX2                !
 ! D71   D(15,18,31,34)        179.9875         estimate D2E/DX2                !
 --------------------------------------------------------------------------------
 Trust Radius=3.00D-01 FncErr=1.00D-07 GrdErr=1.00D-06 EigMax=2.50D+02 EigMin=1.00D-04
 Number of steps in this run=    177 maximum allowed number of steps=    204.
 GradGradGradGradGradGradGradGradGradGradGradGradGradGradGradGradGradGrad

 Leave Link  103 at Fri May 24 08:31:32 2019, MaxMem=   402653184 cpu:               0.3 elap:               0.2
 (Enter /n/sw/g16_nehalem/g16/l202.exe)
                          Input orientation:                          
 ---------------------------------------------------------------------
 Center     Atomic      Atomic             Coordinates (Angstroms)
 Number     Number       Type             X           Y           Z
 ---------------------------------------------------------------------
      1          6           0        1.170197    0.318410   -0.173619
      2          6           0        1.245858   -1.194237   -0.485126
      3          6           0        0.275534   -2.008538    0.307440
      4          6           0       -1.158024   -0.122777    0.882079
      5          6           0       -0.321901    0.724720   -0.101522
      6          1           0        0.439743   -3.082857    0.413502
      7          1           0        0.876914   -1.304080   -1.522744
      8          1           0        1.681263    0.528577    0.776024
      9          1           0       -0.965540    0.135280    1.924858
     10          1           0       -0.738304    0.581158   -1.102462
     11          8           0       -0.767900   -1.584678    0.855599
     12          8           0        2.505791   -1.801166   -0.478374
     13          8           0        1.823644    0.940771   -1.250611
     14          8           0       -0.538993    2.097310    0.166463
     15          6           0       -2.649191   -0.109888    0.605846
     16          1           0       -2.993431    0.928320    0.732201
     17          1           0       -3.168449   -0.733696    1.348567
     18          8           0       -2.852336   -0.582024   -0.703461
     19          6           0        3.251552   -1.699252    0.743354
     20          1           0        2.653083   -1.995459    1.617276
     21          1           0        4.087273   -2.391276    0.635600
     22          1           0        3.639951   -0.686864    0.894595
     23          6           0        2.409634    2.218610   -0.992698
     24          1           0        3.064926    2.182792   -0.112214
     25          1           0        3.011061    2.454787   -1.872590
     26          1           0        1.646945    2.990556   -0.854727
     27          6           0       -0.131486    2.626647    1.434420
     28          1           0       -0.252615    3.707300    1.346991
     29          1           0       -0.763988    2.270799    2.256182
     30          1           0        0.916653    2.407637    1.664382
     31          6           0       -4.221925   -0.563700   -1.093279
     32          1           0       -4.828654   -1.205527   -0.439772
     33          1           0       -4.627637    0.456974   -1.069284
     34          1           0       -4.262333   -0.946109   -2.114697
 ---------------------------------------------------------------------
                    Distance matrix (angstroms):
                    1          2          3          4          5
     1  C    0.000000
     2  C    1.546241   0.000000
     3  C    2.539001   1.494248   0.000000
     4  C    2.594178   2.965792   2.437497   0.000000
     5  C    1.548109   2.507472   2.827521   1.544287   0.000000
     6  H    3.528015   2.241481   1.091959   3.396248   3.917013
     7  H    2.130405   1.106723   2.051217   3.364465   2.751919
     8  H    1.098718   2.179028   2.938128   2.914972   2.195729
     9  H    2.999752   3.530711   2.958422   1.091344   2.206338
    10  H    2.138729   2.733136   3.118047   2.147113   1.093564
    11  O    2.904695   2.450553   1.252553   1.513292   2.539353
    12  O    2.523745   1.398513   2.373721   4.253394   3.810244
    13  O    1.405076   2.340526   3.677308   3.817047   2.443450
    14  O    2.490275   3.800598   4.188235   2.413316   1.415256
    15  C    3.921572   4.187773   3.499705   1.516592   2.571618
    16  H    4.304451   4.894763   4.414939   2.120374   2.805997
    17  H    4.716760   4.802149   3.817091   2.152357   3.511776
    18  O    4.155994   4.149418   3.583355   2.365489   2.910844
    19  C    3.040368   2.405621   3.023634   4.684963   4.399889
    20  H    3.280281   2.653739   2.714513   4.309523   4.382256
    21  H    4.062827   3.280635   3.844936   5.720138   5.449183
    22  H    2.872515   2.809402   3.662086   4.831037   4.322163
    23  C    2.412023   3.641364   4.910552   4.661015   3.238392
    24  H    2.658889   3.853881   5.052135   4.913000   3.687368
    25  H    3.292323   4.284434   5.670706   5.622571   4.151921
    26  H    2.798493   4.220186   5.312470   4.536209   3.094784
    27  C    3.099698   4.492314   4.787556   2.986334   2.452081
    28  H    3.977590   5.443082   5.833559   3.963004   3.316440
    29  H    3.668355   4.853939   4.815696   2.787944   2.853869
    30  H    2.794173   4.207405   4.664218   3.364413   2.735807
    31  C    5.540656   5.537516   4.927140   3.672049   4.225375
    32  H    6.195114   6.074692   5.220717   4.048847   4.914376
    33  H    5.868245   6.129085   5.658198   4.022703   4.421268
    34  H    5.905859   5.749542   5.252403   4.392639   4.729857
                    6          7          8          9         10
     6  H    0.000000
     7  H    2.665373   0.000000
     8  H    3.836046   3.047941   0.000000
     9  H    3.823012   4.165616   2.912056   0.000000
    10  H    4.136538   2.517874   3.063622   3.068405   0.000000
    11  O    1.974435   2.905282   3.235827   2.034854   2.919884
    12  O    2.589735   1.997760   2.771473   4.644942   4.072973
    13  O    4.568811   2.451471   2.073023   4.302553   2.591302
    14  O    5.277602   4.053106   2.786041   2.668981   1.987112
    15  C    4.291510   4.288404   4.380574   2.152808   2.654685
    16  H    5.289404   5.004793   4.691959   2.482677   2.927816
    17  H    4.405900   4.993468   5.043892   2.437219   3.693506
    18  O    4.282471   3.885858   4.896512   3.313998   2.445675
    19  C    3.151101   3.306095   2.725820   4.748192   4.952399
    20  H    2.744154   3.673215   2.832472   4.210592   5.053458
    21  H    3.719151   4.018314   3.786046   5.794531   5.928104
    22  H    4.026607   3.722749   2.308206   4.790398   4.976468
    23  C    5.827814   3.878083   2.552472   4.923840   3.550044
    24  H    5.907201   4.351467   2.332363   4.958490   4.243864
    25  H    6.519463   4.336595   3.534658   5.967753   4.261610
    26  H    6.320766   4.413966   2.953281   4.764847   3.399409
    27  C    5.828123   5.021186   2.849814   2.672655   3.314819
    28  H    6.888904   5.884313   3.764328   3.688024   4.001060
    29  H    5.788443   5.454594   3.347455   2.170447   3.759792
    30  H    5.651342   4.892463   2.214650   2.962112   3.705447
    31  C    5.508874   5.170180   6.287686   4.494638   3.666933
    32  H    5.657601   5.808274   6.845750   4.723652   4.512468
    33  H    6.356681   5.797156   6.573622   4.741237   3.891456
    34  H    5.750391   5.185597   6.771802   5.325059   3.971894
                   11         12         13         14         15
    11  O    0.000000
    12  O    3.541667   0.000000
    13  O    4.186898   2.929145   0.000000
    14  O    3.752911   4.988451   2.987932   0.000000
    15  C    2.403464   5.532612   4.955459   3.085080   0.000000
    16  H    3.359073   6.257558   5.209214   2.776844   1.101064
    17  H    2.594190   6.055923   5.872015   4.040545   1.100182
    18  O    2.789419   5.499681   4.948037   3.645155   1.406579
    19  C    4.022651   1.434979   3.603407   5.395824   6.112590
    20  H    3.528742   2.109785   4.187385   5.389338   5.717734
    21  H    4.926632   2.022437   4.447960   6.462958   7.112353
    22  H    4.498527   2.100722   3.248088   5.073990   6.322150
    23  C    5.289416   4.053687   1.429257   3.170610   5.793872
    24  H    5.460865   4.039632   2.092688   3.615688   6.198639
    25  H    6.167726   4.506914   2.022143   4.109551   6.690191
    26  H    5.448803   4.882608   2.095129   2.572750   5.495708
    27  C    4.298292   5.497230   3.724796   1.433169   3.809724
    28  H    5.339664   6.425259   4.325745   2.016861   4.567691
    29  H    4.101994   5.894926   4.556579   2.108944   3.456193
    30  H    4.407996   4.983050   3.386962   2.111627   4.491511
    31  C    4.095218   6.868158   6.231941   4.715073   2.359335
    32  H    4.279190   7.358693   7.036840   5.447701   2.654016
    33  H    4.771906   7.505609   6.471937   4.575454   2.653609
    34  H    4.630496   7.015424   6.430092   5.322532   3.271521
                   16         17         18         19         20
    16  H    0.000000
    17  H    1.781245   0.000000
    18  O    2.088581   2.081766   0.000000
    19  C    6.775254   6.520352   6.371728   0.000000
    20  H    6.419888   5.962758   6.139483   1.099838   0.000000
    21  H    7.820832   7.476724   7.295523   1.090384   1.782487
    22  H    6.829125   6.823679   6.686895   1.094832   1.791256
    23  C    5.816634   6.731467   5.967875   4.367190   4.962823
    24  H    6.244231   7.035250   6.558031   3.979584   4.540763
    25  H    6.720786   7.663460   6.705856   4.914981   5.666745
    26  H    5.320174   6.473992   5.747150   5.207968   5.655392
    27  C    3.401199   4.530168   4.719018   5.534972   5.399178
    28  H    3.951300   5.312677   5.418598   6.471041   6.406059
    29  H    3.015822   3.953756   4.610779   5.845897   5.503229
    30  H    4.283234   5.162923   5.361906   4.813168   4.733356
    31  C    2.658514   2.664831   1.424102   7.779175   7.527468
    32  H    3.048748   2.485369   2.089048   8.181276   7.799476
    33  H    2.477528   3.064788   2.089267   8.367591   8.138852
    34  H    3.637090   3.638118   2.027865   8.074289   7.927909
                   21         22         23         24         25
    21  H    0.000000
    22  H    1.781066   0.000000
    23  C    5.168837   3.676593   0.000000
    24  H    4.746211   3.095035   1.098154   0.000000
    25  H    5.561796   4.233531   1.091652   1.782079   0.000000
    26  H    6.094292   4.533830   1.093906   1.792897   1.784350
    27  C    6.604210   5.049208   3.537610   3.578566   4.565244
    28  H    7.518865   5.887734   3.844205   3.931855   4.752481
    29  H    6.920691   5.476894   4.542006   4.503069   5.597464
    30  H    5.843012   4.193431   3.053653   2.796771   4.110832
    31  C    8.681695   8.110235   7.192283   7.848815   7.876209
    32  H    9.058487   8.588761   8.026410   8.596313   8.769949
    33  H    9.325707   8.574275   7.254820   7.941660   7.936389
    34  H    8.908904   8.459855   7.469235   8.215150   8.032868
                   26         27         28         29         30
    26  H    0.000000
    27  C    2.921548   0.000000
    28  H    2.994931   1.090929   0.000000
    29  H    4.001050   1.096348   1.775293   0.000000
    30  H    2.686825   1.095191   1.776809   1.787038   0.000000
    31  C    6.865368   5.770552   6.320742   5.586645   6.545114
    32  H    7.727398   6.345198   6.947555   5.989534   7.105700
    33  H    6.770188   5.584925   5.961864   5.410773   6.482065
    34  H    7.211409   6.513426   7.050910   6.456895   7.235395
                   31         32         33         34
    31  C    0.000000
    32  H    1.098696   0.000000
    33  H    1.098614   1.789023   0.000000
    34  H    1.091405   1.787006   1.787450   0.000000
 Stoichiometry    C10H19O5(1+)
 Framework group  C1[X(C10H19O5)]
 Deg. of freedom    96
 Full point group                 C1      NOp   1
 Largest Abelian subgroup         C1      NOp   1
 Largest concise Abelian subgroup C1      NOp   1
                         Standard orientation:                         
 ---------------------------------------------------------------------
 Center     Atomic      Atomic             Coordinates (Angstroms)
 Number     Number       Type             X           Y           Z
 ---------------------------------------------------------------------
      1          6           0        1.170197    0.318410   -0.173619
      2          6           0        1.245858   -1.194237   -0.485126
      3          6           0        0.275534   -2.008538    0.307440
      4          6           0       -1.158024   -0.122777    0.882079
      5          6           0       -0.321901    0.724720   -0.101522
      6          1           0        0.439743   -3.082857    0.413502
      7          1           0        0.876914   -1.304080   -1.522744
      8          1           0        1.681263    0.528577    0.776024
      9          1           0       -0.965540    0.135280    1.924858
     10          1           0       -0.738304    0.581158   -1.102462
     11          8           0       -0.767900   -1.584678    0.855599
     12          8           0        2.505791   -1.801166   -0.478374
     13          8           0        1.823644    0.940771   -1.250611
     14          8           0       -0.538993    2.097310    0.166463
     15          6           0       -2.649191   -0.109888    0.605846
     16          1           0       -2.993431    0.928320    0.732201
     17          1           0       -3.168449   -0.733696    1.348567
     18          8           0       -2.852336   -0.582024   -0.703461
     19          6           0        3.251552   -1.699252    0.743354
     20          1           0        2.653083   -1.995459    1.617276
     21          1           0        4.087273   -2.391276    0.635600
     22          1           0        3.639951   -0.686864    0.894595
     23          6           0        2.409634    2.218610   -0.992698
     24          1           0        3.064926    2.182792   -0.112214
     25          1           0        3.011061    2.454787   -1.872590
     26          1           0        1.646945    2.990556   -0.854727
     27          6           0       -0.131486    2.626647    1.434420
     28          1           0       -0.252615    3.707300    1.346991
     29          1           0       -0.763988    2.270799    2.256182
     30          1           0        0.916653    2.407637    1.664382
     31          6           0       -4.221925   -0.563700   -1.093279
     32          1           0       -4.828654   -1.205527   -0.439772
     33          1           0       -4.627637    0.456974   -1.069284
     34          1           0       -4.262333   -0.946109   -2.114697
 ---------------------------------------------------------------------
 Rotational constants (GHZ):           0.7602503           0.4385003           0.3367811
 Leave Link  202 at Fri May 24 08:31:33 2019, MaxMem=   402653184 cpu:               0.7 elap:               0.4
 (Enter /n/sw/g16_nehalem/g16/l301.exe)
 Standard basis: 6-31G(d) (6D, 7F)
 Ernie: Thresh=  0.10000D-02 Tol=  0.10000D-05 Strict=F.
 There are   263 symmetry adapted cartesian basis functions of A   symmetry.
 There are   263 symmetry adapted basis functions of A   symmetry.
   263 basis functions,   496 primitive gaussians,   263 cartesian basis functions
    59 alpha electrons       59 beta electrons
       nuclear repulsion energy      1158.7137596250 Hartrees.
 IExCor=  402 DFT=T Ex+Corr=B3LYP ExCW=0 ScaHFX=  0.200000
 ScaDFX=  0.800000  0.720000  1.000000  0.810000 ScalE2=  1.000000  1.000000
 IRadAn=      5 IRanWt=     -1 IRanGd=            0 ICorTp=0 IEmpDi=  4
 NAtoms=   34 NActive=   34 NUniq=   34 SFac= 1.00D+00 NAtFMM=   60 NAOKFM=F Big=F
 Integral buffers will be    131072 words long.
 Raffenetti 2 integral format.
 Two-electron integral symmetry is turned on.
 ------------------------------------------------------------------------------
 Polarizable Continuum Model (PCM)
 =================================
 Model                : PCM.
 Atomic radii         : UFF (Universal Force Field).
 Polarization charges : Total charges.
 Charge compensation  : None.
 Solution method      : On-the-fly selection.
 Cavity type          : Scaled VdW (van der Waals Surface) (Alpha=1.100).
 Cavity algorithm     : GePol (No added spheres)
                        Default sphere list used, NSphG=   34.
                        Lebedev-Laikov grids with approx.  5.0 points / Ang**2.
                        Smoothing algorithm: York/Karplus (Gamma=1.0000).
                        Polarization charges: spherical gaussians, with
                                              point-specific exponents (IZeta= 3).
                        Self-potential: point-specific (ISelfS= 7).
                        Self-field    : sphere-specific E.n sum rule (ISelfD= 2).
 1st derivatives      : Analytical E(r).r(x)/FMM algorithm (CHGder, D1EAlg=3).
                        Cavity 1st derivative terms included.
 Solvent              : TetraHydroFuran, Eps=   7.425700 Eps(inf)=   1.974025
 ------------------------------------------------------------------------------
 GePol: Number of generator spheres                  =      34
 GePol: Total number of spheres                      =      34
 GePol: Number of exposed spheres                    =      34 (100.00%)
 GePol: Number of points                             =    2309
 GePol: Average weight of points                     =       0.13
 GePol: Minimum weight of points                     =   0.14D-11
 GePol: Maximum weight of points                     =    0.20577
 GePol: Number of points with low weight             =     144
 GePol: Fraction of low-weight points (<1% of avg)   =       6.24%
 GePol: Cavity surface area                          =    301.651 Ang**2
 GePol: Cavity volume                                =    321.505 Ang**3
 Leave Link  301 at Fri May 24 08:31:33 2019, MaxMem=   402653184 cpu:               0.7 elap:               0.4
 (Enter /n/sw/g16_nehalem/g16/l302.exe)
 NPDir=0 NMtPBC=     1 NCelOv=     1 NCel=       1 NClECP=     1 NCelD=      1
         NCelK=      1 NCelE2=     1 NClLst=     1 CellRange=     0.0.
 One-electron integrals computed using PRISM.
 One-electron integral symmetry used in STVInt
 NBasis=   263 RedAO= T EigKep=  1.56D-03  NBF=   263
 NBsUse=   263 1.00D-06 EigRej= -1.00D+00 NBFU=   263
 Precomputing XC quadrature grid using
 IXCGrd= 4 IRadAn=           5 IRanWt=          -1 IRanGd=           0 AccXCQ= 0.00D+00.
 Generated NRdTot=       0 NPtTot=           0 NUsed=           0 NTot=          32
 NSgBfM=   262   262   262   262   262 MxSgAt=    34 MxSgA2=    34.
 Leave Link  302 at Fri May 24 08:31:36 2019, MaxMem=   402653184 cpu:               9.2 elap:               2.9
 (Enter /n/sw/g16_nehalem/g16/l303.exe)
 DipDrv:  MaxL=1.
 Leave Link  303 at Fri May 24 08:31:36 2019, MaxMem=   402653184 cpu:               0.5 elap:               0.3
 (Enter /n/sw/g16_nehalem/g16/l401.exe)
 ExpMin= 1.61D-01 ExpMax= 5.48D+03 ExpMxC= 8.25D+02 IAcc=3 IRadAn=         5 AccDes= 0.00D+00
 Harris functional with IExCor=  402 and IRadAn=       5 diagonalized for initial guess.
 HarFok:  IExCor=  402 AccDes= 0.00D+00 IRadAn=         5 IDoV= 1 UseB2=F ITyADJ=14
 ICtDFT=  3500011 ScaDFX=  1.000000  1.000000  1.000000  1.000000
 FoFCou: FMM=F IPFlag=           0 FMFlag=      100000 FMFlg1=           0
         NFxFlg=           0 DoJE=T BraDBF=F KetDBF=T FulRan=T
         wScrn=  0.000000 ICntrl=       500 IOpCl=  0 I1Cent=   200000004 NGrid=           0
         NMat0=    1 NMatS0=      1 NMatT0=    0 NMatD0=    1 NMtDS0=    0 NMtDT0=    0
 Petite list used in FoFCou.
 Harris En= -768.259156483293    
 JPrj=0 DoOrth=F DoCkMO=F.
 Leave Link  401 at Fri May 24 08:31:52 2019, MaxMem=   402653184 cpu:              45.5 elap:              15.5
 (Enter /n/sw/g16_nehalem/g16/l502.exe)
 Integral symmetry usage will be decided dynamically.
 Closed shell SCF:
 Using DIIS extrapolation, IDIIS=  1040.
 NGot=   402653184 LenX=   402510103 LenY=   402440493
 Requested convergence on RMS density matrix=1.00D-08 within 128 cycles.
 Requested convergence on MAX density matrix=1.00D-06.
 Requested convergence on             energy=1.00D-06.
 No special actions if energy rises.
 Fock matrices will be formed incrementally for  20 cycles.

 Cycle   1  Pass 1  IDiag  1:
 FoFJK:  IHMeth= 1 ICntrl=       0 DoSepK=F KAlg= 0 I1Cent=           0 FoldK=F
 IRaf= 880000000 NMat=       1 IRICut=       1 DoRegI=T DoRafI=F ISym2E= 0 IDoP0=0 IntGTp=1.
 FoFCou: FMM=F IPFlag=           0 FMFlag=      100000 FMFlg1=           0
         NFxFlg=           0 DoJE=F BraDBF=F KetDBF=F FulRan=T
         wScrn=  0.000000 ICntrl=         0 IOpCl=  0 I1Cent=           0 NGrid=           0
         NMat0=    1 NMatS0=      1 NMatT0=    0 NMatD0=    1 NMtDS0=    0 NMtDT0=    0
 Symmetry not used in FoFCou.
 Inv3:  Mode=1 IEnd=    15994443.
 Iteration    1 A*A^-1 deviation from unit magnitude is 4.77D-15 for   2303.
 Iteration    1 A*A^-1 deviation from orthogonality  is 2.27D-15 for   2159    139.
 Iteration    1 A^-1*A deviation from unit magnitude is 4.77D-15 for   2303.
 Iteration    1 A^-1*A deviation from orthogonality  is 1.64D-15 for   2308   1976.
 E= -768.082120806781    
 DIIS: error= 2.54D-02 at cycle   1 NSaved=   1.
 NSaved= 1 IEnMin= 1 EnMin= -768.082120806781     IErMin= 1 ErrMin= 2.54D-02
 ErrMax= 2.54D-02  0.00D+00 EMaxC= 1.00D-01 BMatC= 2.57D-01 BMatP= 2.57D-01
 IDIUse=3 WtCom= 7.46D-01 WtEn= 2.54D-01
 Coeff-Com:  0.100D+01
 Coeff-En:   0.100D+01
 Coeff:      0.100D+01
 Gap=     0.004 Goal=   None    Shift=    0.000
 GapD=    0.004 DampG=0.250 DampE=0.500 DampFc=0.2500 IDamp=-1.
 Damping current iteration by 2.50D-01
 RMSDP=5.22D-03 MaxDP=1.41D-01              OVMax= 5.33D-01

 Cycle   2  Pass 1  IDiag  1:
 RMSU=  1.30D-03    CP:  9.94D-01
 E= -768.149644474833     Delta-E=       -0.067523668052 Rises=F Damp=T
 DIIS: error= 1.23D-02 at cycle   2 NSaved=   2.
 NSaved= 2 IEnMin= 2 EnMin= -768.149644474833     IErMin= 2 ErrMin= 1.23D-02
 ErrMax= 1.23D-02  0.00D+00 EMaxC= 1.00D-01 BMatC= 6.87D-02 BMatP= 2.57D-01
 IDIUse=3 WtCom= 8.77D-01 WtEn= 1.23D-01
 Coeff-Com: -0.610D+00 0.161D+01
 Coeff-En:   0.000D+00 0.100D+01
 Coeff:     -0.535D+00 0.154D+01
 Gap=     0.085 Goal=   None    Shift=    0.000
 RMSDP=1.58D-03 MaxDP=4.43D-02 DE=-6.75D-02 OVMax= 4.63D-01

 Cycle   3  Pass 1  IDiag  1:
 RMSU=  1.56D-03    CP:  9.85D-01  1.04D+00
 E= -768.272089821910     Delta-E=       -0.122445347076 Rises=F Damp=F
 DIIS: error= 7.60D-03 at cycle   3 NSaved=   3.
 NSaved= 3 IEnMin= 3 EnMin= -768.272089821910     IErMin= 3 ErrMin= 7.60D-03
 ErrMax= 7.60D-03  0.00D+00 EMaxC= 1.00D-01 BMatC= 5.83D-02 BMatP= 6.87D-02
 IDIUse=3 WtCom= 9.24D-01 WtEn= 7.60D-02
 Coeff-Com: -0.492D+00 0.103D+01 0.464D+00
 Coeff-En:   0.000D+00 0.000D+00 0.100D+01
 Coeff:     -0.455D+00 0.950D+00 0.505D+00
 Gap=     0.149 Goal=   None    Shift=    0.000
 RMSDP=9.35D-04 MaxDP=3.15D-02 DE=-1.22D-01 OVMax= 4.21D-02

 Cycle   4  Pass 1  IDiag  1:
 RMSU=  7.13D-04    CP:  9.89D-01  1.21D+00  6.46D-01
 E= -768.320396433311     Delta-E=       -0.048306611401 Rises=F Damp=F
 DIIS: error= 2.68D-03 at cycle   4 NSaved=   4.
 NSaved= 4 IEnMin= 4 EnMin= -768.320396433311     IErMin= 4 ErrMin= 2.68D-03
 ErrMax= 2.68D-03  0.00D+00 EMaxC= 1.00D-01 BMatC= 3.42D-03 BMatP= 5.83D-02
 IDIUse=3 WtCom= 9.73D-01 WtEn= 2.68D-02
 Coeff-Com: -0.239D+00 0.405D+00 0.182D+00 0.651D+00
 Coeff-En:   0.000D+00 0.000D+00 0.000D+00 0.100D+01
 Coeff:     -0.232D+00 0.394D+00 0.177D+00 0.661D+00
 Gap=     0.131 Goal=   None    Shift=    0.000
 RMSDP=2.44D-04 MaxDP=9.45D-03 DE=-4.83D-02 OVMax= 9.89D-03

 Cycle   5  Pass 1  IDiag  1:
 RMSU=  2.24D-04    CP:  9.89D-01  1.25D+00  6.88D-01  9.46D-01
 E= -768.322722558555     Delta-E=       -0.002326125245 Rises=F Damp=F
 DIIS: error= 1.28D-03 at cycle   5 NSaved=   5.
 NSaved= 5 IEnMin= 5 EnMin= -768.322722558555     IErMin= 5 ErrMin= 1.28D-03
 ErrMax= 1.28D-03  0.00D+00 EMaxC= 1.00D-01 BMatC= 1.33D-03 BMatP= 3.42D-03
 IDIUse=3 WtCom= 9.87D-01 WtEn= 1.28D-02
 Coeff-Com: -0.108D+00 0.158D+00 0.152D-01 0.371D+00 0.564D+00
 Coeff-En:   0.000D+00 0.000D+00 0.000D+00 0.112D+00 0.888D+00
 Coeff:     -0.107D+00 0.156D+00 0.150D-01 0.368D+00 0.568D+00
 Gap=     0.130 Goal=   None    Shift=    0.000
 RMSDP=1.21D-04 MaxDP=6.27D-03 DE=-2.33D-03 OVMax= 5.45D-03

 Cycle   6  Pass 1  IDiag  1:
 RMSU=  8.24D-05    CP:  9.89D-01  1.28D+00  6.83D-01  1.05D+00  8.13D-01
 E= -768.323593245479     Delta-E=       -0.000870686924 Rises=F Damp=F
 DIIS: error= 6.46D-04 at cycle   6 NSaved=   6.
 NSaved= 6 IEnMin= 6 EnMin= -768.323593245479     IErMin= 6 ErrMin= 6.46D-04
 ErrMax= 6.46D-04  0.00D+00 EMaxC= 1.00D-01 BMatC= 1.93D-04 BMatP= 1.33D-03
 IDIUse=3 WtCom= 9.94D-01 WtEn= 6.46D-03
 Coeff-Com: -0.426D-01 0.537D-01-0.273D-01 0.139D+00 0.353D+00 0.524D+00
 Coeff-En:   0.000D+00 0.000D+00 0.000D+00 0.000D+00 0.000D+00 0.100D+01
 Coeff:     -0.423D-01 0.533D-01-0.271D-01 0.138D+00 0.351D+00 0.527D+00
 Gap=     0.129 Goal=   None    Shift=    0.000
 RMSDP=4.65D-05 MaxDP=2.55D-03 DE=-8.71D-04 OVMax= 2.40D-03

 Cycle   7  Pass 1  IDiag  1:
 RMSU=  3.19D-05    CP:  9.89D-01  1.28D+00  6.78D-01  1.08D+00  8.84D-01
                    CP:  8.53D-01
 E= -768.323746237573     Delta-E=       -0.000152992094 Rises=F Damp=F
 DIIS: error= 1.97D-04 at cycle   7 NSaved=   7.
 NSaved= 7 IEnMin= 7 EnMin= -768.323746237573     IErMin= 7 ErrMin= 1.97D-04
 ErrMax= 1.97D-04  0.00D+00 EMaxC= 1.00D-01 BMatC= 1.96D-05 BMatP= 1.93D-04
 IDIUse=3 WtCom= 9.98D-01 WtEn= 1.97D-03
 Coeff-Com: -0.926D-02 0.885D-02-0.226D-01 0.154D-01 0.108D+00 0.280D+00
 Coeff-Com:  0.619D+00
 Coeff-En:   0.000D+00 0.000D+00 0.000D+00 0.000D+00 0.000D+00 0.000D+00
 Coeff-En:   0.100D+01
 Coeff:     -0.924D-02 0.883D-02-0.226D-01 0.153D-01 0.108D+00 0.280D+00
 Coeff:      0.620D+00
 Gap=     0.128 Goal=   None    Shift=    0.000
 RMSDP=2.03D-05 MaxDP=9.62D-04 DE=-1.53D-04 OVMax= 1.46D-03

 Cycle   8  Pass 1  IDiag  1:
 RMSU=  1.11D-05    CP:  9.89D-01  1.28D+00  6.78D-01  1.10D+00  9.23D-01
                    CP:  9.27D-01  8.41D-01
 E= -768.323764677319     Delta-E=       -0.000018439747 Rises=F Damp=F
 DIIS: error= 4.17D-05 at cycle   8 NSaved=   8.
 NSaved= 8 IEnMin= 8 EnMin= -768.323764677319     IErMin= 8 ErrMin= 4.17D-05
 ErrMax= 4.17D-05  0.00D+00 EMaxC= 1.00D-01 BMatC= 1.53D-06 BMatP= 1.96D-05
 IDIUse=1 WtCom= 1.00D+00 WtEn= 0.00D+00
 Coeff-Com:  0.317D-03-0.113D-02-0.624D-02-0.122D-01-0.272D-02 0.391D-01
 Coeff-Com:  0.280D+00 0.703D+00
 Coeff:      0.317D-03-0.113D-02-0.624D-02-0.122D-01-0.272D-02 0.391D-01
 Coeff:      0.280D+00 0.703D+00
 Gap=     0.128 Goal=   None    Shift=    0.000
 RMSDP=6.83D-06 MaxDP=2.08D-04 DE=-1.84D-05 OVMax= 8.69D-04

 Cycle   9  Pass 1  IDiag  1:
 RMSU=  3.85D-06    CP:  9.89D-01  1.28D+00  6.78D-01  1.11D+00  9.33D-01
                    CP:  9.58D-01  9.24D-01  9.61D-01
 E= -768.323766020613     Delta-E=       -0.000001343293 Rises=F Damp=F
 DIIS: error= 1.75D-05 at cycle   9 NSaved=   9.
 NSaved= 9 IEnMin= 9 EnMin= -768.323766020613     IErMin= 9 ErrMin= 1.75D-05
 ErrMax= 1.75D-05  0.00D+00 EMaxC= 1.00D-01 BMatC= 1.71D-07 BMatP= 1.53D-06
 IDIUse=1 WtCom= 1.00D+00 WtEn= 0.00D+00
 Coeff-Com:  0.490D-03-0.683D-03-0.137D-02-0.663D-02-0.880D-02-0.174D-02
 Coeff-Com:  0.975D-01 0.371D+00 0.551D+00
 Coeff:      0.490D-03-0.683D-03-0.137D-02-0.663D-02-0.880D-02-0.174D-02
 Coeff:      0.975D-01 0.371D+00 0.551D+00
 Gap=     0.128 Goal=   None    Shift=    0.000
 RMSDP=1.98D-06 MaxDP=6.07D-05 DE=-1.34D-06 OVMax= 2.20D-04

 Cycle  10  Pass 1  IDiag  1:
 RMSU=  1.30D-06    CP:  9.89D-01  1.28D+00  6.78D-01  1.11D+00  9.35D-01
                    CP:  9.64D-01  9.43D-01  1.01D+00  7.80D-01
 E= -768.323766180264     Delta-E=       -0.000000159651 Rises=F Damp=F
 DIIS: error= 4.10D-06 at cycle  10 NSaved=  10.
 NSaved=10 IEnMin=10 EnMin= -768.323766180264     IErMin=10 ErrMin= 4.10D-06
 ErrMax= 4.10D-06  0.00D+00 EMaxC= 1.00D-01 BMatC= 5.81D-09 BMatP= 1.71D-07
 IDIUse=1 WtCom= 1.00D+00 WtEn= 0.00D+00
 Coeff-Com:  0.265D-03-0.334D-03 0.358D-04-0.137D-02-0.316D-02-0.416D-02
 Coeff-Com:  0.764D-02 0.581D-01 0.181D+00 0.762D+00
 Coeff:      0.265D-03-0.334D-03 0.358D-04-0.137D-02-0.316D-02-0.416D-02
 Coeff:      0.764D-02 0.581D-01 0.181D+00 0.762D+00
 Gap=     0.128 Goal=   None    Shift=    0.000
 RMSDP=7.09D-07 MaxDP=1.86D-05 DE=-1.60D-07 OVMax= 1.06D-04

 Cycle  11  Pass 1  IDiag  1:
 RMSU=  2.99D-07    CP:  9.89D-01  1.28D+00  6.78D-01  1.11D+00  9.35D-01
                    CP:  9.67D-01  9.51D-01  1.03D+00  8.24D-01  9.61D-01
 E= -768.323766188583     Delta-E=       -0.000000008319 Rises=F Damp=F
 DIIS: error= 1.42D-06 at cycle  11 NSaved=  11.
 NSaved=11 IEnMin=11 EnMin= -768.323766188583     IErMin=11 ErrMin= 1.42D-06
 ErrMax= 1.42D-06  0.00D+00 EMaxC= 1.00D-01 BMatC= 1.03D-09 BMatP= 5.81D-09
 IDIUse=1 WtCom= 1.00D+00 WtEn= 0.00D+00
 Coeff-Com:  0.765D-04-0.914D-04 0.129D-03-0.656D-04-0.723D-03-0.155D-02
 Coeff-Com: -0.415D-02-0.199D-02 0.404D-01 0.353D+00 0.615D+00
 Coeff:      0.765D-04-0.914D-04 0.129D-03-0.656D-04-0.723D-03-0.155D-02
 Coeff:     -0.415D-02-0.199D-02 0.404D-01 0.353D+00 0.615D+00
 Gap=     0.128 Goal=   None    Shift=    0.000
 RMSDP=2.18D-07 MaxDP=5.91D-06 DE=-8.32D-09 OVMax= 3.00D-05

 Cycle  12  Pass 1  IDiag  1:
 RMSU=  1.11D-07    CP:  9.89D-01  1.28D+00  6.78D-01  1.11D+00  9.36D-01
                    CP:  9.68D-01  9.52D-01  1.04D+00  8.43D-01  1.01D+00
                    CP:  7.69D-01
 E= -768.323766189787     Delta-E=       -0.000000001204 Rises=F Damp=F
 DIIS: error= 4.99D-07 at cycle  12 NSaved=  12.
 NSaved=12 IEnMin=12 EnMin= -768.323766189787     IErMin=12 ErrMin= 4.99D-07
 ErrMax= 4.99D-07  0.00D+00 EMaxC= 1.00D-01 BMatC= 1.22D-10 BMatP= 1.03D-09
 IDIUse=1 WtCom= 1.00D+00 WtEn= 0.00D+00
 Coeff-Com:  0.204D-04-0.261D-04 0.576D-04 0.111D-03 0.302D-05-0.200D-03
 Coeff-Com: -0.307D-02-0.826D-02-0.349D-02 0.676D-01 0.289D+00 0.658D+00
 Coeff:      0.204D-04-0.261D-04 0.576D-04 0.111D-03 0.302D-05-0.200D-03
 Coeff:     -0.307D-02-0.826D-02-0.349D-02 0.676D-01 0.289D+00 0.658D+00
 Gap=     0.128 Goal=   None    Shift=    0.000
 RMSDP=7.45D-08 MaxDP=2.11D-06 DE=-1.20D-09 OVMax= 1.01D-05

 Cycle  13  Pass 1  IDiag  1:
 RMSU=  2.94D-08    CP:  9.89D-01  1.28D+00  6.78D-01  1.11D+00  9.36D-01
                    CP:  9.68D-01  9.52D-01  1.04D+00  8.46D-01  1.03D+00
                    CP:  8.45D-01  7.56D-01
 E= -768.323766189911     Delta-E=       -0.000000000125 Rises=F Damp=F
 DIIS: error= 9.44D-08 at cycle  13 NSaved=  13.
 NSaved=13 IEnMin=13 EnMin= -768.323766189911     IErMin=13 ErrMin= 9.44D-08
 ErrMax= 9.44D-08  0.00D+00 EMaxC= 1.00D-01 BMatC= 6.44D-12 BMatP= 1.22D-10
 IDIUse=1 WtCom= 1.00D+00 WtEn= 0.00D+00
 Coeff-Com:  0.235D-05-0.349D-05 0.141D-04 0.525D-04 0.581D-04 0.560D-04
 Coeff-Com: -0.900D-03-0.299D-02-0.400D-02 0.187D-02 0.706D-01 0.256D+00
 Coeff-Com:  0.679D+00
 Coeff:      0.235D-05-0.349D-05 0.141D-04 0.525D-04 0.581D-04 0.560D-04
 Coeff:     -0.900D-03-0.299D-02-0.400D-02 0.187D-02 0.706D-01 0.256D+00
 Coeff:      0.679D+00
 Gap=     0.128 Goal=   None    Shift=    0.000
 RMSDP=1.61D-08 MaxDP=4.60D-07 DE=-1.25D-10 OVMax= 1.95D-06

 Cycle  14  Pass 1  IDiag  1:
 RMSU=  9.98D-09    CP:  9.89D-01  1.28D+00  6.78D-01  1.11D+00  9.36D-01
                    CP:  9.68D-01  9.52D-01  1.04D+00  8.47D-01  1.03D+00
                    CP:  8.53D-01  8.04D-01  8.62D-01
 E= -768.323766189900     Delta-E=        0.000000000011 Rises=F Damp=F
 DIIS: error= 2.95D-08 at cycle  14 NSaved=  14.
 NSaved=14 IEnMin=13 EnMin= -768.323766189911     IErMin=14 ErrMin= 2.95D-08
 ErrMax= 2.95D-08  0.00D+00 EMaxC= 1.00D-01 BMatC= 1.05D-12 BMatP= 6.44D-12
 IDIUse=1 WtCom= 1.00D+00 WtEn= 0.00D+00
 Coeff-Com: -0.664D-06 0.649D-06 0.102D-05 0.120D-04 0.234D-04 0.438D-04
 Coeff-Com: -0.984D-04-0.472D-03-0.137D-02-0.576D-02 0.362D-02 0.521D-01
 Coeff-Com:  0.342D+00 0.610D+00
 Coeff:     -0.664D-06 0.649D-06 0.102D-05 0.120D-04 0.234D-04 0.438D-04
 Coeff:     -0.984D-04-0.472D-03-0.137D-02-0.576D-02 0.362D-02 0.521D-01
 Coeff:      0.342D+00 0.610D+00
 Gap=     0.128 Goal=   None    Shift=    0.000
 RMSDP=5.13D-09 MaxDP=1.72D-07 DE= 1.09D-11 OVMax= 4.54D-07

 Error on total polarization charges =  0.01318
 SCF Done:  E(RB3LYP) =  -768.323766190     A.U. after   14 cycles
            NFock= 14  Conv=0.51D-08     -V/T= 2.0091
 KE= 7.613845982671D+02 PE=-4.092277458367D+03 EE= 1.403855334285D+03
 Leave Link  502 at Fri May 24 08:36:40 2019, MaxMem=   402653184 cpu:            1097.8 elap:             288.1
 (Enter /n/sw/g16_nehalem/g16/l601.exe)
 Copying SCF densities to generalized density rwf, IOpCl= 0 IROHF=0.

 **********************************************************************

            Population analysis using the SCF density.

 **********************************************************************

 Orbital symmetries:
       Occupied  (A) (A) (A) (A) (A) (A) (A) (A) (A) (A) (A) (A)
                 (A) (A) (A) (A) (A) (A) (A) (A) (A) (A) (A) (A)
                 (A) (A) (A) (A) (A) (A) (A) (A) (A) (A) (A) (A)
                 (A) (A) (A) (A) (A) (A) (A) (A) (A) (A) (A) (A)
                 (A) (A) (A) (A) (A) (A) (A) (A) (A) (A) (A)
       Virtual   (A) (A) (A) (A) (A) (A) (A) (A) (A) (A) (A) (A)
                 (A) (A) (A) (A) (A) (A) (A) (A) (A) (A) (A) (A)
                 (A) (A) (A) (A) (A) (A) (A) (A) (A) (A) (A) (A)
                 (A) (A) (A) (A) (A) (A) (A) (A) (A) (A) (A) (A)
                 (A) (A) (A) (A) (A) (A) (A) (A) (A) (A) (A) (A)
                 (A) (A) (A) (A) (A) (A) (A) (A) (A) (A) (A) (A)
                 (A) (A) (A) (A) (A) (A) (A) (A) (A) (A) (A) (A)
                 (A) (A) (A) (A) (A) (A) (A) (A) (A) (A) (A) (A)
                 (A) (A) (A) (A) (A) (A) (A) (A) (A) (A) (A) (A)
                 (A) (A) (A) (A) (A) (A) (A) (A) (A) (A) (A) (A)
                 (A) (A) (A) (A) (A) (A) (A) (A) (A) (A) (A) (A)
                 (A) (A) (A) (A) (A) (A) (A) (A) (A) (A) (A) (A)
                 (A) (A) (A) (A) (A) (A) (A) (A) (A) (A) (A) (A)
                 (A) (A) (A) (A) (A) (A) (A) (A) (A) (A) (A) (A)
                 (A) (A) (A) (A) (A) (A) (A) (A) (A) (A) (A) (A)
                 (A) (A) (A) (A) (A) (A) (A) (A) (A) (A) (A) (A)
                 (A) (A) (A) (A) (A) (A) (A) (A) (A) (A) (A) (A)
 The electronic state is 1-A.
 Alpha  occ. eigenvalues --  -19.33412 -19.20843 -19.19842 -19.18899 -19.18645
 Alpha  occ. eigenvalues --  -10.39945 -10.32363 -10.31965 -10.29670 -10.29426
 Alpha  occ. eigenvalues --  -10.27893 -10.26328 -10.25732 -10.24788 -10.24772
 Alpha  occ. eigenvalues --   -1.22030  -1.09702  -1.08171  -1.06958  -1.06317
 Alpha  occ. eigenvalues --   -0.87425  -0.85888  -0.77683  -0.75510  -0.73801
 Alpha  occ. eigenvalues --   -0.72205  -0.68989  -0.67918  -0.65815  -0.62395
 Alpha  occ. eigenvalues --   -0.60590  -0.58515  -0.56174  -0.55315  -0.53799
 Alpha  occ. eigenvalues --   -0.52322  -0.51884  -0.50989  -0.50323  -0.49221
 Alpha  occ. eigenvalues --   -0.48578  -0.47899  -0.46531  -0.45946  -0.45390
 Alpha  occ. eigenvalues --   -0.44541  -0.42885  -0.42712  -0.41911  -0.41109
 Alpha  occ. eigenvalues --   -0.40182  -0.37196  -0.35880  -0.35227  -0.34806
 Alpha  occ. eigenvalues --   -0.31984  -0.31567  -0.29148  -0.28245
 Alpha virt. eigenvalues --   -0.15445  -0.00379   0.04222   0.05153   0.06082
 Alpha virt. eigenvalues --    0.07093   0.07947   0.08867   0.09258   0.10747
 Alpha virt. eigenvalues --    0.11290   0.11434   0.12100   0.12646   0.12990
 Alpha virt. eigenvalues --    0.13434   0.13976   0.14284   0.14660   0.15126
 Alpha virt. eigenvalues --    0.15654   0.16145   0.16636   0.17088   0.17764
 Alpha virt. eigenvalues --    0.18768   0.19713   0.20323   0.20467   0.22208
 Alpha virt. eigenvalues --    0.23425   0.24868   0.26369   0.27397   0.29826
 Alpha virt. eigenvalues --    0.43643   0.45577   0.46844   0.47445   0.47702
 Alpha virt. eigenvalues --    0.48673   0.48995   0.49960   0.51097   0.51656
 Alpha virt. eigenvalues --    0.52806   0.53685   0.54112   0.55130   0.55414
 Alpha virt. eigenvalues --    0.56464   0.56637   0.59409   0.61558   0.63402
 Alpha virt. eigenvalues --    0.63605   0.64928   0.67311   0.69135   0.70747
 Alpha virt. eigenvalues --    0.74324   0.75037   0.75915   0.76874   0.78655
 Alpha virt. eigenvalues --    0.79004   0.79720   0.80825   0.81439   0.83057
 Alpha virt. eigenvalues --    0.83115   0.83670   0.84350   0.84897   0.85891
 Alpha virt. eigenvalues --    0.86616   0.87155   0.87954   0.88610   0.89803
 Alpha virt. eigenvalues --    0.91331   0.93323   0.93407   0.94041   0.95541
 Alpha virt. eigenvalues --    0.95986   0.98030   0.99849   1.00780   1.02262
 Alpha virt. eigenvalues --    1.03345   1.06227   1.07073   1.10213   1.12196
 Alpha virt. eigenvalues --    1.14348   1.14755   1.17396   1.20728   1.21743
 Alpha virt. eigenvalues --    1.24585   1.25531   1.26744   1.31443   1.32260
 Alpha virt. eigenvalues --    1.32735   1.35230   1.36561   1.40318   1.41602
 Alpha virt. eigenvalues --    1.43100   1.43754   1.45298   1.46794   1.48934
 Alpha virt. eigenvalues --    1.49768   1.53433   1.54966   1.59880   1.61010
 Alpha virt. eigenvalues --    1.61321   1.63940   1.65964   1.69605   1.70735
 Alpha virt. eigenvalues --    1.73029   1.76015   1.77206   1.79526   1.79906
 Alpha virt. eigenvalues --    1.83933   1.85567   1.85859   1.89715   1.90487
 Alpha virt. eigenvalues --    1.91610   1.93154   1.95324   1.97771   1.98581
 Alpha virt. eigenvalues --    2.00723   2.01351   2.03369   2.03746   2.03837
 Alpha virt. eigenvalues --    2.05128   2.06826   2.07229   2.08184   2.09696
 Alpha virt. eigenvalues --    2.12563   2.13613   2.14541   2.16627   2.16699
 Alpha virt. eigenvalues --    2.18329   2.20378   2.22240   2.23928   2.25158
 Alpha virt. eigenvalues --    2.26830   2.27087   2.29946   2.32555   2.35357
 Alpha virt. eigenvalues --    2.37370   2.37719   2.41837   2.44492   2.47310
 Alpha virt. eigenvalues --    2.49697   2.51192   2.52207   2.55421   2.59273
 Alpha virt. eigenvalues --    2.62069   2.64912   2.70103   2.73976   2.76384
 Alpha virt. eigenvalues --    2.77458   2.82419   2.83648   2.89499   2.91378
 Alpha virt. eigenvalues --    2.93727   2.99277   3.03558   3.06322   3.83418
 Alpha virt. eigenvalues --    3.89025   3.98167   4.01177   4.05689   4.14776
 Alpha virt. eigenvalues --    4.22166   4.23025   4.23537   4.24641   4.31018
 Alpha virt. eigenvalues --    4.36106   4.45614   4.53861   4.64951
          Condensed to atoms (all electrons):
               1          2          3          4          5          6
     1  C    5.038214   0.281349  -0.043122  -0.045321   0.285789   0.003595
     2  C    0.281349   5.051842   0.246394  -0.002701  -0.040396  -0.042142
     3  C   -0.043122   0.246394   4.884714  -0.041473   0.005887   0.357815
     4  C   -0.045321  -0.002701  -0.041473   5.199136   0.227465   0.003111
     5  C    0.285789  -0.040396   0.005887   0.227465   5.036510  -0.000252
     6  H    0.003595  -0.042142   0.357815   0.003111  -0.000252   0.424964
     7  H   -0.033048   0.360197  -0.040077   0.001742  -0.006817  -0.000155
     8  H    0.351726  -0.038149  -0.001275   0.001508  -0.053207  -0.000098
     9  H   -0.004544   0.000644  -0.000322   0.366738  -0.033653  -0.000141
    10  H   -0.042521  -0.005388   0.001141  -0.047187   0.372547  -0.000026
    11  O   -0.000721  -0.020904   0.374444   0.109781  -0.020767  -0.034118
    12  O   -0.032271   0.257866  -0.035302   0.000020   0.001987   0.004743
    13  O    0.218864  -0.040347   0.003362   0.003382  -0.041160  -0.000039
    14  O   -0.032126   0.001813  -0.000080  -0.039395   0.247626   0.000002
    15  C    0.003977  -0.000107   0.001649   0.343982  -0.026746  -0.000183
    16  H    0.000176  -0.000033   0.000054  -0.031800  -0.009816   0.000004
    17  H   -0.000048   0.000009   0.000134  -0.030014   0.005106  -0.000007
    18  O    0.000232  -0.000346   0.002383  -0.054214  -0.005000   0.000028
    19  C   -0.005670  -0.046893  -0.006243   0.000010   0.000124  -0.000222
    20  H   -0.001496  -0.005315   0.008805  -0.000046   0.000019  -0.000046
    21  H    0.000013   0.004935  -0.000059   0.000001  -0.000004  -0.000113
    22  H    0.004029  -0.006152  -0.000451   0.000003  -0.000067   0.000145
    23  C   -0.031010   0.004542  -0.000177   0.000042  -0.002817   0.000002
    24  H   -0.012117   0.000334   0.000004   0.000066  -0.000678   0.000000
    25  H    0.004633  -0.000158   0.000000   0.000006  -0.000108   0.000000
    26  H   -0.003337  -0.000258   0.000023  -0.000108   0.001940   0.000000
    27  C   -0.007938   0.000321  -0.000024  -0.006176  -0.042806   0.000000
    28  H    0.000000  -0.000003   0.000000   0.000073   0.004721   0.000000
    29  H   -0.000547   0.000013   0.000015   0.001486  -0.005201   0.000000
    30  H    0.005237  -0.000291   0.000011  -0.001174  -0.005436   0.000000
    31  C   -0.000005   0.000005  -0.000051   0.005806   0.000290  -0.000001
    32  H    0.000000   0.000000   0.000002   0.000037   0.000028   0.000000
    33  H   -0.000001   0.000000   0.000002   0.000067  -0.000154   0.000000
    34  H    0.000000   0.000000   0.000000  -0.000275   0.000009   0.000000
               7          8          9         10         11         12
     1  C   -0.033048   0.351726  -0.004544  -0.042521  -0.000721  -0.032271
     2  C    0.360197  -0.038149   0.000644  -0.005388  -0.020904   0.257866
     3  C   -0.040077  -0.001275  -0.000322   0.001141   0.374444  -0.035302
     4  C    0.001742   0.001508   0.366738  -0.047187   0.109781   0.000020
     5  C   -0.006817  -0.053207  -0.033653   0.372547  -0.020767   0.001987
     6  H   -0.000155  -0.000098  -0.000141  -0.000026  -0.034118   0.004743
     7  H    0.470407   0.005066  -0.000005   0.004833   0.000015  -0.032140
     8  H    0.005066   0.585121   0.001881   0.005323   0.000341  -0.004358
     9  H   -0.000005   0.001881   0.481406   0.004180  -0.024773  -0.000001
    10  H    0.004833   0.005323   0.004180   0.526619   0.000390  -0.000046
    11  O    0.000015   0.000341  -0.024773   0.000390   7.947444   0.001663
    12  O   -0.032140  -0.004358  -0.000001  -0.000046   0.001663   8.168628
    13  O    0.002096  -0.037053  -0.000019   0.002100   0.000006   0.002099
    14  O   -0.000044  -0.002609  -0.004323  -0.036038   0.001067  -0.000006
    15  C   -0.000028  -0.000120  -0.034423  -0.011729  -0.035853   0.000000
    16  H   -0.000001  -0.000008   0.001225  -0.000361   0.003048   0.000000
    17  H    0.000000   0.000003  -0.001235   0.000566  -0.003145   0.000000
    18  O    0.000109  -0.000003   0.002446   0.017813   0.002037   0.000000
    19  C    0.005122   0.004985   0.000004   0.000006  -0.000051   0.232805
    20  H   -0.000136   0.000302   0.000015  -0.000001  -0.000764  -0.036136
    21  H   -0.000112  -0.000014   0.000000   0.000000   0.000001  -0.029917
    22  H   -0.000211   0.000479  -0.000002  -0.000004   0.000033  -0.034155
    23  C   -0.000107  -0.006463  -0.000005  -0.000139   0.000000  -0.000077
    24  H    0.000072   0.012250   0.000001   0.000074   0.000000  -0.000033
    25  H   -0.000014  -0.000017   0.000000  -0.000018   0.000000   0.000006
    26  H   -0.000023  -0.001421  -0.000001  -0.000179  -0.000001   0.000000
    27  C   -0.000001   0.002311   0.005998   0.005212   0.000037   0.000000
    28  H    0.000000  -0.000044  -0.000120  -0.000104   0.000000   0.000000
    29  H    0.000000  -0.000168   0.004455  -0.000182  -0.000114   0.000000
    30  H   -0.000005   0.002696  -0.000582  -0.000202   0.000016   0.000007
    31  C   -0.000001   0.000000  -0.000155  -0.000521   0.000014   0.000000
    32  H    0.000000   0.000000   0.000008   0.000061  -0.000031   0.000000
    33  H    0.000000   0.000000   0.000010   0.000007   0.000007   0.000000
    34  H   -0.000001   0.000000   0.000003  -0.000034   0.000001   0.000000
              13         14         15         16         17         18
     1  C    0.218864  -0.032126   0.003977   0.000176  -0.000048   0.000232
     2  C   -0.040347   0.001813  -0.000107  -0.000033   0.000009  -0.000346
     3  C    0.003362  -0.000080   0.001649   0.000054   0.000134   0.002383
     4  C    0.003382  -0.039395   0.343982  -0.031800  -0.030014  -0.054214
     5  C   -0.041160   0.247626  -0.026746  -0.009816   0.005106  -0.005000
     6  H   -0.000039   0.000002  -0.000183   0.000004  -0.000007   0.000028
     7  H    0.002096  -0.000044  -0.000028  -0.000001   0.000000   0.000109
     8  H   -0.037053  -0.002609  -0.000120  -0.000008   0.000003  -0.000003
     9  H   -0.000019  -0.004323  -0.034423   0.001225  -0.001235   0.002446
    10  H    0.002100  -0.036038  -0.011729  -0.000361   0.000566   0.017813
    11  O    0.000006   0.001067  -0.035853   0.003048  -0.003145   0.002037
    12  O    0.002099  -0.000006   0.000000   0.000000   0.000000   0.000000
    13  O    8.232692   0.001321  -0.000043  -0.000001   0.000000   0.000000
    14  O    0.001321   8.206179   0.002225   0.006475   0.000028  -0.000109
    15  C   -0.000043   0.002225   4.876116   0.355728   0.357084   0.242812
    16  H   -0.000001   0.006475   0.355728   0.565938  -0.044214  -0.036142
    17  H    0.000000   0.000028   0.357084  -0.044214   0.573020  -0.039407
    18  O    0.000000  -0.000109   0.242812  -0.036142  -0.039407   8.208780
    19  C   -0.000375   0.000000   0.000000   0.000000   0.000000   0.000000
    20  H    0.000048   0.000000   0.000000   0.000000   0.000000   0.000000
    21  H   -0.000021   0.000000   0.000000   0.000000   0.000000   0.000000
    22  H    0.000660   0.000004   0.000000   0.000000   0.000000   0.000000
    23  C    0.235396  -0.002165  -0.000001   0.000000   0.000000   0.000000
    24  H   -0.033405   0.000129   0.000000   0.000000   0.000000   0.000000
    25  H   -0.032628   0.000131   0.000000   0.000000   0.000000   0.000000
    26  H   -0.034976   0.007278   0.000004   0.000000   0.000000   0.000000
    27  C   -0.000053   0.227214  -0.000904   0.000270  -0.000029  -0.000005
    28  H   -0.000014  -0.031550  -0.000018  -0.000033   0.000000   0.000000
    29  H    0.000004  -0.035145   0.000260  -0.000120  -0.000043  -0.000003
    30  H   -0.000097  -0.035108   0.000131   0.000074   0.000001  -0.000001
    31  C    0.000000  -0.000010  -0.041282  -0.003938  -0.003830   0.245060
    32  H    0.000000   0.000000  -0.007679  -0.002110   0.010546  -0.035575
    33  H    0.000000  -0.000002  -0.007166   0.010685  -0.002061  -0.036059
    34  H    0.000000   0.000000   0.005579  -0.000102  -0.000136  -0.031376
              19         20         21         22         23         24
     1  C   -0.005670  -0.001496   0.000013   0.004029  -0.031010  -0.012117
     2  C   -0.046893  -0.005315   0.004935  -0.006152   0.004542   0.000334
     3  C   -0.006243   0.008805  -0.000059  -0.000451  -0.000177   0.000004
     4  C    0.000010  -0.000046   0.000001   0.000003   0.000042   0.000066
     5  C    0.000124   0.000019  -0.000004  -0.000067  -0.002817  -0.000678
     6  H   -0.000222  -0.000046  -0.000113   0.000145   0.000002   0.000000
     7  H    0.005122  -0.000136  -0.000112  -0.000211  -0.000107   0.000072
     8  H    0.004985   0.000302  -0.000014   0.000479  -0.006463   0.012250
     9  H    0.000004   0.000015   0.000000  -0.000002  -0.000005   0.000001
    10  H    0.000006  -0.000001   0.000000  -0.000004  -0.000139   0.000074
    11  O   -0.000051  -0.000764   0.000001   0.000033   0.000000   0.000000
    12  O    0.232805  -0.036136  -0.029917  -0.034155  -0.000077  -0.000033
    13  O   -0.000375   0.000048  -0.000021   0.000660   0.235396  -0.033405
    14  O    0.000000   0.000000   0.000000   0.000004  -0.002165   0.000129
    15  C    0.000000   0.000000   0.000000   0.000000  -0.000001   0.000000
    16  H    0.000000   0.000000   0.000000   0.000000   0.000000   0.000000
    17  H    0.000000   0.000000   0.000000   0.000000   0.000000   0.000000
    18  O    0.000000   0.000000   0.000000   0.000000   0.000000   0.000000
    19  C    4.939288   0.360149   0.387661   0.371506  -0.000131  -0.000030
    20  H    0.360149   0.585159  -0.026882  -0.043036   0.000000  -0.000003
    21  H    0.387661  -0.026882   0.492378  -0.029145  -0.000001   0.000004
    22  H    0.371506  -0.043036  -0.029145   0.554055   0.000342   0.000322
    23  C   -0.000131   0.000000  -0.000001   0.000342   4.909684   0.366736
    24  H   -0.000030  -0.000003   0.000004   0.000322   0.366736   0.578440
    25  H    0.000006   0.000000   0.000000  -0.000021   0.384087  -0.027620
    26  H    0.000002   0.000000   0.000000   0.000010   0.367578  -0.042547
    27  C   -0.000003   0.000000   0.000000   0.000001   0.000094  -0.000399
    28  H    0.000000   0.000000   0.000000   0.000000   0.000072   0.000011
    29  H    0.000000   0.000000   0.000000   0.000000   0.000033   0.000007
    30  H   -0.000010   0.000000   0.000000  -0.000027   0.000565   0.000749
    31  C    0.000000   0.000000   0.000000   0.000000   0.000000   0.000000
    32  H    0.000000   0.000000   0.000000   0.000000   0.000000   0.000000
    33  H    0.000000   0.000000   0.000000   0.000000   0.000000   0.000000
    34  H    0.000000   0.000000   0.000000   0.000000   0.000000   0.000000
              25         26         27         28         29         30
     1  C    0.004633  -0.003337  -0.007938   0.000000  -0.000547   0.005237
     2  C   -0.000158  -0.000258   0.000321  -0.000003   0.000013  -0.000291
     3  C    0.000000   0.000023  -0.000024   0.000000   0.000015   0.000011
     4  C    0.000006  -0.000108  -0.006176   0.000073   0.001486  -0.001174
     5  C   -0.000108   0.001940  -0.042806   0.004721  -0.005201  -0.005436
     6  H    0.000000   0.000000   0.000000   0.000000   0.000000   0.000000
     7  H   -0.000014  -0.000023  -0.000001   0.000000   0.000000  -0.000005
     8  H   -0.000017  -0.001421   0.002311  -0.000044  -0.000168   0.002696
     9  H    0.000000  -0.000001   0.005998  -0.000120   0.004455  -0.000582
    10  H   -0.000018  -0.000179   0.005212  -0.000104  -0.000182  -0.000202
    11  O    0.000000  -0.000001   0.000037   0.000000  -0.000114   0.000016
    12  O    0.000006   0.000000   0.000000   0.000000   0.000000   0.000007
    13  O   -0.032628  -0.034976  -0.000053  -0.000014   0.000004  -0.000097
    14  O    0.000131   0.007278   0.227214  -0.031550  -0.035145  -0.035108
    15  C    0.000000   0.000004  -0.000904  -0.000018   0.000260   0.000131
    16  H    0.000000   0.000000   0.000270  -0.000033  -0.000120   0.000074
    17  H    0.000000   0.000000  -0.000029   0.000000  -0.000043   0.000001
    18  O    0.000000   0.000000  -0.000005   0.000000  -0.000003  -0.000001
    19  C    0.000006   0.000002  -0.000003   0.000000   0.000000  -0.000010
    20  H    0.000000   0.000000   0.000000   0.000000   0.000000   0.000000
    21  H    0.000000   0.000000   0.000000   0.000000   0.000000   0.000000
    22  H   -0.000021   0.000010   0.000001   0.000000   0.000000  -0.000027
    23  C    0.384087   0.367578   0.000094   0.000072   0.000033   0.000565
    24  H   -0.027620  -0.042547  -0.000399   0.000011   0.000007   0.000749
    25  H    0.520020  -0.030930   0.000027  -0.000004   0.000000  -0.000033
    26  H   -0.030930   0.564905  -0.001026  -0.000138   0.000212  -0.000508
    27  C    0.000027  -0.001026   4.944396   0.388245   0.368207   0.361495
    28  H   -0.000004  -0.000138   0.388245   0.501228  -0.029770  -0.028135
    29  H    0.000000   0.000212   0.368207  -0.029770   0.573315  -0.044023
    30  H   -0.000033  -0.000508   0.361495  -0.028135  -0.044023   0.579960
    31  C    0.000000   0.000000   0.000000   0.000000   0.000001   0.000000
    32  H    0.000000   0.000000   0.000000   0.000000   0.000000   0.000000
    33  H    0.000000   0.000000   0.000001   0.000000   0.000000   0.000000
    34  H    0.000000   0.000000   0.000000   0.000000   0.000000   0.000000
              31         32         33         34
     1  C   -0.000005   0.000000  -0.000001   0.000000
     2  C    0.000005   0.000000   0.000000   0.000000
     3  C   -0.000051   0.000002   0.000002   0.000000
     4  C    0.005806   0.000037   0.000067  -0.000275
     5  C    0.000290   0.000028  -0.000154   0.000009
     6  H   -0.000001   0.000000   0.000000   0.000000
     7  H   -0.000001   0.000000   0.000000  -0.000001
     8  H    0.000000   0.000000   0.000000   0.000000
     9  H   -0.000155   0.000008   0.000010   0.000003
    10  H   -0.000521   0.000061   0.000007  -0.000034
    11  O    0.000014  -0.000031   0.000007   0.000001
    12  O    0.000000   0.000000   0.000000   0.000000
    13  O    0.000000   0.000000   0.000000   0.000000
    14  O   -0.000010   0.000000  -0.000002   0.000000
    15  C   -0.041282  -0.007679  -0.007166   0.005579
    16  H   -0.003938  -0.002110   0.010685  -0.000102
    17  H   -0.003830   0.010546  -0.002061  -0.000136
    18  O    0.245060  -0.035575  -0.036059  -0.031376
    19  C    0.000000   0.000000   0.000000   0.000000
    20  H    0.000000   0.000000   0.000000   0.000000
    21  H    0.000000   0.000000   0.000000   0.000000
    22  H    0.000000   0.000000   0.000000   0.000000
    23  C    0.000000   0.000000   0.000000   0.000000
    24  H    0.000000   0.000000   0.000000   0.000000
    25  H    0.000000   0.000000   0.000000   0.000000
    26  H    0.000000   0.000000   0.000000   0.000000
    27  C    0.000000   0.000000   0.000001   0.000000
    28  H    0.000000   0.000000   0.000000   0.000000
    29  H    0.000001   0.000000   0.000000   0.000000
    30  H    0.000000   0.000000   0.000000   0.000000
    31  C    4.886456   0.367740   0.370004   0.385715
    32  H    0.367740   0.584451  -0.044356  -0.030549
    33  H    0.370004  -0.044356   0.578681  -0.029925
    34  H    0.385715  -0.030549  -0.029925   0.521566
 Mulliken charges:
               1
     1  C    0.098009
     2  C    0.039321
     3  C    0.281815
     4  C    0.035423
     5  C    0.105038
     6  H    0.283133
     7  H    0.263267
     8  H    0.171016
     9  H    0.235291
    10  H    0.203805
    11  O   -0.299103
    12  O   -0.465381
    13  O   -0.481798
    14  O   -0.482782
    15  C   -0.023264
    16  H    0.185003
    17  H    0.177672
    18  O   -0.483459
    19  C   -0.242040
    20  H    0.159361
    21  H    0.201274
    22  H    0.181682
    23  C   -0.226079
    24  H    0.157631
    25  H    0.182635
    26  H    0.173500
    27  C   -0.244464
    28  H    0.195583
    29  H    0.167308
    30  H    0.164689
    31  C   -0.211296
    32  H    0.157427
    33  H    0.160258
    34  H    0.179523
 Sum of Mulliken charges =   1.00000
 Mulliken charges with hydrogens summed into heavy atoms:
               1
     1  C    0.269026
     2  C    0.302588
[...]
 2,0.00001874,0.00013882,0.00845456,0.00634248,-0.01522072,0.00005495,-
 0.00027754,-0.00022679,0.00006468,-0.00063055,-0.00059552,0.00000433,0
 .00000713,0.00000022,0.00006508,0.00002890,0.00000948,-0.00000222,-0.0
 0001675,-0.00000548,0.00000310,-0.00000111,0.00000217,0.,0.00000221,0.
 00000527,0.00000560,0.00000366,0.00000165,0.00012185,-0.00004380,0.000
 04761,-0.00002192,-0.00000840,-0.00002130,-0.00003139,0.00001312,-0.00
 000372,-0.00005989,-0.00004431,-0.00007416,-0.05462691,-0.08614804,0.0
 6630787,-0.02082796,-0.00886303,0.02295057,0.06083245,0.08815667,-0.00
 056429,-0.00062127,-0.00024217,0.00026092,0.00014037,0.00018110,0.0001
 3792,0.00032236,-0.00021388,0.00054194,-0.00029908,-0.00038740,0.00025
 901,0.00651833,0.00033079,-0.00002102,-0.00002400,-0.00000660,-0.00004
 435,0.00005010,0.00003124,0.00011790,0.00001145,0.00003906,0.00017739,
 -0.00152159,0.00055165,-0.00005124,-0.00060084,0.00001003,-0.00036096,
 -0.00070483,0.00076051,0.00020910,-0.00031886,0.00003728,0.00018848,0.
 00015372,0.00001955,0.00897451,-0.00157674,-0.03738598,-0.00004487,-0.
 00041667,-0.00018368,-0.00009411,-0.00044568,-0.00070884,-0.00007315,0
 .00001316,-0.00001318,0.00002470,0.00006190,0.00019166,-0.00006237,0.0
 0000363,-0.00014220,0.00000122,-0.00000014,0.00001817,0.00001114,-0.00
 000922,0.00001725,-0.00000677,0.00001380,0.00000763,-0.00026221,-0.000
 16023,0.00002751,0.00009679,-0.00004143,0.00002417,0.00005541,0.000026
 81,0.00000505,-0.00022137,-0.00010492,0.00002161,0.11051221,0.06383941
 ,-0.17968216,0.00261097,0.00227796,-0.00036019,-0.12004485,-0.06532153
 ,0.20993385,-0.00081076,0.00027752,-0.00044088,0.00046942,-0.00029396,
 0.00008065,-0.00011187,0.00006358,0.00010343,-0.00003580,0.00013771,-0
 .00028704,-0.00004674,0.00319398,0.00055878,0.00002789,0.00000712,-0.0
 0004231,-0.00000194,0.00016651,0.00006958,-0.00046085,0.00105159,0.001
 53140,-0.00022697,0.00006618,0.00013109,0.00008694,-0.00031681,-0.0000
 6854,0.00005140,-0.00037393,0.00004493,0.00015647,-0.00017117,0.000009
 87,0.00027163,-0.00006888,0.00036766,-0.00442393,-0.00536757,-0.011877
 84,0.00005582,0.00021493,0.00017978,0.00011340,-0.00001899,-0.00001196
 ,-0.00002677,-0.00004436,-0.00001248,-0.00008862,-0.00008879,-0.000083
 40,-0.00006543,-0.00004913,-0.00010260,0.00000090,-0.00000974,0.000013
 49,0.00000582,0.00000736,0.00001670,0.00001316,0.00003407,0.00000349,-
 0.00038838,-0.00000454,0.00043404,0.00031525,-0.00003082,0.00024521,-0
 .00003634,0.00009531,0.00005107,-0.00017403,0.00002403,0.00004081,-0.2
 9302501,0.05531261,-0.04111426,-0.00171199,0.00079535,0.00086752,-0.01
 711181,0.00570109,-0.00233884,0.31711445,0.00080582,-0.00031278,-0.000
 55707,-0.00006884,0.00014720,0.00024962,-0.00015216,-0.00005701,0.0001
 2137,-0.00003313,-0.00009411,-0.00021913,-0.00234840,0.00217638,0.0006
 7417,-0.00000787,-0.00000648,-0.00003604,0.00000961,0.00004094,-0.0000
 1703,0.00121791,-0.00192349,-0.00082893,-0.00014150,0.00007831,0.00010
 103,0.00022045,-0.00010718,0.00002162,0.00009119,-0.00018685,0.0000537
 3,-0.00008783,0.00012203,-0.00003009,-0.00027498,-0.00022032,0.0001974
 3,-0.01545661,0.00283108,-0.00832434,-0.00005123,0.00010447,0.00002761
 ,0.00005858,0.00000245,0.00000135,0.00001902,-0.00000973,0.00000306,0.
 00004845,0.00000184,0.00001918,0.00002077,-0.00000621,0.00002617,-0.00
 000686,-0.00000799,0.00000402,-0.00000380,0.00000617,-0.00000176,0.000
 00501,-0.00000390,-0.00001340,0.00014472,0.00058683,-0.00017576,-0.000
 12132,0.00018955,-0.00006820,0.00004321,-0.00012301,-0.00003413,0.0000
 7900,-0.00015459,0.00010442,0.05715064,-0.06735534,0.01151067,0.031578
 97,-0.00397888,0.00494670,-0.01242175,0.00361409,-0.00125409,-0.060319
 79,0.06464343,0.00018579,-0.00114314,0.00014317,0.00023167,0.00021745,
 0.00030649,-0.00027459,0.00012752,0.00017384,0.00026721,0.00008089,-0.
 00056931,-0.00115147,0.00458421,0.00213131,0.00002024,-0.00000123,-0.0
 0003900,-0.00003101,0.00011072,0.00002270,0.00141074,-0.00107244,-0.00
 148376,0.00008638,-0.00019947,-0.00002815,0.00030248,-0.00023731,-0.00
 010329,0.00008945,-0.00059696,0.00018059,0.00010200,-0.00010803,-0.000
 03540,0.00036336,0.00046826,-0.00012030,-0.03550325,-0.00008872,-0.018
 96962,0.00001031,0.00005701,-0.00002900,0.00009332,-0.00001187,-0.0000
 8566,-0.00001200,-0.00005564,-0.00000967,-0.00012035,-0.00001793,-0.00
 000244,-0.00004447,-0.00005255,-0.00003937,0.00000555,0.00001282,-0.00
 000347,0.00000708,0.00000107,0.00000169,0.00000153,-0.00000047,0.00001
 237,-0.00014472,-0.00066682,-0.00044029,0.00037032,-0.00005181,0.00004
 325,0.00004093,0.00018517,0.00020170,-0.00015539,0.00014008,-0.0005205
 3,-0.03719972,0.00857309,-0.05937104,-0.00337184,0.00166949,0.00065014
 ,0.02277447,-0.00541657,0.00707710,0.05159396,-0.00650584,0.07087838,-
 0.00094073,0.00008831,0.00035044,-0.00068288,0.00050581,-0.00029619,-0
 .00216836,0.00040610,0.00104839,-0.00125898,0.00253479,0.00158389,-0.0
 0017760,-0.00177189,-0.00012406,0.00019101,0.00001457,-0.00010243,0.00
 005243,0.00008557,0.00011199,0.00014629,-0.00000790,0.00003124,0.00129
 291,-0.00042256,0.00040784,-0.00078247,-0.00034368,0.00044633,0.002349
 39,-0.00110253,-0.00092843,0.00074839,-0.00023965,0.00021070,0.0009453
 7,0.00058648,-0.00054007,0.00079468,0.00109589,0.00045648,-0.01661757,
 -0.00438084,-0.01623410,0.00291659,0.00238597,0.00616652,0.00340095,0.
 00191598,0.00672488,-0.21606334,-0.00017194,-0.04845918,-0.00023074,-0
 .00005652,-0.00032841,0.00000750,0.00003082,-0.00001052,0.00005205,-0.
 00002377,0.00002774,-0.00000972,0.00004169,0.00003614,-0.00028004,-0.0
 0052969,-0.00013196,0.00003271,0.00004070,0.00007457,0.00007173,0.0000
 7037,-0.00003083,-0.00002345,0.00003364,0.00006693,-0.00047159,-0.0003
 9523,-0.00063772,0.00005888,0.00013913,0.00004771,-0.00000046,-0.00004
 065,0.00001594,0.00010522,-0.00000180,0.00009199,0.46432070,0.00007927
 ,-0.00009913,-0.00012196,-0.00000811,-0.00006808,0.00000137,-0.0002310
 7,0.00026099,0.00025179,-0.00089239,-0.00161822,-0.00254941,-0.0003322
 6,0.00030411,-0.00028725,0.00000283,0.,-0.00000368,-0.00004840,0.00001
 636,0.00000241,-0.00004646,0.00000330,0.00001830,-0.00053673,0.0003866
 6,-0.00015649,0.00015010,0.00002731,-0.00019467,0.00022509,0.00000912,
 -0.00015731,-0.00001304,0.00000685,0.00000024,-0.00009303,-0.00005849,
 0.00007948,0.00004665,-0.00019522,-0.00002801,-0.01515620,-0.00510898,
 -0.00553178,-0.00337639,0.00180635,-0.00151174,0.00194112,0.00128644,0
 .00080947,0.01642782,-0.06598721,-0.00432258,0.00000754,0.00000286,0.0
 0000526,-0.00000135,-0.00000068,0.00000177,0.00000080,0.00000253,0.000
 00044,0.00000224,-0.00000290,-0.00000118,0.00001129,0.00007459,0.00001
 273,0.00000057,-0.00000797,-0.00000275,-0.00000710,-0.00000702,0.00000
 072,0.00000374,-0.00001232,-0.00001160,0.00002239,-0.00000633,0.000033
 68,-0.00001688,-0.00002414,-0.00002047,0.00000839,0.00002900,-0.000010
 41,0.00001633,0.00000264,0.00000247,0.00068529,0.58205246,-0.00030161,
 0.00002405,0.00037983,-0.00019495,0.00015391,-0.00006119,-0.00074342,0
 .00038597,0.00015772,-0.00112240,-0.00152234,-0.00651644,0.00057329,-0
 .00012036,-0.00048473,0.00001449,0.00000566,-0.00000033,-0.00004488,0.
 00002901,0.00006201,0.00018637,-0.00001517,-0.00001124,-0.00137522,0.0
 0001591,0.00005791,-0.00067625,-0.00069729,0.00079081,0.00069656,-0.00
 032492,-0.00003276,0.00022159,-0.00007818,0.00005989,0.00023460,0.0001
 9277,-0.00016020,0.00028409,0.00038575,0.00041495,-0.04351454,-0.00246
 638,-0.02537282,0.00023361,0.00122715,0.00272852,-0.00167364,-0.000481
 46,0.00205846,-0.00877691,-0.00950995,-0.08901872,-0.00005629,-0.00001
 574,-0.00009581,0.00000282,0.00000830,-0.00000357,0.00001447,-0.000008
 39,0.00000988,-0.00000517,0.00001135,0.00001133,-0.00008303,-0.0001598
 6,-0.00003377,0.00000749,0.00001204,0.00002030,0.00002384,0.00002148,-
 0.00001020,-0.00000621,0.00001095,0.00002173,-0.00008902,-0.00003727,-
 0.00028229,0.00001460,0.00004502,0.00006680,-0.00001931,-0.00000585,0.
 00004487,0.00003706,0.00000216,0.00003325,-0.03307760,0.02046248,0.616
 14050,0.00017014,-0.00001598,-0.00021729,0.00013115,-0.00010193,0.0000
 3778,0.00031747,-0.00010845,-0.00010281,0.00036298,-0.00010358,-0.0001
 2721,0.00005258,0.00022526,0.00021578,-0.00002878,-0.00000336,0.000016
 58,0.00000440,-0.00002056,-0.00002399,-0.00008094,0.00000992,0.0000035
 2,-0.00018573,0.00011717,-0.00006170,0.00032702,0.00025086,-0.00035371
 ,-0.00024886,0.00007451,0.00012778,-0.00014221,0.00005834,-0.00004410,
 -0.00015200,-0.00011262,0.00009549,-0.00017101,-0.00025380,-0.00018616
 ,0.00151560,0.00140767,0.00721246,-0.00015714,-0.00030000,-0.00081323,
 0.00018423,0.00022379,-0.00202520,-0.03979374,-0.02040099,0.01114143,0
 .00003862,0.00000727,0.00006803,0.00000013,-0.00000575,-0.00000018,-0.
 00001018,0.00000516,-0.00000559,0.00000358,-0.00000650,-0.00000754,0.0
 0005684,0.00010144,0.00002485,-0.00000600,-0.00000641,-0.00001569,-0.0
 0001352,-0.00001281,0.00000670,0.00000433,-0.00000516,-0.00001255,0.00
 008190,0.00004245,0.00015661,-0.00001236,-0.00002982,-0.00002600,0.000
 00218,0.00000781,-0.00001552,-0.00002236,0.00000131,-0.00002168,-0.113
 70815,-0.07483446,0.07693173,0.14033435,0.00001661,0.00002254,-0.00002
 049,0.00002817,-0.00000824,0.00001424,0.00002552,-0.00001138,-0.000023
 19,0.00011757,0.00008289,-0.00032872,0.00015985,-0.00001186,0.00006913
 ,-0.00000181,-0.00000352,0.00000113,-0.00000118,-0.00000594,-0.0000009
 1,-0.00000600,-0.00000240,-0.00000122,-0.00007558,0.00000187,-0.000007
 07,0.00003996,0.00001809,-0.00001837,-0.00000353,-0.00000927,0.0000376
 8,-0.00002432,0.00000748,-0.00001226,-0.00000868,-0.00000635,-0.000005
 68,-0.00004451,-0.00001075,-0.00003588,0.00010242,0.00051800,0.0007851
 1,0.00011815,-0.00042474,0.00020949,-0.00050990,-0.00046083,-0.0006669
 0,-0.00230127,0.00628558,-0.00449562,0.00000807,0.00000175,0.00001432,
 0.00000026,-0.00000063,-0.00000074,-0.00000186,0.00000059,-0.00000095,
 0.00000009,-0.00000155,-0.00000115,0.00001045,0.00000492,0.00000292,-0
 .00000208,0.00000121,-0.00000347,-0.00000016,-0.00000062,0.00000110,0.
 00000049,0.00000191,0.00000135,0.00000949,0.00001559,0.00003718,0.0000
 0071,-0.00000152,-0.00000045,0.00000066,0.00000115,-0.00000472,-0.0000
 0608,0.,-0.00000706,-0.07674284,-0.14501686,0.09301130,0.08726346,0.14
 766887,-0.00007066,0.00000465,-0.00005959,-0.00002657,0.00001874,-0.00
 000630,-0.00009617,0.00002658,0.00006067,-0.00009560,0.00020594,0.0002
 0818,-0.00011251,-0.00015175,-0.00001235,0.00001238,-0.00000150,-0.000
 00893,-0.00000025,0.00000597,0.00000066,-0.00001273,0.00000420,0.00000
 446,0.00004612,0.00002700,-0.00002166,-0.00000557,0.00003713,-0.000070
 34,0.00014928,-0.00010162,-0.00004921,0.00003447,-0.00001485,0.0000127
 2,0.00005943,0.00001602,-0.00001448,0.00003199,0.00002177,0.00002115,-
 0.00180845,-0.00218788,0.00402501,-0.00001487,0.00019859,-0.00031087,0
 .00112836,0.00104717,0.00026078,-0.00796477,-0.00842019,0.00877547,-0.
 00001148,-0.00000073,-0.00001819,-0.00000057,0.00000120,0.00000115,0.0
 0000299,-0.00000077,0.00000132,-0.00000026,0.00000135,0.00000148,-0.00
 001657,-0.00002247,-0.00000672,0.00000362,0.00000125,0.00000543,0.0000
 0160,0.00000282,-0.00000148,-0.00000132,-0.00000033,0.00000063,-0.0000
 2693,-0.00002788,-0.00002494,0.00000113,0.00000383,-0.00000284,0.00000
 271,0.00000069,0.00000060,0.00000767,-0.00000045,0.00000418,0.08104809
 ,0.09310559,-0.15253326,-0.08648171,-0.10129698,0.15391576,0.00012016,
 0.00001770,-0.00005552,0.00013425,-0.00005993,0.00006675,0.00047592,-0
 .00021092,-0.00024355,0.00024779,-0.00023307,0.00011079,0.00008979,0.0
 0028281,-0.00000162,-0.00002337,-0.00001142,0.00000050,0.00000615,-0.0
 0001443,-0.00002293,-0.00002063,-0.00000047,-0.00000353,-0.00019618,0.
 00003495,-0.00000666,0.00013185,0.00017038,-0.00010250,-0.00020236,-0.
 00002879,0.00020620,-0.00012230,0.00002588,-0.00003685,-0.00012487,-0.
 00009773,0.00008030,-0.00008073,-0.00018296,-0.00007084,0.00162216,0.0
 0347483,0.00616901,0.00028040,-0.00141627,-0.00098819,-0.00019513,-0.0
 0038350,-0.00080920,-0.03279108,0.03226643,-0.00803526,0.00003684,0.00
 001199,0.00005101,-0.00000161,-0.00000502,0.00000275,-0.00000865,0.000
 00301,-0.00000497,0.,-0.00000696,-0.00000639,0.00003519,0.00007962,0.0
 0001814,-0.00000314,-0.00000763,-0.00000856,-0.00001107,-0.00001097,0.
 00000388,0.00000270,-0.00000897,-0.00001123,0.00005996,0.00002305,0.00
 006494,-0.00001212,-0.00002153,-0.00000983,-0.00000845,0.00000323,0.00
 000147,-0.00000899,0.00000121,-0.00000867,-0.07554770,0.07276404,0.002
 55361,0.00875223,-0.01548566,-0.00072631,0.09548218,-0.00006540,0.0000
 0676,0.00004326,-0.00005463,0.00003485,-0.00002863,-0.00022344,0.00004
 973,0.00003729,-0.00016250,0.00046333,0.00030180,0.00000815,-0.0001979
 4,-0.00001765,0.00001673,0.00000372,0.00001344,-0.00000171,-0.00000159
 ,0.00001159,0.00001653,0.00000030,0.00000061,0.00011557,-0.00006028,0.
 00001862,-0.00007466,-0.00004646,0.00005812,0.00003771,-0.00002900,-0.
 00014518,0.00006003,-0.00000983,0.00001935,0.00007149,0.00005793,-0.00
 004491,0.00002365,0.00010322,0.00003453,-0.00104657,0.00231563,-0.0009
 7261,0.00121914,-0.00046036,0.00136283,-0.00013967,-0.00050722,0.00018
 468,0.00614457,0.00747724,0.00148010,-0.00001991,-0.00000684,-0.000028
 11,0.00000103,0.00000181,-0.00000080,0.00000325,-0.00000210,0.00000249
 ,-0.00000014,0.00000469,0.00000342,-0.00001956,-0.00005128,-0.00001133
 ,0.00000168,0.00000474,0.00000507,0.00000627,0.00000594,-0.00000198,-0
 .00000220,0.00000616,0.00000720,-0.00003353,-0.00001963,-0.00004162,0.
 00000850,0.00001400,0.00000579,0.00000156,-0.00000628,0.00000004,0.000
 00255,0.,0.00000476,0.07693287,-0.28030804,-0.00850251,0.00559877,-0.0
 1726726,-0.00164345,-0.09059388,0.29698983,-0.00001217,0.00000389,-0.0
 0000850,0.00000463,0.00000674,0.00000255,0.00000855,-0.00007568,-0.000
 02177,-0.00015006,0.00008360,0.00007206,0.00003623,0.00000578,0.000067
 12,0.00001548,-0.00000374,-0.00000229,0.00000422,-0.00000555,-0.000000
 11,-0.00000501,0.00000034,-0.00000176,-0.00004435,-0.00002335,0.000004
 06,0.00003141,0.00002183,-0.00001374,0.00015149,-0.00014314,-0.0000591
 9,0.00000126,-0.00000094,-0.00000160,0.00001145,0.00000813,-0.00001417
 ,0.00004376,0.00001984,-0.00003204,-0.00052281,0.00372799,0.00228105,0
 .00068065,-0.00088476,0.00014705,0.00007881,-0.00000572,-0.00022711,-0
 .00940865,0.00785646,-0.00002417,-0.00000113,0.00000019,-0.00000050,0.
 00000010,0.00000004,0.00000001,-0.00000010,-0.00000024,0.00000014,-0.0
 0000002,0.00000019,0.00000027,-0.00000019,-0.00000563,-0.00000115,-0.0
 0000084,0.00000164,-0.00000044,0.00000220,0.00000022,-0.00000035,-0.00
 000033,0.00000046,0.00000329,-0.00001528,-0.00001407,-0.00000615,0.000
 00006,0.00000110,0.00000016,-0.00000844,-0.00000046,-0.00000707,0.0000
 0299,0.00000030,-0.00000165,0.00422840,-0.00922394,-0.05567449,-0.0060
 6115,0.01999288,0.00173498,0.00065978,0.00748968,0.04987435,0.00011018
 ,-0.00001123,-0.00001248,0.00007518,-0.00007201,0.00004282,0.00025091,
 0.00001389,-0.00016236,0.00009177,-0.00091630,-0.00211984,0.00018652,0
 .00030597,-0.00016473,-0.00003151,0.00000022,0.00001761,-0.00003672,-0
 .00001496,-0.00001413,0.00000795,0.00000040,-0.00000133,-0.00067417,0.
 00013734,-0.00005487,0.00002699,-0.00001169,0.00003672,-0.00020004,0.0
 0006230,0.00016880,-0.00007930,0.00002762,-0.00001028,-0.00011860,-0.0
 0006278,0.00007934,-0.00009238,-0.00013123,0.00000078,-0.00572550,0.00
 050482,-0.00023657,-0.00007831,-0.00029175,-0.00006235,-0.00002059,0.0
 0016952,-0.00049016,-0.01070653,-0.01413721,-0.04060094,0.00002517,0.0
 0000677,0.00002582,-0.00000182,-0.00000458,0.00000432,-0.00000566,0.00
 000261,-0.00000207,0.00000143,-0.00000417,-0.00000325,0.00002675,0.000
 05725,0.00001493,-0.00000208,-0.00000511,-0.00000610,-0.00000983,-0.00
 000910,0.00000320,0.00000313,-0.00000348,-0.00000960,0.00006922,0.0000
 4761,0.00005028,-0.00000947,-0.00001723,0.00000306,-0.00000488,0.00000
 873,0.00000889,-0.00000917,0.00000198,-0.00000960,-0.04852302,0.003198
 39,0.00973025,0.00239325,0.00731355,0.01494344,0.00188077,0.00216775,0
 .01026907,0.06118037,0.00002035,0.00002271,-0.00002071,0.00002395,-0.0
 0001528,0.00001302,0.00004884,0.00002985,-0.00004643,0.00013182,0.0003
 5707,-0.00006637,0.00003635,0.00002339,-0.00000618,-0.00000165,-0.0000
 0136,0.00001512,-0.00000340,0.00000117,-0.00000498,-0.00000224,-0.0000
 0175,0.00000230,-0.00000511,-0.00001740,-0.00000291,0.00000803,0.00001
 469,-0.00002030,-0.00016740,0.00002749,-0.00000807,-0.00002143,0.00000
 024,-0.00000347,-0.00001539,-0.00002137,0.00002114,-0.00002735,-0.0000
 2901,-0.00000104,0.00015059,0.00071641,0.00095511,0.00013347,0.0002823
 8,0.00031661,-0.00002699,0.00000624,-0.00035819,-0.00114726,0.00090898
 ,0.00118896,0.00000735,0.00000352,0.00000663,-0.00000085,-0.00000107,0
 .00000188,-0.00000123,0.00000055,-0.00000080,-0.00000030,-0.00000181,-
 0.00000119,0.00000340,0.00001082,0.00000188,0.00000081,-0.00000196,0.0
 0000041,-0.00000370,-0.00000182,0.00000074,0.00000047,-0.00000187,-0.0
 0000372,0.00001114,0.00000590,0.00000893,-0.00000006,-0.00000213,-0.00
 000187,-0.00000052,-0.00000192,0.00000318,-0.00000329,0.00000043,-0.00
 000116,-0.00136246,-0.08775000,-0.09205959,0.00092699,0.00861127,0.019
 14037,-0.00037902,-0.00856578,-0.02883411,0.00166610,0.08539139,0.0001
 0357,-0.00002962,-0.00002534,0.00006524,-0.00006466,0.00002577,0.00025
 001,-0.00004186,-0.00014304,0.00029900,-0.00055540,-0.00050513,-0.0000
 4095,0.00021622,-0.00005095,-0.00002394,0.00000226,0.00001751,-0.00001
 577,-0.00001192,-0.00001277,-0.00000851,0.00000363,-0.00000366,-0.0002
 4230,0.00005707,-0.00002438,0.00005629,0.00003851,-0.00004545,-0.00026
 947,0.00013984,0.00010910,-0.00007337,0.00003017,-0.00001181,-0.000111
 19,-0.00005926,0.00007308,-0.00007982,-0.00011242,-0.00003150,-0.00168
 392,0.00098285,0.00269703,0.00008110,-0.00012293,-0.00006808,0.0001303
 3,0.00004585,0.00014878,-0.00651814,-0.00280285,-0.00913628,0.00002132
 ,0.00000497,0.00002548,-0.00000155,-0.00000409,0.00000331,-0.00000538,
 0.00000247,-0.00000232,0.00000180,-0.00000337,-0.00000296,0.00002791,0
 .00005467,0.00001339,-0.00000269,-0.00000464,-0.00000687,-0.00000872,-
 0.00000833,0.00000334,0.00000247,-0.00000336,-0.00000826,0.00005275,0.
 00003574,0.00005377,-0.00000556,-0.00001316,-0.00000329,-0.00000384,0.
 00000203,0.00000267,-0.00001106,0.00000166,-0.00000820,-0.00227468,-0.
 09065297,-0.29276696,0.00056426,-0.00724598,-0.01589347,0.00116350,0.0
 0035408,0.00191116,0.00856131,0.09976482,0.31366638\\-0.00000119,-0.00
 000134,-0.00000572,-0.00000227,-0.00000494,0.00000114,-0.00000271,0.00
 000096,0.00000783,0.00000380,0.00000361,0.00000634,-0.00000019,-0.0000
 0065,-0.00000098,-0.00000036,0.00000090,0.00001317,-0.00000862,-0.0000
 0861,0.00000265,0.00000326,0.00000186,-0.00000977,0.00000881,0.0000087
 9,0.00000438,-0.00000525,-0.00000481,0.00000169,0.00000270,0.00000430,
 0.00001193,-0.00000508,-0.00000349,-0.00000370,-0.00000651,-0.00000712
 ,-0.00001218,0.00000081,-0.00000039,-0.00000742,0.00000283,0.00000522,
 0.00001223,0.00000280,0.00000380,0.00001028,0.00000472,0.00000745,0.00
 001884,-0.00000425,-0.00000224,0.00001729,0.00000261,0.00000085,-0.000
 00643,0.00000494,0.00000469,-0.00000176,0.00000023,-0.00000046,-0.0000
 0668,0.00000275,0.00000087,-0.00001287,-0.00000312,-0.00000727,-0.0000
 2052,0.00000056,-0.00000323,-0.00002322,-0.00000765,-0.00001103,-0.000
 02406,-0.00000254,-0.00000564,-0.00002105,0.00000787,0.00000635,-0.000
 01048,0.00000806,0.00000598,-0.00001510,0.00001116,0.00001062,-0.00000
 601,0.00000811,0.00000653,-0.00001448,-0.00000640,-0.00000301,0.000021
 68,-0.00000360,0.00000060,0.00002843,-0.00000527,-0.00000193,0.0000198
 0,-0.00001100,-0.00000724,0.00002475\\\@


 FROM THE ASHES OF OUR DESPAIR GROW THE FLOWERS OF TOMORROW.
 Job cpu time:       0 days  2 hours 33 minutes 38.0 seconds.
 Elapsed time:       0 days  0 hours 41 minutes 15.0 seconds.
 File lengths (MBytes):  RWF=    378 Int=      0 D2E=      0 Chk=     17 Scr=      1
 Normal termination of Gaussian 16 at Fri May 24 09:19:17 2019.
