 Entering Gaussian System, Link 0=g16
 Input=clay-glucose_cation-016-b3lyp_d3bj-631gd-pcm_thf.gjf
 Output=clay-glucose_cation-016-b3lyp_d3bj-631gd-pcm_thf.out
 Initial command:
 /n/sw/g16_nehalem/g16/l1.exe "/scratch/Gau-1464.inp" -scrdir="/scratch/"
 Entering Link 1 = /n/sw/g16_nehalem/g16/l1.exe PID=      1465.
  
 Copyright (c) 1988,1990,1992,1993,1995,1998,2003,2009,2016,
            Gaussian, Inc.  All Rights Reserved.
  
 This is part of the Gaussian(R) 16 program.  It is based on
 the Gaussian(R) 09 system (copyright 2009, Gaussian, Inc.),
 the Gaussian(R) 03 system (copyright 2003, Gaussian, Inc.),
 the Gaussian(R) 98 system (copyright 1998, Gaussian, Inc.),
 the Gaussian(R) 94 system (copyright 1995, Gaussian, Inc.),
 the Gaussian 92(TM) system (copyright 1992, Gaussian, Inc.),
 the Gaussian 90(TM) system (copyright 1990, Gaussian, Inc.),
 the Gaussian 88(TM) system (copyright 1988, Gaussian, Inc.),
 the Gaussian 86(TM) system (copyright 1986, Carnegie Mellon
 University), and the Gaussian 82(TM) system (copyright 1983,
 Carnegie Mellon University). Gaussian is a federally registered
 trademark of Gaussian, Inc.
  
 This software contains proprietary and confidential information,
 including trade secrets, belonging to Gaussian, Inc.
  
 This software is provided under written license and may be
 used, copied, transmitted, or stored only in accord with that
 written license.
  
 The following legend is applicable only to US Government
 contracts under FAR:
  
                    RESTRICTED RIGHTS LEGEND
  
 Use, reproduction and disclosure by the US Government is
 subject to restrictions as set forth in subparagraphs (a)
 and (c) of the Commercial Computer Software - Restricted
 Rights clause in FAR 52.227-19.
  
 Gaussian, Inc.
 340 Quinnipiac St., Bldg. 40, Wallingford CT 06492
  
  
 ---------------------------------------------------------------
 Warning -- This program may not be used in any manner that
 competes with the business of Gaussian, Inc. or will provide
 assistance to any competitor of Gaussian, Inc.  The licensee
 of this program is prohibited from giving any competitor of
 Gaussian, Inc. access to this program.  By using this program,
 the user acknowledges that Gaussian, Inc. is engaged in the
 business of creating and licensing software in the field of
 computational chemistry and represents and warrants to the
 licensee that it is not a competitor of Gaussian, Inc. and that
 it will not use this program in any manner prohibited above.
 ---------------------------------------------------------------
  

 Cite this work as:
 Gaussian 16, Revision A.03,
 M. J. Frisch, G. W. Trucks, H. B. Schlegel, G. E. Scuseria, 
 M. A. Robb, J. R. Cheeseman, G. Scalmani, V. Barone, 
 G. A. Petersson, H. Nakatsuji, X. Li, M. Caricato, A. V. Marenich, 
 J. Bloino, B. G. Janesko, R. Gomperts, B. Mennucci, H. P. Hratchian, 
 J. V. Ortiz, A. F. Izmaylov, J. L. Sonnenberg, D. Williams-Young, 
 F. Ding, F. Lipparini, F. Egidi, J. Goings, B. Peng, A. Petrone, 
 T. Henderson, D. Ranasinghe, V. G. Zakrzewski, J. Gao, N. Rega, 
 G. Zheng, W. Liang, M. Hada, M. Ehara, K. Toyota, R. Fukuda, 
 J. Hasegawa, M. Ishida, T. Nakajima, Y. Honda, O. Kitao, H. Nakai, 
 T. Vreven, K. Throssell, J. A. Montgomery, Jr., J. E. Peralta, 
 F. Ogliaro, M. J. Bearpark, J. J. Heyd, E. N. Brothers, K. N. Kudin, 
 V. N. Staroverov, T. A. Keith, R. Kobayashi, J. Normand, 
 K. Raghavachari, A. P. Rendell, J. C. Burant, S. S. Iyengar, 
 J. Tomasi, M. Cossi, J. M. Millam, M. Klene, C. Adamo, R. Cammi, 
 J. W. Ochterski, R. L. Martin, K. Morokuma, O. Farkas, 
 J. B. Foresman, and D. J. Fox, Gaussian, Inc., Wallingford CT, 2016.
 
 ******************************************
 Gaussian 16:  ES64L-G16RevA.03 25-Dec-2016
                24-May-2019 
 ******************************************
 %nprocshared=4
 Will use up to    4 processors via shared memory.
 %mem=3GB
 -------------------------------------------------------------------
 #p b3lyp 6-31g* opt freq=noraman scrf=(pcm,solvent=tetrahydrofuran)
 -------------------------------------------------------------------
 1/18=20,19=15,26=3,38=1/1,3;
 2/9=110,12=2,17=6,18=5,40=1/2;
 3/5=1,6=6,7=1,11=2,25=1,30=1,70=2201,71=1,72=20,74=-5/1,2,3;
 4//1;
 5/5=2,38=5,53=20/2;
 6/7=2,8=2,9=2,10=2,28=1/1;
 7//1,2,3,16;
 1/18=20,19=15,26=3/3(2);
 2/9=110/2;
 99//99;
 2/9=110/2;
 3/5=1,6=6,7=1,11=2,25=1,30=1,70=2205,71=1,72=20,74=-5/1,2,3;
 4/5=5,16=3,69=1/1;
 5/5=2,38=5,53=20/2;
 7//1,2,3,16;
 1/18=20,19=15,26=3/3(-5);
 2/9=110/2;
 6/7=2,8=2,9=2,10=2,19=2,28=1/1;
 99/9=1/99;
 Leave Link    1 at Fri May 24 08:29:56 2019, MaxMem=   402653184 cpu:               0.3 elap:               0.1
 (Enter /n/sw/g16_nehalem/g16/l101.exe)
 -----
 title
 -----
 Symbolic Z-matrix:
 Charge =  1 Multiplicity = 1
 6                     0.60815   0.86372   0.49355 
 6                     1.56041   0.53087  -0.67016 
 6                     1.11882  -0.60004  -1.54579 
 6                    -0.87655  -1.10054  -0.24436 
 6                    -0.3105   -0.31338   0.94012 
 1                     1.74131  -0.90285  -2.3876 
 1                     1.68365   1.43573  -1.27714 
 1                     1.22635   1.16018   1.35025 
 1                    -1.14267  -2.11277   0.05835 
 1                    -1.19132   0.14384   1.39921 
 8                     0.14038  -1.35963  -1.33063 
 8                     2.80322   0.00404  -0.22665 
 8                    -0.18493   1.94078   0.01991 
 8                     0.21782  -1.12667   1.96651 
 6                    -2.06488  -0.44838  -0.96361 
 1                    -2.33397  -1.05772  -1.83931 
 1                    -1.79643   0.56141  -1.30411 
 8                    -3.10065  -0.41727  -0.01201 
 6                     3.97565   0.65201  -0.75599 
 1                     3.96235   1.71731  -0.50157 
 1                     4.82305   0.16045  -0.2781 
 1                     4.04484   0.52884  -1.84196 
 6                    -0.67858   2.81061   1.04124 
 1                    -1.35607   2.29434   1.73249 
 1                     0.15117   3.24919   1.60987 
 1                    -1.22913   3.60044   0.52792 
 6                     1.25389  -2.05883   1.65183 
 1                     1.45869  -2.59385   2.58078 
 1                     0.93271  -2.79231   0.89923 
 1                     2.16813  -1.56245   1.31181 
 6                    -4.3016    0.15424  -0.52265 
 1                    -4.14285   1.19342  -0.84214 
 1                    -4.68729  -0.42653  -1.37172 
 1                    -5.02795   0.13168   0.29162 
 
 ITRead=  0  0  0  0  0  0  0  0  0  0  0  0  0  0  0  0  0  0  0  0
 ITRead=  0  0  0  0  0  0  0  0  0  0  0  0  0  0
 MicOpt= -1 -1 -1 -1 -1 -1 -1 -1 -1 -1 -1 -1 -1 -1 -1 -1 -1 -1 -1 -1
 MicOpt= -1 -1 -1 -1 -1 -1 -1 -1 -1 -1 -1 -1 -1 -1
 NAtoms=     34 NQM=       34 NQMF=       0 NMMI=      0 NMMIF=      0
                NMic=       0 NMicF=      0.
                    Isotopes and Nuclear Properties:
 (Nuclear quadrupole moments (NQMom) in fm**2, nuclear magnetic moments (NMagM)
  in nuclear magnetons)

  Atom         1           2           3           4           5           6           7           8           9          10
 IAtWgt=          12          12          12          12          12           1           1           1           1           1
 AtmWgt=  12.0000000  12.0000000  12.0000000  12.0000000  12.0000000   1.0078250   1.0078250   1.0078250   1.0078250   1.0078250
 NucSpn=           0           0           0           0           0           1           1           1           1           1
 AtZEff=   0.0000000   0.0000000   0.0000000   0.0000000   0.0000000   0.0000000   0.0000000   0.0000000   0.0000000   0.0000000
 NQMom=    0.0000000   0.0000000   0.0000000   0.0000000   0.0000000   0.0000000   0.0000000   0.0000000   0.0000000   0.0000000
 NMagM=    0.0000000   0.0000000   0.0000000   0.0000000   0.0000000   2.7928460   2.7928460   2.7928460   2.7928460   2.7928460
 AtZNuc=   6.0000000   6.0000000   6.0000000   6.0000000   6.0000000   1.0000000   1.0000000   1.0000000   1.0000000   1.0000000

  Atom        11          12          13          14          15          16          17          18          19          20
 IAtWgt=          16          16          16          16          12           1           1          16          12           1
 AtmWgt=  15.9949146  15.9949146  15.9949146  15.9949146  12.0000000   1.0078250   1.0078250  15.9949146  12.0000000   1.0078250
 NucSpn=           0           0           0           0           0           1           1           0           0           1
 AtZEff=   0.0000000   0.0000000   0.0000000   0.0000000   0.0000000   0.0000000   0.0000000   0.0000000   0.0000000   0.0000000
 NQMom=    0.0000000   0.0000000   0.0000000   0.0000000   0.0000000   0.0000000   0.0000000   0.0000000   0.0000000   0.0000000
 NMagM=    0.0000000   0.0000000   0.0000000   0.0000000   0.0000000   2.7928460   2.7928460   0.0000000   0.0000000   2.7928460
 AtZNuc=   8.0000000   8.0000000   8.0000000   8.0000000   6.0000000   1.0000000   1.0000000   8.0000000   6.0000000   1.0000000

  Atom        21          22          23          24          25          26          27          28          29          30
 IAtWgt=           1           1          12           1           1           1          12           1           1           1
 AtmWgt=   1.0078250   1.0078250  12.0000000   1.0078250   1.0078250   1.0078250  12.0000000   1.0078250   1.0078250   1.0078250
 NucSpn=           1           1           0           1           1           1           0           1           1           1
 AtZEff=   0.0000000   0.0000000   0.0000000   0.0000000   0.0000000   0.0000000   0.0000000   0.0000000   0.0000000   0.0000000
 NQMom=    0.0000000   0.0000000   0.0000000   0.0000000   0.0000000   0.0000000   0.0000000   0.0000000   0.0000000   0.0000000
 NMagM=    2.7928460   2.7928460   0.0000000   2.7928460   2.7928460   2.7928460   0.0000000   2.7928460   2.7928460   2.7928460
 AtZNuc=   1.0000000   1.0000000   6.0000000   1.0000000   1.0000000   1.0000000   6.0000000   1.0000000   1.0000000   1.0000000

  Atom        31          32          33          34
 IAtWgt=          12           1           1           1
 AtmWgt=  12.0000000   1.0078250   1.0078250   1.0078250
 NucSpn=           0           1           1           1
 AtZEff=   0.0000000   0.0000000   0.0000000   0.0000000
 NQMom=    0.0000000   0.0000000   0.0000000   0.0000000
 NMagM=    0.0000000   2.7928460   2.7928460   2.7928460
 AtZNuc=   6.0000000   1.0000000   1.0000000   1.0000000
 Leave Link  101 at Fri May 24 08:29:56 2019, MaxMem=   402653184 cpu:               1.2 elap:               0.4
 (Enter /n/sw/g16_nehalem/g16/l103.exe)

 GradGradGradGradGradGradGradGradGradGradGradGradGradGradGradGradGradGrad
 Berny optimization.
 Initialization pass.
                           ----------------------------
                           !    Initial Parameters    !
                           ! (Angstroms and Degrees)  !
 --------------------------                            --------------------------
 ! Name  Definition              Value          Derivative Info.                !
 --------------------------------------------------------------------------------
 ! R1    R(1,2)                  1.5401         estimate D2E/DX2                !
 ! R2    R(1,5)                  1.5585         estimate D2E/DX2                !
 ! R3    R(1,8)                  1.0973         estimate D2E/DX2                !
 ! R4    R(1,13)                 1.4189         estimate D2E/DX2                !
 ! R5    R(2,3)                  1.4969         estimate D2E/DX2                !
 ! R6    R(2,7)                  1.0965         estimate D2E/DX2                !
 ! R7    R(2,12)                 1.4209         estimate D2E/DX2                !
 ! R8    R(3,6)                  1.0899         estimate D2E/DX2                !
 ! R9    R(3,11)                 1.2572         estimate D2E/DX2                !
 ! R10   R(4,5)                  1.5307         estimate D2E/DX2                !
 ! R11   R(4,9)                  1.0895         estimate D2E/DX2                !
 ! R12   R(4,11)                 1.5104         estimate D2E/DX2                !
 ! R13   R(4,15)                 1.5345         estimate D2E/DX2                !
 ! R14   R(5,10)                 1.0935         estimate D2E/DX2                !
 ! R15   R(5,14)                 1.4121         estimate D2E/DX2                !
 ! R16   R(12,19)                1.4404         estimate D2E/DX2                !
 ! R17   R(13,23)                1.4295         estimate D2E/DX2                !
 ! R18   R(14,27)                1.4288         estimate D2E/DX2                !
 ! R19   R(15,16)                1.1003         estimate D2E/DX2                !
 ! R20   R(15,17)                1.099          estimate D2E/DX2                !
 ! R21   R(15,18)                1.4069         estimate D2E/DX2                !
 ! R22   R(18,31)                1.4247         estimate D2E/DX2                !
 ! R23   R(19,20)                1.0953         estimate D2E/DX2                !
 ! R24   R(19,21)                1.09           estimate D2E/DX2                !
 ! R25   R(19,22)                1.0951         estimate D2E/DX2                !
 ! R26   R(23,24)                1.097          estimate D2E/DX2                !
 ! R27   R(23,25)                1.0974         estimate D2E/DX2                !
 ! R28   R(23,26)                1.0911         estimate D2E/DX2                !
 ! R29   R(27,28)                1.0914         estimate D2E/DX2                !
 ! R30   R(27,29)                1.0989         estimate D2E/DX2                !
 ! R31   R(27,30)                1.0945         estimate D2E/DX2                !
 ! R32   R(31,32)                1.0987         estimate D2E/DX2                !
 ! R33   R(31,33)                1.0986         estimate D2E/DX2                !
 ! R34   R(31,34)                1.0914         estimate D2E/DX2                !
 ! A1    A(2,1,5)              114.6923         estimate D2E/DX2                !
 ! A2    A(2,1,8)              107.4566         estimate D2E/DX2                !
 ! A3    A(2,1,13)             104.9176         estimate D2E/DX2                !
 ! A4    A(5,1,8)              108.2062         estimate D2E/DX2                !
 ! A5    A(5,1,13)             109.846          estimate D2E/DX2                !
 ! A6    A(8,1,13)             111.7426         estimate D2E/DX2                !
 ! A7    A(1,2,3)              115.017          estimate D2E/DX2                !
 ! A8    A(1,2,7)              108.0235         estimate D2E/DX2                !
 ! A9    A(1,2,12)             112.6512         estimate D2E/DX2                !
 ! A10   A(3,2,7)              109.4384         estimate D2E/DX2                !
 ! A11   A(3,2,12)              99.2363         estimate D2E/DX2                !
 ! A12   A(7,2,12)             112.362          estimate D2E/DX2                !
 ! A13   A(2,3,6)              119.553          estimate D2E/DX2                !
 ! A14   A(2,3,11)             125.8697         estimate D2E/DX2                !
 ! A15   A(6,3,11)             114.1312         estimate D2E/DX2                !
 ! A16   A(5,4,9)              110.6769         estimate D2E/DX2                !
 ! A17   A(5,4,11)             113.314          estimate D2E/DX2                !
 ! A18   A(5,4,15)             115.5002         estimate D2E/DX2                !
 ! A19   A(9,4,11)             101.8243         estimate D2E/DX2                !
 ! A20   A(9,4,15)             109.6279         estimate D2E/DX2                !
 ! A21   A(11,4,15)            104.904          estimate D2E/DX2                !
 ! A22   A(1,5,4)              112.622          estimate D2E/DX2                !
 ! A23   A(1,5,10)             106.219          estimate D2E/DX2                !
 ! A24   A(1,5,14)             115.0075         estimate D2E/DX2                !
 ! A25   A(4,5,10)             104.0069         estimate D2E/DX2                !
 ! A26   A(4,5,14)             113.8674         estimate D2E/DX2                !
 ! A27   A(10,5,14)            103.7117         estimate D2E/DX2                !
 ! A28   A(3,11,4)             122.9175         estimate D2E/DX2                !
 ! A29   A(2,12,19)            115.4966         estimate D2E/DX2                !
 ! A30   A(1,13,23)            114.6081         estimate D2E/DX2                !
 ! A31   A(5,14,27)            119.1422         estimate D2E/DX2                !
 ! A32   A(4,15,16)            109.0915         estimate D2E/DX2                !
 ! A33   A(4,15,17)            110.2773         estimate D2E/DX2                !
 ! A34   A(4,15,18)            105.218          estimate D2E/DX2                !
 ! A35   A(16,15,17)           108.7855         estimate D2E/DX2                !
 ! A36   A(16,15,18)           111.7487         estimate D2E/DX2                !
 ! A37   A(17,15,18)           111.6599         estimate D2E/DX2                !
 ! A38   A(15,18,31)           112.7706         estimate D2E/DX2                !
 ! A39   A(12,19,20)           110.0163         estimate D2E/DX2                !
 ! A40   A(12,19,21)           105.5928         estimate D2E/DX2                !
 ! A41   A(12,19,22)           111.4237         estimate D2E/DX2                !
 ! A42   A(20,19,21)           110.2555         estimate D2E/DX2                !
 ! A43   A(20,19,22)           109.907          estimate D2E/DX2                !
 ! A44   A(21,19,22)           109.5682         estimate D2E/DX2                !
 ! A45   A(13,23,24)           112.1555         estimate D2E/DX2                !
 ! A46   A(13,23,25)           110.6285         estimate D2E/DX2                !
 ! A47   A(13,23,26)           106.1768         estimate D2E/DX2                !
 ! A48   A(24,23,25)           109.1814         estimate D2E/DX2                !
 ! A49   A(24,23,26)           108.9966         estimate D2E/DX2                !
 ! A50   A(25,23,26)           109.6348         estimate D2E/DX2                !
 ! A51   A(14,27,28)           105.5714         estimate D2E/DX2                !
 ! A52   A(14,27,29)           111.9853         estimate D2E/DX2                !
 ! A53   A(14,27,30)           112.2267         estimate D2E/DX2                !
 ! A54   A(28,27,29)           108.0941         estimate D2E/DX2                !
 ! A55   A(28,27,30)           109.2696         estimate D2E/DX2                !
 ! A56   A(29,27,30)           109.5176         estimate D2E/DX2                !
 ! A57   A(18,31,32)           111.2135         estimate D2E/DX2                !
 ! A58   A(18,31,33)           111.1545         estimate D2E/DX2                !
 ! A59   A(18,31,34)           106.5773         estimate D2E/DX2                !
 ! A60   A(32,31,33)           109.0253         estimate D2E/DX2                !
 ! A61   A(32,31,34)           109.4309         estimate D2E/DX2                !
 ! A62   A(33,31,34)           109.3924         estimate D2E/DX2                !
 ! D1    D(5,1,2,3)             23.7579         estimate D2E/DX2                !
 ! D2    D(5,1,2,7)            146.3082         estimate D2E/DX2                !
 ! D3    D(5,1,2,12)           -88.9897         estimate D2E/DX2                !
 ! D4    D(8,1,2,3)            144.094          estimate D2E/DX2                !
 ! D5    D(8,1,2,7)            -93.3557         estimate D2E/DX2                !
 ! D6    D(8,1,2,12)            31.3464         estimate D2E/DX2                !
 ! D7    D(13,1,2,3)           -96.8515         estimate D2E/DX2                !
 ! D8    D(13,1,2,7)            25.6988         estimate D2E/DX2                !
 ! D9    D(13,1,2,12)          150.4009         estimate D2E/DX2                !
 ! D10   D(2,1,5,4)            -41.5236         estimate D2E/DX2                !
 ! D11   D(2,1,5,10)          -154.7457         estimate D2E/DX2                !
 ! D12   D(2,1,5,14)            91.1696         estimate D2E/DX2                !
 ! D13   D(8,1,5,4)           -161.4442         estimate D2E/DX2                !
 ! D14   D(8,1,5,10)            85.3337         estimate D2E/DX2                !
 ! D15   D(8,1,5,14)           -28.7509         estimate D2E/DX2                !
 ! D16   D(13,1,5,4)            76.3276         estimate D2E/DX2                !
 ! D17   D(13,1,5,10)          -36.8945         estimate D2E/DX2                !
 ! D18   D(13,1,5,14)         -150.9791         estimate D2E/DX2                !
 ! D19   D(2,1,13,23)         -152.2819         estimate D2E/DX2                !
 ! D20   D(5,1,13,23)           83.9546         estimate D2E/DX2                !
 ! D21   D(8,1,13,23)          -36.148          estimate D2E/DX2                !
 ! D22   D(1,2,3,6)           -179.5487         estimate D2E/DX2                !
 ! D23   D(1,2,3,11)            -7.6834         estimate D2E/DX2                !
 ! D24   D(7,2,3,6)             58.6639         estimate D2E/DX2                !
 ! D25   D(7,2,3,11)          -129.4709         estimate D2E/DX2                !
 ! D26   D(12,2,3,6)           -59.1203         estimate D2E/DX2                !
 ! D27   D(12,2,3,11)          112.745          estimate D2E/DX2                !
 ! D28   D(1,2,12,19)         -128.4508         estimate D2E/DX2                !
 ! D29   D(3,2,12,19)          109.4009         estimate D2E/DX2                !
 ! D30   D(7,2,12,19)           -6.1606         estimate D2E/DX2                !
 ! D31   D(2,3,11,4)             9.9108         estimate D2E/DX2                !
 ! D32   D(6,3,11,4)          -177.8408         estimate D2E/DX2                !
 ! D33   D(9,4,5,1)            156.0858         estimate D2E/DX2                !
 ! D34   D(9,4,5,10)           -89.3437         estimate D2E/DX2                !
 ! D35   D(9,4,5,14)            22.8364         estimate D2E/DX2                !
 ! D36   D(11,4,5,1)            42.4364         estimate D2E/DX2                !
 ! D37   D(11,4,5,10)          157.007          estimate D2E/DX2                !
 ! D38   D(11,4,5,14)          -90.8129         estimate D2E/DX2                !
 ! D39   D(15,4,5,1)           -78.618          estimate D2E/DX2                !
 ! D40   D(15,4,5,10)           35.9525         estimate D2E/DX2                !
 ! D41   D(15,4,5,14)          148.1326         estimate D2E/DX2                !
 ! D42   D(5,4,11,3)           -27.9262         estimate D2E/DX2                !
 ! D43   D(9,4,11,3)          -146.811          estimate D2E/DX2                !
 ! D44   D(15,4,11,3)           98.9301         estimate D2E/DX2                !
 ! D45   D(5,4,15,16)          175.5094         estimate D2E/DX2                !
 ! D46   D(5,4,15,17)           56.0925         estimate D2E/DX2                !
 ! D47   D(5,4,15,18)          -64.4571         estimate D2E/DX2                !
 ! D48   D(9,4,15,16)          -58.656          estimate D2E/DX2                !
 ! D49   D(9,4,15,17)         -178.0728         estimate D2E/DX2                !
 ! D50   D(9,4,15,18)           61.3775         estimate D2E/DX2                !
 ! D51   D(11,4,15,16)          50.0096         estimate D2E/DX2                !
 ! D52   D(11,4,15,17)         -69.4072         estimate D2E/DX2                !
 ! D53   D(11,4,15,18)         170.0431         estimate D2E/DX2                !
 ! D54   D(1,5,14,27)          -75.0909         estimate D2E/DX2                !
 ! D55   D(4,5,14,27)           57.0165         estimate D2E/DX2                !
 ! D56   D(10,5,14,27)         169.3745         estimate D2E/DX2                !
 ! D57   D(2,12,19,20)          58.2665         estimate D2E/DX2                !
 ! D58   D(2,12,19,21)         177.227          estimate D2E/DX2                !
 ! D59   D(2,12,19,22)         -63.8892         estimate D2E/DX2                !
 ! D60   D(1,13,23,24)         -63.2183         estimate D2E/DX2                !
 ! D61   D(1,13,23,25)          58.9454         estimate D2E/DX2                !
 ! D62   D(1,13,23,26)         177.8301         estimate D2E/DX2                !
 ! D63   D(5,14,27,28)        -177.3935         estimate D2E/DX2                !
 ! D64   D(5,14,27,29)         -59.9934         estimate D2E/DX2                !
 ! D65   D(5,14,27,30)          63.662          estimate D2E/DX2                !
 ! D66   D(4,15,18,31)        -179.4516         estimate D2E/DX2                !
 ! D67   D(16,15,18,31)        -61.1922         estimate D2E/DX2                !
 ! D68   D(17,15,18,31)         60.9131         estimate D2E/DX2                !
 ! D69   D(15,18,31,32)        -60.5833         estimate D2E/DX2                !
 ! D70   D(15,18,31,33)         61.0948         estimate D2E/DX2                !
 ! D71   D(15,18,31,34)       -179.7839         estimate D2E/DX2                !
 --------------------------------------------------------------------------------
 Trust Radius=3.00D-01 FncErr=1.00D-07 GrdErr=1.00D-06 EigMax=2.50D+02 EigMin=1.00D-04
 Number of steps in this run=    177 maximum allowed number of steps=    204.
 GradGradGradGradGradGradGradGradGradGradGradGradGradGradGradGradGradGrad

 Leave Link  103 at Fri May 24 08:29:56 2019, MaxMem=   402653184 cpu:               0.2 elap:               0.1
 (Enter /n/sw/g16_nehalem/g16/l202.exe)
                          Input orientation:                          
 ---------------------------------------------------------------------
 Center     Atomic      Atomic             Coordinates (Angstroms)
 Number     Number       Type             X           Y           Z
 ---------------------------------------------------------------------
      1          6           0        0.608147    0.863723    0.493552
      2          6           0        1.560414    0.530865   -0.670158
      3          6           0        1.118818   -0.600042   -1.545787
      4          6           0       -0.876546   -1.100542   -0.244361
      5          6           0       -0.310504   -0.313378    0.940121
      6          1           0        1.741314   -0.902850   -2.387596
      7          1           0        1.683646    1.435729   -1.277140
      8          1           0        1.226351    1.160181    1.350254
      9          1           0       -1.142674   -2.112773    0.058351
     10          1           0       -1.191317    0.143839    1.399210
     11          8           0        0.140380   -1.359632   -1.330632
     12          8           0        2.803223    0.004035   -0.226647
     13          8           0       -0.184934    1.940782    0.019911
     14          8           0        0.217816   -1.126673    1.966508
     15          6           0       -2.064885   -0.448382   -0.963612
     16          1           0       -2.333973   -1.057721   -1.839311
     17          1           0       -1.796429    0.561412   -1.304113
     18          8           0       -3.100654   -0.417266   -0.012012
     19          6           0        3.975647    0.652014   -0.755992
     20          1           0        3.962351    1.717313   -0.501569
     21          1           0        4.823048    0.160447   -0.278097
     22          1           0        4.044836    0.528839   -1.841962
     23          6           0       -0.678580    2.810612    1.041241
     24          1           0       -1.356074    2.294343    1.732486
     25          1           0        0.151172    3.249185    1.609874
     26          1           0       -1.229132    3.600437    0.527922
     27          6           0        1.253890   -2.058829    1.651830
     28          1           0        1.458694   -2.593847    2.580784
     29          1           0        0.932713   -2.792310    0.899231
     30          1           0        2.168129   -1.562452    1.311806
     31          6           0       -4.301602    0.154242   -0.522652
     32          1           0       -4.142851    1.193418   -0.842142
     33          1           0       -4.687289   -0.426532   -1.371718
     34          1           0       -5.027953    0.131676    0.291618
 ---------------------------------------------------------------------
                    Distance matrix (angstroms):
                    1          2          3          4          5
     1  C    0.000000
     2  C    1.540074   0.000000
     3  C    2.561698   1.496891   0.000000
     4  C    2.570441   2.963371   2.434273   0.000000
     5  C    1.558496   2.608846   2.881818   1.530695   0.000000
     6  H    3.564528   2.244517   1.089879   3.389060   3.953623
     7  H    2.149242   1.096536   2.129687   3.748851   3.457203
     8  H    1.097270   2.142359   3.390723   3.475031   2.168296
     9  H    3.480561   3.850485   3.158474   1.089528   2.169757
    10  H    2.139280   3.464693   3.816162   2.085399   1.093454
    11  O    2.913719   2.454934   1.257223   1.510381   2.540524
    12  O    2.464976   1.420854   2.223119   3.842018   3.340269
    13  O    1.418932   2.347403   3.256834   3.130147   2.437989
    14  O    2.506718   3.391461   3.664063   2.467033   1.412105
    15  C    3.315124   3.766674   3.240045   1.534531   2.592350
    16  H    4.217851   4.365407   3.495339   2.160970   3.517629
    17  H    3.017445   3.416318   3.147387   2.175167   2.830162
    18  O    3.956227   4.801840   4.493308   2.338270   2.949964
    19  C    3.598088   2.419792   3.217591   5.184303   4.709551
    20  H    3.601328   2.684284   3.813949   5.605478   4.945651
    21  H    4.342284   3.306917   3.988321   5.837517   5.297350
    22  H    4.168645   2.746904   3.150186   5.424685   5.236249
    23  C    2.397083   3.624807   4.642835   4.121782   3.147224
    24  H    2.727599   4.169947   5.024901   3.957665   2.919121
    25  H    2.673094   3.817561   5.070610   4.838855   3.654254
    26  H    3.296419   4.317318   5.239958   4.777022   4.041254
    27  C    3.209346   3.491719   3.517252   3.008756   2.449583
    28  H    4.127318   4.510299   4.595581   3.957872   3.319996
    29  H    3.692763   3.728335   3.289192   2.728241   2.773511
    30  H    2.998234   2.946095   3.192667   3.450371   2.800349
    31  C    5.063760   5.875954   5.567468   3.658270   4.276358
    32  H    4.946186   5.744196   5.603283   4.035882   4.487068
    33  H    5.760697   6.359449   5.811307   4.030755   4.951126
    34  H    5.687029   6.670153   6.457109   4.363464   4.782568
                    6          7          8          9         10
     6  H    0.000000
     7  H    2.589477   0.000000
     8  H    4.300326   2.681090   0.000000
     9  H    3.970385   4.729005   4.241877   0.000000
    10  H    4.902630   4.134881   2.623064   2.625370   0.000000
    11  O    1.972007   3.193521   3.836136   2.035368   3.389082
    12  O    2.572896   2.099223   2.511935   4.486892   4.315009
    13  O    4.194373   2.330024   2.090664   4.165339   2.478765
    14  O    4.618372   4.385865   2.574221   2.542516   1.980324
    15  C    4.089184   4.207096   4.332861   2.159879   2.587813
    16  H    4.114920   4.761784   5.269566   2.476580   3.638328
    17  H    3.979149   3.588325   4.067110   3.071639   2.801514
    18  O    5.415150   5.284285   4.802820   2.591019   2.439663
    19  C    3.173638   2.477715   3.500448   5.874046   5.621446
    20  H    3.918591   2.423488   3.350424   6.406586   5.713937
    21  H    3.882998   3.532743   4.072742   6.393009   6.243895
    22  H    2.766526   2.591658   4.304961   6.123689   6.170147
    23  C    5.603803   3.584035   2.539325   5.041942   2.739109
    24  H    6.065553   4.362908   2.846286   4.719210   2.182404
    25  H    5.978939   3.737907   2.363758   5.729909   3.389665
    26  H    6.132160   4.053207   3.558156   5.733127   3.564918
    27  C    4.229756   4.579901   3.233223   2.878473   3.300697
    28  H    5.255868   5.583159   3.957387   3.655300   3.989185
    29  H    3.876484   4.814229   3.988964   2.340103   3.658204
    30  H    3.781907   3.990796   2.881172   3.582655   3.768945
    31  C    6.411887   6.167224   5.922664   3.931380   3.656164
    32  H    6.434762   5.847735   5.799658   4.554432   3.851860
    33  H    6.525781   6.638206   6.700592   4.177655   4.497242
    34  H    7.353326   7.014778   6.426107   4.493034   3.993330
                   11         12         13         14         15
    11  O    0.000000
    12  O    3.188903   0.000000
    13  O    3.580856   3.569434   0.000000
    14  O    3.306267   3.573900   3.655233   0.000000
    15  C    2.414182   4.944317   3.195252   3.775766   0.000000
    16  H    2.544077   5.488059   4.131113   4.582645   1.100250
    17  H    2.728066   4.756932   2.500523   4.195685   1.098951
    18  O    3.623688   5.922780   3.750044   3.928109   1.406886
    19  C    4.368776   1.440368   4.424182   4.969610   6.143452
    20  H    4.976183   2.086739   4.185911   5.310480   6.421160
    21  H    5.034466   2.026525   5.323372   5.282338   6.948685
    22  H    4.367214   2.103869   4.832298   5.647233   6.249412
    23  C    4.866972   4.648372   1.429477   4.142687   4.069683
    24  H    4.997359   5.136484   2.104635   3.772963   3.910741
    25  H    5.466981   4.575717   2.086353   4.390873   5.020532
    26  H    5.471021   5.455581   2.025557   5.148666   4.395008
    27  C    3.259426   3.191319   4.553050   1.428771   4.521985
    28  H    4.308180   4.054432   5.460993   2.017353   5.438876
    29  H    2.766342   3.547669   4.942115   2.103451   4.236718
    30  H    3.336972   2.285621   4.413451   2.102917   4.933263
    31  C    4.761917   7.112575   4.520294   5.316183   2.358072
    32  H    5.010265   7.073995   4.119077   5.682143   2.651076
    33  H    4.917189   7.589753   5.273709   5.974446   2.654059
    34  H    5.618484   7.849344   5.177019   5.648610   3.269838
                   16         17         18         19         20
    16  H    0.000000
    17  H    1.788011   0.000000
    18  O    2.082547   2.080466   0.000000
    19  C    6.626317   5.798750   7.195200   0.000000
    20  H    7.009569   5.928215   7.394737   1.095340   0.000000
    21  H    7.425919   6.710511   7.949189   1.090005   1.792922
    22  H    6.573156   5.866065   7.436522   1.095121   1.793301
    23  C    5.099206   3.436448   4.170729   5.436122   5.011368
    24  H    4.995033   3.523903   3.666014   6.108766   5.797380
    25  H    6.051633   4.416853   5.162146   5.193191   4.618431
    26  H    5.340684   3.593585   4.464982   6.118117   5.617607
    27  C    5.105198   4.990762   4.942181   4.533678   5.121732
    28  H    6.023392   5.970252   5.678710   5.291951   5.861339
    29  H    4.602135   4.852875   4.768569   4.884934   5.610494
    30  H    5.518443   5.203033   5.551938   3.527998   4.155048
    31  C    2.659701   2.655628   1.424658   8.295485   8.410503
    32  H    3.055162   2.473569   2.090357   8.136987   8.129253
    33  H    2.480955   3.055761   2.089569   8.751505   8.953742
    34  H    3.634976   3.629570   2.026823   9.079265   9.163458
                   21         22         23         24         25
    21  H    0.000000
    22  H    1.785217   0.000000
    23  C    6.247555   5.985817   0.000000
    24  H    6.839408   6.712936   1.096974   0.000000
    25  H    5.910259   5.871633   1.097351   1.788448   0.000000
    26  H    7.008001   6.547198   1.091067   1.781283   1.788641
    27  C    4.624791   5.166429   5.274345   5.076271   5.421509
    28  H    5.203673   5.999998   6.012180   5.704115   6.065748
    29  H    5.023901   5.313142   5.831738   5.639761   6.133146
    30  H    3.541859   4.223953   5.225002   5.241359   5.225783
    31  C    9.127929   8.458364   4.756927   4.282735   5.826966
    32  H    9.042816   8.275236   4.261880   3.950553   5.355109
    33  H    9.590989   8.796810   5.689571   5.304360   6.768419
    34  H    9.867503   9.328741   5.162914   4.498436   6.187083
                   26         27         28         29         30
    26  H    0.000000
    27  C    6.281390   0.000000
    28  H    7.057465   1.091396   0.000000
    29  H    6.758599   1.098888   1.773038   0.000000
    30  H    6.229870   1.094458   1.782520   1.791374   0.000000
    31  C    4.734980   6.363140   7.096782   6.172680   6.940439
    32  H    4.020022   6.776564   7.578727   6.684292   7.215454
    33  H    5.637727   6.863224   7.621852   6.506807   7.449052
    34  H    5.149678   6.790437   7.399010   6.666965   7.462871
                   31         32         33         34
    31  C    0.000000
    32  H    1.098709   0.000000
    33  H    1.098620   1.789162   0.000000
    34  H    1.091389   1.787768   1.787270   0.000000
 Stoichiometry    C10H19O5(1+)
 Framework group  C1[X(C10H19O5)]
 Deg. of freedom    96
 Full point group                 C1      NOp   1
 Largest Abelian subgroup         C1      NOp   1
 Largest concise Abelian subgroup C1      NOp   1
                         Standard orientation:                         
 ---------------------------------------------------------------------
 Center     Atomic      Atomic             Coordinates (Angstroms)
 Number     Number       Type             X           Y           Z
 ---------------------------------------------------------------------
      1          6           0        0.608147    0.863723    0.493552
      2          6           0        1.560414    0.530865   -0.670158
      3          6           0        1.118818   -0.600042   -1.545787
      4          6           0       -0.876546   -1.100542   -0.244361
      5          6           0       -0.310504   -0.313378    0.940121
      6          1           0        1.741314   -0.902850   -2.387596
      7          1           0        1.683646    1.435729   -1.277140
      8          1           0        1.226351    1.160181    1.350254
      9          1           0       -1.142674   -2.112773    0.058351
     10          1           0       -1.191317    0.143839    1.399210
     11          8           0        0.140380   -1.359632   -1.330632
     12          8           0        2.803223    0.004035   -0.226647
     13          8           0       -0.184934    1.940782    0.019911
     14          8           0        0.217816   -1.126673    1.966508
     15          6           0       -2.064885   -0.448382   -0.963612
     16          1           0       -2.333973   -1.057721   -1.839311
     17          1           0       -1.796429    0.561412   -1.304113
     18          8           0       -3.100654   -0.417266   -0.012012
     19          6           0        3.975647    0.652014   -0.755992
     20          1           0        3.962351    1.717313   -0.501569
     21          1           0        4.823048    0.160447   -0.278097
     22          1           0        4.044836    0.528839   -1.841962
     23          6           0       -0.678580    2.810612    1.041241
     24          1           0       -1.356074    2.294343    1.732486
     25          1           0        0.151172    3.249185    1.609874
     26          1           0       -1.229132    3.600437    0.527922
     27          6           0        1.253890   -2.058829    1.651830
     28          1           0        1.458694   -2.593847    2.580784
     29          1           0        0.932713   -2.792310    0.899231
     30          1           0        2.168129   -1.562452    1.311806
     31          6           0       -4.301602    0.154242   -0.522652
     32          1           0       -4.142851    1.193418   -0.842142
     33          1           0       -4.687289   -0.426532   -1.371718
     34          1           0       -5.027953    0.131676    0.291618
 ---------------------------------------------------------------------
 Rotational constants (GHZ):           0.8365403           0.4134014           0.3776983
 Leave Link  202 at Fri May 24 08:29:57 2019, MaxMem=   402653184 cpu:               0.3 elap:               0.2
 (Enter /n/sw/g16_nehalem/g16/l301.exe)
 Standard basis: 6-31G(d) (6D, 7F)
 Ernie: Thresh=  0.10000D-02 Tol=  0.10000D-05 Strict=F.
 There are   263 symmetry adapted cartesian basis functions of A   symmetry.
 There are   263 symmetry adapted basis functions of A   symmetry.
   263 basis functions,   496 primitive gaussians,   263 cartesian basis functions
    59 alpha electrons       59 beta electrons
       nuclear repulsion energy      1169.7456375557 Hartrees.
 IExCor=  402 DFT=T Ex+Corr=B3LYP ExCW=0 ScaHFX=  0.200000
 ScaDFX=  0.800000  0.720000  1.000000  0.810000 ScalE2=  1.000000  1.000000
 IRadAn=      5 IRanWt=     -1 IRanGd=            0 ICorTp=0 IEmpDi=  4
 NAtoms=   34 NActive=   34 NUniq=   34 SFac= 1.00D+00 NAtFMM=   60 NAOKFM=F Big=F
 Integral buffers will be    131072 words long.
 Raffenetti 2 integral format.
 Two-electron integral symmetry is turned on.
 ------------------------------------------------------------------------------
 Polarizable Continuum Model (PCM)
 =================================
 Model                : PCM.
 Atomic radii         : UFF (Universal Force Field).
 Polarization charges : Total charges.
 Charge compensation  : None.
 Solution method      : On-the-fly selection.
 Cavity type          : Scaled VdW (van der Waals Surface) (Alpha=1.100).
 Cavity algorithm     : GePol (No added spheres)
                        Default sphere list used, NSphG=   34.
                        Lebedev-Laikov grids with approx.  5.0 points / Ang**2.
                        Smoothing algorithm: York/Karplus (Gamma=1.0000).
                        Polarization charges: spherical gaussians, with
                                              point-specific exponents (IZeta= 3).
                        Self-potential: point-specific (ISelfS= 7).
                        Self-field    : sphere-specific E.n sum rule (ISelfD= 2).
 1st derivatives      : Analytical E(r).r(x)/FMM algorithm (CHGder, D1EAlg=3).
                        Cavity 1st derivative terms included.
 Solvent              : TetraHydroFuran, Eps=   7.425700 Eps(inf)=   1.974025
 ------------------------------------------------------------------------------
 GePol: Number of generator spheres                  =      34
 GePol: Total number of spheres                      =      34
 GePol: Number of exposed spheres                    =      34 (100.00%)
 GePol: Number of points                             =    2289
 GePol: Average weight of points                     =       0.13
 GePol: Minimum weight of points                     =   0.13D-09
 GePol: Maximum weight of points                     =    0.20577
 GePol: Number of points with low weight             =     137
 GePol: Fraction of low-weight points (<1% of avg)   =       5.99%
 GePol: Cavity surface area                          =    301.500 Ang**2
 GePol: Cavity volume                                =    320.465 Ang**3
 Leave Link  301 at Fri May 24 08:29:57 2019, MaxMem=   402653184 cpu:               0.4 elap:               0.2
 (Enter /n/sw/g16_nehalem/g16/l302.exe)
 NPDir=0 NMtPBC=     1 NCelOv=     1 NCel=       1 NClECP=     1 NCelD=      1
         NCelK=      1 NCelE2=     1 NClLst=     1 CellRange=     0.0.
 One-electron integrals computed using PRISM.
 One-electron integral symmetry used in STVInt
 NBasis=   263 RedAO= T EigKep=  1.97D-03  NBF=   263
 NBsUse=   263 1.00D-06 EigRej= -1.00D+00 NBFU=   263
 Precomputing XC quadrature grid using
 IXCGrd= 4 IRadAn=           5 IRanWt=          -1 IRanGd=           0 AccXCQ= 0.00D+00.
 Generated NRdTot=       0 NPtTot=           0 NUsed=           0 NTot=          32
 NSgBfM=   262   262   262   262   262 MxSgAt=    34 MxSgA2=    34.
 Leave Link  302 at Fri May 24 08:29:58 2019, MaxMem=   402653184 cpu:               4.8 elap:               1.7
 (Enter /n/sw/g16_nehalem/g16/l303.exe)
 DipDrv:  MaxL=1.
 Leave Link  303 at Fri May 24 08:29:59 2019, MaxMem=   402653184 cpu:               0.6 elap:               0.3
 (Enter /n/sw/g16_nehalem/g16/l401.exe)
 ExpMin= 1.61D-01 ExpMax= 5.48D+03 ExpMxC= 8.25D+02 IAcc=3 IRadAn=         5 AccDes= 0.00D+00
 Harris functional with IExCor=  402 and IRadAn=       5 diagonalized for initial guess.
 HarFok:  IExCor=  402 AccDes= 0.00D+00 IRadAn=         5 IDoV= 1 UseB2=F ITyADJ=14
 ICtDFT=  3500011 ScaDFX=  1.000000  1.000000  1.000000  1.000000
 FoFCou: FMM=F IPFlag=           0 FMFlag=      100000 FMFlg1=           0
         NFxFlg=           0 DoJE=T BraDBF=F KetDBF=T FulRan=T
         wScrn=  0.000000 ICntrl=       500 IOpCl=  0 I1Cent=   200000004 NGrid=           0
         NMat0=    1 NMatS0=      1 NMatT0=    0 NMatD0=    1 NMtDS0=    0 NMtDT0=    0
 Petite list used in FoFCou.
 Harris En= -768.254785471836    
 JPrj=0 DoOrth=F DoCkMO=F.
 Leave Link  401 at Fri May 24 08:30:06 2019, MaxMem=   402653184 cpu:              25.5 elap:               7.1
 (Enter /n/sw/g16_nehalem/g16/l502.exe)
 Integral symmetry usage will be decided dynamically.
 Closed shell SCF:
 Using DIIS extrapolation, IDIIS=  1040.
 NGot=   402653184 LenX=   402510103 LenY=   402440493
 Requested convergence on RMS density matrix=1.00D-08 within 128 cycles.
 Requested convergence on MAX density matrix=1.00D-06.
 Requested convergence on             energy=1.00D-06.
 No special actions if energy rises.
 Fock matrices will be formed incrementally for  20 cycles.

 Cycle   1  Pass 1  IDiag  1:
 FoFJK:  IHMeth= 1 ICntrl=       0 DoSepK=F KAlg= 0 I1Cent=           0 FoldK=F
 IRaf= 880000000 NMat=       1 IRICut=       1 DoRegI=T DoRafI=F ISym2E= 0 IDoP0=0 IntGTp=1.
 FoFCou: FMM=F IPFlag=           0 FMFlag=      100000 FMFlg1=           0
         NFxFlg=           0 DoJE=F BraDBF=F KetDBF=F FulRan=T
         wScrn=  0.000000 ICntrl=         0 IOpCl=  0 I1Cent=           0 NGrid=           0
         NMat0=    1 NMatS0=      1 NMatT0=    0 NMatD0=    1 NMtDS0=    0 NMtDT0=    0
 Symmetry not used in FoFCou.
 Inv3:  Mode=1 IEnd=    15718563.
 Iteration    1 A*A^-1 deviation from unit magnitude is 1.14D-14 for   2287.
 Iteration    1 A*A^-1 deviation from orthogonality  is 5.29D-15 for   2287   1412.
 Iteration    1 A^-1*A deviation from unit magnitude is 1.10D-14 for   2287.
 Iteration    1 A^-1*A deviation from orthogonality  is 2.06D-15 for   2258   1240.
 E= -768.085438899320    
 DIIS: error= 2.39D-02 at cycle   1 NSaved=   1.
 NSaved= 1 IEnMin= 1 EnMin= -768.085438899320     IErMin= 1 ErrMin= 2.39D-02
 ErrMax= 2.39D-02  0.00D+00 EMaxC= 1.00D-01 BMatC= 2.51D-01 BMatP= 2.51D-01
 IDIUse=3 WtCom= 7.61D-01 WtEn= 2.39D-01
 Coeff-Com:  0.100D+01
 Coeff-En:   0.100D+01
 Coeff:      0.100D+01
 Gap=     0.017 Goal=   None    Shift=    0.000
 GapD=    0.017 DampG=0.250 DampE=0.500 DampFc=0.2500 IDamp=-1.
 Damping current iteration by 2.50D-01
 RMSDP=4.24D-03 MaxDP=1.07D-01              OVMax= 2.74D-01

 Cycle   2  Pass 1  IDiag  1:
 RMSU=  1.06D-03    CP:  9.95D-01
 E= -768.165932756651     Delta-E=       -0.080493857331 Rises=F Damp=T
 DIIS: error= 1.17D-02 at cycle   2 NSaved=   2.
 NSaved= 2 IEnMin= 2 EnMin= -768.165932756651     IErMin= 2 ErrMin= 1.17D-02
 ErrMax= 1.17D-02  0.00D+00 EMaxC= 1.00D-01 BMatC= 7.14D-02 BMatP= 2.51D-01
 IDIUse=3 WtCom= 8.83D-01 WtEn= 1.17D-01
 Coeff-Com: -0.828D+00 0.183D+01
 Coeff-En:   0.000D+00 0.100D+01
 Coeff:     -0.731D+00 0.173D+01
 Gap=     0.144 Goal=   None    Shift=    0.000
 RMSDP=1.29D-03 MaxDP=3.13D-02 DE=-8.05D-02 OVMax= 1.56D-01

 Cycle   3  Pass 1  IDiag  1:
 RMSU=  1.08D-03    CP:  9.86D-01  1.65D+00
 E= -768.302446839631     Delta-E=       -0.136514082979 Rises=F Damp=F
 DIIS: error= 7.01D-03 at cycle   3 NSaved=   3.
 NSaved= 3 IEnMin= 3 EnMin= -768.302446839631     IErMin= 3 ErrMin= 7.01D-03
 ErrMax= 7.01D-03  0.00D+00 EMaxC= 1.00D-01 BMatC= 2.37D-02 BMatP= 7.14D-02
 IDIUse=3 WtCom= 9.30D-01 WtEn= 7.01D-02
 Coeff-Com: -0.498D+00 0.970D+00 0.527D+00
 Coeff-En:   0.000D+00 0.000D+00 0.100D+01
 Coeff:     -0.463D+00 0.902D+00 0.560D+00
 Gap=     0.133 Goal=   None    Shift=    0.000
 RMSDP=6.61D-04 MaxDP=3.57D-02 DE=-1.37D-01 OVMax= 4.70D-02

 Cycle   4  Pass 1  IDiag  1:
 RMSU=  4.47D-04    CP:  9.89D-01  1.79D+00  5.73D-01
 E= -768.318307083580     Delta-E=       -0.015860243949 Rises=F Damp=F
 DIIS: error= 3.31D-03 at cycle   4 NSaved=   4.
 NSaved= 4 IEnMin= 4 EnMin= -768.318307083580     IErMin= 4 ErrMin= 3.31D-03
 ErrMax= 3.31D-03  0.00D+00 EMaxC= 1.00D-01 BMatC= 4.66D-03 BMatP= 2.37D-02
 IDIUse=3 WtCom= 9.67D-01 WtEn= 3.31D-02
 Coeff-Com: -0.172D+00 0.298D+00 0.319D+00 0.555D+00
 Coeff-En:   0.000D+00 0.000D+00 0.147D+00 0.853D+00
 Coeff:     -0.166D+00 0.288D+00 0.313D+00 0.565D+00
 Gap=     0.127 Goal=   None    Shift=    0.000
 RMSDP=2.50D-04 MaxDP=1.52D-02 DE=-1.59D-02 OVMax= 2.18D-02

 Cycle   5  Pass 1  IDiag  1:
 RMSU=  1.38D-04    CP:  9.89D-01  1.80D+00  6.73D-01  6.02D-01
 E= -768.321636236542     Delta-E=       -0.003329152962 Rises=F Damp=F
 DIIS: error= 8.82D-04 at cycle   5 NSaved=   5.
 NSaved= 5 IEnMin= 5 EnMin= -768.321636236542     IErMin= 5 ErrMin= 8.82D-04
 ErrMax= 8.82D-04  0.00D+00 EMaxC= 1.00D-01 BMatC= 4.71D-04 BMatP= 4.66D-03
 IDIUse=3 WtCom= 9.91D-01 WtEn= 8.82D-03
 Coeff-Com: -0.591D-01 0.944D-01 0.117D+00 0.315D+00 0.532D+00
 Coeff-En:   0.000D+00 0.000D+00 0.000D+00 0.348D-01 0.965D+00
 Coeff:     -0.585D-01 0.935D-01 0.116D+00 0.313D+00 0.536D+00
 Gap=     0.130 Goal=   None    Shift=    0.000
 RMSDP=7.86D-05 MaxDP=3.03D-03 DE=-3.33D-03 OVMax= 4.14D-03

 Cycle   6  Pass 1  IDiag  1:
 RMSU=  5.04D-05    CP:  9.89D-01  1.80D+00  6.71D-01  6.80D-01  6.44D-01
 E= -768.321959228584     Delta-E=       -0.000322992042 Rises=F Damp=F
 DIIS: error= 2.28D-04 at cycle   6 NSaved=   6.
 NSaved= 6 IEnMin= 6 EnMin= -768.321959228584     IErMin= 6 ErrMin= 2.28D-04
 ErrMax= 2.28D-04  0.00D+00 EMaxC= 1.00D-01 BMatC= 5.62D-05 BMatP= 4.71D-04
 IDIUse=3 WtCom= 9.98D-01 WtEn= 2.28D-03
 Coeff-Com: -0.153D-01 0.202D-01 0.265D-01 0.121D+00 0.319D+00 0.529D+00
 Coeff-En:   0.000D+00 0.000D+00 0.000D+00 0.000D+00 0.364D-01 0.964D+00
 Coeff:     -0.153D-01 0.202D-01 0.264D-01 0.120D+00 0.318D+00 0.530D+00
 Gap=     0.131 Goal=   None    Shift=    0.000
 RMSDP=2.27D-05 MaxDP=1.30D-03 DE=-3.23D-04 OVMax= 1.18D-03

 Cycle   7  Pass 1  IDiag  1:
 RMSU=  1.54D-05    CP:  9.89D-01  1.80D+00  6.70D-01  6.86D-01  7.00D-01
                    CP:  7.13D-01
 E= -768.321999383593     Delta-E=       -0.000040155009 Rises=F Damp=F
 DIIS: error= 7.60D-05 at cycle   7 NSaved=   7.
 NSaved= 7 IEnMin= 7 EnMin= -768.321999383593     IErMin= 7 ErrMin= 7.60D-05
 ErrMax= 7.60D-05  0.00D+00 EMaxC= 1.00D-01 BMatC= 3.86D-06 BMatP= 5.62D-05
 IDIUse=1 WtCom= 1.00D+00 WtEn= 0.00D+00
 Coeff-Com: -0.469D-02 0.510D-02 0.457D-02 0.442D-01 0.139D+00 0.292D+00
 Coeff-Com:  0.520D+00
 Coeff:     -0.469D-02 0.510D-02 0.457D-02 0.442D-01 0.139D+00 0.292D+00
 Coeff:      0.520D+00
 Gap=     0.130 Goal=   None    Shift=    0.000
 RMSDP=7.20D-06 MaxDP=4.47D-04 DE=-4.02D-05 OVMax= 3.03D-04

 Cycle   8  Pass 1  IDiag  1:
 RMSU=  5.24D-06    CP:  9.89D-01  1.80D+00  6.71D-01  6.90D-01  7.18D-01
                    CP:  7.34D-01  7.81D-01
 E= -768.322002296359     Delta-E=       -0.000002912766 Rises=F Damp=F
 DIIS: error= 2.53D-05 at cycle   8 NSaved=   8.
 NSaved= 8 IEnMin= 8 EnMin= -768.322002296359     IErMin= 8 ErrMin= 2.53D-05
 ErrMax= 2.53D-05  0.00D+00 EMaxC= 1.00D-01 BMatC= 3.64D-07 BMatP= 3.86D-06
 IDIUse=1 WtCom= 1.00D+00 WtEn= 0.00D+00
 Coeff-Com: -0.423D-03 0.419D-04-0.237D-02 0.368D-02 0.197D-01 0.610D-01
 Coeff-Com:  0.254D+00 0.664D+00
 Coeff:     -0.423D-03 0.419D-04-0.237D-02 0.368D-02 0.197D-01 0.610D-01
 Coeff:      0.254D+00 0.664D+00
 Gap=     0.130 Goal=   None    Shift=    0.000
 RMSDP=2.61D-06 MaxDP=8.47D-05 DE=-2.91D-06 OVMax= 1.49D-04

 Cycle   9  Pass 1  IDiag  1:
 RMSU=  1.80D-06    CP:  9.89D-01  1.80D+00  6.70D-01  6.93D-01  7.23D-01
                    CP:  7.50D-01  8.37D-01  8.62D-01
 E= -768.322002567471     Delta-E=       -0.000000271112 Rises=F Damp=F
 DIIS: error= 7.03D-06 at cycle   9 NSaved=   9.
 NSaved= 9 IEnMin= 9 EnMin= -768.322002567471     IErMin= 9 ErrMin= 7.03D-06
 ErrMax= 7.03D-06  0.00D+00 EMaxC= 1.00D-01 BMatC= 6.03D-08 BMatP= 3.64D-07
 IDIUse=1 WtCom= 1.00D+00 WtEn= 0.00D+00
 Coeff-Com:  0.220D-04-0.112D-03-0.168D-02-0.272D-02-0.574D-02-0.333D-02
 Coeff-Com:  0.720D-01 0.362D+00 0.579D+00
 Coeff:      0.220D-04-0.112D-03-0.168D-02-0.272D-02-0.574D-02-0.333D-02
 Coeff:      0.720D-01 0.362D+00 0.579D+00
 Gap=     0.130 Goal=   None    Shift=    0.000
 RMSDP=1.02D-06 MaxDP=3.84D-05 DE=-2.71D-07 OVMax= 8.04D-05

 Cycle  10  Pass 1  IDiag  1:
 RMSU=  5.51D-07    CP:  9.89D-01  1.80D+00  6.71D-01  6.93D-01  7.24D-01
                    CP:  7.57D-01  8.68D-01  9.24D-01  7.16D-01
 E= -768.322002618861     Delta-E=       -0.000000051391 Rises=F Damp=F
 DIIS: error= 2.16D-06 at cycle  10 NSaved=  10.
 NSaved=10 IEnMin=10 EnMin= -768.322002618861     IErMin=10 ErrMin= 2.16D-06
 ErrMax= 2.16D-06  0.00D+00 EMaxC= 1.00D-01 BMatC= 2.96D-09 BMatP= 6.03D-08
 IDIUse=1 WtCom= 1.00D+00 WtEn= 0.00D+00
 Coeff-Com:  0.397D-04-0.448D-04-0.571D-03-0.153D-02-0.453D-02-0.741D-02
 Coeff-Com:  0.553D-02 0.729D-01 0.211D+00 0.724D+00
 Coeff:      0.397D-04-0.448D-04-0.571D-03-0.153D-02-0.453D-02-0.741D-02
 Coeff:      0.553D-02 0.729D-01 0.211D+00 0.724D+00
 Gap=     0.130 Goal=   None    Shift=    0.000
 RMSDP=2.85D-07 MaxDP=7.28D-06 DE=-5.14D-08 OVMax= 2.11D-05

 Cycle  11  Pass 1  IDiag  1:
 RMSU=  1.43D-07    CP:  9.89D-01  1.80D+00  6.71D-01  6.93D-01  7.25D-01
                    CP:  7.58D-01  8.75D-01  9.43D-01  7.65D-01  8.70D-01
 E= -768.322002621848     Delta-E=       -0.000000002986 Rises=F Damp=F
 DIIS: error= 5.19D-07 at cycle  11 NSaved=  11.
 NSaved=11 IEnMin=11 EnMin= -768.322002621848     IErMin=11 ErrMin= 5.19D-07
 ErrMax= 5.19D-07  0.00D+00 EMaxC= 1.00D-01 BMatC= 2.29D-10 BMatP= 2.96D-09
 IDIUse=1 WtCom= 1.00D+00 WtEn= 0.00D+00
 Coeff-Com:  0.726D-05-0.164D-05-0.142D-03-0.445D-03-0.156D-02-0.280D-02
 Coeff-Com: -0.233D-02 0.487D-02 0.500D-01 0.297D+00 0.655D+00
 Coeff:      0.726D-05-0.164D-05-0.142D-03-0.445D-03-0.156D-02-0.280D-02
 Coeff:     -0.233D-02 0.487D-02 0.500D-01 0.297D+00 0.655D+00
 Gap=     0.130 Goal=   None    Shift=    0.000
 RMSDP=8.41D-08 MaxDP=3.15D-06 DE=-2.99D-09 OVMax= 5.12D-06

 Cycle  12  Pass 1  IDiag  1:
 RMSU=  5.04D-08    CP:  9.89D-01  1.80D+00  6.71D-01  6.93D-01  7.25D-01
                    CP:  7.58D-01  8.76D-01  9.47D-01  7.75D-01  9.18D-01
                    CP:  7.77D-01
 E= -768.322002622089     Delta-E=       -0.000000000241 Rises=F Damp=F
 DIIS: error= 1.75D-07 at cycle  12 NSaved=  12.
 NSaved=12 IEnMin=12 EnMin= -768.322002622089     IErMin=12 ErrMin= 1.75D-07
 ErrMax= 1.75D-07  0.00D+00 EMaxC= 1.00D-01 BMatC= 2.34D-11 BMatP= 2.29D-10
 IDIUse=1 WtCom= 1.00D+00 WtEn= 0.00D+00
 Coeff-Com: -0.341D-05 0.722D-05 0.674D-05 0.273D-05-0.120D-03-0.223D-03
 Coeff-Com: -0.164D-02-0.733D-02-0.451D-02 0.331D-01 0.280D+00 0.701D+00
 Coeff:     -0.341D-05 0.722D-05 0.674D-05 0.273D-05-0.120D-03-0.223D-03
 Coeff:     -0.164D-02-0.733D-02-0.451D-02 0.331D-01 0.280D+00 0.701D+00
 Gap=     0.130 Goal=   None    Shift=    0.000
 RMSDP=2.64D-08 MaxDP=7.94D-07 DE=-2.41D-10 OVMax= 2.12D-06

 Cycle  13  Pass 1  IDiag  1:
 RMSU=  1.31D-08    CP:  9.89D-01  1.80D+00  6.71D-01  6.93D-01  7.25D-01
                    CP:  7.58D-01  8.77D-01  9.48D-01  7.79D-01  9.31D-01
                    CP:  8.69D-01  8.45D-01
 E= -768.322002622107     Delta-E=       -0.000000000018 Rises=F Damp=F
 DIIS: error= 3.47D-08 at cycle  13 NSaved=  13.
 NSaved=13 IEnMin=13 EnMin= -768.322002622107     IErMin=13 ErrMin= 3.47D-08
 ErrMax= 3.47D-08  0.00D+00 EMaxC= 1.00D-01 BMatC= 1.47D-12 BMatP= 2.34D-11
 IDIUse=1 WtCom= 1.00D+00 WtEn= 0.00D+00
 Coeff-Com: -0.196D-05 0.321D-05 0.107D-04 0.280D-04 0.412D-04 0.952D-04
 Coeff-Com: -0.524D-03-0.317D-02-0.467D-02-0.445D-02 0.764D-01 0.289D+00
 Coeff-Com:  0.647D+00
 Coeff:     -0.196D-05 0.321D-05 0.107D-04 0.280D-04 0.412D-04 0.952D-04
 Coeff:     -0.524D-03-0.317D-02-0.467D-02-0.445D-02 0.764D-01 0.289D+00
 Coeff:      0.647D+00
 Gap=     0.130 Goal=   None    Shift=    0.000
 RMSDP=6.32D-09 MaxDP=2.09D-07 DE=-1.75D-11 OVMax= 3.74D-07

 Error on total polarization charges =  0.01222
 SCF Done:  E(RB3LYP) =  -768.322002622     A.U. after   13 cycles
            NFock= 13  Conv=0.63D-08     -V/T= 2.0091
 KE= 7.613848712614D+02 PE=-4.114552104736D+03 EE= 1.415099593297D+03
 Leave Link  502 at Fri May 24 08:32:53 2019, MaxMem=   402653184 cpu:             664.1 elap:             166.8
 (Enter /n/sw/g16_nehalem/g16/l601.exe)
 Copying SCF densities to generalized density rwf, IOpCl= 0 IROHF=0.

 **********************************************************************

            Population analysis using the SCF density.

 **********************************************************************

 Orbital symmetries:
       Occupied  (A) (A) (A) (A) (A) (A) (A) (A) (A) (A) (A) (A)
                 (A) (A) (A) (A) (A) (A) (A) (A) (A) (A) (A) (A)
                 (A) (A) (A) (A) (A) (A) (A) (A) (A) (A) (A) (A)
                 (A) (A) (A) (A) (A) (A) (A) (A) (A) (A) (A) (A)
                 (A) (A) (A) (A) (A) (A) (A) (A) (A) (A) (A)
       Virtual   (A) (A) (A) (A) (A) (A) (A) (A) (A) (A) (A) (A)
                 (A) (A) (A) (A) (A) (A) (A) (A) (A) (A) (A) (A)
                 (A) (A) (A) (A) (A) (A) (A) (A) (A) (A) (A) (A)
                 (A) (A) (A) (A) (A) (A) (A) (A) (A) (A) (A) (A)
                 (A) (A) (A) (A) (A) (A) (A) (A) (A) (A) (A) (A)
                 (A) (A) (A) (A) (A) (A) (A) (A) (A) (A) (A) (A)
                 (A) (A) (A) (A) (A) (A) (A) (A) (A) (A) (A) (A)
                 (A) (A) (A) (A) (A) (A) (A) (A) (A) (A) (A) (A)
                 (A) (A) (A) (A) (A) (A) (A) (A) (A) (A) (A) (A)
                 (A) (A) (A) (A) (A) (A) (A) (A) (A) (A) (A) (A)
                 (A) (A) (A) (A) (A) (A) (A) (A) (A) (A) (A) (A)
                 (A) (A) (A) (A) (A) (A) (A) (A) (A) (A) (A) (A)
                 (A) (A) (A) (A) (A) (A) (A) (A) (A) (A) (A) (A)
                 (A) (A) (A) (A) (A) (A) (A) (A) (A) (A) (A) (A)
                 (A) (A) (A) (A) (A) (A) (A) (A) (A) (A) (A) (A)
                 (A) (A) (A) (A) (A) (A) (A) (A) (A) (A) (A) (A)
                 (A) (A) (A) (A) (A) (A) (A) (A) (A) (A) (A) (A)
 The electronic state is 1-A.
 Alpha  occ. eigenvalues --  -19.33029 -19.22951 -19.19514 -19.18670 -19.18648
 Alpha  occ. eigenvalues --  -10.39704 -10.31921 -10.31797 -10.29379 -10.28964
 Alpha  occ. eigenvalues --  -10.27818 -10.26858 -10.25340 -10.24852 -10.24760
 Alpha  occ. eigenvalues --   -1.21642  -1.10534  -1.07846  -1.06939  -1.06462
 Alpha  occ. eigenvalues --   -0.87039  -0.85411  -0.77261  -0.75546  -0.73993
 Alpha  occ. eigenvalues --   -0.71148  -0.68991  -0.68281  -0.66659  -0.61788
 Alpha  occ. eigenvalues --   -0.59407  -0.58161  -0.57162  -0.54373  -0.53580
 Alpha  occ. eigenvalues --   -0.52922  -0.51360  -0.50953  -0.50383  -0.49007
 Alpha  occ. eigenvalues --   -0.48444  -0.47850  -0.47179  -0.46194  -0.46063
 Alpha  occ. eigenvalues --   -0.44803  -0.42469  -0.42319  -0.41269  -0.40855
 Alpha  occ. eigenvalues --   -0.39493  -0.37979  -0.36650  -0.35701  -0.34252
 Alpha  occ. eigenvalues --   -0.33051  -0.31281  -0.29026  -0.28084
 Alpha virt. eigenvalues --   -0.15065   0.00278   0.02937   0.04924   0.06457
 Alpha virt. eigenvalues --    0.07000   0.08321   0.08966   0.09925   0.10839
 Alpha virt. eigenvalues --    0.11198   0.11668   0.12401   0.12726   0.12990
 Alpha virt. eigenvalues --    0.13207   0.13847   0.14350   0.14615   0.14955
 Alpha virt. eigenvalues --    0.15072   0.15924   0.16518   0.16955   0.17653
 Alpha virt. eigenvalues --    0.18631   0.19408   0.20349   0.21587   0.22419
 Alpha virt. eigenvalues --    0.23678   0.25094   0.26611   0.28277   0.30410
 Alpha virt. eigenvalues --    0.42341   0.45495   0.46365   0.47182   0.47641
 Alpha virt. eigenvalues --    0.48740   0.49459   0.49939   0.51603   0.51909
 Alpha virt. eigenvalues --    0.52550   0.53230   0.53690   0.55231   0.55981
 Alpha virt. eigenvalues --    0.57159   0.57595   0.58038   0.59955   0.61110
 Alpha virt. eigenvalues --    0.62575   0.65941   0.66395   0.66744   0.71016
 Alpha virt. eigenvalues --    0.73039   0.74272   0.76143   0.77605   0.79215
 Alpha virt. eigenvalues --    0.79827   0.80282   0.80932   0.82104   0.82189
 Alpha virt. eigenvalues --    0.83110   0.83298   0.83993   0.84512   0.85338
 Alpha virt. eigenvalues --    0.86223   0.86584   0.88369   0.89031   0.90425
 Alpha virt. eigenvalues --    0.90803   0.91096   0.92420   0.92904   0.93840
 Alpha virt. eigenvalues --    0.94456   0.95881   0.97170   0.99536   1.01493
 Alpha virt. eigenvalues --    1.04688   1.05497   1.07851   1.10283   1.11845
 Alpha virt. eigenvalues --    1.12511   1.15069   1.17267   1.19097   1.23219
 Alpha virt. eigenvalues --    1.24265   1.26129   1.27817   1.31322   1.32245
 Alpha virt. eigenvalues --    1.33545   1.34960   1.37487   1.40656   1.43816
 Alpha virt. eigenvalues --    1.45123   1.45903   1.46596   1.47673   1.49896
 Alpha virt. eigenvalues --    1.51660   1.52736   1.54366   1.58454   1.59903
 Alpha virt. eigenvalues --    1.62172   1.63901   1.64875   1.67514   1.69473
 Alpha virt. eigenvalues --    1.72645   1.74464   1.76414   1.79202   1.80050
 Alpha virt. eigenvalues --    1.82971   1.84985   1.85854   1.87043   1.88998
 Alpha virt. eigenvalues --    1.91973   1.93095   1.96322   1.97462   1.99819
 Alpha virt. eigenvalues --    2.00626   2.02330   2.02785   2.03241   2.05370
 Alpha virt. eigenvalues --    2.06614   2.06807   2.08802   2.09883   2.10153
 Alpha virt. eigenvalues --    2.11358   2.11978   2.12074   2.14566   2.17926
 Alpha virt. eigenvalues --    2.19285   2.22082   2.22217   2.23428   2.25716
 Alpha virt. eigenvalues --    2.26533   2.28700   2.30029   2.31712   2.35670
 Alpha virt. eigenvalues --    2.38377   2.39394   2.39674   2.44874   2.46021
 Alpha virt. eigenvalues --    2.49962   2.51341   2.52419   2.57815   2.58353
 Alpha virt. eigenvalues --    2.63861   2.66285   2.70402   2.71963   2.73644
 Alpha virt. eigenvalues --    2.76965   2.79489   2.83591   2.90033   2.92084
 Alpha virt. eigenvalues --    2.93219   2.98647   3.01706   3.04189   3.82317
 Alpha virt. eigenvalues --    3.88963   3.94382   3.97096   4.08506   4.13707
 Alpha virt. eigenvalues --    4.20895   4.23424   4.25393   4.27287   4.28806
 Alpha virt. eigenvalues --    4.33693   4.55137   4.63272   4.67298
          Condensed to atoms (all electrons):
               1          2          3          4          5          6
     1  C    5.084988   0.298386  -0.036951  -0.028244   0.242407   0.002936
     2  C    0.298386   5.086868   0.299841  -0.024722  -0.015373  -0.041328
     3  C   -0.036951   0.299841   4.754484  -0.025580  -0.014806   0.365689
     4  C   -0.028244  -0.024722  -0.025580   5.156250   0.274719   0.002957
     5  C    0.242407  -0.015373  -0.014806   0.274719   5.030492  -0.000231
     6  H    0.002936  -0.041328   0.365689   0.002957  -0.000231   0.429854
     7  H   -0.034842   0.344825  -0.032861   0.000229   0.004188  -0.001369
     8  H    0.366962  -0.045680   0.004024   0.005329  -0.051392  -0.000101
     9  H    0.004632  -0.000097   0.002331   0.370980  -0.043625  -0.000080
    10  H   -0.041026   0.004545  -0.000030  -0.051005   0.378522   0.000013
    11  O   -0.008408  -0.024807   0.400738   0.112133  -0.019959  -0.036670
    12  O   -0.035178   0.153914  -0.023278   0.000032   0.002256   0.000189
    13  O    0.168028  -0.042377   0.004477   0.000100  -0.036433  -0.000068
    14  O   -0.039418   0.002900  -0.000193  -0.039473   0.241225  -0.000002
    15  C   -0.002349   0.000362  -0.001420   0.329100  -0.023480  -0.000142
    16  H   -0.000330   0.000096   0.000069  -0.036075   0.005094  -0.000030
    17  H    0.002108  -0.001257   0.003722  -0.031487  -0.012910   0.000015
    18  O    0.000061   0.000013  -0.000037  -0.043383  -0.005547   0.000001
    19  C    0.002766  -0.026109   0.000379  -0.000008  -0.000177   0.001481
    20  H    0.000410  -0.005915   0.000097   0.000000  -0.000011   0.000011
    21  H   -0.000164   0.005070  -0.000247   0.000000   0.000009  -0.000056
    22  H   -0.000168  -0.005550   0.000632   0.000001  -0.000001   0.000420
    23  C   -0.032833   0.004874  -0.000241   0.000159  -0.004227   0.000003
    24  H   -0.004629  -0.000088   0.000003   0.000074   0.003573   0.000000
    25  H   -0.008445   0.000151  -0.000001  -0.000008  -0.001012   0.000000
    26  H    0.004735  -0.000185   0.000010  -0.000001   0.000023   0.000000
    27  C   -0.005037   0.001747   0.001250  -0.005528  -0.044266   0.000060
    28  H   -0.000121  -0.000014  -0.000005  -0.000183   0.004408   0.000000
    29  H   -0.000698  -0.000214   0.000156   0.010408  -0.010129  -0.000047
    30  H    0.004378  -0.004511   0.000381  -0.001385  -0.000362  -0.000020
    31  C   -0.000040   0.000002  -0.000004   0.004534   0.000444   0.000000
    32  H    0.000026  -0.000001   0.000002   0.000232  -0.000127   0.000000
    33  H   -0.000001   0.000000   0.000000  -0.000111   0.000009   0.000000
    34  H   -0.000001   0.000000   0.000000  -0.000257   0.000022   0.000000
               7          8          9         10         11         12
     1  C   -0.034842   0.366962   0.004632  -0.041026  -0.008408  -0.035178
     2  C    0.344825  -0.045680  -0.000097   0.004545  -0.024807   0.153914
     3  C   -0.032861   0.004024   0.002331  -0.000030   0.400738  -0.023278
     4  C    0.000229   0.005329   0.370980  -0.051005   0.112133   0.000032
     5  C    0.004188  -0.051392  -0.043625   0.378522  -0.019959   0.002256
     6  H   -0.001369  -0.000101  -0.000080   0.000013  -0.036670   0.000189
     7  H    0.487931  -0.000899   0.000013  -0.000129   0.001415  -0.018563
     8  H   -0.000899   0.538689  -0.000126  -0.002869  -0.000009   0.003824
     9  H    0.000013  -0.000126   0.481736  -0.000156  -0.028883   0.000008
    10  H   -0.000129  -0.002869  -0.000156   0.508805   0.002651  -0.000041
    11  O    0.001415  -0.000009  -0.028883   0.002651   7.939009  -0.000793
    12  O   -0.018563   0.003824   0.000008  -0.000041  -0.000793   8.246139
    13  O    0.008814  -0.024286  -0.000124  -0.002419  -0.000301   0.001361
    14  O   -0.000083   0.005888   0.000944  -0.032932   0.000375   0.000166
    15  C    0.000000  -0.000030  -0.031541  -0.006946  -0.028019   0.000003
    16  H   -0.000011   0.000007  -0.007971   0.000728   0.002540   0.000000
    17  H    0.000054   0.000161   0.005060  -0.000257   0.000399   0.000010
    18  O    0.000000  -0.000009   0.005201   0.018542   0.000973   0.000000
    19  C   -0.006198   0.000419   0.000000   0.000002   0.000021   0.213141
    20  H    0.005322   0.000091   0.000000   0.000000  -0.000003  -0.032575
    21  H    0.000102  -0.000071   0.000000   0.000000   0.000002  -0.029260
    22  H    0.001171   0.000044   0.000000   0.000000   0.000003  -0.030885
    23  C    0.000262  -0.005579  -0.000006   0.003134   0.000003  -0.000075
    24  H    0.000089  -0.001205   0.000008   0.004650  -0.000001   0.000003
    25  H   -0.000109   0.010086   0.000000   0.000089   0.000000  -0.000010
    26  H   -0.000095   0.000010   0.000000  -0.000254   0.000000   0.000001
    27  C   -0.000054  -0.000212  -0.000211   0.005011   0.000389  -0.008409
    28  H    0.000001  -0.000049  -0.000216  -0.000140   0.000058   0.000185
    29  H   -0.000012   0.000201  -0.000228  -0.000119  -0.000264   0.000219
    30  H    0.000333   0.000162   0.000430  -0.000254  -0.000021   0.016761
    31  C    0.000000   0.000000  -0.000111  -0.000461  -0.000046   0.000000
    32  H    0.000000   0.000000   0.000042  -0.000016   0.000002   0.000000
    33  H    0.000000   0.000000  -0.000054   0.000076   0.000002   0.000000
    34  H    0.000000   0.000000  -0.000003  -0.000048   0.000000   0.000000
              13         14         15         16         17         18
     1  C    0.168028  -0.039418  -0.002349  -0.000330   0.002108   0.000061
     2  C   -0.042377   0.002900   0.000362   0.000096  -0.001257   0.000013
     3  C    0.004477  -0.000193  -0.001420   0.000069   0.003722  -0.000037
     4  C    0.000100  -0.039473   0.329100  -0.036075  -0.031487  -0.043383
     5  C   -0.036433   0.241225  -0.023480   0.005094  -0.012910  -0.005547
     6  H   -0.000068  -0.000002  -0.000142  -0.000030   0.000015   0.000001
     7  H    0.008814  -0.000083   0.000000  -0.000011   0.000054   0.000000
     8  H   -0.024286   0.005888  -0.000030   0.000007   0.000161  -0.000009
     9  H   -0.000124   0.000944  -0.031541  -0.007971   0.005060   0.005201
    10  H   -0.002419  -0.032932  -0.006946   0.000728  -0.000257   0.018542
    11  O   -0.000301   0.000375  -0.028019   0.002540   0.000399   0.000973
    12  O    0.001361   0.000166   0.000003   0.000000   0.000010   0.000000
    13  O    8.268907   0.001570  -0.002473   0.000256   0.013882  -0.000104
    14  O    0.001570   8.203105   0.002494  -0.000049  -0.000008   0.000001
    15  C   -0.002473   0.002494   4.900228   0.353567   0.349033   0.233136
    16  H    0.000256  -0.000049   0.353567   0.588742  -0.048310  -0.035858
    17  H    0.013882  -0.000008   0.349033  -0.048310   0.579758  -0.037111
    18  O   -0.000104   0.000001   0.233136  -0.035858  -0.037111   8.203426
    19  C   -0.000082   0.000002   0.000000   0.000000   0.000000   0.000000
    20  H   -0.000070   0.000000   0.000000   0.000000   0.000000   0.000000
    21  H    0.000000  -0.000001   0.000000   0.000000   0.000000   0.000000
    22  H    0.000010   0.000000   0.000000   0.000000   0.000000   0.000000
    23  C    0.233448   0.000020   0.000385  -0.000005  -0.000646  -0.000004
    24  H   -0.036352  -0.000342  -0.000215  -0.000005  -0.000062   0.000156
    25  H   -0.034814   0.000028   0.000000   0.000000   0.000067   0.000002
    26  H   -0.030596   0.000001   0.000044  -0.000001  -0.000086  -0.000020
    27  C    0.000023   0.238395   0.000386  -0.000004   0.000001  -0.000004
    28  H    0.000001  -0.032024   0.000001   0.000000   0.000000   0.000000
    29  H    0.000005  -0.037066  -0.000095   0.000029  -0.000003  -0.000001
    30  H   -0.000045  -0.037150  -0.000005  -0.000001   0.000000   0.000000
    31  C    0.000026   0.000001  -0.039036  -0.004115  -0.003821   0.241637
    32  H   -0.000042   0.000000  -0.007536  -0.002201   0.010831  -0.035562
    33  H    0.000001   0.000000  -0.007727   0.010689  -0.002131  -0.035449
    34  H    0.000001   0.000000   0.005525  -0.000095  -0.000108  -0.031456
              19         20         21         22         23         24
     1  C    0.002766   0.000410  -0.000164  -0.000168  -0.032833  -0.004629
     2  C   -0.026109  -0.005915   0.005070  -0.005550   0.004874  -0.000088
     3  C    0.000379   0.000097  -0.000247   0.000632  -0.000241   0.000003
     4  C   -0.000008   0.000000   0.000000   0.000001   0.000159   0.000074
     5  C   -0.000177  -0.000011   0.000009  -0.000001  -0.004227   0.003573
     6  H    0.001481   0.000011  -0.000056   0.000420   0.000003   0.000000
     7  H   -0.006198   0.005322   0.000102   0.001171   0.000262   0.000089
     8  H    0.000419   0.000091  -0.000071   0.000044  -0.005579  -0.001205
     9  H    0.000000   0.000000   0.000000   0.000000  -0.000006   0.000008
    10  H    0.000002   0.000000   0.000000   0.000000   0.003134   0.004650
    11  O    0.000021  -0.000003   0.000002   0.000003   0.000003  -0.000001
    12  O    0.213141  -0.032575  -0.029260  -0.030885  -0.000075   0.000003
    13  O   -0.000082  -0.000070   0.000000   0.000010   0.233448  -0.036352
    14  O    0.000002   0.000000  -0.000001   0.000000   0.000020  -0.000342
    15  C    0.000000   0.000000   0.000000   0.000000   0.000385  -0.000215
    16  H    0.000000   0.000000   0.000000   0.000000  -0.000005  -0.000005
    17  H    0.000000   0.000000   0.000000   0.000000  -0.000646  -0.000062
    18  O    0.000000   0.000000   0.000000   0.000000  -0.000004   0.000156
    19  C    4.920415   0.372727   0.384374   0.370334   0.000002   0.000000
    20  H    0.372727   0.535992  -0.026125  -0.038316   0.000003   0.000000
    21  H    0.384374  -0.026125   0.490595  -0.028235   0.000000   0.000000
    22  H    0.370334  -0.038316  -0.028235   0.547357   0.000000   0.000000
    23  C    0.000002   0.000003   0.000000   0.000000   4.905512   0.364287
    24  H    0.000000   0.000000   0.000000   0.000000   0.364287   0.576906
    25  H    0.000002   0.000012   0.000000   0.000000   0.371192  -0.043276
    26  H    0.000000   0.000000   0.000000   0.000000   0.385698  -0.030396
    27  C    0.000296  -0.000014   0.000043  -0.000014  -0.000002   0.000002
    28  H   -0.000005   0.000000  -0.000001   0.000000   0.000000   0.000000
    29  H   -0.000007   0.000000  -0.000002   0.000001   0.000000   0.000000
    30  H   -0.000407   0.000040  -0.000075   0.000063   0.000000   0.000001
    31  C    0.000000   0.000000   0.000000   0.000000   0.000011   0.000039
    32  H    0.000000   0.000000   0.000000   0.000000   0.000050  -0.000020
    33  H    0.000000   0.000000   0.000000   0.000000   0.000001   0.000000
    34  H    0.000000   0.000000   0.000000   0.000000  -0.000001   0.000002
              25         26         27         28         29         30
     1  C   -0.008445   0.004735  -0.005037  -0.000121  -0.000698   0.004378
     2  C    0.000151  -0.000185   0.001747  -0.000014  -0.000214  -0.004511
     3  C   -0.000001   0.000010   0.001250  -0.000005   0.000156   0.000381
     4  C   -0.000008  -0.000001  -0.005528  -0.000183   0.010408  -0.001385
     5  C   -0.001012   0.000023  -0.044266   0.004408  -0.010129  -0.000362
     6  H    0.000000   0.000000   0.000060   0.000000  -0.000047  -0.000020
     7  H   -0.000109  -0.000095  -0.000054   0.000001  -0.000012   0.000333
     8  H    0.010086   0.000010  -0.000212  -0.000049   0.000201   0.000162
     9  H    0.000000   0.000000  -0.000211  -0.000216  -0.000228   0.000430
    10  H    0.000089  -0.000254   0.005011  -0.000140  -0.000119  -0.000254
    11  O    0.000000   0.000000   0.000389   0.000058  -0.000264  -0.000021
    12  O   -0.000010   0.000001  -0.008409   0.000185   0.000219   0.016761
    13  O   -0.034814  -0.030596   0.000023   0.000001   0.000005  -0.000045
    14  O    0.000028   0.000001   0.238395  -0.032024  -0.037066  -0.037150
    15  C    0.000000   0.000044   0.000386   0.000001  -0.000095  -0.000005
    16  H    0.000000  -0.000001  -0.000004   0.000000   0.000029  -0.000001
    17  H    0.000067  -0.000086   0.000001   0.000000  -0.000003   0.000000
    18  O    0.000002  -0.000020  -0.000004   0.000000  -0.000001   0.000000
    19  C    0.000002   0.000000   0.000296  -0.000005  -0.000007  -0.000407
    20  H    0.000012   0.000000  -0.000014   0.000000   0.000000   0.000040
    21  H    0.000000   0.000000   0.000043  -0.000001  -0.000002  -0.000075
    22  H    0.000000   0.000000  -0.000014   0.000000   0.000001   0.000063
    23  C    0.371192   0.385698  -0.000002   0.000000   0.000000   0.000000
    24  H   -0.043276  -0.030396   0.000002   0.000000   0.000000   0.000001
    25  H    0.566558  -0.028127   0.000002   0.000000   0.000000  -0.000001
    26  H   -0.028127   0.512903   0.000000   0.000000   0.000000   0.000000
    27  C    0.000002   0.000000   4.976272   0.385001   0.359964   0.356401
    28  H    0.000000   0.000000   0.385001   0.511238  -0.029115  -0.026909
    29  H    0.000000   0.000000   0.359964  -0.029115   0.599481  -0.045637
    30  H   -0.000001   0.000000   0.356401  -0.026909  -0.045637   0.556811
    31  C    0.000000  -0.000002   0.000000   0.000000   0.000000   0.000000
    32  H   -0.000001   0.000053   0.000000   0.000000   0.000000   0.000000
    33  H    0.000000   0.000000   0.000000   0.000000   0.000000   0.000000
    34  H    0.000000   0.000000   0.000000   0.000000   0.000000   0.000000
              31         32         33         34
     1  C   -0.000040   0.000026  -0.000001  -0.000001
     2  C    0.000002  -0.000001   0.000000   0.000000
     3  C   -0.000004   0.000002   0.000000   0.000000
     4  C    0.004534   0.000232  -0.000111  -0.000257
     5  C    0.000444  -0.000127   0.000009   0.000022
     6  H    0.000000   0.000000   0.000000   0.000000
     7  H    0.000000   0.000000   0.000000   0.000000
     8  H    0.000000   0.000000   0.000000   0.000000
     9  H   -0.000111   0.000042  -0.000054  -0.000003
    10  H   -0.000461  -0.000016   0.000076  -0.000048
    11  O   -0.000046   0.000002   0.000002   0.000000
    12  O    0.000000   0.000000   0.000000   0.000000
    13  O    0.000026  -0.000042   0.000001   0.000001
    14  O    0.000001   0.000000   0.000000   0.000000
    15  C   -0.039036  -0.007536  -0.007727   0.005525
    16  H   -0.004115  -0.002201   0.010689  -0.000095
    17  H   -0.003821   0.010831  -0.002131  -0.000108
    18  O    0.241637  -0.035562  -0.035449  -0.031456
    19  C    0.000000   0.000000   0.000000   0.000000
    20  H    0.000000   0.000000   0.000000   0.000000
    21  H    0.000000   0.000000   0.000000   0.000000
    22  H    0.000000   0.000000   0.000000   0.000000
    23  C    0.000011   0.000050   0.000001  -0.000001
    24  H    0.000039  -0.000020   0.000000   0.000002
    25  H    0.000000  -0.000001   0.000000   0.000000
    26  H   -0.000002   0.000053   0.000000   0.000000
    27  C    0.000000   0.000000   0.000000   0.000000
    28  H    0.000000   0.000000   0.000000   0.000000
    29  H    0.000000   0.000000   0.000000   0.000000
    30  H    0.000000   0.000000   0.000000   0.000000
    31  C    4.890450   0.367725   0.368084   0.386314
    32  H    0.367725   0.584305  -0.044707  -0.030153
    33  H    0.368084  -0.044707   0.583220  -0.030055
    34  H    0.386314  -0.030153  -0.030055   0.518992
 Mulliken charges:
               1
     1  C    0.096059
     2  C    0.034636
     3  C    0.297367
     4  C    0.020213
     5  C    0.096677
     6  H    0.276515
     7  H    0.240479
     8  H    0.196619
     9  H    0.242046
    10  H    0.212334
    11  O   -0.312530
    12  O   -0.459146
    13  O   -0.490324
    14  O   -0.478374
    15  C   -0.023250
    16  H    0.173243
    17  H    0.173096
    18  O   -0.478604
    19  C   -0.233369
    20  H    0.188323
    21  H    0.204042
    22  H    0.183132
    23  C   -0.225423
    24  H    0.166800
    25  H    0.167617
    26  H    0.186286
    27  C   -0.261488
    28  H    0.187891
    29  H    0.153174
    30  H    0.181018
    31  C   -0.211632
    32  H    0.157100
    33  H    0.158153
    34  H    0.181321
 Sum of Mulliken charges =   1.00000
 Mulliken charges with hydrogens summed into heavy atoms:
               1
     1  C    0.292678
     2  C    0.275115
     3  C    0.573882
     4  C    0.262259
     5  C    0.309011
    11  O   -0.312530
    12  O   -0.459146
    13  O   -0.490324
    14  O   -0.478374
    15  C    0.323089
    18  O   -0.478604
    19  C    0.342129
    23  C    0.295279
    27  C    0.260595
    31  C    0.284942
 Electronic spatial extent (au):  <R**2>=           3419.4893
 Charge=              1.0000 electrons
 Dipole moment (field-independent basis, Debye):
    X=              3.7988    Y=              0.8228    Z=             -5.3035  Tot=              6.5753
 Quadrupole moment (field-independent basis, Debye-Ang):
   XX=            -53.7106   YY=            -75.5687   ZZ=            -78.3421
   XY=             -0.5004   XZ=             -4.1341   YZ=              4.7174
 Traceless Quadrupole moment (field-independent basis, Debye-Ang):
   XX=             15.4965   YY=             -6.3615   ZZ=             -9.1350
   XY=             -0.5004   XZ=             -4.1341   YZ=              4.7174
 Octapole moment (field-independent basis, Debye-Ang**2):
[...]
 ,0.00001423,-0.00014476,0.00003089,-0.00007701,-0.00003332,0.00002717,
 0.00005424,0.00000974,0.00001637,0.00006600,0.00001761,0.00000055,0.00
 000025,0.00000715,0.00001095,-0.00001423,-0.00002580,-0.00002022,0.000
 01403,-0.00005297,0.00011330,0.00010762,-0.00000689,0.00001348,-0.0000
 1036,-0.00000321,-0.00000883,-0.00002093,0.00000785,-0.00002425,-0.000
 00213,-0.05656010,-0.15575218,-0.10694910,0.00447314,0.01260249,0.0102
 7699,0.05220788,0.17302983,0.00033252,0.00017575,0.00007591,-0.0000622
 4,-0.00004110,-0.00017919,-0.00012620,0.00049853,-0.00036413,0.0001048
 5,-0.00090680,0.00047281,-0.00044235,0.00280271,-0.00078446,0.00002959
 ,-0.00002071,0.00007144,0.00001590,0.,0.00002247,0.00006399,0.00008570
 ,-0.00003993,-0.00035318,0.00018754,-0.00034649,0.00011011,-0.00012217
 ,0.00014063,-0.00021284,-0.00025404,-0.00115938,-0.00023141,-0.0002384
 2,0.00011259,0.00002465,-0.00041233,0.00010820,0.00587042,-0.01012956,
 -0.00214553,0.00004673,0.00053708,0.00032415,0.00015983,-0.00007680,0.
 00008428,-0.00012489,0.00000877,-0.00004518,0.00013127,-0.00000634,0.0
 0002481,0.00011898,0.00004181,-0.00004403,-0.00001270,-0.00000902,0.00
 000529,-0.00001998,-0.00000988,0.00000162,-0.00000570,-0.00000903,0.00
 001686,-0.00005528,0.00011000,0.00011933,-0.00001287,0.00001691,-0.000
 00634,-0.00000402,-0.00001624,-0.00002342,0.00000717,-0.00002802,-0.00
 000281,-0.05800670,-0.10840186,-0.17041901,-0.01057121,-0.01874019,-0.
 01761220,0.06043891,0.12732079,0.18331249,-0.00028667,0.00056088,-0.00
 072785,-0.00012850,0.00099094,-0.00058404,-0.00045710,0.00004479,-0.00
 085038,-0.00079970,0.00050697,0.00026015,0.00148424,-0.00328251,0.0031
 3029,0.00003273,-0.00000699,-0.00001181,-0.00014775,0.00005687,-0.0002
 1429,-0.00014673,0.00021000,0.00006343,0.00013833,0.00001496,0.0001006
 9,-0.00001532,0.00045345,-0.00036382,0.00055015,0.00014588,-0.00021430
 ,-0.00178786,-0.00252639,0.00253934,0.00020236,0.00027300,-0.00018331,
 -0.02839403,0.00358199,0.01000272,0.00001823,-0.00014025,-0.00019951,-
 0.00009059,0.00002448,-0.00005426,0.00000792,0.00000981,0.00000753,-0.
 00004435,-0.00001247,-0.00004858,0.00041165,-0.00045227,0.00028065,-0.
 00018249,-0.00008230,0.00007593,-0.00000331,0.00006265,-0.00004831,-0.
 00013498,-0.00006094,0.00005942,0.00000640,-0.00005911,0.00000725,0.00
 002769,-0.00000947,-0.00001864,0.00000560,0.00002197,0.00000607,0.0000
 0453,0.00000912,-0.00001098,-0.22646266,-0.10472704,0.06185026,0.00839
 147,0.00255629,-0.00180095,-0.00589129,-0.00676152,0.00283434,0.253649
 24,-0.00071490,0.00038023,0.00045129,0.00066867,-0.00064874,0.00057248
 ,0.00049885,0.00052574,-0.00021047,-0.00001550,-0.00074330,0.00025836,
 -0.00047226,0.00419783,-0.00268914,0.00000636,-0.00001018,0.00001421,-
 0.00036862,0.00013596,-0.00007315,0.00011564,-0.00035434,0.00002716,0.
 00005223,0.00002227,-0.00007464,-0.00006950,-0.00032728,0.00021845,0.0
 0005113,-0.00028688,0.00020909,-0.00118706,-0.00213213,0.00184602,-0.0
 0000723,0.00022098,-0.00016729,0.03210000,0.00877405,-0.01097814,0.000
 05152,0.00020578,0.00015439,0.00008288,-0.00003004,0.00002546,-0.00003
 270,0.00001860,-0.00001457,0.00003895,-0.00000413,0.00002050,-0.000760
 48,-0.00058396,-0.00004004,-0.00004576,0.00006231,-0.00001042,0.000030
 07,0.00002767,-0.00000823,0.00015158,0.00012156,-0.00013097,0.00006659
 ,-0.00000188,-0.00006523,-0.00001919,-0.00000563,0.00002096,-0.0000144
 8,-0.00000069,0.00000666,-0.00000629,0.00000781,0.00001548,-0.11060093
 ,-0.12000723,0.04169245,-0.01190699,-0.00582224,0.00269721,-0.01629510
 ,-0.00804030,0.00761162,0.10862223,0.12428535,0.00058190,0.00005717,0.
 00042063,-0.00110596,0.00027468,-0.00043540,-0.00057580,-0.00003434,-0
 .00067075,-0.00037828,-0.00054412,0.00008813,-0.00125991,-0.00041560,0
 .00001845,0.00001155,0.00001617,-0.00003253,0.00035308,-0.00015088,0.0
 0014387,0.00000639,-0.00004675,-0.00005140,0.00012077,0.00003966,-0.00
 003172,0.00005596,-0.00003582,0.00002593,0.00013097,-0.00003163,0.0003
 0530,0.00098161,0.00180718,-0.00164465,0.00008727,-0.00056976,-0.00004
 660,0.00876603,-0.00031719,-0.00001743,-0.00002326,0.00019448,-0.00004
 170,0.00002180,-0.00000973,0.00003018,-0.00005329,0.00000582,-0.000029
 28,0.00012881,-0.00001357,0.00003523,0.00110560,0.00037766,-0.00011525
 ,-0.00008220,-0.00017535,0.00008717,-0.00006052,0.00000660,0.00001900,
 -0.00012101,-0.00010552,0.00010090,-0.00006379,0.00011095,0.00018863,0
 .00000147,0.00000219,-0.00002139,-0.00000655,-0.00003480,-0.00002988,0
 .00001195,-0.00003894,-0.00002335,0.06439013,0.03895480,-0.07957657,0.
 02305349,0.01396013,-0.00624347,-0.02016728,-0.01191767,0.00829182,-0.
 07587994,-0.04138191,0.07926815,-0.00032756,-0.00054752,0.00011156,-0.
 00022669,0.00002151,-0.00012617,-0.00171232,-0.00067402,-0.00023701,-0
 .00438185,0.00048335,0.00291685,-0.00053903,0.00038877,-0.00114801,0.0
 0006655,0.00020134,-0.00007771,0.00008783,-0.00002988,0.00001425,0.000
 15338,0.00014218,0.00002627,-0.00015327,0.00033573,-0.00035012,-0.0008
 6810,-0.00054578,-0.00104922,0.00249748,0.00033265,-0.00037144,0.00080
 522,0.00025040,0.00015646,0.00044343,0.00102696,0.00061112,0.00105060,
 -0.00056694,0.00077731,-0.04754985,0.01542327,-0.00231654,0.00580598,-
 0.00127463,-0.00368495,0.00475835,0.00059239,-0.00386023,-0.17149900,0
 .04545492,-0.02447699,-0.00046640,-0.00019851,0.00022915,0.00008100,0.
 00004623,-0.00002988,0.00007839,0.00003616,-0.00000837,0.00001302,0.00
 002734,-0.00006380,0.00018794,-0.00070559,-0.00039033,-0.00003021,-0.0
 0002990,-0.00005950,0.00005295,0.00013346,0.00011557,-0.00002449,0.000
 08758,-0.00001175,-0.00052757,0.00039449,0.00017765,0.00008836,-0.0000
 9172,0.00005779,0.00002151,0.00000628,-0.00007998,0.00006354,-0.000033
 95,-0.00005572,0.51035642,-0.00008275,0.00073061,-0.00021636,0.0000776
 6,-0.00002049,0.00008194,0.00098438,0.00080639,-0.00006954,0.00038778,
 -0.00184140,0.00001181,-0.00023987,-0.00037186,0.00053205,-0.00002421,
 -0.00009885,0.00003420,-0.00006269,0.00000786,0.00001841,-0.00006251,-
 0.00013641,0.00002329,0.00018094,0.00020441,-0.00015051,0.00033184,0.0
 0048202,0.00075399,-0.00160509,0.00021082,0.00027800,-0.00035613,-0.00
 016235,-0.00006445,0.00018973,-0.00060925,-0.00008414,-0.00059509,0.00
 030694,-0.00048552,0.00583600,-0.00562871,-0.00263822,0.00031969,0.000
 71544,0.00236225,-0.00502718,0.00266265,0.00110777,0.05841217,-0.08862
 381,0.02312530,0.00022707,0.00009884,-0.00010656,-0.00004250,-0.000026
 14,0.00001065,-0.00003579,-0.00001821,0.00000474,-0.00000843,-0.000010
 06,0.00002856,-0.00018696,0.00034620,0.00017544,-0.00000928,0.00005501
 ,-0.00003966,0.00005403,-0.00007086,-0.00005400,-0.00002784,-0.0001494
 5,0.00001420,0.00027276,-0.00021238,-0.00011419,-0.00004902,0.00005557
 ,-0.00002729,-0.00001438,-0.00000038,0.00004476,-0.00003796,0.00002287
 ,0.00002954,0.04284465,0.55449416,-0.00017809,-0.00007766,0.00000911,-
 0.00009236,-0.00028947,-0.00006759,-0.00121263,-0.00114991,-0.00032193
 ,0.00179114,0.00086759,-0.00404263,-0.00056965,-0.00051157,-0.00092696
 ,-0.00005458,0.00035065,-0.00019081,0.00004775,-0.00000839,0.00006047,
 0.00003648,0.00007065,0.00002914,-0.00020039,-0.00009347,-0.00015675,-
 0.00013832,0.00030736,0.00015518,0.00395122,-0.00025084,0.00021121,0.0
 0058682,0.00026065,0.00020815,0.00008039,0.00045292,0.00024866,0.00037
 332,-0.00009066,0.00055132,0.02612008,-0.01214624,0.00636742,0.0041752
 9,-0.00064230,0.00023642,0.00237876,-0.00080160,-0.00053851,-0.0641009
 8,0.03642761,-0.10684109,-0.00032372,-0.00010271,0.00017177,0.00007573
 ,0.00003104,-0.00001902,0.00005211,0.00002927,-0.00000467,0.00000686,0
 .00001405,-0.00004214,0.00010330,-0.00029537,-0.00012278,-0.00002337,0
 .00000886,-0.00000480,-0.00000237,0.00006798,0.00005076,-0.00000021,0.
 00007547,-0.00000583,-0.00019618,0.00011557,0.00000443,0.00001527,-0.0
 0001902,0.00003653,0.00001239,0.00003223,-0.00003304,0.00000462,-0.000
 00618,-0.00002823,-0.06460704,0.01506686,0.59505341,-0.00004325,0.0000
 9577,-0.00004139,0.00000026,-0.00000305,0.00001229,0.00008524,0.000106
 59,0.00006374,0.00059349,-0.00000178,-0.00024138,0.00006335,-0.0000422
 9,0.00011664,-0.00000988,-0.00003627,0.00001400,-0.00001171,0.00000107
 ,-0.00000205,-0.00000841,-0.00001890,0.00000379,-0.00000353,-0.0001887
 8,0.00017861,0.00009675,0.00007961,0.00008837,-0.00045797,-0.00012600,
 0.00007535,-0.00005463,-0.00002419,-0.00001549,0.00001381,-0.00006670,
 -0.00002434,-0.00006749,0.00002774,-0.00003986,0.00549919,0.00326412,-
 0.00437893,-0.00068768,-0.00017931,0.00041626,0.00025796,-0.00163562,0
 .00072830,-0.00852693,0.03749496,-0.01310717,0.00003206,0.00001161,-0.
 00001672,-0.00000703,-0.00000318,0.00000193,-0.00000547,-0.00000284,0.
 00000044,-0.00000039,-0.00000146,0.00000409,-0.00002877,0.00004801,0.0
 0001936,-0.00001043,0.00000557,-0.00001208,0.00001024,-0.00001182,-0.0
 0000166,-0.00000266,-0.00003386,0.00000072,0.00003661,-0.00002355,-0.0
 0000943,-0.00000620,0.00000542,-0.00000522,-0.00000029,-0.00000287,0.0
 0000580,-0.00000407,0.00000289,0.00000392,-0.06256641,-0.05035509,0.01
 684975,0.06702977,0.00003581,-0.00018299,0.00004741,-0.00000853,-0.000
 00801,-0.00001882,-0.00023568,-0.00017619,-0.00004525,-0.00025796,0.00
 057925,-0.00017656,-0.00005746,0.00003190,-0.00011585,0.00000696,0.000
 04378,-0.00001787,0.00002177,-0.00000168,0.00000144,0.00001015,0.00003
 506,-0.00000828,-0.00025594,0.00013256,-0.00011363,-0.00010387,-0.0001
 0580,-0.00013814,0.00057279,0.00001078,-0.00001331,0.00009158,0.000048
 93,0.00002461,-0.00008199,0.00014375,-0.00000215,0.00013428,-0.0000398
 7,0.00008733,-0.00281300,0.00112352,0.00209360,0.00003449,-0.00034763,
 -0.00043988,0.00160988,-0.00007391,-0.00097796,0.01337663,-0.01239809,
 0.00854526,-0.00005763,-0.00002274,0.00002962,0.00001254,0.00000669,-0
 .00000218,0.00000865,0.00000509,-0.00000151,0.00000193,0.00000162,-0.0
 0000739,0.00003120,-0.00007321,-0.00001771,-0.00000515,-0.00001563,-0.
 00000278,-0.00001551,0.00001607,0.00000923,0.00000485,0.00004049,-0.00
 000441,-0.00005895,0.00003871,0.00001707,0.00000751,-0.00001113,0.0000
 0552,0.00000193,0.00000134,-0.00000750,0.00000849,-0.00000421,-0.00000
 640,-0.04679713,-0.27597610,0.06341193,0.04110258,0.30122048,-0.000017
 78,0.00011552,-0.00003049,0.00001925,0.00000893,0.00002967,0.00023984,
 0.00013444,0.00003976,0.00032822,-0.00021398,0.00002072,0.00004445,-0.
 00001210,0.00014557,-0.00000529,-0.00003483,0.00001067,-0.00001024,0.0
 0000428,-0.00000040,-0.00001408,-0.00002441,0.00000174,0.00011716,-0.0
 0005975,0.00002524,0.00003902,0.00008351,0.00005926,-0.00038140,-0.000
 05904,-0.00001866,-0.00008858,-0.00003969,-0.00003326,0.00007336,-0.00
 016353,-0.00008554,-0.00010259,0.00002209,-0.00009666,0.00158513,-0.00
 198107,-0.00054901,-0.00033818,-0.00000980,0.00016730,-0.00076853,0.00
 011898,0.00055871,-0.00621323,0.01669890,-0.00430038,0.00005360,0.0000
 2086,-0.00002566,-0.00001125,-0.00000598,0.00000345,-0.00000868,-0.000
 00433,0.00000082,-0.00000071,-0.00000299,0.00000652,-0.00010273,0.0000
 9327,0.00009501,-0.00000841,0.00002612,-0.00004872,0.00003326,-0.00001
 923,-0.00002906,-0.00001624,-0.00005416,0.00001450,0.00005281,-0.00003
 259,-0.00000814,-0.00000609,0.00000763,-0.00000662,-0.00000147,-0.0000
 0427,0.00000635,-0.00000542,0.00000296,0.00000557,0.01429044,0.0626501
 5,-0.07266543,-0.00889005,-0.07639277,0.07296839,-0.00001115,0.0001936
 6,-0.00004217,0.00002519,-0.00003147,0.00001357,0.00015985,0.00012506,
 -0.00000453,0.00064164,-0.00011931,0.00002689,0.00004711,-0.00040942,0
 .00002221,-0.00001353,-0.00002153,0.00000618,-0.00001404,0.00000329,0.
 00001079,-0.00002368,-0.00003022,0.00000400,0.00003342,-0.00004031,0.0
 0001066,0.00011242,0.00023460,0.00035408,-0.00043128,0.00003370,0.0001
 0286,-0.00009210,-0.00002150,0.00000183,-0.00002919,-0.00011922,-0.000
 03620,-0.00018006,0.00017136,-0.00002345,0.00416131,-0.00223901,-0.006
 08742,0.00003067,0.00087678,0.00166420,-0.00054122,-0.00001166,0.00054
 948,-0.02705476,-0.00705688,-0.02817392,0.00005292,0.00002631,-0.00002
 663,-0.00000741,-0.00000524,0.00000329,-0.00000953,-0.00000430,0.00000
 097,-0.00000223,-0.00000349,0.00000745,-0.00000930,0.00009006,0.000050
 10,-0.00000198,0.00001360,0.00001119,-0.00001063,-0.00001400,-0.000012
 32,0.00000302,-0.00000989,0.00000207,0.00006568,-0.00006685,-0.0000552
 2,-0.00001859,0.00001993,-0.00000581,-0.00000440,0.00000568,0.00001325
 ,-0.00001290,0.00000714,0.00001000,-0.07605881,-0.04438428,-0.05529855
 ,0.00034988,-0.00518837,-0.00426834,0.08895404,0.00006169,-0.00012305,
 0.00003181,0.00000450,0.00002067,-0.00001303,-0.00003804,-0.00003125,0
 .00000642,-0.00025826,0.00017207,0.00027089,0.00010813,0.00011213,0.00
 007302,0.00000402,-0.00000198,0.00000507,0.00000580,-0.00000093,-0.000
 00831,0.00000298,0.00001849,-0.00000776,0.00001354,-0.00000335,0.00001
 641,0.00001997,-0.00010195,-0.00009666,-0.00001252,0.00000267,-0.00002
 695,0.00000170,0.00000561,0.00000499,-0.00009092,0.00006245,-0.0000091
 0,0.00006542,-0.00003466,0.00000988,-0.00110035,0.00138949,0.00236311,
 -0.00099297,-0.00024958,-0.00055578,0.00028051,-0.00048296,-0.00032414
 ,0.01082232,0.01200693,0.01511467,-0.00000426,-0.00000294,-0.00000018,
 0.00000105,0.00000119,-0.00000027,0.00000068,0.00000015,0.,-0.00000018
 ,0.00000048,0.00000017,0.00004299,-0.00003032,-0.00003036,0.00000226,-
 0.00002162,0.00002037,-0.00002431,0.00000455,0.00000501,0.00001442,0.0
 0003239,-0.00000758,-0.00001060,0.00001477,0.00001704,0.00000568,-0.00
 000617,0.00000053,0.00000135,-0.00000136,-0.00000359,0.00000337,-0.000
 00315,-0.00000216,-0.04602126,-0.13449473,-0.11087585,-0.00939258,-0.0
 1574641,-0.02437903,0.04580173,0.13581103,0.00004377,0.00013140,-0.000
 01684,0.00003622,-0.00001402,0.00002087,0.00026629,0.00018582,0.000010
 75,0.00039222,-0.00009575,0.00013240,0.00016210,-0.00013451,0.00022118
 ,-0.00000815,-0.00003960,0.00001522,-0.00001658,0.00000383,0.00000076,
 -0.00002294,-0.00002333,-0.00000276,0.00001880,-0.00002959,0.00001388,
 0.00017908,0.00011697,0.00023602,-0.00050870,-0.00004685,0.00005721,-0
 .00013666,-0.00003925,-0.00002058,-0.00006194,-0.00013806,-0.00006277,
 -0.00016362,0.00012530,-0.00013244,0.00314863,0.00118041,0.00053532,-0
 .00156711,0.00010238,0.00070682,-0.00031854,-0.00014441,0.00018372,-0.
 01517930,0.00013292,-0.01019256,0.00007894,0.00003226,-0.00003936,-0.0
 0001361,-0.00000702,0.00000518,-0.00001340,-0.00000627,0.00000087,-0.0
 0000209,-0.00000484,0.00001109,-0.00000706,0.00009932,0.00004010,0.000
 00143,0.00000289,0.00001230,-0.00001339,-0.00002011,-0.00001401,0.0000
 0305,-0.00001355,0.00000009,0.00009400,-0.00007757,-0.00003473,-0.0000
 1584,0.00001567,-0.00001071,-0.00000522,0.00000176,0.00001765,-0.00001
 083,0.00000717,0.00001094,-0.05846255,-0.10813095,-0.20054920,0.004174
 58,0.00483806,0.00863225,0.07561358,0.11621290,0.21655219,0.00002422,0
 .00010113,-0.00003908,0.00003002,0.00007204,0.00003309,0.00045194,0.00
 043102,0.00007888,-0.00019963,-0.00037250,0.00127665,0.00010223,0.0000
 4095,0.00036242,0.00000658,-0.00010403,0.00005058,-0.00001511,0.000002
 78,-0.00001242,-0.00002502,-0.00003690,-0.00000590,0.00001974,0.000026
 13,0.00001932,0.00005110,0.00002544,0.00006927,-0.00126281,0.00001197,
 -0.00005394,-0.00019640,-0.00008306,-0.00006519,-0.00001647,-0.0001887
 4,-0.00012349,-0.00016095,0.00007600,-0.00022415,-0.00276607,0.0024000
 1,-0.00413518,-0.00006051,0.00024931,0.00030009,-0.00003326,-0.0001290
 3,0.00002881,-0.03123197,0.00381100,0.02053709,0.00010999,0.00003850,-
 0.00005503,-0.00002425,-0.00001118,0.00000723,-0.00001865,-0.00000938,
 0.00000163,-0.00000235,-0.00000581,0.00001335,-0.00007084,0.00010409,0
 .00012795,0.00000279,0.00001069,-0.00002080,0.00000336,-0.00001533,-0.
 00002852,0.00000449,-0.00001650,-0.00000003,0.00008251,-0.00005195,-0.
 00001319,-0.00001396,0.00001267,-0.00001472,-0.00000630,-0.00001109,0.
 00001324,-0.00000379,0.00000421,0.00001082,-0.15968040,-0.00691165,0.1
 3033717,-0.00156545,-0.00113684,0.00438274,0.00988966,0.00068211,-0.00
 768515,0.18657556,-0.00000113,-0.00004069,0.00000974,-0.00000959,-0.00
 003062,-0.00001104,-0.00014587,-0.00016259,-0.00004014,0.00027752,0.00
 058968,-0.00048654,-0.00000969,-0.00005565,-0.00010866,-0.00000647,0.0
 0004689,-0.00002528,0.00000916,0.00000049,0.00000711,0.00000336,0.0000
 1374,0.00000152,-0.00007936,0.00000860,-0.00005777,-0.00003094,-0.0000
 0261,-0.00000834,0.00055059,-0.00005435,0.00002241,0.00007336,0.000031
 39,0.00002301,-0.00000320,0.00004004,-0.00000105,0.00005874,-0.0000313
 3,0.00008988,0.00211958,-0.00078824,0.00128010,-0.00018131,0.00004912,
 0.00020262,0.00046261,0.00023445,-0.00023390,0.01461092,-0.00091695,-0
 .01108355,-0.00004037,-0.00001249,0.00002180,0.00000948,0.00000370,-0.
 00000226,0.00000673,0.00000379,-0.00000055,0.00000080,0.00000163,-0.00
 000525,0.00000213,-0.00002003,0.00001554,-0.00000441,0.00000908,-0.000
 00709,0.00000339,0.00000841,0.00000018,-0.00000392,0.00000825,0.000006
 00,-0.00003104,0.00002476,0.00000699,0.00000549,-0.00000414,0.00000524
 ,0.00000296,0.00000201,-0.00000836,0.00000109,-0.00000269,-0.00000492,
 -0.01071280,-0.05274838,0.00977055,-0.02009580,0.00170360,0.02350592,0
 .01217406,0.00168135,-0.01422336,0.00098394,0.05040978,-0.00001322,-0.
 00000409,0.00000333,-0.00000971,0.00004138,0.00000112,0.00001355,0.000
 09366,0.00002438,-0.00022922,-0.00003713,0.00064882,0.00003573,-0.0000
 0710,0.00004925,0.00001342,-0.00003490,0.00002266,-0.00000148,-0.00000
 189,-0.00000671,0.00000548,-0.00000202,-0.00000122,0.00004616,0.000008
 62,0.00002448,-0.00001564,-0.00003353,-0.00004529,-0.00036902,0.000080
 64,-0.00004644,-0.00001783,-0.00001895,-0.00001238,0.00002325,0.000007
 41,0.00001135,0.00004006,-0.00001363,0.00001452,-0.00333435,0.00100763
 ,0.00071277,-0.00021207,0.00023778,0.00019565,-0.00012126,-0.00004505,
 -0.00004371,-0.01223756,-0.00002716,0.01299688,0.00000790,-0.00000040,
 -0.00000696,-0.00000410,-0.00000090,0.00000008,-0.00000124,-0.00000149
 ,0.00000035,-0.00000027,0.00000055,0.00000085,-0.00000540,-0.00000916,
 -0.00000835,-0.00000104,-0.00000047,-0.00000174,0.00000515,-0.00000012
 ,0.00000174,-0.00000010,-0.00000430,-0.00000185,-0.00001715,0.00001635
 ,0.00001023,0.00000332,-0.00000313,0.00000003,-0.00000099,-0.00000176,
 -0.00000354,0.00000450,-0.00000155,-0.00000031,0.14198290,0.00582750,-
 0.21683258,0.00402783,-0.00060070,-0.00489349,0.01555592,0.00218844,-0
 .01634083,-0.14517352,-0.00866056,0.22352689\\-0.00000899,-0.00000198,
 0.00000100,-0.00000245,-0.00000804,-0.00000208,-0.00000838,0.00000880,
 0.00000044,0.00000159,0.00000454,-0.00000131,0.00000282,0.00000002,-0.
 00000214,-0.00000053,0.00000163,-0.00000018,0.00000254,-0.00000057,-0.
 00000016,0.00000107,0.00000160,0.00000002,-0.00000072,0.00000082,-0.00
 000084,0.00000103,-0.00000275,0.00000139,0.00000302,-0.00000581,-0.000
 00473,0.00000114,0.00000072,-0.00000091,0.00001466,0.00000324,0.000003
 64,0.00000149,-0.00000113,-0.00000103,0.00000020,0.00000095,0.00000713
 ,-0.00000460,0.00000509,0.00000078,-0.00000317,0.00000309,0.00000121,0
 .00000120,0.00000848,-0.00000687,0.00000257,-0.00000190,-0.00000184,0.
 00000039,-0.00000417,-0.00000093,0.00000073,-0.00000261,-0.00000329,-0
 .00000005,-0.00000192,-0.00000106,-0.00000162,-0.00000191,0.00000706,0
 .00000470,-0.00000157,0.00000106,0.00000405,-0.00000181,0.00000076,0.0
 0000033,-0.00000334,0.00000301,-0.00000128,-0.00000347,-0.00000665,0.0
 0000067,-0.00000314,-0.00000274,-0.00000211,-0.00000109,-0.00000124,-0
 .00000088,-0.00000425,-0.00000097,-0.00000832,-0.00000007,0.00000342,0
 .00000078,0.00000310,0.00000372,-0.00000040,0.00000501,0.00000267,-0.0
 0000148,0.00000446,0.00000164\\\@


 THERE IS MUCH PLEASURE TO BE GAINED FROM USELESS KNOWLEDGE

                                       -- BERTRAND RUSSELL
 Job cpu time:       0 days  1 hours 38 minutes 23.5 seconds.
 Elapsed time:       0 days  0 hours 24 minutes 44.2 seconds.
 File lengths (MBytes):  RWF=    377 Int=      0 D2E=      0 Chk=     16 Scr=      1
 Normal termination of Gaussian 16 at Fri May 24 08:58:09 2019.
