 Entering Gaussian System, Link 0=g16
 Input=clay-glucose_cation-158-b3lyp_d3bj-631gd-pcm_thf.gjf
 Output=clay-glucose_cation-158-b3lyp_d3bj-631gd-pcm_thf.out
 Initial command:
 /n/sw/g16_nehalem/g16/l1.exe "/scratch/Gau-183490.inp" -scrdir="/scratch/"
 Entering Link 1 = /n/sw/g16_nehalem/g16/l1.exe PID=    183495.
  
 Copyright (c) 1988,1990,1992,1993,1995,1998,2003,2009,2016,
            Gaussian, Inc.  All Rights Reserved.
  
 This is part of the Gaussian(R) 16 program.  It is based on
 the Gaussian(R) 09 system (copyright 2009, Gaussian, Inc.),
 the Gaussian(R) 03 system (copyright 2003, Gaussian, Inc.),
 the Gaussian(R) 98 system (copyright 1998, Gaussian, Inc.),
 the Gaussian(R) 94 system (copyright 1995, Gaussian, Inc.),
 the Gaussian 92(TM) system (copyright 1992, Gaussian, Inc.),
 the Gaussian 90(TM) system (copyright 1990, Gaussian, Inc.),
 the Gaussian 88(TM) system (copyright 1988, Gaussian, Inc.),
 the Gaussian 86(TM) system (copyright 1986, Carnegie Mellon
 University), and the Gaussian 82(TM) system (copyright 1983,
 Carnegie Mellon University). Gaussian is a federally registered
 trademark of Gaussian, Inc.
  
 This software contains proprietary and confidential information,
 including trade secrets, belonging to Gaussian, Inc.
  
 This software is provided under written license and may be
 used, copied, transmitted, or stored only in accord with that
 written license.
  
 The following legend is applicable only to US Government
 contracts under FAR:
  
                    RESTRICTED RIGHTS LEGEND
  
 Use, reproduction and disclosure by the US Government is
 subject to restrictions as set forth in subparagraphs (a)
 and (c) of the Commercial Computer Software - Restricted
 Rights clause in FAR 52.227-19.
  
 Gaussian, Inc.
 340 Quinnipiac St., Bldg. 40, Wallingford CT 06492
  
  
 ---------------------------------------------------------------
 Warning -- This program may not be used in any manner that
 competes with the business of Gaussian, Inc. or will provide
 assistance to any competitor of Gaussian, Inc.  The licensee
 of this program is prohibited from giving any competitor of
 Gaussian, Inc. access to this program.  By using this program,
 the user acknowledges that Gaussian, Inc. is engaged in the
 business of creating and licensing software in the field of
 computational chemistry and represents and warrants to the
 licensee that it is not a competitor of Gaussian, Inc. and that
 it will not use this program in any manner prohibited above.
 ---------------------------------------------------------------
  

 Cite this work as:
 Gaussian 16, Revision A.03,
 M. J. Frisch, G. W. Trucks, H. B. Schlegel, G. E. Scuseria, 
 M. A. Robb, J. R. Cheeseman, G. Scalmani, V. Barone, 
 G. A. Petersson, H. Nakatsuji, X. Li, M. Caricato, A. V. Marenich, 
 J. Bloino, B. G. Janesko, R. Gomperts, B. Mennucci, H. P. Hratchian, 
 J. V. Ortiz, A. F. Izmaylov, J. L. Sonnenberg, D. Williams-Young, 
 F. Ding, F. Lipparini, F. Egidi, J. Goings, B. Peng, A. Petrone, 
 T. Henderson, D. Ranasinghe, V. G. Zakrzewski, J. Gao, N. Rega, 
 G. Zheng, W. Liang, M. Hada, M. Ehara, K. Toyota, R. Fukuda, 
 J. Hasegawa, M. Ishida, T. Nakajima, Y. Honda, O. Kitao, H. Nakai, 
 T. Vreven, K. Throssell, J. A. Montgomery, Jr., J. E. Peralta, 
 F. Ogliaro, M. J. Bearpark, J. J. Heyd, E. N. Brothers, K. N. Kudin, 
 V. N. Staroverov, T. A. Keith, R. Kobayashi, J. Normand, 
 K. Raghavachari, A. P. Rendell, J. C. Burant, S. S. Iyengar, 
 J. Tomasi, M. Cossi, J. M. Millam, M. Klene, C. Adamo, R. Cammi, 
 J. W. Ochterski, R. L. Martin, K. Morokuma, O. Farkas, 
 J. B. Foresman, and D. J. Fox, Gaussian, Inc., Wallingford CT, 2016.
 
 ******************************************
 Gaussian 16:  ES64L-G16RevA.03 25-Dec-2016
                24-May-2019 
 ******************************************
 %nprocshared=4
 Will use up to    4 processors via shared memory.
 %mem=3GB
 -------------------------------------------------------------------
 #p b3lyp 6-31g* opt freq=noraman scrf=(pcm,solvent=tetrahydrofuran)
 -------------------------------------------------------------------
 1/18=20,19=15,26=3,38=1/1,3;
 2/9=110,12=2,17=6,18=5,40=1/2;
 3/5=1,6=6,7=1,11=2,25=1,30=1,70=2201,71=1,72=20,74=-5/1,2,3;
 4//1;
 5/5=2,38=5,53=20/2;
 6/7=2,8=2,9=2,10=2,28=1/1;
 7//1,2,3,16;
 1/18=20,19=15,26=3/3(2);
 2/9=110/2;
 99//99;
 2/9=110/2;
 3/5=1,6=6,7=1,11=2,25=1,30=1,70=2205,71=1,72=20,74=-5/1,2,3;
 4/5=5,16=3,69=1/1;
 5/5=2,38=5,53=20/2;
 7//1,2,3,16;
 1/18=20,19=15,26=3/3(-5);
 2/9=110/2;
 6/7=2,8=2,9=2,10=2,19=2,28=1/1;
 99/9=1/99;
 Leave Link    1 at Fri May 24 08:32:03 2019, MaxMem=   402653184 cpu:               0.3 elap:               0.1
 (Enter /n/sw/g16_nehalem/g16/l101.exe)
 -----
 title
 -----
 Symbolic Z-matrix:
 Charge =  1 Multiplicity = 1
 6                     0.67072  -0.5259   -0.76285 
 6                     1.6675   -0.52104   0.41988 
 6                     1.11291   0.08227   1.67289 
 6                    -0.99212   0.77916   0.67452 
 6                    -0.292     0.67178  -0.68202 
 1                     1.73548   0.12794   2.56647 
 1                     1.96272  -1.55541   0.6391 
 1                     1.24805  -0.43776  -1.69052 
 1                    -1.36477   1.79267   0.82427 
 1                    -1.07499   0.54096  -1.43862 
 8                     0.00683   0.6683    1.79432 
 8                     2.78842   0.31982   0.21001 
 8                    -0.10338  -1.70562  -0.72552 
 8                     0.49091   1.82623  -0.91176 
 6                    -2.10925  -0.21847   0.99195 
 1                    -1.74614  -1.24799   0.88942 
 1                    -2.44741  -0.06182   2.02772 
 8                    -3.12816   0.07206   0.06304 
 6                     4.06769  -0.30306   0.41878 
 1                     4.81049   0.46118   0.189 
 1                     4.19166  -0.6333    1.45625 
 1                     4.18677  -1.15806  -0.25692 
 6                     0.49525  -2.82962  -1.37295 
 1                     0.67774  -2.61502  -2.43309 
 1                    -0.21554  -3.65204  -1.28107 
 1                     1.4416   -3.12058  -0.89747 
 6                    -0.21642   2.91821  -1.4997 
 1                     0.51396   3.71692  -1.63876 
 1                    -0.63821   2.63272  -2.47198 
 1                    -1.025     3.28407  -0.85315 
 6                    -4.24737  -0.79845   0.18909 
 1                    -4.97101  -0.48994  -0.56771 
 1                    -3.95936  -1.84427   0.01368 
 1                    -4.70443  -0.71581   1.18504 
 
 ITRead=  0  0  0  0  0  0  0  0  0  0  0  0  0  0  0  0  0  0  0  0
 ITRead=  0  0  0  0  0  0  0  0  0  0  0  0  0  0
 MicOpt= -1 -1 -1 -1 -1 -1 -1 -1 -1 -1 -1 -1 -1 -1 -1 -1 -1 -1 -1 -1
 MicOpt= -1 -1 -1 -1 -1 -1 -1 -1 -1 -1 -1 -1 -1 -1
 NAtoms=     34 NQM=       34 NQMF=       0 NMMI=      0 NMMIF=      0
                NMic=       0 NMicF=      0.
                    Isotopes and Nuclear Properties:
 (Nuclear quadrupole moments (NQMom) in fm**2, nuclear magnetic moments (NMagM)
  in nuclear magnetons)

  Atom         1           2           3           4           5           6           7           8           9          10
 IAtWgt=          12          12          12          12          12           1           1           1           1           1
 AtmWgt=  12.0000000  12.0000000  12.0000000  12.0000000  12.0000000   1.0078250   1.0078250   1.0078250   1.0078250   1.0078250
 NucSpn=           0           0           0           0           0           1           1           1           1           1
 AtZEff=   0.0000000   0.0000000   0.0000000   0.0000000   0.0000000   0.0000000   0.0000000   0.0000000   0.0000000   0.0000000
 NQMom=    0.0000000   0.0000000   0.0000000   0.0000000   0.0000000   0.0000000   0.0000000   0.0000000   0.0000000   0.0000000
 NMagM=    0.0000000   0.0000000   0.0000000   0.0000000   0.0000000   2.7928460   2.7928460   2.7928460   2.7928460   2.7928460
 AtZNuc=   6.0000000   6.0000000   6.0000000   6.0000000   6.0000000   1.0000000   1.0000000   1.0000000   1.0000000   1.0000000

  Atom        11          12          13          14          15          16          17          18          19          20
 IAtWgt=          16          16          16          16          12           1           1          16          12           1
 AtmWgt=  15.9949146  15.9949146  15.9949146  15.9949146  12.0000000   1.0078250   1.0078250  15.9949146  12.0000000   1.0078250
 NucSpn=           0           0           0           0           0           1           1           0           0           1
 AtZEff=   0.0000000   0.0000000   0.0000000   0.0000000   0.0000000   0.0000000   0.0000000   0.0000000   0.0000000   0.0000000
 NQMom=    0.0000000   0.0000000   0.0000000   0.0000000   0.0000000   0.0000000   0.0000000   0.0000000   0.0000000   0.0000000
 NMagM=    0.0000000   0.0000000   0.0000000   0.0000000   0.0000000   2.7928460   2.7928460   0.0000000   0.0000000   2.7928460
 AtZNuc=   8.0000000   8.0000000   8.0000000   8.0000000   6.0000000   1.0000000   1.0000000   8.0000000   6.0000000   1.0000000

  Atom        21          22          23          24          25          26          27          28          29          30
 IAtWgt=           1           1          12           1           1           1          12           1           1           1
 AtmWgt=   1.0078250   1.0078250  12.0000000   1.0078250   1.0078250   1.0078250  12.0000000   1.0078250   1.0078250   1.0078250
 NucSpn=           1           1           0           1           1           1           0           1           1           1
 AtZEff=   0.0000000   0.0000000   0.0000000   0.0000000   0.0000000   0.0000000   0.0000000   0.0000000   0.0000000   0.0000000
 NQMom=    0.0000000   0.0000000   0.0000000   0.0000000   0.0000000   0.0000000   0.0000000   0.0000000   0.0000000   0.0000000
 NMagM=    2.7928460   2.7928460   0.0000000   2.7928460   2.7928460   2.7928460   0.0000000   2.7928460   2.7928460   2.7928460
 AtZNuc=   1.0000000   1.0000000   6.0000000   1.0000000   1.0000000   1.0000000   6.0000000   1.0000000   1.0000000   1.0000000

  Atom        31          32          33          34
 IAtWgt=          12           1           1           1
 AtmWgt=  12.0000000   1.0078250   1.0078250   1.0078250
 NucSpn=           0           1           1           1
 AtZEff=   0.0000000   0.0000000   0.0000000   0.0000000
 NQMom=    0.0000000   0.0000000   0.0000000   0.0000000
 NMagM=    0.0000000   2.7928460   2.7928460   2.7928460
 AtZNuc=   6.0000000   1.0000000   1.0000000   1.0000000
 Leave Link  101 at Fri May 24 08:32:04 2019, MaxMem=   402653184 cpu:               0.9 elap:               0.3
 (Enter /n/sw/g16_nehalem/g16/l103.exe)

 GradGradGradGradGradGradGradGradGradGradGradGradGradGradGradGradGradGrad
 Berny optimization.
 Initialization pass.
                           ----------------------------
                           !    Initial Parameters    !
                           ! (Angstroms and Degrees)  !
 --------------------------                            --------------------------
 ! Name  Definition              Value          Derivative Info.                !
 --------------------------------------------------------------------------------
 ! R1    R(1,2)                  1.5467         estimate D2E/DX2                !
 ! R2    R(1,5)                  1.5388         estimate D2E/DX2                !
 ! R3    R(1,8)                  1.0962         estimate D2E/DX2                !
 ! R4    R(1,13)                 1.4115         estimate D2E/DX2                !
 ! R5    R(2,3)                  1.4972         estimate D2E/DX2                !
 ! R6    R(2,7)                  1.0978         estimate D2E/DX2                !
 ! R7    R(2,12)                 1.4169         estimate D2E/DX2                !
 ! R8    R(3,6)                  1.09           estimate D2E/DX2                !
 ! R9    R(3,11)                 1.2576         estimate D2E/DX2                !
 ! R10   R(4,5)                  1.5303         estimate D2E/DX2                !
 ! R11   R(4,9)                  1.0902         estimate D2E/DX2                !
 ! R12   R(4,11)                 1.5047         estimate D2E/DX2                !
 ! R13   R(4,15)                 1.531          estimate D2E/DX2                !
 ! R14   R(5,10)                 1.0966         estimate D2E/DX2                !
 ! R15   R(5,14)                 1.4137         estimate D2E/DX2                !
 ! R16   R(12,19)                1.4381         estimate D2E/DX2                !
 ! R17   R(13,23)                1.4286         estimate D2E/DX2                !
 ! R18   R(14,27)                1.4277         estimate D2E/DX2                !
 ! R19   R(15,16)                1.0965         estimate D2E/DX2                !
 ! R20   R(15,17)                1.1008         estimate D2E/DX2                !
 ! R21   R(15,18)                1.4091         estimate D2E/DX2                !
 ! R22   R(18,31)                1.4235         estimate D2E/DX2                !
 ! R23   R(19,20)                1.0902         estimate D2E/DX2                !
 ! R24   R(19,21)                1.0958         estimate D2E/DX2                !
 ! R25   R(19,22)                1.0963         estimate D2E/DX2                !
 ! R26   R(23,24)                1.0969         estimate D2E/DX2                !
 ! R27   R(23,25)                1.0909         estimate D2E/DX2                !
 ! R28   R(23,26)                1.0983         estimate D2E/DX2                !
 ! R29   R(27,28)                1.0912         estimate D2E/DX2                !
 ! R30   R(27,29)                1.0976         estimate D2E/DX2                !
 ! R31   R(27,30)                1.098          estimate D2E/DX2                !
 ! R32   R(31,32)                1.0916         estimate D2E/DX2                !
 ! R33   R(31,33)                1.0988         estimate D2E/DX2                !
 ! R34   R(31,34)                1.0989         estimate D2E/DX2                !
 ! A1    A(2,1,5)              111.1356         estimate D2E/DX2                !
 ! A2    A(2,1,8)              107.9052         estimate D2E/DX2                !
 ! A3    A(2,1,13)             109.6226         estimate D2E/DX2                !
 ! A4    A(5,1,8)              108.1423         estimate D2E/DX2                !
 ! A5    A(5,1,13)             107.8193         estimate D2E/DX2                !
 ! A6    A(8,1,13)             112.2355         estimate D2E/DX2                !
 ! A7    A(1,2,3)              113.734          estimate D2E/DX2                !
 ! A8    A(1,2,7)              108.8469         estimate D2E/DX2                !
 ! A9    A(1,2,12)             113.48           estimate D2E/DX2                !
 ! A10   A(3,2,7)              108.1903         estimate D2E/DX2                !
 ! A11   A(3,2,12)             100.2453         estimate D2E/DX2                !
 ! A12   A(7,2,12)             112.0869         estimate D2E/DX2                !
 ! A13   A(2,3,6)              119.4319         estimate D2E/DX2                !
 ! A14   A(2,3,11)             126.468          estimate D2E/DX2                !
 ! A15   A(6,3,11)             113.8066         estimate D2E/DX2                !
 ! A16   A(5,4,9)              110.0832         estimate D2E/DX2                !
 ! A17   A(5,4,11)             110.5357         estimate D2E/DX2                !
 ! A18   A(5,4,15)             118.1565         estimate D2E/DX2                !
 ! A19   A(9,4,11)             101.1399         estimate D2E/DX2                !
 ! A20   A(9,4,15)             109.1406         estimate D2E/DX2                !
 ! A21   A(11,4,15)            106.386          estimate D2E/DX2                !
 ! A22   A(1,5,4)              112.7936         estimate D2E/DX2                !
 ! A23   A(1,5,10)             108.5185         estimate D2E/DX2                !
 ! A24   A(1,5,14)             106.2953         estimate D2E/DX2                !
 ! A25   A(4,5,10)             107.0555         estimate D2E/DX2                !
 ! A26   A(4,5,14)             109.8843         estimate D2E/DX2                !
 ! A27   A(10,5,14)            112.3775         estimate D2E/DX2                !
 ! A28   A(3,11,4)             123.118          estimate D2E/DX2                !
 ! A29   A(2,12,19)            115.1632         estimate D2E/DX2                !
 ! A30   A(1,13,23)            114.569          estimate D2E/DX2                !
 ! A31   A(5,14,27)            114.6544         estimate D2E/DX2                !
 ! A32   A(4,15,16)            110.5359         estimate D2E/DX2                !
 ! A33   A(4,15,17)            109.0569         estimate D2E/DX2                !
 ! A34   A(4,15,18)            104.868          estimate D2E/DX2                !
 ! A35   A(16,15,17)           108.8655         estimate D2E/DX2                !
 ! A36   A(16,15,18)           111.8028         estimate D2E/DX2                !
 ! A37   A(17,15,18)           111.6431         estimate D2E/DX2                !
 ! A38   A(15,18,31)           112.5868         estimate D2E/DX2                !
 ! A39   A(12,19,20)           105.7755         estimate D2E/DX2                !
 ! A40   A(12,19,21)           111.6298         estimate D2E/DX2                !
 ! A41   A(12,19,22)           110.1797         estimate D2E/DX2                !
 ! A42   A(20,19,21)           109.4951         estimate D2E/DX2                !
 ! A43   A(20,19,22)           110.0474         estimate D2E/DX2                !
 ! A44   A(21,19,22)           109.6469         estimate D2E/DX2                !
 ! A45   A(13,23,24)           110.7193         estimate D2E/DX2                !
 ! A46   A(13,23,25)           106.3769         estimate D2E/DX2                !
 ! A47   A(13,23,26)           111.918          estimate D2E/DX2                !
 ! A48   A(24,23,25)           109.7122         estimate D2E/DX2                !
 ! A49   A(24,23,26)           109.0792         estimate D2E/DX2                !
 ! A50   A(25,23,26)           108.9795         estimate D2E/DX2                !
 ! A51   A(14,27,28)           106.3019         estimate D2E/DX2                !
 ! A52   A(14,27,29)           110.8686         estimate D2E/DX2                !
 ! A53   A(14,27,30)           112.1592         estimate D2E/DX2                !
 ! A54   A(28,27,29)           109.5547         estimate D2E/DX2                !
 ! A55   A(28,27,30)           108.9075         estimate D2E/DX2                !
 ! A56   A(29,27,30)           108.9829         estimate D2E/DX2                !
 ! A57   A(18,31,32)           106.6781         estimate D2E/DX2                !
 ! A58   A(18,31,33)           111.2113         estimate D2E/DX2                !
 ! A59   A(18,31,34)           111.1782         estimate D2E/DX2                !
 ! A60   A(32,31,33)           109.3943         estimate D2E/DX2                !
 ! A61   A(32,31,34)           109.3517         estimate D2E/DX2                !
 ! A62   A(33,31,34)           108.9811         estimate D2E/DX2                !
 ! D1    D(5,1,2,3)             30.6597         estimate D2E/DX2                !
 ! D2    D(5,1,2,7)            151.3512         estimate D2E/DX2                !
 ! D3    D(5,1,2,12)           -83.0956         estimate D2E/DX2                !
 ! D4    D(8,1,2,3)            149.0664         estimate D2E/DX2                !
 ! D5    D(8,1,2,7)            -90.2421         estimate D2E/DX2                !
 ! D6    D(8,1,2,12)            35.3111         estimate D2E/DX2                !
 ! D7    D(13,1,2,3)           -88.4277         estimate D2E/DX2                !
 ! D8    D(13,1,2,7)            32.2638         estimate D2E/DX2                !
 ! D9    D(13,1,2,12)          157.817          estimate D2E/DX2                !
 ! D10   D(2,1,5,4)            -52.5475         estimate D2E/DX2                !
 ! D11   D(2,1,5,10)          -170.9898         estimate D2E/DX2                !
 ! D12   D(2,1,5,14)            67.9313         estimate D2E/DX2                !
 ! D13   D(8,1,5,4)           -170.8112         estimate D2E/DX2                !
 ! D14   D(8,1,5,10)            70.7465         estimate D2E/DX2                !
 ! D15   D(8,1,5,14)           -50.3323         estimate D2E/DX2                !
 ! D16   D(13,1,5,4)            67.6146         estimate D2E/DX2                !
 ! D17   D(13,1,5,10)          -50.8277         estimate D2E/DX2                !
 ! D18   D(13,1,5,14)         -171.9065         estimate D2E/DX2                !
 ! D19   D(2,1,13,23)          -85.9393         estimate D2E/DX2                !
 ! D20   D(5,1,13,23)          152.9495         estimate D2E/DX2                !
 ! D21   D(8,1,13,23)           33.9532         estimate D2E/DX2                !
 ! D22   D(1,2,3,6)            179.6487         estimate D2E/DX2                !
 ! D23   D(1,2,3,11)            -6.9781         estimate D2E/DX2                !
 ! D24   D(7,2,3,6)             58.5894         estimate D2E/DX2                !
 ! D25   D(7,2,3,11)          -128.0375         estimate D2E/DX2                !
 ! D26   D(12,2,3,6)           -58.9008         estimate D2E/DX2                !
 ! D27   D(12,2,3,11)          114.4723         estimate D2E/DX2                !
 ! D28   D(1,2,12,19)         -128.2107         estimate D2E/DX2                !
 ! D29   D(3,2,12,19)          110.158          estimate D2E/DX2                !
 ! D30   D(7,2,12,19)           -4.4055         estimate D2E/DX2                !
 ! D31   D(2,3,11,4)             3.9322         estimate D2E/DX2                !
 ! D32   D(6,3,11,4)           177.6252         estimate D2E/DX2                !
 ! D33   D(9,4,5,1)            159.6186         estimate D2E/DX2                !
 ! D34   D(9,4,5,10)           -81.0877         estimate D2E/DX2                !
 ! D35   D(9,4,5,14)            41.2174         estimate D2E/DX2                !
 ! D36   D(11,4,5,1)            48.7252         estimate D2E/DX2                !
 ! D37   D(11,4,5,10)          168.0189         estimate D2E/DX2                !
 ! D38   D(11,4,5,14)          -69.676          estimate D2E/DX2                !
 ! D39   D(15,4,5,1)           -74.1066         estimate D2E/DX2                !
 ! D40   D(15,4,5,10)           45.187          estimate D2E/DX2                !
 ! D41   D(15,4,5,14)          167.4922         estimate D2E/DX2                !
 ! D42   D(5,4,11,3)           -24.7424         estimate D2E/DX2                !
 ! D43   D(9,4,11,3)          -141.3253         estimate D2E/DX2                !
 ! D44   D(15,4,11,3)          104.7062         estimate D2E/DX2                !
 ! D45   D(5,4,15,16)           55.6535         estimate D2E/DX2                !
 ! D46   D(5,4,15,17)          175.3043         estimate D2E/DX2                !
 ! D47   D(5,4,15,18)          -64.9973         estimate D2E/DX2                !
 ! D48   D(9,4,15,16)         -177.6178         estimate D2E/DX2                !
 ! D49   D(9,4,15,17)          -57.9671         estimate D2E/DX2                !
 ! D50   D(9,4,15,18)           61.7313         estimate D2E/DX2                !
 ! D51   D(11,4,15,16)         -69.2433         estimate D2E/DX2                !
 ! D52   D(11,4,15,17)          50.4074         estimate D2E/DX2                !
 ! D53   D(11,4,15,18)         170.1058         estimate D2E/DX2                !
 ! D54   D(1,5,14,27)          151.495          estimate D2E/DX2                !
 ! D55   D(4,5,14,27)          -86.1647         estimate D2E/DX2                !
 ! D56   D(10,5,14,27)          32.9266         estimate D2E/DX2                !
 ! D57   D(2,12,19,20)         178.3151         estimate D2E/DX2                !
 ! D58   D(2,12,19,21)         -62.6672         estimate D2E/DX2                !
 ! D59   D(2,12,19,22)          59.4113         estimate D2E/DX2                !
 ! D60   D(1,13,23,24)         -59.8373         estimate D2E/DX2                !
 ! D61   D(1,13,23,25)        -178.9828         estimate D2E/DX2                !
 ! D62   D(1,13,23,26)          62.0939         estimate D2E/DX2                !
 ! D63   D(5,14,27,28)        -178.5833         estimate D2E/DX2                !
 ! D64   D(5,14,27,29)         -59.5902         estimate D2E/DX2                !
 ! D65   D(5,14,27,30)          62.4929         estimate D2E/DX2                !
 ! D66   D(4,15,18,31)         178.2878         estimate D2E/DX2                !
 ! D67   D(16,15,18,31)         58.4789         estimate D2E/DX2                !
 ! D68   D(17,15,18,31)        -63.757          estimate D2E/DX2                !
 ! D69   D(15,18,31,32)        179.9506         estimate D2E/DX2                !
 ! D70   D(15,18,31,33)        -60.8325         estimate D2E/DX2                !
 ! D71   D(15,18,31,34)         60.8039         estimate D2E/DX2                !
 --------------------------------------------------------------------------------
 Trust Radius=3.00D-01 FncErr=1.00D-07 GrdErr=1.00D-06 EigMax=2.50D+02 EigMin=1.00D-04
 Number of steps in this run=    177 maximum allowed number of steps=    204.
 GradGradGradGradGradGradGradGradGradGradGradGradGradGradGradGradGradGrad

 Leave Link  103 at Fri May 24 08:32:04 2019, MaxMem=   402653184 cpu:               0.2 elap:               0.1
 (Enter /n/sw/g16_nehalem/g16/l202.exe)
                          Input orientation:                          
 ---------------------------------------------------------------------
 Center     Atomic      Atomic             Coordinates (Angstroms)
 Number     Number       Type             X           Y           Z
 ---------------------------------------------------------------------
      1          6           0        0.670722   -0.525901   -0.762846
      2          6           0        1.667503   -0.521043    0.419878
      3          6           0        1.112905    0.082271    1.672889
      4          6           0       -0.992116    0.779164    0.674522
      5          6           0       -0.291999    0.671778   -0.682015
      6          1           0        1.735478    0.127940    2.566474
      7          1           0        1.962720   -1.555406    0.639099
      8          1           0        1.248054   -0.437762   -1.690524
      9          1           0       -1.364770    1.792671    0.824271
     10          1           0       -1.074991    0.540956   -1.438617
     11          8           0        0.006831    0.668302    1.794319
     12          8           0        2.788415    0.319824    0.210014
     13          8           0       -0.103381   -1.705622   -0.725515
     14          8           0        0.490908    1.826227   -0.911760
     15          6           0       -2.109249   -0.218473    0.991952
     16          1           0       -1.746135   -1.247994    0.889415
     17          1           0       -2.447406   -0.061817    2.027716
     18          8           0       -3.128155    0.072057    0.063044
     19          6           0        4.067691   -0.303057    0.418777
     20          1           0        4.810490    0.461175    0.188995
     21          1           0        4.191658   -0.633303    1.456254
     22          1           0        4.186775   -1.158057   -0.256920
     23          6           0        0.495246   -2.829620   -1.372953
     24          1           0        0.677741   -2.615024   -2.433093
     25          1           0       -0.215542   -3.652039   -1.281066
     26          1           0        1.441602   -3.120581   -0.897467
     27          6           0       -0.216423    2.918211   -1.499702
     28          1           0        0.513956    3.716917   -1.638759
     29          1           0       -0.638207    2.632723   -2.471984
     30          1           0       -1.024995    3.284070   -0.853151
     31          6           0       -4.247373   -0.798454    0.189088
     32          1           0       -4.971007   -0.489944   -0.567712
     33          1           0       -3.959361   -1.844270    0.013679
     34          1           0       -4.704430   -0.715814    1.185043
 ---------------------------------------------------------------------
                    Distance matrix (angstroms):
                    1          2          3          4          5
     1  C    0.000000
     2  C    1.546749   0.000000
     3  C    2.549158   1.497198   0.000000
     4  C    2.556218   2.971356   2.431771   0.000000
     5  C    1.538766   2.544924   2.804790   1.530323   0.000000
     6  H    3.556063   2.243585   1.090035   3.382801   3.867700
     7  H    2.166700   1.097779   2.114922   3.765970   3.433577
     8  H    1.096206   2.153293   3.406060   3.477458   2.149403
     9  H    3.469574   3.835555   3.128018   1.090180   2.162438
    10  H    2.154615   3.478954   3.831286   2.128137   1.096648
    11  O    2.899304   2.462003   1.257608   1.504703   2.494302
    12  O    2.479180   1.416878   2.236910   3.836558   3.226227
    13  O    1.411514   2.418922   3.229281   2.987326   2.385267
    14  O    2.363687   2.944030   3.179414   2.410807   1.413676
    15  C    3.301828   3.831798   3.307023   1.531022   2.626235
    16  H    3.015391   3.521626   3.249238   2.173498   2.875661
    17  H    4.210146   4.441678   3.580849   2.157835   3.539291
    18  O    3.933334   4.845352   4.536331   2.331645   2.993085
    19  C    3.603511   2.410067   3.232961   5.180565   4.600972
    20  H    4.360963   3.300974   4.002205   5.831560   5.180580
    21  H    4.163284   2.730940   3.168232   5.429335   5.136011
    22  H    3.608076   2.685251   3.835525   5.607256   4.856791
    23  C    2.389591   3.149279   4.258846   4.407689   3.654714
    24  H    2.674735   3.674756   4.931922   4.895529   3.848342
    25  H    3.290403   4.030162   4.943247   4.905400   4.365788
    26  H    2.710119   2.923017   4.119834   4.858204   4.175378
    27  C    3.632064   4.366055   4.458139   3.147137   2.391816
    28  H    4.335124   4.850666   4.953423   4.031118   3.292081
    29  H    3.822480   4.860597   5.172153   3.668982   2.677528
    30  H    4.171270   4.832084   4.604673   2.934181   2.718573
    31  C    5.016784   5.925874   5.631156   3.649825   4.308757
    32  H    5.645217   6.711640   6.508587   4.357219   4.822425
    33  H    4.876347   5.794612   5.673836   4.015428   4.501559
    34  H    5.720367   6.420665   5.892056   4.034460   4.988072
                    6          7          8          9         10
     6  H    0.000000
     7  H    2.569060   0.000000
     8  H    4.321994   2.680862   0.000000
     9  H    3.926594   4.723992   4.257449   0.000000
    10  H    4.910201   4.235484   2.533354   2.602196   0.000000
    11  O    1.968866   3.178822   3.861106   2.021506   3.411514
    12  O    2.588127   2.093412   2.560995   4.449217   4.206280
    13  O    4.192916   2.480627   2.089279   4.028771   2.549442
    14  O    4.065863   4.000854   2.511053   2.541352   2.093213
    15  C    4.169058   4.300329   4.302935   2.151062   2.748470
    16  H    4.102115   3.729982   4.034567   3.065180   3.011729
    17  H    4.221704   4.858835   5.255765   2.461606   3.776549
    18  O    5.470394   5.375638   4.741953   2.578664   2.586568
    19  C    3.199622   2.459232   3.523868   5.836791   5.532581
    20  H    3.901173   3.518378   4.126940   6.349039   6.106912
    21  H    2.800875   2.546798   4.313381   6.095789   6.123459
    22  H    3.954010   2.430464   3.348153   6.379296   5.654134
    23  C    5.079805   2.797401   2.527559   5.445459   3.718970
    24  H    5.799856   3.494614   2.370050   5.848936   3.744498
    25  H    5.735703   3.581582   3.555467   5.949625   4.283069
    26  H    4.757955   2.254412   2.804268   5.914402   4.475817
    27  C    5.303708   5.416307   3.666560   2.826020   2.528282
    28  H    5.661877   5.923255   4.219353   3.646759   3.556900
    29  H    6.106912   5.829587   3.687348   3.478344   2.373629
    30  H    5.410656   5.879947   4.440718   2.270124   2.805342
    31  C    6.504204   6.272220   5.819172   3.927695   3.808865
    32  H    7.428448   7.118158   6.319822   4.489197   4.123126
    33  H    6.545041   5.962016   5.656832   4.540518   4.014730
    34  H    6.640232   6.741948   6.616515   4.192372   4.651440
                   11         12         13         14         15
    11  O    0.000000
    12  O    3.220042   0.000000
    13  O    3.463701   3.652414   0.000000
    14  O    2.982949   2.967518   3.586339   0.000000
    15  C    2.430629   4.988818   3.030645   3.816508   0.000000
    16  H    2.750260   4.845801   2.348630   4.207069   1.096485
    17  H    2.571153   5.555494   3.972006   4.564966   1.100772
    18  O    3.630559   5.923579   3.596001   4.138233   1.409059
    19  C    4.396162   1.438092   4.546915   4.370075   6.204053
    20  H    5.069034   2.027118   5.447703   4.661954   6.999246
    21  H    4.395593   2.104912   4.935316   5.035110   6.331595
    22  H    5.001510   2.087479   4.350270   4.795227   6.487096
    23  C    4.744009   4.205164   1.428601   4.678635   4.381125
    24  H    5.394568   4.478202   2.086381   4.698305   5.024112
    25  H    5.307805   5.198343   2.027253   5.535960   4.532341
    26  H    4.864146   3.857046   2.102058   5.037354   4.959907
    27  C    3.995311   4.324788   4.689560   1.427733   4.430566
    28  H    4.619227   4.486799   5.533448   2.025776   5.411944
    29  H    4.740925   4.927916   4.707168   2.087974   4.721455
    30  H    3.862124   4.945621   5.075696   2.103973   4.104610
    31  C    4.777697   7.124135   4.339599   5.527398   2.356383
    32  H    5.630239   7.840230   5.019617   5.942687   3.270460
    33  H    5.021392   7.089029   3.928640   5.842421   2.650122
    34  H    4.948027   7.626661   5.079331   6.152243   2.649452
                   16         17         18         19         20
    16  H    0.000000
    17  H    1.787324   0.000000
    18  O    2.082163   2.083573   0.000000
    19  C    5.908890   6.715160   7.214392   0.000000
    20  H    6.811841   7.505429   7.949174   1.090230   0.000000
    21  H    5.996377   6.688074   7.484533   1.095805   1.785156
    22  H    6.043310   7.101666   7.424538   1.096254   1.791584
    23  C    3.555789   5.280576   4.859100   4.728232   5.647154
    24  H    4.333936   6.015333   5.285447   4.997011   5.780827
    25  H    3.582337   5.368328   4.915164   5.696598   6.658874
    26  H    4.106239   5.747792   5.656695   4.070293   5.035750
    27  C    5.040353   5.128404   4.361302   5.693045   5.844534
    28  H    6.012488   6.040822   5.426427   5.746536   5.692165
    29  H    5.252283   5.548067   4.379865   6.254661   6.440864
    30  H    4.908786   4.638708   3.947116   6.357730   6.565645
    31  C    2.636045   2.676391   1.423491   8.332975   9.145029
    32  H    3.619069   3.645285   2.027265   9.094292   9.856719
    33  H    2.453738   3.085367   2.089414   8.183704   9.069515
    34  H    3.020285   2.496391   2.089082   8.815194   9.639041
                   21         22         23         24         25
    21  H    0.000000
    22  H    1.791747   0.000000
    23  C    5.147007   4.203218   0.000000
    24  H    5.603735   4.378562   1.096929   0.000000
    25  H    6.002424   5.162288   1.090888   1.789000   0.000000
    26  H    4.391966   3.434789   1.098333   1.788077   1.782056
    27  C    6.386087   6.127693   5.793108   5.682204   6.573887
    28  H    6.482979   6.258151   6.551958   6.383672   7.413611
    29  H    7.030333   6.523571   5.685928   5.410368   6.410551
    30  H    6.920450   6.873902   6.321276   6.339940   6.996280
    31  C    8.535235   8.453584   5.390551   5.867922   5.153636
    32  H    9.384637   9.187379   6.000202   6.316959   5.755186
    33  H    8.365798   8.179465   4.768353   5.299384   4.354374
    34  H    8.900604   9.018224   6.168318   6.757638   5.903662
                   26         27         28         29         30
    26  H    0.000000
    27  C    6.291164   0.000000
    28  H    6.939843   1.091202   0.000000
    29  H    6.317058   1.097605   1.788077   0.000000
    30  H    6.863353   1.098030   1.781265   1.787310   0.000000
    31  C    6.239977   5.737087   6.811744   5.646269   5.304431
    32  H    6.939059   5.923698   6.994972   5.670137   5.467693
    33  H    5.624016   6.243487   7.325839   6.103446   5.971748
    34  H    6.920510   6.368375   7.406383   6.412544   5.804442
                   31         32         33         34
    31  C    0.000000
    32  H    1.091591   0.000000
    33  H    1.098840   1.787636   0.000000
    34  H    1.098934   1.787241   1.789032   0.000000
 Stoichiometry    C10H19O5(1+)
 Framework group  C1[X(C10H19O5)]
 Deg. of freedom    96
 Full point group                 C1      NOp   1
 Largest Abelian subgroup         C1      NOp   1
 Largest concise Abelian subgroup C1      NOp   1
                         Standard orientation:                         
 ---------------------------------------------------------------------
 Center     Atomic      Atomic             Coordinates (Angstroms)
 Number     Number       Type             X           Y           Z
 ---------------------------------------------------------------------
      1          6           0        0.670722   -0.525901   -0.762846
      2          6           0        1.667503   -0.521043    0.419878
      3          6           0        1.112905    0.082271    1.672889
      4          6           0       -0.992116    0.779164    0.674522
      5          6           0       -0.291999    0.671778   -0.682015
      6          1           0        1.735478    0.127940    2.566474
      7          1           0        1.962720   -1.555406    0.639099
      8          1           0        1.248054   -0.437762   -1.690524
      9          1           0       -1.364770    1.792671    0.824271
     10          1           0       -1.074991    0.540956   -1.438617
     11          8           0        0.006831    0.668302    1.794319
     12          8           0        2.788415    0.319824    0.210014
     13          8           0       -0.103381   -1.705622   -0.725515
     14          8           0        0.490908    1.826227   -0.911760
     15          6           0       -2.109249   -0.218473    0.991952
     16          1           0       -1.746135   -1.247994    0.889415
     17          1           0       -2.447406   -0.061817    2.027716
     18          8           0       -3.128155    0.072057    0.063044
     19          6           0        4.067691   -0.303057    0.418777
     20          1           0        4.810490    0.461175    0.188995
     21          1           0        4.191658   -0.633303    1.456254
     22          1           0        4.186775   -1.158057   -0.256920
     23          6           0        0.495246   -2.829620   -1.372953
     24          1           0        0.677741   -2.615024   -2.433093
     25          1           0       -0.215542   -3.652039   -1.281066
     26          1           0        1.441602   -3.120581   -0.897467
     27          6           0       -0.216423    2.918211   -1.499702
     28          1           0        0.513956    3.716917   -1.638759
     29          1           0       -0.638207    2.632723   -2.471984
     30          1           0       -1.024995    3.284070   -0.853151
     31          6           0       -4.247373   -0.798454    0.189088
     32          1           0       -4.971007   -0.489944   -0.567712
     33          1           0       -3.959361   -1.844270    0.013679
     34          1           0       -4.704430   -0.715814    1.185043
 ---------------------------------------------------------------------
 Rotational constants (GHZ):           0.7864278           0.4207261           0.3658335
 Leave Link  202 at Fri May 24 08:32:04 2019, MaxMem=   402653184 cpu:               0.3 elap:               0.2
 (Enter /n/sw/g16_nehalem/g16/l301.exe)
 Standard basis: 6-31G(d) (6D, 7F)
 Ernie: Thresh=  0.10000D-02 Tol=  0.10000D-05 Strict=F.
 There are   263 symmetry adapted cartesian basis functions of A   symmetry.
 There are   263 symmetry adapted basis functions of A   symmetry.
   263 basis functions,   496 primitive gaussians,   263 cartesian basis functions
    59 alpha electrons       59 beta electrons
       nuclear repulsion energy      1164.0752019577 Hartrees.
 IExCor=  402 DFT=T Ex+Corr=B3LYP ExCW=0 ScaHFX=  0.200000
 ScaDFX=  0.800000  0.720000  1.000000  0.810000 ScalE2=  1.000000  1.000000
 IRadAn=      5 IRanWt=     -1 IRanGd=            0 ICorTp=0 IEmpDi=  4
 NAtoms=   34 NActive=   34 NUniq=   34 SFac= 1.00D+00 NAtFMM=   60 NAOKFM=F Big=F
 Integral buffers will be    131072 words long.
 Raffenetti 2 integral format.
 Two-electron integral symmetry is turned on.
 ------------------------------------------------------------------------------
 Polarizable Continuum Model (PCM)
 =================================
 Model                : PCM.
 Atomic radii         : UFF (Universal Force Field).
 Polarization charges : Total charges.
 Charge compensation  : None.
 Solution method      : On-the-fly selection.
 Cavity type          : Scaled VdW (van der Waals Surface) (Alpha=1.100).
 Cavity algorithm     : GePol (No added spheres)
                        Default sphere list used, NSphG=   34.
                        Lebedev-Laikov grids with approx.  5.0 points / Ang**2.
                        Smoothing algorithm: York/Karplus (Gamma=1.0000).
                        Polarization charges: spherical gaussians, with
                                              point-specific exponents (IZeta= 3).
                        Self-potential: point-specific (ISelfS= 7).
                        Self-field    : sphere-specific E.n sum rule (ISelfD= 2).
 1st derivatives      : Analytical E(r).r(x)/FMM algorithm (CHGder, D1EAlg=3).
                        Cavity 1st derivative terms included.
 Solvent              : TetraHydroFuran, Eps=   7.425700 Eps(inf)=   1.974025
 ------------------------------------------------------------------------------
 GePol: Number of generator spheres                  =      34
 GePol: Total number of spheres                      =      34
 GePol: Number of exposed spheres                    =      34 (100.00%)
 GePol: Number of points                             =    2379
 GePol: Average weight of points                     =       0.13
 GePol: Minimum weight of points                     =   0.73D-11
 GePol: Maximum weight of points                     =    0.20577
 GePol: Number of points with low weight             =     145
 GePol: Fraction of low-weight points (<1% of avg)   =       6.09%
 GePol: Cavity surface area                          =    308.028 Ang**2
 GePol: Cavity volume                                =    322.067 Ang**3
 Leave Link  301 at Fri May 24 08:32:04 2019, MaxMem=   402653184 cpu:               0.3 elap:               0.1
 (Enter /n/sw/g16_nehalem/g16/l302.exe)
 NPDir=0 NMtPBC=     1 NCelOv=     1 NCel=       1 NClECP=     1 NCelD=      1
         NCelK=      1 NCelE2=     1 NClLst=     1 CellRange=     0.0.
 One-electron integrals computed using PRISM.
 One-electron integral symmetry used in STVInt
 NBasis=   263 RedAO= T EigKep=  2.00D-03  NBF=   263
 NBsUse=   263 1.00D-06 EigRej= -1.00D+00 NBFU=   263
 Precomputing XC quadrature grid using
 IXCGrd= 4 IRadAn=           5 IRanWt=          -1 IRanGd=           0 AccXCQ= 0.00D+00.
 Generated NRdTot=       0 NPtTot=           0 NUsed=           0 NTot=          32
 NSgBfM=   262   262   262   262   262 MxSgAt=    34 MxSgA2=    34.
 Leave Link  302 at Fri May 24 08:32:05 2019, MaxMem=   402653184 cpu:               2.5 elap:               0.7
 (Enter /n/sw/g16_nehalem/g16/l303.exe)
 DipDrv:  MaxL=1.
 Leave Link  303 at Fri May 24 08:32:05 2019, MaxMem=   402653184 cpu:               0.5 elap:               0.3
 (Enter /n/sw/g16_nehalem/g16/l401.exe)
 ExpMin= 1.61D-01 ExpMax= 5.48D+03 ExpMxC= 8.25D+02 IAcc=3 IRadAn=         5 AccDes= 0.00D+00
 Harris functional with IExCor=  402 and IRadAn=       5 diagonalized for initial guess.
 HarFok:  IExCor=  402 AccDes= 0.00D+00 IRadAn=         5 IDoV= 1 UseB2=F ITyADJ=14
 ICtDFT=  3500011 ScaDFX=  1.000000  1.000000  1.000000  1.000000
 FoFCou: FMM=F IPFlag=           0 FMFlag=      100000 FMFlg1=           0
         NFxFlg=           0 DoJE=T BraDBF=F KetDBF=T FulRan=T
         wScrn=  0.000000 ICntrl=       500 IOpCl=  0 I1Cent=   200000004 NGrid=           0
         NMat0=    1 NMatS0=      1 NMatT0=    0 NMatD0=    1 NMtDS0=    0 NMtDT0=    0
 Petite list used in FoFCou.
 Harris En= -768.259781138064    
 JPrj=0 DoOrth=F DoCkMO=F.
 Leave Link  401 at Fri May 24 08:32:11 2019, MaxMem=   402653184 cpu:              20.6 elap:               5.3
 (Enter /n/sw/g16_nehalem/g16/l502.exe)
 Integral symmetry usage will be decided dynamically.
 Closed shell SCF:
 Using DIIS extrapolation, IDIIS=  1040.
 NGot=   402653184 LenX=   402510103 LenY=   402440493
 Requested convergence on RMS density matrix=1.00D-08 within 128 cycles.
 Requested convergence on MAX density matrix=1.00D-06.
 Requested convergence on             energy=1.00D-06.
 No special actions if energy rises.
 Fock matrices will be formed incrementally for  20 cycles.

 Cycle   1  Pass 1  IDiag  1:
 FoFJK:  IHMeth= 1 ICntrl=       0 DoSepK=F KAlg= 0 I1Cent=           0 FoldK=F
 IRaf= 880000000 NMat=       1 IRICut=       1 DoRegI=T DoRafI=F ISym2E= 0 IDoP0=0 IntGTp=1.
 FoFCou: FMM=F IPFlag=           0 FMFlag=      100000 FMFlg1=           0
         NFxFlg=           0 DoJE=F BraDBF=F KetDBF=F FulRan=T
         wScrn=  0.000000 ICntrl=         0 IOpCl=  0 I1Cent=           0 NGrid=           0
         NMat0=    1 NMatS0=      1 NMatT0=    0 NMatD0=    1 NMtDS0=    0 NMtDT0=    0
 Symmetry not used in FoFCou.
 Inv3:  Mode=1 IEnd=    16978923.
 Iteration    1 A*A^-1 deviation from unit magnitude is 1.05D-14 for   2367.
 Iteration    1 A*A^-1 deviation from orthogonality  is 4.35D-15 for   2367    514.
 Iteration    1 A^-1*A deviation from unit magnitude is 1.05D-14 for   2367.
 Iteration    1 A^-1*A deviation from orthogonality  is 3.07D-15 for   2370    479.
 E= -768.095023728667    
 DIIS: error= 2.68D-02 at cycle   1 NSaved=   1.
 NSaved= 1 IEnMin= 1 EnMin= -768.095023728667     IErMin= 1 ErrMin= 2.68D-02
 ErrMax= 2.68D-02  0.00D+00 EMaxC= 1.00D-01 BMatC= 2.49D-01 BMatP= 2.49D-01
 IDIUse=3 WtCom= 7.32D-01 WtEn= 2.68D-01
 Coeff-Com:  0.100D+01
 Coeff-En:   0.100D+01
 Coeff:      0.100D+01
 Gap=     0.056 Goal=   None    Shift=    0.000
 GapD=    0.056 DampG=0.500 DampE=0.500 DampFc=0.2500 IDamp=-1.
 Damping current iteration by 2.50D-01
 RMSDP=4.18D-03 MaxDP=1.42D-01              OVMax= 2.18D-01

 Cycle   2  Pass 1  IDiag  1:
 RMSU=  1.04D-03    CP:  9.95D-01
 E= -768.174770616192     Delta-E=       -0.079746887525 Rises=F Damp=T
 DIIS: error= 1.30D-02 at cycle   2 NSaved=   2.
 NSaved= 2 IEnMin= 2 EnMin= -768.174770616192     IErMin= 2 ErrMin= 1.30D-02
 ErrMax= 1.30D-02  0.00D+00 EMaxC= 1.00D-01 BMatC= 7.09D-02 BMatP= 2.49D-01
 IDIUse=3 WtCom= 8.70D-01 WtEn= 1.30D-01
 Coeff-Com: -0.816D+00 0.182D+01
 Coeff-En:   0.000D+00 0.100D+01
 Coeff:     -0.710D+00 0.171D+01
 Gap=     0.142 Goal=   None    Shift=    0.000
 RMSDP=1.31D-03 MaxDP=3.04D-02 DE=-7.97D-02 OVMax= 1.91D-01

 Cycle   3  Pass 1  IDiag  1:
 RMSU=  1.10D-03    CP:  9.86D-01  1.65D+00
 E= -768.308027080732     Delta-E=       -0.133256464540 Rises=F Damp=F
 DIIS: error= 6.43D-03 at cycle   3 NSaved=   3.
 NSaved= 3 IEnMin= 3 EnMin= -768.308027080732     IErMin= 3 ErrMin= 6.43D-03
 ErrMax= 6.43D-03  0.00D+00 EMaxC= 1.00D-01 BMatC= 2.70D-02 BMatP= 7.09D-02
 IDIUse=3 WtCom= 9.36D-01 WtEn= 6.43D-02
 Coeff-Com: -0.501D+00 0.993D+00 0.508D+00
 Coeff-En:   0.000D+00 0.000D+00 0.100D+01
 Coeff:     -0.469D+00 0.929D+00 0.540D+00
 Gap=     0.143 Goal=   None    Shift=    0.000
 RMSDP=6.74D-04 MaxDP=4.09D-02 DE=-1.33D-01 OVMax= 4.44D-02

 Cycle   4  Pass 1  IDiag  1:
 RMSU=  4.48D-04    CP:  9.89D-01  1.77D+00  5.59D-01
 E= -768.326775316913     Delta-E=       -0.018748236180 Rises=F Damp=F
 DIIS: error= 2.63D-03 at cycle   4 NSaved=   4.
 NSaved= 4 IEnMin= 4 EnMin= -768.326775316913     IErMin= 4 ErrMin= 2.63D-03
 ErrMax= 2.63D-03  0.00D+00 EMaxC= 1.00D-01 BMatC= 4.33D-03 BMatP= 2.70D-02
 IDIUse=3 WtCom= 9.74D-01 WtEn= 2.63D-02
 Coeff-Com: -0.172D+00 0.297D+00 0.295D+00 0.580D+00
 Coeff-En:   0.000D+00 0.000D+00 0.108D+00 0.892D+00
 Coeff:     -0.168D+00 0.289D+00 0.290D+00 0.588D+00
 Gap=     0.137 Goal=   None    Shift=    0.000
 RMSDP=2.41D-04 MaxDP=1.49D-02 DE=-1.87D-02 OVMax= 1.98D-02

 Cycle   5  Pass 1  IDiag  1:
 RMSU=  1.38D-04    CP:  9.89D-01  1.79D+00  6.51D-01  6.26D-01
 E= -768.329806420634     Delta-E=       -0.003031103722 Rises=F Damp=F
 DIIS: error= 7.73D-04 at cycle   5 NSaved=   5.
 NSaved= 5 IEnMin= 5 EnMin= -768.329806420634     IErMin= 5 ErrMin= 7.73D-04
 ErrMax= 7.73D-04  0.00D+00 EMaxC= 1.00D-01 BMatC= 4.99D-04 BMatP= 4.33D-03
 IDIUse=3 WtCom= 9.92D-01 WtEn= 7.73D-03
 Coeff-Com: -0.629D-01 0.100D+00 0.108D+00 0.329D+00 0.526D+00
 Coeff-En:   0.000D+00 0.000D+00 0.000D+00 0.507D-01 0.949D+00
 Coeff:     -0.624D-01 0.993D-01 0.107D+00 0.327D+00 0.530D+00
 Gap=     0.140 Goal=   None    Shift=    0.000
 RMSDP=7.86D-05 MaxDP=4.13D-03 DE=-3.03D-03 OVMax= 3.63D-03

 Cycle   6  Pass 1  IDiag  1:
 RMSU=  5.07D-05    CP:  9.88D-01  1.79D+00  6.49D-01  6.97D-01  6.36D-01
 E= -768.330150981470     Delta-E=       -0.000344560836 Rises=F Damp=F
 DIIS: error= 2.75D-04 at cycle   6 NSaved=   6.
 NSaved= 6 IEnMin= 6 EnMin= -768.330150981470     IErMin= 6 ErrMin= 2.75D-04
 ErrMax= 2.75D-04  0.00D+00 EMaxC= 1.00D-01 BMatC= 5.64D-05 BMatP= 4.99D-04
 IDIUse=3 WtCom= 9.97D-01 WtEn= 2.75D-03
 Coeff-Com: -0.169D-01 0.225D-01 0.205D-01 0.122D+00 0.310D+00 0.543D+00
 Coeff-En:   0.000D+00 0.000D+00 0.000D+00 0.000D+00 0.148D-01 0.985D+00
 Coeff:     -0.169D-01 0.224D-01 0.204D-01 0.121D+00 0.309D+00 0.544D+00
 Gap=     0.141 Goal=   None    Shift=    0.000
 RMSDP=2.27D-05 MaxDP=1.59D-03 DE=-3.45D-04 OVMax= 1.33D-03

 Cycle   7  Pass 1  IDiag  1:
 RMSU=  1.68D-05    CP:  9.89D-01  1.79D+00  6.48D-01  7.05D-01  6.92D-01
                    CP:  7.52D-01
 E= -768.330190118023     Delta-E=       -0.000039136554 Rises=F Damp=F
 DIIS: error= 8.89D-05 at cycle   7 NSaved=   7.
 NSaved= 7 IEnMin= 7 EnMin= -768.330190118023     IErMin= 7 ErrMin= 8.89D-05
 ErrMax= 8.89D-05  0.00D+00 EMaxC= 1.00D-01 BMatC= 5.04D-06 BMatP= 5.64D-05
 IDIUse=1 WtCom= 1.00D+00 WtEn= 0.00D+00
 Coeff-Com: -0.529D-02 0.579D-02 0.110D-02 0.431D-01 0.136D+00 0.310D+00
 Coeff-Com:  0.510D+00
 Coeff:     -0.529D-02 0.579D-02 0.110D-02 0.431D-01 0.136D+00 0.310D+00
 Coeff:      0.510D+00
 Gap=     0.140 Goal=   None    Shift=    0.000
 RMSDP=7.97D-06 MaxDP=4.38D-04 DE=-3.91D-05 OVMax= 3.50D-04

 Cycle   8  Pass 1  IDiag  1:
 RMSU=  5.30D-06    CP:  9.89D-01  1.79D+00  6.47D-01  7.10D-01  7.13D-01
                    CP:  7.78D-01  7.43D-01
 E= -768.330194013849     Delta-E=       -0.000003895825 Rises=F Damp=F
 DIIS: error= 1.98D-05 at cycle   8 NSaved=   8.
 NSaved= 8 IEnMin= 8 EnMin= -768.330194013849     IErMin= 8 ErrMin= 1.98D-05
 ErrMax= 1.98D-05  0.00D+00 EMaxC= 1.00D-01 BMatC= 3.50D-07 BMatP= 5.04D-06
 IDIUse=1 WtCom= 1.00D+00 WtEn= 0.00D+00
 Coeff-Com: -0.542D-03 0.217D-03-0.317D-02 0.230D-02 0.164D-01 0.566D-01
 Coeff-Com:  0.213D+00 0.715D+00
 Coeff:     -0.542D-03 0.217D-03-0.317D-02 0.230D-02 0.164D-01 0.566D-01
 Coeff:      0.213D+00 0.715D+00
 Gap=     0.140 Goal=   None    Shift=    0.000
 RMSDP=2.69D-06 MaxDP=1.11D-04 DE=-3.90D-06 OVMax= 1.67D-04

 Cycle   9  Pass 1  IDiag  1:
 RMSU=  1.89D-06    CP:  9.89D-01  1.79D+00  6.47D-01  7.13D-01  7.18D-01
                    CP:  7.96D-01  7.96D-01  9.39D-01
 E= -768.330194275869     Delta-E=       -0.000000262020 Rises=F Damp=F
 DIIS: error= 1.24D-05 at cycle   9 NSaved=   9.
 NSaved= 9 IEnMin= 9 EnMin= -768.330194275869     IErMin= 9 ErrMin= 1.24D-05
 ErrMax= 1.24D-05  0.00D+00 EMaxC= 1.00D-01 BMatC= 7.74D-08 BMatP= 3.50D-07
 IDIUse=1 WtCom= 1.00D+00 WtEn= 0.00D+00
 Coeff-Com:  0.374D-04-0.105D-03-0.181D-02-0.368D-02-0.843D-02-0.106D-01
 Coeff-Com:  0.478D-01 0.408D+00 0.569D+00
 Coeff:      0.374D-04-0.105D-03-0.181D-02-0.368D-02-0.843D-02-0.106D-01
 Coeff:      0.478D-01 0.408D+00 0.569D+00
 Gap=     0.140 Goal=   None    Shift=    0.000
 RMSDP=1.12D-06 MaxDP=4.37D-05 DE=-2.62D-07 OVMax= 9.00D-05

 Cycle  10  Pass 1  IDiag  1:
 RMSU=  5.57D-07    CP:  9.89D-01  1.79D+00  6.47D-01  7.12D-01  7.20D-01
                    CP:  8.03D-01  8.25D-01  1.01D+00  6.88D-01
 E= -768.330194339763     Delta-E=       -0.000000063894 Rises=F Damp=F
 DIIS: error= 2.09D-06 at cycle  10 NSaved=  10.
 NSaved=10 IEnMin=10 EnMin= -768.330194339763     IErMin=10 ErrMin= 2.09D-06
 ErrMax= 2.09D-06  0.00D+00 EMaxC= 1.00D-01 BMatC= 3.29D-09 BMatP= 7.74D-08
 IDIUse=1 WtCom= 1.00D+00 WtEn= 0.00D+00
 Coeff-Com:  0.161D-04-0.953D-05-0.511D-03-0.143D-02-0.438D-02-0.781D-02
 Coeff-Com:  0.579D-03 0.819D-01 0.188D+00 0.744D+00
 Coeff:      0.161D-04-0.953D-05-0.511D-03-0.143D-02-0.438D-02-0.781D-02
 Coeff:      0.579D-03 0.819D-01 0.188D+00 0.744D+00
 Gap=     0.140 Goal=   None    Shift=    0.000
 RMSDP=3.07D-07 MaxDP=7.77D-06 DE=-6.39D-08 OVMax= 2.32D-05

 Cycle  11  Pass 1  IDiag  1:
 RMSU=  1.59D-07    CP:  9.89D-01  1.79D+00  6.47D-01  7.13D-01  7.20D-01
                    CP:  8.05D-01  8.32D-01  1.03D+00  7.41D-01  9.23D-01
 E= -768.330194342838     Delta-E=       -0.000000003075 Rises=F Damp=F
 DIIS: error= 5.78D-07 at cycle  11 NSaved=  11.
 NSaved=11 IEnMin=11 EnMin= -768.330194342838     IErMin=11 ErrMin= 5.78D-07
 ErrMax= 5.78D-07  0.00D+00 EMaxC= 1.00D-01 BMatC= 4.59D-10 BMatP= 3.29D-09
 IDIUse=1 WtCom= 1.00D+00 WtEn= 0.00D+00
 Coeff-Com:  0.666D-05 0.121D-05-0.125D-03-0.441D-03-0.167D-02-0.322D-02
 Coeff-Com: -0.468D-02 0.343D-02 0.445D-01 0.372D+00 0.590D+00
 Coeff:      0.666D-05 0.121D-05-0.125D-03-0.441D-03-0.167D-02-0.322D-02
 Coeff:     -0.468D-02 0.343D-02 0.445D-01 0.372D+00 0.590D+00
 Gap=     0.140 Goal=   None    Shift=    0.000
 RMSDP=9.55D-08 MaxDP=2.72D-06 DE=-3.08D-09 OVMax= 5.43D-06

 Cycle  12  Pass 1  IDiag  1:
 RMSU=  5.45D-08    CP:  9.89D-01  1.79D+00  6.47D-01  7.13D-01  7.21D-01
                    CP:  8.05D-01  8.33D-01  1.04D+00  7.48D-01  9.76D-01
                    CP:  7.56D-01
 E= -768.330194343262     Delta-E=       -0.000000000424 Rises=F Damp=F
 DIIS: error= 2.14D-07 at cycle  12 NSaved=  12.
 NSaved=12 IEnMin=12 EnMin= -768.330194343262     IErMin=12 ErrMin= 2.14D-07
 ErrMax= 2.14D-07  0.00D+00 EMaxC= 1.00D-01 BMatC= 3.97D-11 BMatP= 4.59D-10
 IDIUse=1 WtCom= 1.00D+00 WtEn= 0.00D+00
 Coeff-Com: -0.405D-05 0.877D-05 0.644D-05-0.531D-07-0.197D-03-0.374D-03
 Coeff-Com: -0.229D-02-0.906D-02-0.312D-02 0.747D-01 0.273D+00 0.667D+00
 Coeff:     -0.405D-05 0.877D-05 0.644D-05-0.531D-07-0.197D-03-0.374D-03
 Coeff:     -0.229D-02-0.906D-02-0.312D-02 0.747D-01 0.273D+00 0.667D+00
 Gap=     0.140 Goal=   None    Shift=    0.000
 RMSDP=3.34D-08 MaxDP=1.10D-06 DE=-4.24D-10 OVMax= 2.77D-06

 Cycle  13  Pass 1  IDiag  1:
 RMSU=  1.85D-08    CP:  9.89D-01  1.79D+00  6.47D-01  7.13D-01  7.21D-01
                    CP:  8.06D-01  8.34D-01  1.04D+00  7.52D-01  9.93D-01
                    CP:  8.41D-01  7.86D-01
 E= -768.330194343308     Delta-E=       -0.000000000046 Rises=F Damp=F
 DIIS: error= 9.04D-08 at cycle  13 NSaved=  13.
 NSaved=13 IEnMin=13 EnMin= -768.330194343308     IErMin=13 ErrMin= 9.04D-08
 ErrMax= 9.04D-08  0.00D+00 EMaxC= 1.00D-01 BMatC= 4.99D-12 BMatP= 3.97D-11
 IDIUse=1 WtCom= 1.00D+00 WtEn= 0.00D+00
 Coeff-Com: -0.230D-05 0.401D-05 0.143D-04 0.387D-04 0.379D-04 0.100D-03
 Coeff-Com: -0.849D-03-0.523D-02-0.574D-02 0.609D-02 0.905D-01 0.356D+00
 Coeff-Com:  0.559D+00
 Coeff:     -0.230D-05 0.401D-05 0.143D-04 0.387D-04 0.379D-04 0.100D-03
 Coeff:     -0.849D-03-0.523D-02-0.574D-02 0.609D-02 0.905D-01 0.356D+00
 Coeff:      0.559D+00
 Gap=     0.140 Goal=   None    Shift=    0.000
 RMSDP=9.49D-09 MaxDP=3.18D-07 DE=-4.64D-11 OVMax= 4.68D-07

 Error on total polarization charges =  0.01214
 SCF Done:  E(RB3LYP) =  -768.330194343     A.U. after   13 cycles
            NFock= 13  Conv=0.95D-08     -V/T= 2.0091
 KE= 7.614037719127D+02 PE=-4.103688867105D+03 EE= 1.409879698891D+03
 Leave Link  502 at Fri May 24 08:34:20 2019, MaxMem=   402653184 cpu:             516.7 elap:             129.3
 (Enter /n/sw/g16_nehalem/g16/l601.exe)
 Copying SCF densities to generalized density rwf, IOpCl= 0 IROHF=0.

 **********************************************************************

            Population analysis using the SCF density.

 **********************************************************************

 Orbital symmetries:
       Occupied  (A) (A) (A) (A) (A) (A) (A) (A) (A) (A) (A) (A)
                 (A) (A) (A) (A) (A) (A) (A) (A) (A) (A) (A) (A)
                 (A) (A) (A) (A) (A) (A) (A) (A) (A) (A) (A) (A)
                 (A) (A) (A) (A) (A) (A) (A) (A) (A) (A) (A) (A)
                 (A) (A) (A) (A) (A) (A) (A) (A) (A) (A) (A)
       Virtual   (A) (A) (A) (A) (A) (A) (A) (A) (A) (A) (A) (A)
                 (A) (A) (A) (A) (A) (A) (A) (A) (A) (A) (A) (A)
                 (A) (A) (A) (A) (A) (A) (A) (A) (A) (A) (A) (A)
                 (A) (A) (A) (A) (A) (A) (A) (A) (A) (A) (A) (A)
                 (A) (A) (A) (A) (A) (A) (A) (A) (A) (A) (A) (A)
                 (A) (A) (A) (A) (A) (A) (A) (A) (A) (A) (A) (A)
                 (A) (A) (A) (A) (A) (A) (A) (A) (A) (A) (A) (A)
                 (A) (A) (A) (A) (A) (A) (A) (A) (A) (A) (A) (A)
                 (A) (A) (A) (A) (A) (A) (A) (A) (A) (A) (A) (A)
                 (A) (A) (A) (A) (A) (A) (A) (A) (A) (A) (A) (A)
                 (A) (A) (A) (A) (A) (A) (A) (A) (A) (A) (A) (A)
                 (A) (A) (A) (A) (A) (A) (A) (A) (A) (A) (A) (A)
                 (A) (A) (A) (A) (A) (A) (A) (A) (A) (A) (A) (A)
                 (A) (A) (A) (A) (A) (A) (A) (A) (A) (A) (A) (A)
                 (A) (A) (A) (A) (A) (A) (A) (A) (A) (A) (A) (A)
                 (A) (A) (A) (A) (A) (A) (A) (A) (A) (A) (A) (A)
                 (A) (A) (A) (A) (A) (A) (A) (A) (A) (A) (A) (A)
 The electronic state is 1-A.
 Alpha  occ. eigenvalues --  -19.32525 -19.22075 -19.19703 -19.18881 -19.18326
 Alpha  occ. eigenvalues --  -10.39266 -10.31490 -10.31373 -10.29259 -10.28941
 Alpha  occ. eigenvalues --  -10.27327 -10.26437 -10.25592 -10.25085 -10.24578
 Alpha  occ. eigenvalues --   -1.21171  -1.09937  -1.08126  -1.06977  -1.06553
 Alpha  occ. eigenvalues --   -0.86760  -0.85222  -0.77493  -0.74527  -0.73510
 Alpha  occ. eigenvalues --   -0.70944  -0.69168  -0.68010  -0.66372  -0.61562
 Alpha  occ. eigenvalues --   -0.58994  -0.58389  -0.56655  -0.54027  -0.53497
 Alpha  occ. eigenvalues --   -0.52749  -0.51001  -0.50678  -0.49820  -0.49408
 Alpha  occ. eigenvalues --   -0.48310  -0.47637  -0.47329  -0.46051  -0.45438
 Alpha  occ. eigenvalues --   -0.45018  -0.43259  -0.42027  -0.40746  -0.39996
 Alpha  occ. eigenvalues --   -0.39271  -0.37834  -0.36048  -0.35399  -0.34940
 Alpha  occ. eigenvalues --   -0.32784  -0.30537  -0.29089  -0.28573
 Alpha virt. eigenvalues --   -0.14554   0.00867   0.03597   0.04642   0.06751
 Alpha virt. eigenvalues --    0.07350   0.08060   0.09228   0.09948   0.10983
 Alpha virt. eigenvalues --    0.11622   0.11848   0.12651   0.13171   0.13272
 Alpha virt. eigenvalues --    0.13936   0.14244   0.14789   0.15062   0.15329
 Alpha virt. eigenvalues --    0.15620   0.16128   0.16784   0.16799   0.17391
 Alpha virt. eigenvalues --    0.18543   0.18916   0.20449   0.21091   0.23008
 Alpha virt. eigenvalues --    0.23400   0.24102   0.26846   0.27853   0.30189
 Alpha virt. eigenvalues --    0.44656   0.45700   0.47748   0.48016   0.48356
 Alpha virt. eigenvalues --    0.49484   0.49839   0.50741   0.51906   0.52089
 Alpha virt. eigenvalues --    0.52548   0.53066   0.54039   0.55033   0.55771
 Alpha virt. eigenvalues --    0.56373   0.57186   0.58216   0.59379   0.60291
 Alpha virt. eigenvalues --    0.62212   0.64197   0.65357   0.67701   0.68514
 Alpha virt. eigenvalues --    0.70938   0.74317   0.75415   0.77651   0.79378
 Alpha virt. eigenvalues --    0.79936   0.80486   0.80902   0.81983   0.82451
 Alpha virt. eigenvalues --    0.83779   0.83965   0.84631   0.84878   0.84964
 Alpha virt. eigenvalues --    0.85160   0.87392   0.87681   0.89022   0.89518
 Alpha virt. eigenvalues --    0.90233   0.92024   0.92540   0.93266   0.93522
 Alpha virt. eigenvalues --    0.94427   0.95050   0.97482   1.00397   1.00887
 Alpha virt. eigenvalues --    1.03089   1.04861   1.07506   1.08456   1.10441
 Alpha virt. eigenvalues --    1.13502   1.15403   1.17171   1.18966   1.20751
 Alpha virt. eigenvalues --    1.23545   1.26436   1.28047   1.30597   1.33928
 Alpha virt. eigenvalues --    1.34804   1.36993   1.38215   1.39929   1.40524
 Alpha virt. eigenvalues --    1.44748   1.45267   1.46510   1.48159   1.48771
 Alpha virt. eigenvalues --    1.49877   1.54078   1.55639   1.56487   1.58375
 Alpha virt. eigenvalues --    1.60801   1.64895   1.67264   1.69479   1.71134
 Alpha virt. eigenvalues --    1.73059   1.75525   1.78624   1.80222   1.81873
 Alpha virt. eigenvalues --    1.84893   1.85875   1.86592   1.87452   1.91023
 Alpha virt. eigenvalues --    1.92934   1.95341   1.97903   1.98509   2.00826
 Alpha virt. eigenvalues --    2.01338   2.02746   2.03779   2.04235   2.04788
 Alpha virt. eigenvalues --    2.06666   2.07481   2.07787   2.09189   2.10553
 Alpha virt. eigenvalues --    2.11194   2.12212   2.12511   2.14709   2.18569
 Alpha virt. eigenvalues --    2.19440   2.21750   2.21981   2.22912   2.25414
 Alpha virt. eigenvalues --    2.26902   2.28782   2.30050   2.31825   2.33983
 Alpha virt. eigenvalues --    2.35809   2.40416   2.41844   2.44653   2.46029
 Alpha virt. eigenvalues --    2.51257   2.52979   2.55014   2.57875   2.59669
 Alpha virt. eigenvalues --    2.64828   2.67133   2.71094   2.72280   2.74505
 Alpha virt. eigenvalues --    2.76621   2.80394   2.85336   2.89590   2.93344
 Alpha virt. eigenvalues --    2.94214   3.00459   3.02363   3.06727   3.79501
 Alpha virt. eigenvalues --    3.90742   3.95283   3.98849   4.08580   4.14987
 Alpha virt. eigenvalues --    4.22667   4.23240   4.24267   4.26711   4.27673
 Alpha virt. eigenvalues --    4.34065   4.55666   4.62878   4.67620
          Condensed to atoms (all electrons):
               1          2          3          4          5          6
     1  C    4.966451   0.277653  -0.039100  -0.026944   0.340708   0.002743
     2  C    0.277653   5.135682   0.297610  -0.029393  -0.019603  -0.042548
     3  C   -0.039100   0.297610   4.748747  -0.031350  -0.016008   0.366514
     4  C   -0.026944  -0.029393  -0.031350   5.126484   0.289858   0.002820
     5  C    0.340708  -0.019603  -0.016008   0.289858   4.990237  -0.000129
     6  H    0.002743  -0.042548   0.366514   0.002820  -0.000129   0.435294
     7  H   -0.038379   0.354276  -0.035140   0.000447   0.003606  -0.001239
     8  H    0.370034  -0.058653   0.004639   0.005682  -0.039339  -0.000108
     9  H    0.004146  -0.000045   0.001867   0.373361  -0.043349  -0.000098
    10  H   -0.032811   0.005045   0.000402  -0.057930   0.361284   0.000017
    11  O   -0.006731  -0.024491   0.406384   0.125605  -0.022672  -0.036940
    12  O   -0.027923   0.140322  -0.021656   0.000424  -0.000413   0.000402
    13  O    0.183449  -0.042961   0.007221   0.001986  -0.043345  -0.000069
    14  O   -0.046855  -0.000041   0.004837  -0.042853   0.196730   0.000013
    15  C   -0.004256   0.001247  -0.000107   0.311259  -0.023024  -0.000145
    16  H    0.002296  -0.000944   0.002936  -0.028745  -0.013347   0.000003
    17  H   -0.000343   0.000046   0.000039  -0.034890   0.005431  -0.000014
    18  O   -0.000267  -0.000004  -0.000029  -0.042524  -0.001213   0.000001
    19  C    0.002375  -0.024343   0.000356  -0.000021  -0.000156   0.001445
    20  H   -0.000132   0.004922  -0.000255   0.000000   0.000013  -0.000053
    21  H   -0.000193  -0.006370   0.000705   0.000004  -0.000013   0.000320
    22  H    0.000429  -0.005906   0.000088   0.000000  -0.000007   0.000018
    23  C   -0.032881  -0.004437   0.000146  -0.000140   0.004629  -0.000005
    24  H   -0.008217  -0.000964   0.000025   0.000025  -0.000048   0.000000
    25  H    0.004828  -0.000098   0.000000   0.000024  -0.000190   0.000000
    26  H   -0.004970   0.004250  -0.000143  -0.000049  -0.000115   0.000009
    27  C    0.004588  -0.000207  -0.000143  -0.004385  -0.034237   0.000000
    28  H   -0.000203   0.000025   0.000001  -0.000137   0.005078   0.000000
    29  H   -0.000005   0.000013   0.000014  -0.000722  -0.007953   0.000000
    30  H   -0.000075  -0.000034  -0.000018   0.003462  -0.005467   0.000000
    31  C   -0.000030   0.000002  -0.000001   0.004238   0.000321   0.000000
    32  H    0.000000   0.000000   0.000000  -0.000252   0.000012   0.000000
    33  H    0.000032  -0.000001   0.000001   0.000262  -0.000146   0.000000
    34  H   -0.000002   0.000000   0.000000  -0.000139   0.000025   0.000000
               7          8          9         10         11         12
     1  C   -0.038379   0.370034   0.004146  -0.032811  -0.006731  -0.027923
     2  C    0.354276  -0.058653  -0.000045   0.005045  -0.024491   0.140322
     3  C   -0.035140   0.004639   0.001867   0.000402   0.406384  -0.021656
     4  C    0.000447   0.005682   0.373361  -0.057930   0.125605   0.000424
     5  C    0.003606  -0.039339  -0.043349   0.361284  -0.022672  -0.000413
     6  H   -0.001239  -0.000108  -0.000098   0.000017  -0.036940   0.000402
     7  H    0.505438  -0.000867   0.000007  -0.000095   0.001307  -0.021279
     8  H   -0.000867   0.540438  -0.000112  -0.005457  -0.000044   0.005797
     9  H    0.000007  -0.000112   0.488650  -0.000335  -0.026971   0.000019
    10  H   -0.000095  -0.005457  -0.000335   0.535179   0.002470  -0.000099
    11  O    0.001307  -0.000044  -0.026971   0.002470   7.921359  -0.000387
    12  O   -0.021279   0.005797   0.000019  -0.000099  -0.000387   8.253837
    13  O   -0.002290  -0.024614  -0.000075   0.003231  -0.000758   0.001496
    14  O    0.000022   0.005154  -0.003676  -0.026536  -0.001517   0.001998
    15  C    0.000027  -0.000137  -0.034572   0.000528  -0.027502  -0.000005
    16  H    0.000031   0.000158   0.005300  -0.000113   0.000460   0.000007
    17  H   -0.000006   0.000006  -0.008250   0.000351   0.002695   0.000000
    18  O    0.000000  -0.000005   0.005255   0.011898   0.000955   0.000000
    19  C   -0.006749   0.000339  -0.000001   0.000005   0.000012   0.214246
    20  H    0.000066  -0.000054   0.000000   0.000000   0.000002  -0.029278
    21  H    0.001765   0.000053   0.000000   0.000000  -0.000004  -0.031111
    22  H    0.005441   0.000016   0.000000   0.000000  -0.000002  -0.033773
    23  C    0.003346  -0.005633   0.000004   0.000162  -0.000009   0.000023
    24  H    0.000033   0.010016   0.000000  -0.000087  -0.000001   0.000031
    25  H   -0.000244   0.000010   0.000000  -0.000027   0.000000   0.000001
    26  H    0.003971  -0.001308   0.000000   0.000039   0.000004  -0.000407
    27  C    0.000005   0.000212   0.003175  -0.005793   0.000131   0.000092
    28  H    0.000000  -0.000041  -0.000201  -0.000003  -0.000001   0.000002
    29  H    0.000000  -0.000098   0.000001   0.009818  -0.000004  -0.000001
    30  H    0.000000   0.000042   0.004030  -0.000851   0.000077   0.000001
    31  C    0.000000   0.000000  -0.000116  -0.000217  -0.000048   0.000000
    32  H    0.000000   0.000000  -0.000001  -0.000028   0.000000   0.000000
    33  H    0.000000   0.000000   0.000044   0.000018   0.000002   0.000000
    34  H    0.000000   0.000000  -0.000057   0.000039   0.000002   0.000000
              13         14         15         16         17         18
     1  C    0.183449  -0.046855  -0.004256   0.002296  -0.000343  -0.000267
     2  C   -0.042961  -0.000041   0.001247  -0.000944   0.000046  -0.000004
     3  C    0.007221   0.004837  -0.000107   0.002936   0.000039  -0.000029
     4  C    0.001986  -0.042853   0.311259  -0.028745  -0.034890  -0.042524
     5  C   -0.043345   0.196730  -0.023024  -0.013347   0.005431  -0.001213
     6  H   -0.000069   0.000013  -0.000145   0.000003  -0.000014   0.000001
     7  H   -0.002290   0.000022   0.000027   0.000031  -0.000006   0.000000
     8  H   -0.024614   0.005154  -0.000137   0.000158   0.000006  -0.000005
     9  H   -0.000075  -0.003676  -0.034572   0.005300  -0.008250   0.005255
    10  H    0.003231  -0.026536   0.000528  -0.000113   0.000351   0.011898
    11  O   -0.000758  -0.001517  -0.027502   0.000460   0.002695   0.000955
    12  O    0.001496   0.001998  -0.000005   0.000007   0.000000   0.000000
    13  O    8.258136   0.001370  -0.006129   0.015171   0.000330  -0.000031
    14  O    0.001370   8.258400   0.003196  -0.000006  -0.000054   0.000015
    15  C   -0.006129   0.003196   4.916033   0.347443   0.350326   0.233511
    16  H    0.015171  -0.000006   0.347443   0.572485  -0.049553  -0.035375
    17  H    0.000330  -0.000054   0.350326  -0.049553   0.599440  -0.036896
    18  O   -0.000031   0.000015   0.233511  -0.035375  -0.036896   8.207097
    19  C   -0.000065   0.000133   0.000000   0.000000   0.000000   0.000000
    20  H    0.000001  -0.000002   0.000000   0.000000   0.000000   0.000000
    21  H    0.000008   0.000000   0.000000   0.000000   0.000000   0.000000
    22  H   -0.000058  -0.000001   0.000000   0.000000   0.000000   0.000000
    23  C    0.234576  -0.000060   0.000232  -0.000141  -0.000010  -0.000005
    24  H   -0.034507  -0.000009  -0.000028   0.000085   0.000000   0.000001
    25  H   -0.030453   0.000001   0.000027  -0.000108  -0.000001  -0.000001
    26  H   -0.037256   0.000004   0.000018  -0.000026   0.000001   0.000000
    27  C   -0.000057   0.238656   0.000032  -0.000004  -0.000003  -0.000026
    28  H    0.000001  -0.031013   0.000003   0.000000   0.000000   0.000000
    29  H   -0.000011  -0.035591   0.000088   0.000001  -0.000001  -0.000020
    30  H    0.000005  -0.036439  -0.000531  -0.000003   0.000028   0.000041
    31  C    0.000024   0.000000  -0.039159  -0.004248  -0.004119   0.242633
    32  H    0.000000   0.000000   0.005553  -0.000098  -0.000112  -0.031592
    33  H    0.000005   0.000000  -0.007710   0.011161  -0.002167  -0.035695
    34  H    0.000002   0.000000  -0.007754  -0.002215   0.010770  -0.035921
              19         20         21         22         23         24
     1  C    0.002375  -0.000132  -0.000193   0.000429  -0.032881  -0.008217
     2  C   -0.024343   0.004922  -0.006370  -0.005906  -0.004437  -0.000964
     3  C    0.000356  -0.000255   0.000705   0.000088   0.000146   0.000025
     4  C   -0.000021   0.000000   0.000004   0.000000  -0.000140   0.000025
     5  C   -0.000156   0.000013  -0.000013  -0.000007   0.004629  -0.000048
     6  H    0.001445  -0.000053   0.000320   0.000018  -0.000005   0.000000
     7  H   -0.006749   0.000066   0.001765   0.005441   0.003346   0.000033
     8  H    0.000339  -0.000054   0.000053   0.000016  -0.005633   0.010016
     9  H   -0.000001   0.000000   0.000000   0.000000   0.000004   0.000000
    10  H    0.000005   0.000000   0.000000   0.000000   0.000162  -0.000087
    11  O    0.000012   0.000002  -0.000004  -0.000002  -0.000009  -0.000001
    12  O    0.214246  -0.029278  -0.031111  -0.033773   0.000023   0.000031
    13  O   -0.000065   0.000001   0.000008  -0.000058   0.234576  -0.034507
    14  O    0.000133  -0.000002   0.000000  -0.000001  -0.000060  -0.000009
    15  C    0.000000   0.000000   0.000000   0.000000   0.000232  -0.000028
    16  H    0.000000   0.000000   0.000000   0.000000  -0.000141   0.000085
    17  H    0.000000   0.000000   0.000000   0.000000  -0.000010   0.000000
    18  O    0.000000   0.000000   0.000000   0.000000  -0.000005   0.000001
    19  C    4.921521   0.385227   0.368999   0.371218  -0.000044  -0.000003
    20  H    0.385227   0.493676  -0.028504  -0.026706   0.000000   0.000000
    21  H    0.368999  -0.028504   0.556017  -0.039918   0.000003   0.000000
    22  H    0.371218  -0.026706  -0.039918   0.546840  -0.000022  -0.000003
    23  C   -0.000044   0.000000   0.000003  -0.000022   4.905661   0.372441
    24  H   -0.000003   0.000000   0.000000  -0.000003   0.372441   0.561729
    25  H    0.000000   0.000000   0.000000   0.000000   0.386447  -0.028000
    26  H    0.000028  -0.000003  -0.000022   0.000480   0.361599  -0.044013
    27  C   -0.000004   0.000000   0.000000   0.000000   0.000003   0.000000
    28  H    0.000000   0.000000   0.000000   0.000000   0.000000   0.000000
    29  H    0.000000   0.000000   0.000000   0.000000   0.000000   0.000001
    30  H    0.000000   0.000000   0.000000   0.000000   0.000000   0.000000
    31  C    0.000000   0.000000   0.000000   0.000000  -0.000003   0.000000
    32  H    0.000000   0.000000   0.000000   0.000000   0.000000   0.000000
    33  H    0.000000   0.000000   0.000000   0.000000   0.000005  -0.000001
    34  H    0.000000   0.000000   0.000000   0.000000   0.000000   0.000000
              25         26         27         28         29         30
     1  C    0.004828  -0.004970   0.004588  -0.000203  -0.000005  -0.000075
     2  C   -0.000098   0.004250  -0.000207   0.000025   0.000013  -0.000034
     3  C    0.000000  -0.000143  -0.000143   0.000001   0.000014  -0.000018
     4  C    0.000024  -0.000049  -0.004385  -0.000137  -0.000722   0.003462
     5  C   -0.000190  -0.000115  -0.034237   0.005078  -0.007953  -0.005467
     6  H    0.000000   0.000009   0.000000   0.000000   0.000000   0.000000
     7  H   -0.000244   0.003971   0.000005   0.000000   0.000000   0.000000
     8  H    0.000010  -0.001308   0.000212  -0.000041  -0.000098   0.000042
     9  H    0.000000   0.000000   0.003175  -0.000201   0.000001   0.004030
    10  H   -0.000027   0.000039  -0.005793  -0.000003   0.009818  -0.000851
    11  O    0.000000   0.000004   0.000131  -0.000001  -0.000004   0.000077
    12  O    0.000001  -0.000407   0.000092   0.000002  -0.000001   0.000001
    13  O   -0.030453  -0.037256  -0.000057   0.000001  -0.000011   0.000005
    14  O    0.000001   0.000004   0.238656  -0.031013  -0.035591  -0.036439
    15  C    0.000027   0.000018   0.000032   0.000003   0.000088  -0.000531
    16  H   -0.000108  -0.000026  -0.000004   0.000000   0.000001  -0.000003
    17  H   -0.000001   0.000001  -0.000003   0.000000  -0.000001   0.000028
    18  O   -0.000001   0.000000  -0.000026   0.000000  -0.000020   0.000041
    19  C    0.000000   0.000028  -0.000004   0.000000   0.000000   0.000000
    20  H    0.000000  -0.000003   0.000000   0.000000   0.000000   0.000000
    21  H    0.000000  -0.000022   0.000000   0.000000   0.000000   0.000000
    22  H    0.000000   0.000480   0.000000   0.000000   0.000000   0.000000
    23  C    0.386447   0.361599   0.000003   0.000000   0.000000   0.000000
    24  H   -0.028000  -0.044013   0.000000   0.000000   0.000001   0.000000
    25  H    0.509186  -0.030304   0.000000   0.000000   0.000000   0.000000
    26  H   -0.030304   0.589465   0.000000   0.000000   0.000000   0.000000
    27  C    0.000000   0.000000   4.900219   0.386142   0.371644   0.363269
    28  H    0.000000   0.000000   0.386142   0.514666  -0.028507  -0.030997
    29  H    0.000000   0.000000   0.371644  -0.028507   0.569504  -0.044394
    30  H    0.000000   0.000000   0.363269  -0.030997  -0.044394   0.588358
    31  C    0.000000   0.000000   0.000000   0.000000   0.000001  -0.000002
    32  H    0.000000   0.000000   0.000000   0.000000   0.000000   0.000000
    33  H    0.000015   0.000000   0.000000   0.000000   0.000000   0.000000
    34  H    0.000000   0.000000   0.000000   0.000000   0.000000   0.000000
              31         32         33         34
     1  C   -0.000030   0.000000   0.000032  -0.000002
     2  C    0.000002   0.000000  -0.000001   0.000000
     3  C   -0.000001   0.000000   0.000001   0.000000
     4  C    0.004238  -0.000252   0.000262  -0.000139
     5  C    0.000321   0.000012  -0.000146   0.000025
     6  H    0.000000   0.000000   0.000000   0.000000
     7  H    0.000000   0.000000   0.000000   0.000000
     8  H    0.000000   0.000000   0.000000   0.000000
     9  H   -0.000116  -0.000001   0.000044  -0.000057
    10  H   -0.000217  -0.000028   0.000018   0.000039
    11  O   -0.000048   0.000000   0.000002   0.000002
    12  O    0.000000   0.000000   0.000000   0.000000
    13  O    0.000024   0.000000   0.000005   0.000002
    14  O    0.000000   0.000000   0.000000   0.000000
    15  C   -0.039159   0.005553  -0.007710  -0.007754
    16  H   -0.004248  -0.000098   0.011161  -0.002215
    17  H   -0.004119  -0.000112  -0.002167   0.010770
    18  O    0.242633  -0.031592  -0.035695  -0.035921
    19  C    0.000000   0.000000   0.000000   0.000000
    20  H    0.000000   0.000000   0.000000   0.000000
    21  H    0.000000   0.000000   0.000000   0.000000
    22  H    0.000000   0.000000   0.000000   0.000000
    23  C   -0.000003   0.000000   0.000005   0.000000
    24  H    0.000000   0.000000  -0.000001   0.000000
    25  H    0.000000   0.000000   0.000015   0.000000
    26  H    0.000000   0.000000   0.000000   0.000000
    27  C    0.000000   0.000000   0.000000   0.000000
    28  H    0.000000   0.000000   0.000000   0.000000
    29  H    0.000001   0.000000   0.000000   0.000000
    30  H   -0.000002   0.000000   0.000000   0.000000
    31  C    4.888788   0.386124   0.367733   0.367722
    32  H    0.386124   0.522408  -0.030244  -0.030422
    33  H    0.367733  -0.030244   0.585676  -0.045179
    34  H    0.367722  -0.030422  -0.045179   0.587307
 Mulliken charges:
               1
     1  C    0.110585
     2  C    0.039948
     3  C    0.301419
     4  C    0.054532
     5  C    0.072842
     6  H    0.271749
     7  H    0.226501
     8  H    0.193874
     9  H    0.231999
    10  H    0.199897
    11  O   -0.313386
    12  O   -0.452365
    13  O   -0.484333
    14  O   -0.485874
    15  C   -0.018464
    16  H    0.177389
    17  H    0.166956
    18  O   -0.481803
    19  C   -0.234520
    20  H    0.201080
    21  H    0.178260
    22  H    0.181866
    23  C   -0.225887
    24  H    0.171494
    25  H    0.188886
    26  H    0.158747
    27  C   -0.223311
    28  H    0.185185
    29  H    0.166222
    30  H    0.159495
    31  C   -0.209644
    32  H    0.178652
    33  H    0.156189
    34  H    0.155821
 Sum of Mulliken charges =   1.00000
 Mulliken charges with hydrogens summed into heavy atoms:
               1
     1  C    0.304459
     2  C    0.266449
     3  C    0.573167
     4  C    0.286531
     5  C    0.272739
    11  O   -0.313386
    12  O   -0.452365
    13  O   -0.484333
    14  O   -0.485874
    15  C    0.325880
    18  O   -0.481803
    19  C    0.326686
    23  C    0.293239
    27  C    0.287591
    31  C    0.281018
 Electronic spatial extent (au):  <R**2>=           3492.0319
 Charge=              1.0000 electrons
 Dipole moment (field-independent basis, Debye):
    X=              3.1561    Y=             -2.5111    Z=              3.1906  Tot=              5.1426
 Quadrupole moment (field-independent basis, Debye-Ang):
   XX=            -57.2208   YY=            -73.0041   ZZ=            -73.1070
   XY=             -5.9860   XZ=              4.1139   YZ=             -0.3813
 Traceless Quadrupole moment (field-independent basis, Debye-Ang):
   XX=             10.5565   YY=             -5.2268   ZZ=             -5.3297
   XY=             -5.9860   XZ=              4.1139   YZ=             -0.3813
 Octapole moment (field-independent basis, Debye-Ang**2):
[...]
 -0.00000932,-0.00011731,-0.00001671,-0.00001052,0.00001104,0.00000272,
 -0.00000203,0.00002103,-0.00001502,0.00000814,0.00002809,-0.00001363,0
 .00000668,-0.00002731,0.00003737,0.00000654,0.00000370,-0.00000575,-0.
 00000601,-0.00000152,-0.00000381,-0.00000370,-0.00000108,0.00000757,-0
 .00000290,-0.03269343,-0.07696341,-0.07264779,-0.00653982,-0.00451308,
 -0.02097705,0.02406062,0.07997020,0.00039600,-0.00015386,0.00011766,0.
 00011205,-0.00021082,0.00008071,0.00018478,-0.00024006,0.00017179,0.00
 035268,0.00006635,-0.00023375,-0.00208293,-0.00342949,0.00132593,-0.00
 001063,-0.00000005,0.00000274,-0.00000863,0.00000366,0.00001154,0.0000
 3990,-0.00003213,-0.00004105,-0.00010765,-0.00006615,0.00011985,0.0008
 0563,0.00113695,-0.00065272,-0.00006675,0.00014070,0.00008531,-0.00021
 044,0.00009817,-0.00001822,-0.00005433,0.00047481,0.00007321,-0.011307
 79,0.01092795,-0.01247914,-0.00021917,-0.00007062,-0.00026126,0.000036
 70,0.00002722,0.00001545,0.00010169,0.00005577,-0.00001021,0.00014916,
 0.00002088,0.00006787,0.00016712,-0.00002648,0.00000827,-0.00001637,-0
 .00000059,-0.00000014,-0.00002518,0.00001772,-0.00001384,-0.00002913,0
 .00002209,-0.00000312,0.00008849,-0.00010218,-0.00011948,-0.00001979,0
 .00000459,0.00002366,-0.00000697,0.00003581,0.00001461,-0.00001958,0.0
 0001995,0.00001471,-0.07919255,-0.06931282,-0.25092347,0.00237852,0.00
 039898,0.00624606,0.09563041,0.06809921,0.27281903,0.00038425,-0.00018
 421,-0.00012939,0.00009447,-0.00001012,0.00021323,-0.00007338,-0.00006
 574,0.00032158,0.00068731,0.00109166,0.00024601,-0.00173817,-0.0036422
 0,0.00025381,0.00001128,-0.00002807,-0.00001717,-0.00003917,0.00001450
 ,-0.00003739,0.00011514,-0.00011434,-0.00007695,0.00063237,-0.00027981
 ,-0.00035104,0.00043426,0.00023838,-0.00016954,0.00027673,-0.00028288,
 -0.00016779,-0.00025029,0.00008312,-0.00014504,-0.00010612,0.00067707,
 0.00003423,-0.01432215,0.01739333,0.00216902,0.00000943,-0.00010785,-0
 .00042500,-0.00004875,-0.00004718,0.00001833,0.00012205,0.00008478,-0.
 00003218,0.00009824,0.00000981,0.00000956,0.00017691,-0.00004624,-0.00
 001315,-0.00001865,0.00000028,0.00000514,-0.00003265,0.00002756,-0.000
 01918,-0.00001756,0.00001831,-0.00000326,0.00014336,-0.00015275,-0.000
 17218,-0.00002428,0.00000076,0.00002802,-0.00001160,0.00005544,0.00002
 442,-0.00003824,0.00002976,0.00001545,-0.18386651,0.05215805,0.1133245
 4,-0.01410954,0.00656848,0.01470299,0.01051723,-0.00489966,-0.00703901
 ,0.20103591,-0.00057024,0.00002772,-0.00015833,-0.00009405,0.00020364,
 -0.00019745,0.00021258,-0.00002546,-0.00028830,0.00018268,-0.00031742,
 0.00024168,0.00320808,0.00380819,-0.00267706,-0.00002622,0.00002274,0.
 00001921,-0.00000054,-0.00000831,0.00001356,-0.00018514,0.00011025,0.0
 0010373,-0.00045749,-0.00092897,0.00126287,-0.00027597,-0.00054665,-0.
 00013876,-0.00024183,0.00020910,-0.00001131,0.00016909,-0.00009542,0.0
 0014612,0.00010382,-0.00067760,0.00006252,0.02694235,-0.02049321,-0.00
 680862,-0.00009361,0.00023203,0.00017943,0.00009844,0.00005905,-0.0000
 4700,-0.00005106,-0.00005075,-0.00000819,0.00000567,0.00005562,0.00002
 362,-0.00012565,0.00001565,0.00002600,0.00001281,0.00000165,0.00000031
 ,0.00003360,-0.00001965,0.00000923,0.00001348,-0.00001775,0.00000187,-
 0.00012256,0.00009364,0.00014737,0.00001917,0.00000877,-0.00002236,0.0
 0001533,-0.00004633,-0.00002413,0.00002976,-0.00002562,-0.00001125,0.0
 4968146,-0.07497900,-0.04685456,-0.01654099,0.01021002,0.01474066,0.00
 665972,-0.00086593,-0.00787333,-0.06856131,0.08404320,0.00017270,-0.00
 001498,0.00009357,0.00001058,-0.00006059,0.00002528,-0.00003076,0.0000
 7593,-0.00003609,-0.00038891,-0.00026435,-0.00004394,-0.00033637,-0.00
 030094,0.00125866,-0.00000904,0.00000177,0.00000094,0.00000664,-0.0000
 0673,-0.00000970,0.00003307,-0.00004424,-0.00002686,-0.00000562,0.0008
 1954,-0.00061715,-0.00000373,0.00014011,-0.00039360,-0.00021545,0.0001
 2791,-0.00002787,-0.00004969,0.00000954,-0.00001123,-0.00001005,0.0001
 7594,-0.00003453,-0.01594167,0.00815719,0.01380046,0.00008627,-0.00031
 462,0.00018646,-0.00005171,0.00001837,0.00002644,-0.00001152,-0.000004
 33,-0.00000471,0.00006024,0.00010537,-0.00005448,0.00002779,-0.0000001
 8,-0.00001193,-0.00000695,-0.00000051,-0.00000248,-0.00001030,0.000004
 46,0.00000174,-0.00000535,0.00000750,-0.00000124,0.00003751,-0.0000208
 8,-0.00005256,-0.00000821,0.00000020,0.00000987,-0.00000652,0.00001105
 ,0.00000884,-0.00000883,0.00000652,0.00000329,0.11603422,-0.04755259,-
 0.15410913,0.00153029,-0.00130226,-0.00158188,0.02167354,-0.00791600,-
 0.01644877,-0.12256091,0.04814890,0.15806376,-0.00029495,0.00021482,0.
 00008671,-0.00019699,-0.00010154,0.00005503,-0.00147290,0.00036107,0.0
 0045059,-0.00465162,0.00044655,-0.00316983,-0.00084549,-0.00057304,0.0
 0074054,0.00012227,-0.00015671,-0.00000653,0.00006616,0.00000984,0.000
 00341,0.00015443,-0.00006762,-0.00006106,-0.00007425,-0.00049255,0.000
 12665,-0.00048888,-0.00005700,0.00080799,0.00237556,-0.00040807,0.0003
 2853,0.00067694,-0.00002015,-0.00018177,0.00073281,-0.00077225,-0.0006
 7868,0.00066020,0.00101749,-0.00064011,-0.04430972,-0.01936032,-0.0067
 8460,0.00380199,-0.00203325,0.00325881,0.00564021,0.00015799,0.0040148
 2,-0.15855977,-0.05839964,-0.00604344,-0.00040964,0.00016539,-0.000099
 27,0.00006882,-0.00001610,-0.00000687,0.00002141,-0.00003377,0.0000415
 8,0.00006851,-0.00003763,0.00000829,-0.00014235,0.00075822,0.00030007,
 0.00008626,-0.00009706,-0.00012975,-0.00001992,-0.00007424,-0.00001191
 ,0.00012462,-0.00011246,-0.00004439,0.00030387,-0.00053687,0.00036255,
 0.00003788,0.00008880,-0.00005805,-0.00008445,0.00002669,-0.00006416,-
 0.00007045,-0.00005021,-0.00001544,0.52270451,-0.00008324,0.00060903,0
 .00013023,-0.00016008,0.00004730,0.00011806,-0.00169360,0.00091064,0.0
 0071725,-0.00018152,-0.00290577,0.00061934,-0.00056041,-0.00039121,0.0
 0079647,0.00007162,-0.00035026,0.00002503,0.00007404,0.00000928,0.0000
 0427,0.00009386,-0.00012780,-0.00006093,-0.00029647,0.00016548,0.00003
 278,-0.00020904,-0.00005247,0.00053525,0.00366500,0.00074064,0.0003641
 8,0.00066679,-0.00007702,-0.00027504,0.00014505,-0.00085735,-0.0004736
 3,0.00063312,0.00087698,-0.00066419,0.00155527,0.00134044,-0.00445437,
 0.00555792,0.00249743,0.00302603,0.00206690,0.00006236,0.00275515,-0.0
 8751834,-0.13277639,0.01291840,-0.00040441,0.00014354,-0.00011211,0.00
 006445,-0.00001763,-0.00000740,0.00001977,-0.00002801,0.00004056,0.000
 08342,-0.00003658,0.00000331,-0.00003580,0.00054610,0.00019909,0.00005
 584,-0.00008036,-0.00008073,0.00001504,-0.00012716,-0.00003222,0.00004
 747,-0.00008289,-0.00004787,0.00027192,-0.00044933,0.00027641,0.000015
 93,0.00008253,-0.00004394,-0.00007501,0.00002321,-0.00005914,-0.000052
 12,-0.00001661,-0.00001745,-0.06871453,0.53556908,0.00004239,0.0001837
 6,0.00000376,0.00008756,-0.00015385,-0.00006416,0.00053944,-0.00035078
 ,-0.00051987,-0.00202766,0.00133603,-0.00355123,0.00041330,-0.00007821
 ,-0.00071465,-0.00000756,0.00027904,-0.00003730,-0.00000784,-0.0000113
 7,0.00004195,-0.00000965,-0.00000187,0.00003193,0.00006728,0.00006834,
 -0.00019162,-0.00007958,0.00010306,0.00062701,-0.00251791,-0.00057283,
 0.00023285,-0.00027953,0.00001099,0.00015179,-0.00010099,0.00007788,0.
 00012289,0.00008245,-0.00012126,0.00024520,-0.02664465,-0.01793172,-0.
 00387331,0.00047246,0.00025142,0.00047350,-0.00343530,-0.00117507,0.00
 102990,0.02180250,0.03168440,-0.07773660,0.00015351,-0.00003935,0.0000
 5596,-0.00002416,0.00000707,0.00000467,-0.00000623,0.00001114,-0.00001
 606,-0.00003819,0.00000967,-0.00000359,0.00003005,-0.00012372,-0.00002
 218,-0.00001230,0.00001907,0.00002453,0.00000861,-0.00000284,0.0000014
 0,-0.00002112,0.00001132,0.00000294,-0.00004706,0.00001755,-0.00000186
 ,0.00000307,-0.00001070,0.00000430,0.00000171,-0.00000718,0.00000823,0
 .00000128,0.00000248,-0.00000725,0.03445490,-0.00788430,0.60183409,0.0
 0000978,-0.00007441,-0.00002139,0.00004414,-0.00003925,-0.00004045,0.0
 0045449,-0.00027131,-0.00025235,-0.00010599,0.00084090,-0.00102298,0.0
 0014520,0.00010931,-0.00032406,-0.00001959,0.00011723,-0.00000725,-0.0
 0001287,-0.00000346,0.00000655,-0.00002879,0.00002590,0.00001939,0.000
 01633,-0.00002339,-0.00002176,0.00001813,-0.00000156,-0.00002730,-0.00
 119957,-0.00020218,0.00003411,-0.00018497,0.00001244,0.00008340,-0.000
 06545,0.00013818,0.00013493,-0.00009975,-0.00022993,0.00020793,-0.0022
 6400,-0.00408459,0.00237206,0.00006106,0.00007161,0.00005796,-0.000062
 60,-0.00009700,-0.00043234,-0.02833317,0.00217332,-0.02029692,0.000106
 83,-0.00003485,0.00002983,-0.00001790,0.00000439,0.00000218,-0.0000046
 5,0.00000749,-0.00000934,-0.00002348,0.00000951,-0.00000186,0.00002253
 ,-0.00011817,-0.00006161,-0.00002044,0.00001457,0.00002576,0.00000355,
 0.00001534,-0.00000224,-0.00001398,0.00001673,0.00001227,-0.00008579,0
 .00011964,-0.00009068,0.00000361,-0.00001907,0.00001379,0.00001236,-0.
 00000497,0.00002815,0.00001236,-0.00000166,-0.00000295,-0.15990490,0.0
 5311013,-0.11891069,0.18437729,-0.00000864,-0.00005392,-0.00001056,0.0
 0001729,-0.00002943,-0.00002263,0.00020139,-0.00015335,-0.00015435,-0.
 00040762,0.00089780,-0.00058597,0.00006379,0.00003239,-0.00014619,-0.0
 0000646,0.00008196,-0.00000911,-0.00000876,-0.00000197,0.00000677,-0.0
 0000338,0.00001396,0.00000914,0.00009765,0.00003906,-0.00005607,0.0000
 0732,0.00000235,0.00002174,-0.00078434,-0.00020947,-0.00000077,-0.0000
 8647,0.00001115,0.00004282,0.00000466,0.00006874,0.00002295,-0.0000319
 2,-0.00010290,0.00008010,-0.00347236,-0.00226214,0.00031485,-0.0004696
 9,0.00026558,-0.00008953,0.00006488,-0.00008464,0.00001903,-0.02155677
 ,0.00467623,-0.01789392,0.00004973,-0.00001441,0.00001769,-0.00000819,
 0.00000253,0.00000131,-0.00000209,0.00000323,-0.00000522,-0.00001218,0
 .00000360,-0.00000055,0.00000083,-0.00003768,-0.00000640,0.00000064,0.
 00000870,0.00000273,-0.00000180,0.00001035,0.00000969,-0.00000346,0.00
 000371,0.00000185,-0.00003783,0.00005170,-0.00002111,0.00000284,-0.000
 00802,0.00000398,0.00000392,-0.00000264,0.00000977,0.00000528,-0.00000
 502,-0.00000393,0.06143007,-0.07854162,0.06358436,-0.05146941,0.079705
 58,0.00001648,-0.00001850,0.00000041,0.00001166,0.00002004,0.00000047,
 0.00008284,-0.00001670,-0.00000803,0.00004888,0.00011356,0.00037679,0.
 00000677,-0.00004045,-0.00006243,-0.00000877,-0.00000816,0.00000439,-0
 .00000328,-0.00000019,-0.00000236,-0.00000825,0.00000446,0.00000203,-0
 .00000875,0.00000882,0.00000226,0.00002829,0.00000264,-0.00004817,-0.0
 0001883,0.00006782,-0.00000995,-0.00002724,-0.00000315,0.00000315,-0.0
 0003257,0.00003310,0.00002626,-0.00006595,-0.00008203,0.00007167,0.001
 77734,-0.00009224,0.00166601,-0.00007360,0.00011361,-0.00011985,0.0002
 3012,0.00011557,0.00031461,0.00246685,-0.00289472,0.00473236,0.0000178
 6,-0.00000732,0.00000227,-0.00000306,0.00000034,0.00000046,-0.00000073
 ,0.00000164,-0.00000144,-0.00000208,0.00000162,-0.00000059,0.00000986,
 -0.00002805,-0.00001243,-0.00000216,0.00000251,0.00000528,0.00000012,0
 .00000196,0.00000043,-0.00000558,0.00000416,0.00000014,-0.00002993,0.0
 0004696,-0.00002343,-0.00000014,-0.00000720,0.00000369,0.00000548,-0.0
 0000201,0.00000568,0.00000614,-0.00000084,-0.00000196,-0.12697853,0.05
 832336,-0.18993007,0.13624174,-0.06344857,0.19546793,-0.00002989,-0.00
 008340,0.00001727,0.00000320,0.00001749,-0.00000339,0.00007304,-0.0000
 5235,-0.00008268,0.00056296,-0.00018958,0.00023459,0.00006184,0.000067
 80,-0.00007825,-0.00001947,0.00002072,0.00000427,-0.00000731,-0.000000
 82,-0.00000058,-0.00000735,0.00000960,0.00000335,-0.00006937,0.0002151
 4,-0.00006979,0.00006025,-0.00001091,-0.00008126,-0.00037565,0.0001309
 4,-0.00002635,-0.00003477,0.00000321,0.00001565,0.00003061,0.00004112,
 0.00000671,-0.00003841,-0.00006259,0.00004343,0.00530999,-0.00428861,0
 .00252886,0.00043653,0.00166732,0.00043894,-0.00070076,0.00031581,-0.0
 0028048,-0.00222445,-0.03770880,-0.00589675,0.00002347,-0.00000780,0.0
 0000681,-0.00000403,0.00000087,0.00000069,-0.00000058,0.00000184,-0.00
 000242,-0.00000471,0.00000176,-0.00000069,-0.00000694,-0.00000576,0.00
 000035,0.00000288,0.00000530,0.00000005,0.00000137,0.00000216,0.000001
 91,-0.00000152,-0.00000179,0.00000139,-0.00001495,0.00003544,-0.000028
 73,-0.00000421,-0.00000436,0.00000469,0.00000432,-0.00000181,0.0000044
 7,0.00000387,0.00000630,0.00000036,-0.07770087,0.07843246,0.01219277,-
 0.00418618,0.01898920,0.00526630,0.08059000,-0.00002372,-0.00020625,-0
 .00003998,0.00002374,0.00001220,-0.00002112,0.00033488,-0.00016611,-0.
 00016660,0.00044386,0.00068987,0.00017335,0.00013362,0.00007653,-0.000
 16200,-0.00002606,0.00006008,0.00000234,-0.00001934,-0.00000226,-0.000
 00517,-0.00001836,0.00003591,0.00001022,0.00026025,0.00023621,-0.00002
 823,0.00008509,-0.00002218,-0.00016039,-0.00076042,0.00000045,-0.00001
 375,-0.00010960,0.00001806,0.00005954,0.00005582,0.00020802,0.00011260
 ,-0.00013662,-0.00014256,0.00012580,0.00359160,0.00062767,0.00323346,-
 0.00179753,-0.00001068,-0.00113494,-0.00022820,-0.00005847,-0.00062406
 ,-0.01272441,-0.02715531,-0.00135586,0.00007364,-0.00002558,0.00001918
 ,-0.00001093,0.00000306,0.00000103,-0.00000305,0.00000460,-0.00000721,
 -0.00001575,0.00000702,-0.00000009,-0.00001105,-0.00008781,-0.00002760
 ,-0.00001270,0.00001455,0.00001444,-0.00000926,0.00004250,0.00000476,0
 .00000454,0.00001483,0.00001239,-0.00002895,0.00006491,-0.00006743,-0.
 00001038,-0.00001221,0.00001039,0.00001537,-0.00000383,0.00000986,0.00
 000623,0.00001700,0.00001065,0.07396041,-0.27019669,-0.04029632,0.0036
 9209,-0.00637272,-0.00182869,-0.06965190,0.30353471,-0.00000699,0.0000
 0609,0.00001218,-0.00001355,-0.00000426,0.00001508,-0.00009137,0.00001
 618,0.00002498,-0.00016408,0.00004563,-0.00003169,-0.00000914,-0.00001
 205,0.00007519,0.00000244,-0.00000954,-0.00000237,0.00000010,0.0000014
 0,0.00000114,0.00000957,-0.00000087,-0.00000498,0.00000353,0.00003632,
 -0.00003002,0.00000375,0.00001712,0.00000120,0.00006374,-0.00001719,-0
 .00003117,0.00003362,0.00000278,-0.00001887,-0.00001405,-0.00003457,-0
 .00007703,0.00001863,0.00003931,-0.00005195,0.00036491,-0.00164342,0.0
 0003946,0.00020377,0.00019649,0.00031307,0.00025443,-0.00004760,-0.000
 10557,-0.00190051,0.00589520,0.00382413,-0.00002023,0.00000639,-0.0000
 0377,0.00000346,-0.00000038,-0.00000055,0.00000028,-0.00000178,0.00000
 098,0.00000415,-0.00000211,0.00000090,0.00000434,0.00002794,0.00000625
 ,0.00001233,-0.00000529,-0.00001294,0.00000152,-0.00000498,0.00001189,
 -0.00000211,-0.00000439,-0.00000485,0.00001570,-0.00002020,0.00002136,
 0.00000104,0.00000329,-0.00000345,-0.00000389,0.00000172,-0.00000432,-
 0.00000288,-0.00000288,-0.00000107,0.01296408,-0.04079324,-0.06247604,
 -0.00636695,0.02204090,0.00575190,-0.01509451,0.04292540,0.05664689,0.
 00003515,-0.00010546,-0.00002076,0.00002360,0.00001646,-0.00000810,0.0
 0018987,-0.00010898,-0.00007187,0.00068725,0.00026090,0.00002621,0.000
 12344,0.00024123,0.00011555,-0.00002014,0.00003120,0.00000196,-0.00001
 191,0.00000068,-0.00000725,-0.00002290,0.00001845,0.00000654,0.0000432
 1,0.00004980,0.00001667,0.00008142,-0.00000962,-0.00032556,-0.00048571
 ,-0.00003991,-0.00011570,-0.00010441,0.00000722,0.00001557,-0.00008268
 ,0.00011041,0.00006348,-0.00013588,-0.00016086,0.00000439,0.00357126,-
 0.00036103,0.00598433,-0.00052292,0.00022868,-0.00040280,0.00001484,-0
 .00005180,-0.00155328,-0.02602896,-0.01004969,0.02447667,0.00006018,-0
 .00002648,0.00001586,-0.00001081,0.00000269,0.00000111,-0.00000366,0.0
 0000514,-0.00000634,-0.00000963,0.00000576,-0.00000104,0.00002989,-0.0
 0010264,-0.00005400,-0.00001107,0.00001114,0.00001572,0.00000438,0.000
 00912,0.00000337,-0.00002189,0.00001516,0.00000675,-0.00004075,0.00009
 346,-0.00005825,-0.00000724,-0.00001500,0.00000835,0.00001541,-0.00000
 134,0.00000532,0.00001232,0.00000419,0.00000676,-0.08841932,0.01333858
 ,0.08381712,0.01134640,-0.00256813,-0.01894727,-0.00173289,0.00291707,
 0.00972489,0.10143416,-0.00000263,-0.00013845,-0.00003633,0.00001422,0
 .00002397,-0.00001324,0.00019201,-0.00009659,-0.00006887,0.00052353,0.
 00019525,0.00027896,0.00005506,0.00010070,0.00003019,-0.00001390,0.000
 02476,0.00000377,-0.00001195,-0.00000029,-0.00000874,-0.00001527,0.000
 02217,0.00000651,-0.00000223,0.00001038,0.00001937,0.00005547,-0.00001
 033,-0.00022978,-0.00031499,0.00000390,-0.00005937,-0.00007538,0.00000
 538,0.00002837,0.00000123,0.00012060,0.00006737,-0.00013163,-0.0001467
 7,0.00005928,0.00272999,-0.00006875,0.00277766,-0.00036780,-0.00019641
 ,-0.00058417,0.00017450,0.00000890,-0.00096775,-0.02081344,-0.00177681
 ,0.02282526,0.00004725,-0.00001759,0.00001043,-0.00000799,0.00000164,0
 .00000105,-0.00000186,0.00000365,-0.00000394,-0.00000899,0.00000464,-0
 .00000083,0.00000033,-0.00006598,-0.00003528,-0.00000943,0.00000702,0.
 00001215,-0.00000542,0.00002294,-0.00000074,-0.00000082,0.00001323,0.0
 0000822,-0.00004555,0.00008845,-0.00005047,-0.00000386,-0.00001275,0.0
 0000707,0.00001414,-0.00000320,0.00000728,0.00001168,0.00000142,0.0000
 0362,0.01347766,-0.05650891,-0.02889621,-0.00380357,0.00200129,0.00961
 665,0.01210603,-0.00120552,-0.02865741,-0.00376641,0.05758806,-0.00005
 163,0.00002188,0.00001386,-0.00003097,-0.00001214,0.00000833,-0.000212
 09,0.00009708,0.00007833,-0.00022416,-0.00015765,0.00025166,-0.0002512
 7,-0.00015666,0.00009167,0.00001485,-0.00003647,0.00000054,0.00001025,
 0.00000078,-0.00000155,0.00001837,-0.00000605,-0.00000874,-0.00001559,
 -0.00003090,-0.00000080,-0.00007458,-0.00003229,0.00010845,0.00044335,
 0.00000794,0.00000417,0.00010981,-0.00000202,-0.00002343,0.00010644,-0
 .00008412,-0.00006202,0.00005987,0.00017272,-0.00006621,-0.00224134,0.
 00061289,0.00235298,0.00013828,-0.00029002,-0.00013818,0.00206150,0.00
 004918,0.00040863,0.00643490,0.00637946,0.00255351,-0.00006377,0.00002
 466,-0.00001826,0.00001103,-0.00000266,-0.00000167,0.00000336,-0.00000
 557,0.00000705,0.00001080,-0.00000494,0.00000174,-0.00003192,0.0000943
 2,0.00003373,0.00000654,-0.00001131,-0.00001415,-0.00000514,-0.0000016
 4,-0.00000489,0.00002286,-0.00001177,-0.00000101,0.00004764,-0.0000789
 3,0.00002324,0.00000612,0.00001393,-0.00000574,-0.00001336,0.00000504,
 -0.00000283,-0.00001170,-0.00000521,-0.00000087,0.08696985,-0.02587862
 ,-0.26575109,0.00862309,-0.00373484,-0.01821749,0.00087301,-0.00078596
 ,-0.00388596,-0.10274440,0.02384990,0.28226699\\-0.00000719,0.00000269
 ,-0.00000286,0.00000391,0.00000317,-0.00000339,0.00000306,0.00000806,-
 0.00000567,-0.00001622,-0.00000171,-0.00000528,0.00000223,-0.00000801,
 -0.00000340,-0.00000362,0.00000137,0.00000216,0.00000672,0.00000892,0.
 00000202,0.00000205,0.00000499,0.00000206,-0.00000312,-0.00000265,-0.0
 0000138,-0.00000419,-0.00000207,0.00000140,-0.00000143,0.00000018,0.00
 001133,-0.00000302,0.00000141,0.00000410,0.00001708,0.00000021,-0.0000
 0369,-0.00000919,0.00000785,-0.00000028,0.00000396,-0.00000835,0.00000
 542,0.00000696,-0.00000320,-0.00000005,-0.00000264,-0.00001057,-0.0000
 0172,-0.00000179,-0.00001304,-0.00000393,-0.00000273,0.00001995,0.0000
 0240,-0.00000147,0.00001443,0.00000222,0.00000069,0.00001409,-0.000000
 59,0.00000306,0.00001068,-0.00000070,0.00000341,0.00000631,0.00000628,
 0.00000921,0.00000217,-0.00000174,0.00001200,-0.00000111,-0.00000136,0
 .00001110,0.00000382,0.00000042,-0.00000870,-0.00000318,0.00000048,-0.
 00001089,0.00000302,-0.00000137,-0.00000900,-0.00000186,0.00000092,-0.
 00000964,-0.00000254,0.00000245,0.00000187,-0.00001141,-0.00000040,0.0
 0000007,-0.00001655,-0.00000219,0.00000583,-0.00001235,-0.00000167,0.0
 0000166,-0.00001469,-0.00000199\\\@


 IT IS BY EATING THE LIGHT OF A STAR THAT WE EXIST, 
 IN THE FINAL ANALYSIS, 
 JUST AS IT IS BY PERCEIVING THE LIGHT OF STARS
 THAT WE DEFINE THE WORLD AROUND US.

                                    -- GILBERT GROSVENOR
 Job cpu time:       0 days  1 hours 16 minutes 16.4 seconds.
 Elapsed time:       0 days  0 hours 19 minutes 32.2 seconds.
 File lengths (MBytes):  RWF=    384 Int=      0 D2E=      0 Chk=     17 Scr=      1
 Normal termination of Gaussian 16 at Fri May 24 08:54:48 2019.
