 Entering Gaussian System, Link 0=g16
 Input=clay-glucose_cation-131-b3lyp_d3bj-631gd-pcm_thf.gjf
 Output=clay-glucose_cation-131-b3lyp_d3bj-631gd-pcm_thf.out
 Initial command:
 /n/sw/g16_nehalem/g16/l1.exe "/scratch/Gau-58401.inp" -scrdir="/scratch/"
 Entering Link 1 = /n/sw/g16_nehalem/g16/l1.exe PID=     58402.
  
 Copyright (c) 1988,1990,1992,1993,1995,1998,2003,2009,2016,
            Gaussian, Inc.  All Rights Reserved.
  
 This is part of the Gaussian(R) 16 program.  It is based on
 the Gaussian(R) 09 system (copyright 2009, Gaussian, Inc.),
 the Gaussian(R) 03 system (copyright 2003, Gaussian, Inc.),
 the Gaussian(R) 98 system (copyright 1998, Gaussian, Inc.),
 the Gaussian(R) 94 system (copyright 1995, Gaussian, Inc.),
 the Gaussian 92(TM) system (copyright 1992, Gaussian, Inc.),
 the Gaussian 90(TM) system (copyright 1990, Gaussian, Inc.),
 the Gaussian 88(TM) system (copyright 1988, Gaussian, Inc.),
 the Gaussian 86(TM) system (copyright 1986, Carnegie Mellon
 University), and the Gaussian 82(TM) system (copyright 1983,
 Carnegie Mellon University). Gaussian is a federally registered
 trademark of Gaussian, Inc.
  
 This software contains proprietary and confidential information,
 including trade secrets, belonging to Gaussian, Inc.
  
 This software is provided under written license and may be
 used, copied, transmitted, or stored only in accord with that
 written license.
  
 The following legend is applicable only to US Government
 contracts under FAR:
  
                    RESTRICTED RIGHTS LEGEND
  
 Use, reproduction and disclosure by the US Government is
 subject to restrictions as set forth in subparagraphs (a)
 and (c) of the Commercial Computer Software - Restricted
 Rights clause in FAR 52.227-19.
  
 Gaussian, Inc.
 340 Quinnipiac St., Bldg. 40, Wallingford CT 06492
  
  
 ---------------------------------------------------------------
 Warning -- This program may not be used in any manner that
 competes with the business of Gaussian, Inc. or will provide
 assistance to any competitor of Gaussian, Inc.  The licensee
 of this program is prohibited from giving any competitor of
 Gaussian, Inc. access to this program.  By using this program,
 the user acknowledges that Gaussian, Inc. is engaged in the
 business of creating and licensing software in the field of
 computational chemistry and represents and warrants to the
 licensee that it is not a competitor of Gaussian, Inc. and that
 it will not use this program in any manner prohibited above.
 ---------------------------------------------------------------
  

 Cite this work as:
 Gaussian 16, Revision A.03,
 M. J. Frisch, G. W. Trucks, H. B. Schlegel, G. E. Scuseria, 
 M. A. Robb, J. R. Cheeseman, G. Scalmani, V. Barone, 
 G. A. Petersson, H. Nakatsuji, X. Li, M. Caricato, A. V. Marenich, 
 J. Bloino, B. G. Janesko, R. Gomperts, B. Mennucci, H. P. Hratchian, 
 J. V. Ortiz, A. F. Izmaylov, J. L. Sonnenberg, D. Williams-Young, 
 F. Ding, F. Lipparini, F. Egidi, J. Goings, B. Peng, A. Petrone, 
 T. Henderson, D. Ranasinghe, V. G. Zakrzewski, J. Gao, N. Rega, 
 G. Zheng, W. Liang, M. Hada, M. Ehara, K. Toyota, R. Fukuda, 
 J. Hasegawa, M. Ishida, T. Nakajima, Y. Honda, O. Kitao, H. Nakai, 
 T. Vreven, K. Throssell, J. A. Montgomery, Jr., J. E. Peralta, 
 F. Ogliaro, M. J. Bearpark, J. J. Heyd, E. N. Brothers, K. N. Kudin, 
 V. N. Staroverov, T. A. Keith, R. Kobayashi, J. Normand, 
 K. Raghavachari, A. P. Rendell, J. C. Burant, S. S. Iyengar, 
 J. Tomasi, M. Cossi, J. M. Millam, M. Klene, C. Adamo, R. Cammi, 
 J. W. Ochterski, R. L. Martin, K. Morokuma, O. Farkas, 
 J. B. Foresman, and D. J. Fox, Gaussian, Inc., Wallingford CT, 2016.
 
 ******************************************
 Gaussian 16:  ES64L-G16RevA.03 25-Dec-2016
                24-May-2019 
 ******************************************
 %nprocshared=4
 Will use up to    4 processors via shared memory.
 %mem=3GB
 -------------------------------------------------------------------
 #p b3lyp 6-31g* opt freq=noraman scrf=(pcm,solvent=tetrahydrofuran)
 -------------------------------------------------------------------
 1/18=20,19=15,26=3,38=1/1,3;
 2/9=110,12=2,17=6,18=5,40=1/2;
 3/5=1,6=6,7=1,11=2,25=1,30=1,70=2201,71=1,72=20,74=-5/1,2,3;
 4//1;
 5/5=2,38=5,53=20/2;
 6/7=2,8=2,9=2,10=2,28=1/1;
 7//1,2,3,16;
 1/18=20,19=15,26=3/3(2);
 2/9=110/2;
 99//99;
 2/9=110/2;
 3/5=1,6=6,7=1,11=2,25=1,30=1,70=2205,71=1,72=20,74=-5/1,2,3;
 4/5=5,16=3,69=1/1;
 5/5=2,38=5,53=20/2;
 7//1,2,3,16;
 1/18=20,19=15,26=3/3(-5);
 2/9=110/2;
 6/7=2,8=2,9=2,10=2,19=2,28=1/1;
 99/9=1/99;
 Leave Link    1 at Fri May 24 08:31:59 2019, MaxMem=   402653184 cpu:               0.4 elap:               0.3
 (Enter /n/sw/g16_nehalem/g16/l101.exe)
 -----
 title
 -----
 Symbolic Z-matrix:
 Charge =  1 Multiplicity = 1
 6                    -1.10191   0.45875  -0.25202 
 6                    -1.51073  -0.94713   0.24668 
 6                    -0.41712  -1.94123   0.02103 
 6                     1.34304  -0.25617  -0.15058 
 6                     0.30309   0.79126   0.27635 
 1                    -0.64895  -3.00435  -0.06091 
 1                    -1.67023  -0.87729   1.33709 
 1                    -1.07647   0.45249  -1.3496 
 1                     1.60061  -0.11183  -1.20101 
 1                     0.26406   0.85619   1.3739 
 8                     0.7938   -1.6642   -0.15885 
 8                    -2.6512   -1.41469  -0.42809 
 8                    -2.00506   1.41832   0.23213 
 8                     0.78911   1.99241  -0.28208 
 6                     2.58763  -0.30766   0.73518 
 1                     2.30741  -0.67764   1.72735 
 1                     2.9416    0.72817   0.84106 
 8                     3.58373  -1.16268   0.23617 
 6                    -3.63247  -2.05442   0.40254 
 1                    -4.46888  -2.29579  -0.25393 
 1                    -3.24377  -2.97761   0.84901 
 1                    -3.96377  -1.3739    1.19576 
 6                    -3.01113   1.83223  -0.69994 
 1                    -3.61637   2.57685  -0.18002 
 1                    -2.55609   2.28916  -1.58763 
 1                    -3.64235   0.99089  -1.00303 
 6                     0.6428    3.15444   0.54357 
 1                    -0.41023   3.35859   0.75413 
 1                     1.1924    3.03574   1.48627 
 1                     1.07555   3.98016  -0.02409 
 6                     4.4344   -0.56714  -0.74121 
 1                     3.889    -0.28622  -1.65273 
 1                     4.93421   0.32369  -0.33754 
 1                     5.18365  -1.31824  -0.99792 
 
 ITRead=  0  0  0  0  0  0  0  0  0  0  0  0  0  0  0  0  0  0  0  0
 ITRead=  0  0  0  0  0  0  0  0  0  0  0  0  0  0
 MicOpt= -1 -1 -1 -1 -1 -1 -1 -1 -1 -1 -1 -1 -1 -1 -1 -1 -1 -1 -1 -1
 MicOpt= -1 -1 -1 -1 -1 -1 -1 -1 -1 -1 -1 -1 -1 -1
 NAtoms=     34 NQM=       34 NQMF=       0 NMMI=      0 NMMIF=      0
                NMic=       0 NMicF=      0.
                    Isotopes and Nuclear Properties:
 (Nuclear quadrupole moments (NQMom) in fm**2, nuclear magnetic moments (NMagM)
  in nuclear magnetons)

  Atom         1           2           3           4           5           6           7           8           9          10
 IAtWgt=          12          12          12          12          12           1           1           1           1           1
 AtmWgt=  12.0000000  12.0000000  12.0000000  12.0000000  12.0000000   1.0078250   1.0078250   1.0078250   1.0078250   1.0078250
 NucSpn=           0           0           0           0           0           1           1           1           1           1
 AtZEff=   0.0000000   0.0000000   0.0000000   0.0000000   0.0000000   0.0000000   0.0000000   0.0000000   0.0000000   0.0000000
 NQMom=    0.0000000   0.0000000   0.0000000   0.0000000   0.0000000   0.0000000   0.0000000   0.0000000   0.0000000   0.0000000
 NMagM=    0.0000000   0.0000000   0.0000000   0.0000000   0.0000000   2.7928460   2.7928460   2.7928460   2.7928460   2.7928460
 AtZNuc=   6.0000000   6.0000000   6.0000000   6.0000000   6.0000000   1.0000000   1.0000000   1.0000000   1.0000000   1.0000000

  Atom        11          12          13          14          15          16          17          18          19          20
 IAtWgt=          16          16          16          16          12           1           1          16          12           1
 AtmWgt=  15.9949146  15.9949146  15.9949146  15.9949146  12.0000000   1.0078250   1.0078250  15.9949146  12.0000000   1.0078250
 NucSpn=           0           0           0           0           0           1           1           0           0           1
 AtZEff=   0.0000000   0.0000000   0.0000000   0.0000000   0.0000000   0.0000000   0.0000000   0.0000000   0.0000000   0.0000000
 NQMom=    0.0000000   0.0000000   0.0000000   0.0000000   0.0000000   0.0000000   0.0000000   0.0000000   0.0000000   0.0000000
 NMagM=    0.0000000   0.0000000   0.0000000   0.0000000   0.0000000   2.7928460   2.7928460   0.0000000   0.0000000   2.7928460
 AtZNuc=   8.0000000   8.0000000   8.0000000   8.0000000   6.0000000   1.0000000   1.0000000   8.0000000   6.0000000   1.0000000

  Atom        21          22          23          24          25          26          27          28          29          30
 IAtWgt=           1           1          12           1           1           1          12           1           1           1
 AtmWgt=   1.0078250   1.0078250  12.0000000   1.0078250   1.0078250   1.0078250  12.0000000   1.0078250   1.0078250   1.0078250
 NucSpn=           1           1           0           1           1           1           0           1           1           1
 AtZEff=   0.0000000   0.0000000   0.0000000   0.0000000   0.0000000   0.0000000   0.0000000   0.0000000   0.0000000   0.0000000
 NQMom=    0.0000000   0.0000000   0.0000000   0.0000000   0.0000000   0.0000000   0.0000000   0.0000000   0.0000000   0.0000000
 NMagM=    2.7928460   2.7928460   0.0000000   2.7928460   2.7928460   2.7928460   0.0000000   2.7928460   2.7928460   2.7928460
 AtZNuc=   1.0000000   1.0000000   6.0000000   1.0000000   1.0000000   1.0000000   6.0000000   1.0000000   1.0000000   1.0000000

  Atom        31          32          33          34
 IAtWgt=          12           1           1           1
 AtmWgt=  12.0000000   1.0078250   1.0078250   1.0078250
 NucSpn=           0           1           1           1
 AtZEff=   0.0000000   0.0000000   0.0000000   0.0000000
 NQMom=    0.0000000   0.0000000   0.0000000   0.0000000
 NMagM=    0.0000000   2.7928460   2.7928460   2.7928460
 AtZNuc=   6.0000000   1.0000000   1.0000000   1.0000000
 Leave Link  101 at Fri May 24 08:32:00 2019, MaxMem=   402653184 cpu:               1.4 elap:               0.9
 (Enter /n/sw/g16_nehalem/g16/l103.exe)

 GradGradGradGradGradGradGradGradGradGradGradGradGradGradGradGradGradGrad
 Berny optimization.
 Initialization pass.
                           ----------------------------
                           !    Initial Parameters    !
                           ! (Angstroms and Degrees)  !
 --------------------------                            --------------------------
 ! Name  Definition              Value          Derivative Info.                !
 --------------------------------------------------------------------------------
 ! R1    R(1,2)                  1.5467         estimate D2E/DX2                !
 ! R2    R(1,5)                  1.5375         estimate D2E/DX2                !
 ! R3    R(1,8)                  1.0979         estimate D2E/DX2                !
 ! R4    R(1,13)                 1.4039         estimate D2E/DX2                !
 ! R5    R(2,3)                  1.495          estimate D2E/DX2                !
 ! R6    R(2,7)                  1.1042         estimate D2E/DX2                !
 ! R7    R(2,12)                 1.4052         estimate D2E/DX2                !
 ! R8    R(3,6)                  1.0912         estimate D2E/DX2                !
 ! R9    R(3,11)                 1.2552         estimate D2E/DX2                !
 ! R10   R(4,5)                  1.5365         estimate D2E/DX2                !
 ! R11   R(4,9)                  1.0911         estimate D2E/DX2                !
 ! R12   R(4,11)                 1.5114         estimate D2E/DX2                !
 ! R13   R(4,15)                 1.5285         estimate D2E/DX2                !
 ! R14   R(5,10)                 1.1002         estimate D2E/DX2                !
 ! R15   R(5,14)                 1.411          estimate D2E/DX2                !
 ! R16   R(12,19)                1.436          estimate D2E/DX2                !
 ! R17   R(13,23)                1.4326         estimate D2E/DX2                !
 ! R18   R(14,27)                1.433          estimate D2E/DX2                !
 ! R19   R(15,16)                1.0954         estimate D2E/DX2                !
 ! R20   R(15,17)                1.0998         estimate D2E/DX2                !
 ! R21   R(15,18)                1.4044         estimate D2E/DX2                !
 ! R22   R(18,31)                1.426          estimate D2E/DX2                !
 ! R23   R(19,20)                1.0903         estimate D2E/DX2                !
 ! R24   R(19,21)                1.0967         estimate D2E/DX2                !
 ! R25   R(19,22)                1.0964         estimate D2E/DX2                !
 ! R26   R(23,24)                1.0914         estimate D2E/DX2                !
 ! R27   R(23,25)                1.0972         estimate D2E/DX2                !
 ! R28   R(23,26)                1.0946         estimate D2E/DX2                !
 ! R29   R(27,28)                1.0931         estimate D2E/DX2                !
 ! R30   R(27,29)                1.0977         estimate D2E/DX2                !
 ! R31   R(27,30)                1.0915         estimate D2E/DX2                !
 ! R32   R(31,32)                1.0987         estimate D2E/DX2                !
 ! R33   R(31,33)                1.0983         estimate D2E/DX2                !
 ! R34   R(31,34)                1.0915         estimate D2E/DX2                !
 ! A1    A(2,1,5)              109.1059         estimate D2E/DX2                !
 ! A2    A(2,1,8)              108.8615         estimate D2E/DX2                !
 ! A3    A(2,1,13)             109.8794         estimate D2E/DX2                !
 ! A4    A(5,1,8)              108.8821         estimate D2E/DX2                !
 ! A5    A(5,1,13)             108.7571         estimate D2E/DX2                !
 ! A6    A(8,1,13)             111.3201         estimate D2E/DX2                !
 ! A7    A(1,2,3)              111.2466         estimate D2E/DX2                !
 ! A8    A(1,2,7)              107.4029         estimate D2E/DX2                !
 ! A9    A(1,2,12)             111.231          estimate D2E/DX2                !
 ! A10   A(3,2,7)              107.263          estimate D2E/DX2                !
 ! A11   A(3,2,12)             107.4549         estimate D2E/DX2                !
 ! A12   A(7,2,12)             112.2096         estimate D2E/DX2                !
 ! A13   A(2,3,6)              120.249          estimate D2E/DX2                !
 ! A14   A(2,3,11)             125.4912         estimate D2E/DX2                !
 ! A15   A(6,3,11)             114.1573         estimate D2E/DX2                !
 ! A16   A(5,4,9)              109.6992         estimate D2E/DX2                !
 ! A17   A(5,4,11)             112.9945         estimate D2E/DX2                !
 ! A18   A(5,4,15)             114.3973         estimate D2E/DX2                !
 ! A19   A(9,4,11)             101.7569         estimate D2E/DX2                !
 ! A20   A(9,4,15)             111.7233         estimate D2E/DX2                !
 ! A21   A(11,4,15)            105.527          estimate D2E/DX2                !
 ! A22   A(1,5,4)              112.0606         estimate D2E/DX2                !
 ! A23   A(1,5,10)             108.8558         estimate D2E/DX2                !
 ! A24   A(1,5,14)             111.277          estimate D2E/DX2                !
 ! A25   A(4,5,10)             109.965          estimate D2E/DX2                !
 ! A26   A(4,5,14)             103.7224         estimate D2E/DX2                !
 ! A27   A(10,5,14)            110.9054         estimate D2E/DX2                !
 ! A28   A(3,11,4)             123.7402         estimate D2E/DX2                !
 ! A29   A(2,12,19)            115.1555         estimate D2E/DX2                !
 ! A30   A(1,13,23)            115.1445         estimate D2E/DX2                !
 ! A31   A(5,14,27)            115.2853         estimate D2E/DX2                !
 ! A32   A(4,15,16)            109.1462         estimate D2E/DX2                !
 ! A33   A(4,15,17)            106.6277         estimate D2E/DX2                !
 ! A34   A(4,15,18)            113.0884         estimate D2E/DX2                !
 ! A35   A(16,15,17)           108.2558         estimate D2E/DX2                !
 ! A36   A(16,15,18)           107.3174         estimate D2E/DX2                !
 ! A37   A(17,15,18)           112.2937         estimate D2E/DX2                !
 ! A38   A(15,18,31)           114.3545         estimate D2E/DX2                !
 ! A39   A(12,19,20)           105.9357         estimate D2E/DX2                !
 ! A40   A(12,19,21)           111.611          estimate D2E/DX2                !
 ! A41   A(12,19,22)           110.3927         estimate D2E/DX2                !
 ! A42   A(20,19,21)           109.3089         estimate D2E/DX2                !
 ! A43   A(20,19,22)           109.9508         estimate D2E/DX2                !
 ! A44   A(21,19,22)           109.5764         estimate D2E/DX2                !
 ! A45   A(13,23,24)           106.06           estimate D2E/DX2                !
 ! A46   A(13,23,25)           110.8216         estimate D2E/DX2                !
 ! A47   A(13,23,26)           111.2886         estimate D2E/DX2                !
 ! A48   A(24,23,25)           109.3468         estimate D2E/DX2                !
 ! A49   A(24,23,26)           109.6654         estimate D2E/DX2                !
 ! A50   A(25,23,26)           109.5864         estimate D2E/DX2                !
 ! A51   A(14,27,28)           111.1487         estimate D2E/DX2                !
 ! A52   A(14,27,29)           110.8559         estimate D2E/DX2                !
 ! A53   A(14,27,30)           105.8629         estimate D2E/DX2                !
 ! A54   A(28,27,29)           109.7009         estimate D2E/DX2                !
 ! A55   A(28,27,30)           109.9284         estimate D2E/DX2                !
 ! A56   A(29,27,30)           109.2662         estimate D2E/DX2                !
 ! A57   A(18,31,32)           112.2877         estimate D2E/DX2                !
 ! A58   A(18,31,33)           110.9942         estimate D2E/DX2                !
 ! A59   A(18,31,34)           106.4563         estimate D2E/DX2                !
 ! A60   A(32,31,33)           108.8703         estimate D2E/DX2                !
 ! A61   A(32,31,34)           108.757          estimate D2E/DX2                !
 ! A62   A(33,31,34)           109.402          estimate D2E/DX2                !
 ! D1    D(5,1,2,3)            -47.8151         estimate D2E/DX2                !
 ! D2    D(5,1,2,7)             69.2847         estimate D2E/DX2                !
 ! D3    D(5,1,2,12)          -167.5716         estimate D2E/DX2                !
 ! D4    D(8,1,2,3)             70.8873         estimate D2E/DX2                !
 ! D5    D(8,1,2,7)           -172.0129         estimate D2E/DX2                !
 ! D6    D(8,1,2,12)           -48.8692         estimate D2E/DX2                !
 ! D7    D(13,1,2,3)          -166.9664         estimate D2E/DX2                !
 ! D8    D(13,1,2,7)           -49.8667         estimate D2E/DX2                !
 ! D9    D(13,1,2,12)           73.2771         estimate D2E/DX2                !
 ! D10   D(2,1,5,4)             57.2246         estimate D2E/DX2                !
 ! D11   D(2,1,5,10)           -64.6265         estimate D2E/DX2                !
 ! D12   D(2,1,5,14)           172.8507         estimate D2E/DX2                !
 ! D13   D(8,1,5,4)            -61.4649         estimate D2E/DX2                !
 ! D14   D(8,1,5,10)           176.684          estimate D2E/DX2                !
 ! D15   D(8,1,5,14)            54.1612         estimate D2E/DX2                !
 ! D16   D(13,1,5,4)           177.0713         estimate D2E/DX2                !
 ! D17   D(13,1,5,10)           55.2203         estimate D2E/DX2                !
 ! D18   D(13,1,5,14)          -67.3026         estimate D2E/DX2                !
 ! D19   D(2,1,13,23)          -99.6221         estimate D2E/DX2                !
 ! D20   D(5,1,13,23)          141.013          estimate D2E/DX2                !
 ! D21   D(8,1,13,23)           21.0513         estimate D2E/DX2                !
 ! D22   D(1,2,3,6)           -155.901          estimate D2E/DX2                !
 ! D23   D(1,2,3,11)            20.1949         estimate D2E/DX2                !
 ! D24   D(7,2,3,6)             86.9141         estimate D2E/DX2                !
 ! D25   D(7,2,3,11)           -96.99           estimate D2E/DX2                !
 ! D26   D(12,2,3,6)           -33.9261         estimate D2E/DX2                !
 ! D27   D(12,2,3,11)          142.1698         estimate D2E/DX2                !
 ! D28   D(1,2,12,19)         -137.1053         estimate D2E/DX2                !
 ! D29   D(3,2,12,19)          100.9101         estimate D2E/DX2                !
 ! D30   D(7,2,12,19)          -16.7607         estimate D2E/DX2                !
 ! D31   D(2,3,11,4)             1.1115         estimate D2E/DX2                !
 ! D32   D(6,3,11,4)           177.4155         estimate D2E/DX2                !
 ! D33   D(9,4,5,1)             75.8628         estimate D2E/DX2                !
 ! D34   D(9,4,5,10)          -162.9231         estimate D2E/DX2                !
 ! D35   D(9,4,5,14)           -44.27           estimate D2E/DX2                !
 ! D36   D(11,4,5,1)           -36.9079         estimate D2E/DX2                !
 ! D37   D(11,4,5,10)           84.3062         estimate D2E/DX2                !
 ! D38   D(11,4,5,14)         -157.0407         estimate D2E/DX2                !
 ! D39   D(15,4,5,1)          -157.6907         estimate D2E/DX2                !
 ! D40   D(15,4,5,10)          -36.4766         estimate D2E/DX2                !
 ! D41   D(15,4,5,14)           82.1764         estimate D2E/DX2                !
 ! D42   D(5,4,11,3)             7.2925         estimate D2E/DX2                !
 ! D43   D(9,4,11,3)          -110.246          estimate D2E/DX2                !
 ! D44   D(15,4,11,3)          132.9975         estimate D2E/DX2                !
 ! D45   D(5,4,15,16)           67.4408         estimate D2E/DX2                !
 ! D46   D(5,4,15,17)          -49.2873         estimate D2E/DX2                !
 ! D47   D(5,4,15,18)         -173.1836         estimate D2E/DX2                !
 ! D48   D(9,4,15,16)         -167.1694         estimate D2E/DX2                !
 ! D49   D(9,4,15,17)           76.1025         estimate D2E/DX2                !
 ! D50   D(9,4,15,18)          -47.7938         estimate D2E/DX2                !
 ! D51   D(11,4,15,16)         -57.3937         estimate D2E/DX2                !
 ! D52   D(11,4,15,17)        -174.1218         estimate D2E/DX2                !
 ! D53   D(11,4,15,18)          61.9819         estimate D2E/DX2                !
 ! D54   D(1,5,14,27)           98.5383         estimate D2E/DX2                !
 ! D55   D(4,5,14,27)         -140.7981         estimate D2E/DX2                !
 ! D56   D(10,5,14,27)         -22.7951         estimate D2E/DX2                !
 ! D57   D(2,12,19,20)         176.4177         estimate D2E/DX2                !
 ! D58   D(2,12,19,21)         -64.7014         estimate D2E/DX2                !
 ! D59   D(2,12,19,22)          57.4234         estimate D2E/DX2                !
 ! D60   D(1,13,23,24)        -179.4195         estimate D2E/DX2                !
 ! D61   D(1,13,23,25)         -60.8447         estimate D2E/DX2                !
 ! D62   D(1,13,23,26)          61.3704         estimate D2E/DX2                !
 ! D63   D(5,14,27,28)         -61.4381         estimate D2E/DX2                !
 ! D64   D(5,14,27,29)          60.8501         estimate D2E/DX2                !
 ! D65   D(5,14,27,30)         179.2309         estimate D2E/DX2                !
 ! D66   D(4,15,18,31)          84.0252         estimate D2E/DX2                !
 ! D67   D(16,15,18,31)       -155.5514         estimate D2E/DX2                !
 ! D68   D(17,15,18,31)        -36.7039         estimate D2E/DX2                !
 ! D69   D(15,18,31,32)        -64.0123         estimate D2E/DX2                !
 ! D70   D(15,18,31,33)         58.107          estimate D2E/DX2                !
 ! D71   D(15,18,31,34)        177.0778         estimate D2E/DX2                !
 --------------------------------------------------------------------------------
 Trust Radius=3.00D-01 FncErr=1.00D-07 GrdErr=1.00D-06 EigMax=2.50D+02 EigMin=1.00D-04
 Number of steps in this run=    177 maximum allowed number of steps=    204.
 GradGradGradGradGradGradGradGradGradGradGradGradGradGradGradGradGradGrad

 Leave Link  103 at Fri May 24 08:32:00 2019, MaxMem=   402653184 cpu:               0.3 elap:               0.3
 (Enter /n/sw/g16_nehalem/g16/l202.exe)
                          Input orientation:                          
 ---------------------------------------------------------------------
 Center     Atomic      Atomic             Coordinates (Angstroms)
 Number     Number       Type             X           Y           Z
 ---------------------------------------------------------------------
      1          6           0       -1.101911    0.458751   -0.252022
      2          6           0       -1.510728   -0.947125    0.246683
      3          6           0       -0.417122   -1.941232    0.021031
      4          6           0        1.343037   -0.256171   -0.150581
      5          6           0        0.303094    0.791264    0.276351
      6          1           0       -0.648952   -3.004348   -0.060914
      7          1           0       -1.670227   -0.877291    1.337089
      8          1           0       -1.076467    0.452493   -1.349599
      9          1           0        1.600612   -0.111826   -1.201014
     10          1           0        0.264057    0.856192    1.373896
     11          8           0        0.793799   -1.664202   -0.158848
     12          8           0       -2.651198   -1.414687   -0.428085
     13          8           0       -2.005061    1.418321    0.232133
     14          8           0        0.789108    1.992406   -0.282083
     15          6           0        2.587628   -0.307663    0.735175
     16          1           0        2.307405   -0.677637    1.727350
     17          1           0        2.941599    0.728169    0.841064
     18          8           0        3.583731   -1.162679    0.236170
     19          6           0       -3.632473   -2.054420    0.402540
     20          1           0       -4.468875   -2.295790   -0.253930
     21          1           0       -3.243766   -2.977609    0.849011
     22          1           0       -3.963768   -1.373899    1.195761
     23          6           0       -3.011131    1.832231   -0.699936
     24          1           0       -3.616373    2.576852   -0.180018
     25          1           0       -2.556091    2.289160   -1.587626
     26          1           0       -3.642352    0.990893   -1.003033
     27          6           0        0.642800    3.154444    0.543566
     28          1           0       -0.410228    3.358587    0.754129
     29          1           0        1.192401    3.035736    1.486268
     30          1           0        1.075552    3.980162   -0.024090
     31          6           0        4.434403   -0.567136   -0.741214
     32          1           0        3.888999   -0.286218   -1.652734
     33          1           0        4.934214    0.323692   -0.337536
     34          1           0        5.183645   -1.318241   -0.997922
 ---------------------------------------------------------------------
                    Distance matrix (angstroms):
                    1          2          3          4          5
     1  C    0.000000
     2  C    1.546714   0.000000
     3  C    2.510660   1.495039   0.000000
     4  C    2.549348   2.962973   2.442753   0.000000
     5  C    1.537460   2.512534   2.837329   1.536513   0.000000
     6  H    3.497821   2.251542   1.091181   3.395370   3.927698
     7  H    2.152502   1.104220   2.105766   3.417413   2.793427
     8  H    1.097890   2.166940   2.836068   2.791746   2.159090
     9  H    2.920578   3.531853   2.985192   1.091142   2.163731
    10  H    2.160425   2.769914   3.181168   2.173840   1.100157
    11  O    2.847688   2.447345   1.255162   1.511384   2.541555
    12  O    2.437429   1.405204   2.338814   4.168103   3.753704
    13  O    1.403873   2.416591   3.721923   3.762998   2.392224
    14  O    2.434944   3.769573   4.125576   2.319532   1.410957
    15  C    3.895465   4.176608   3.493862   1.528470   2.576287
    16  H    4.102771   4.104039   3.454163   2.152734   2.877556
    17  H    4.197308   4.794071   4.367970   2.123131   2.698998
    18  O    4.982229   5.099028   4.081575   2.447865   3.818650
    19  C    3.626048   2.398374   3.239883   5.319337   4.858243
    20  H    4.350166   3.289399   4.076520   6.160280   5.708134
    21  H    4.196235   2.736619   3.122426   5.426248   5.206972
    22  H    3.693901   2.664637   3.778962   5.587856   4.872305
    23  C    2.394200   3.297289   4.635483   4.860246   3.608440
    24  H    3.288473   4.127254   5.539739   5.711623   4.331145
    25  H    2.692373   3.864067   5.005915   4.873090   3.727337
    26  H    2.702042   3.140306   4.477519   5.209217   4.152496
    27  C    3.308132   4.642057   5.230907   3.550277   2.402379
    28  H    3.146397   4.473003   5.350286   4.118120   2.707074
    29  H    3.863466   4.970579   5.432099   3.679486   2.700448
    30  H    4.146521   5.571384   6.106801   4.246653   3.294848
    31  C    5.651772   6.038619   5.099652   3.162608   4.466364
    32  H    5.236999   5.762086   4.907468   2.956229   4.212013
    33  H    6.038241   6.594965   5.821963   3.642492   4.694971
    34  H    6.574365   6.819193   5.726690   4.073849   5.467500
                    6          7          8          9         10
     6  H    0.000000
     7  H    2.742588   0.000000
     8  H    3.713924   3.056005   0.000000
     9  H    3.837584   4.210260   2.739943   0.000000
    10  H    4.218535   2.597648   3.062254   3.058366   0.000000
    11  O    1.971576   2.988056   3.065319   2.036401   2.997051
    12  O    2.582794   2.089722   2.610618   4.513619   4.111294
    13  O    4.635182   2.569606   2.072917   4.170868   2.601636
    14  O    5.204275   4.111594   2.644105   2.435316   2.075796
    15  C    4.287344   4.337754   4.283656   2.182059   2.676099
    16  H    4.165515   4.001715   4.711199   3.065129   2.579308
    17  H    5.257119   4.908409   4.584742   2.583393   2.733044
    18  O    4.625539   5.375644   5.180819   2.665061   4.048518
    19  C    3.165209   2.471725   3.985947   5.807774   4.959651
    20  H    3.889874   3.517941   4.501331   6.519612   5.914850
    21  H    2.749861   2.669378   4.614832   5.990268   5.222869
    22  H    3.902000   2.350941   4.260408   6.188674   4.783256
    23  C    5.420400   3.645409   2.463466   5.029772   3.997535
    24  H    6.322149   4.245021   3.511687   5.957210   4.520294
    25  H    5.830031   4.400582   2.370504   4.815847   4.333272
    26  H    5.080353   3.585465   2.644570   5.361330   4.574710
    27  C    6.321767   4.715364   3.720281   3.824851   2.472824
    28  H    6.419363   4.457589   3.648963   4.462043   2.664724
    29  H    6.501305   4.850636   4.456798   4.158758   2.371679
    30  H    7.194348   5.743428   4.339655   4.290129   3.517396
    31  C    5.678319   6.456163   5.637328   2.906733   4.887877
    32  H    5.524049   6.339827   5.029258   2.339055   4.858579
    33  H    6.505698   6.918480   6.096650   3.471048   5.002292
    34  H    6.143299   7.254121   6.515227   3.786134   5.878437
                   11         12         13         14         15
    11  O    0.000000
    12  O    3.464499   0.000000
    13  O    4.181917   2.979818   0.000000
    14  O    3.658687   4.844100   2.898512   0.000000
    15  C    2.420185   5.479414   4.932024   3.091894   0.000000
    16  H    2.611907   5.456820   5.022557   3.670446   1.095362
    17  H    3.366943   6.122250   5.031556   2.737329   1.099753
    18  O    2.862042   6.275275   6.155987   4.246536   1.404379
    19  C    4.478762   1.436000   3.838937   6.032900   6.469271
    20  H    5.301291   2.027467   4.483443   6.784969   7.397649
    21  H    4.363800   2.103529   4.608593   6.499577   6.414571
    22  H    4.955168   2.088392   3.544235   6.008815   6.653555
    23  C    5.195701   3.278099   1.432568   3.826496   6.163180
    24  H    6.118546   4.114059   2.026916   4.445251   6.902727
    25  H    5.375150   3.882276   2.091296   3.603174   6.212627
    26  H    5.238474   2.664539   2.095006   4.600069   6.596989
    27  C    4.871913   5.715898   3.181553   1.432981   3.975582
    28  H    5.245152   5.404047   2.565269   2.092509   4.735915
    29  H    4.995469   6.184195   3.796399   2.092426   3.699881
    30  H    5.652998   6.569343   4.014830   2.024792   4.609588
    31  C    3.846648   7.142978   6.808534   4.477749   2.378577
    32  H    3.702810   6.748880   6.418576   4.084132   2.719584
    33  H    4.596378   7.782585   7.048140   4.468734   2.656273
    34  H    4.482687   7.856130   7.789692   5.548402   3.280884
                   16         17         18         19         20
    16  H    0.000000
    17  H    1.778762   0.000000
    18  O    2.021854   2.086513   0.000000
    19  C    6.239616   7.152169   7.272997   0.000000
    20  H    7.243056   8.078271   8.146693   1.090312   0.000000
    21  H    6.072631   7.210520   7.091140   1.096680   1.783886
    22  H    6.332060   7.226935   7.611187   1.096387   1.790704
    23  C    6.362231   6.247290   7.303286   4.087490   4.400511
    24  H    7.022884   6.889647   8.123965   4.667795   4.947208
    25  H    6.591248   6.209656   7.275908   4.897555   5.143856
    26  H    6.755634   6.842377   7.641320   3.354052   3.470818
    27  C    4.342476   3.355561   5.232697   6.740186   7.514670
    28  H    4.962237   4.261620   6.054902   6.309289   7.032836
    29  H    3.884648   2.966622   4.990781   7.096729   7.968909
    30  H    5.126412   3.847867   5.727784   7.665748   8.377414
    31  C    3.260389   2.531775   1.426041   8.282190   9.082623
    32  H    3.752281   2.854046   2.104598   7.995200   8.709138
    33  H    3.488057   2.350152   2.088598   8.921393   9.761494
    34  H    4.013756   3.549145   2.026551   8.956963   9.730379
                   21         22         23         24         25
    21  H    0.000000
    22  H    1.791794   0.000000
    23  C    5.058450   3.844536   0.000000
    24  H    5.661252   4.197843   1.091372   0.000000
    25  H    5.843711   4.811112   1.097196   1.785588   0.000000
    26  H    4.397493   3.245034   1.094604   1.786979   1.790868
    27  C    7.266414   6.492435   4.079921   4.358640   3.940000
    28  H    6.941565   5.934569   3.347949   3.429738   3.351450
    29  H    7.499733   6.790829   4.888516   5.109931   4.904834
    30  H    8.235860   7.453103   4.665978   4.899771   4.300345
    31  C    8.203260   8.656328   7.822700   8.661097   7.598806
    32  H    8.023631   8.423949   7.280621   8.166803   6.940893
    33  H    8.898643   9.187323   8.095402   8.843872   7.844135
    34  H    8.785552   9.406939   8.784567   9.658211   8.559475
                   26         27         28         29         30
    26  H    0.000000
    27  C    5.043357   0.000000
    28  H    4.374954   1.093105   0.000000
    29  H    5.809719   1.097652   1.791279   0.000000
    30  H    5.670333   1.091475   1.788721   1.785154   0.000000
    31  C    8.229822   5.465992   6.412316   5.334130   5.698602
    32  H    7.666445   5.215333   6.128699   5.306633   5.363764
    33  H    8.628182   5.215911   6.242226   4.968159   5.325157
    34  H    9.123067   6.557467   7.498921   6.407679   6.774795
                   31         32         33         34
    31  C    0.000000
    32  H    1.098749   0.000000
    33  H    1.098336   1.787235   0.000000
    34  H    1.091522   1.780438   1.787252   0.000000
 Stoichiometry    C10H19O5(1+)
 Framework group  C1[X(C10H19O5)]
 Deg. of freedom    96
 Full point group                 C1      NOp   1
 Largest Abelian subgroup         C1      NOp   1
 Largest concise Abelian subgroup C1      NOp   1
                         Standard orientation:                         
 ---------------------------------------------------------------------
 Center     Atomic      Atomic             Coordinates (Angstroms)
 Number     Number       Type             X           Y           Z
 ---------------------------------------------------------------------
      1          6           0       -1.101911    0.458751   -0.252022
      2          6           0       -1.510728   -0.947125    0.246683
      3          6           0       -0.417122   -1.941232    0.021031
      4          6           0        1.343037   -0.256171   -0.150581
      5          6           0        0.303094    0.791264    0.276351
      6          1           0       -0.648952   -3.004348   -0.060914
      7          1           0       -1.670227   -0.877291    1.337089
      8          1           0       -1.076467    0.452493   -1.349599
      9          1           0        1.600612   -0.111826   -1.201014
     10          1           0        0.264057    0.856192    1.373896
     11          8           0        0.793799   -1.664202   -0.158848
     12          8           0       -2.651198   -1.414687   -0.428085
     13          8           0       -2.005061    1.418321    0.232133
     14          8           0        0.789108    1.992406   -0.282083
     15          6           0        2.587628   -0.307663    0.735175
     16          1           0        2.307405   -0.677637    1.727350
     17          1           0        2.941599    0.728169    0.841064
     18          8           0        3.583731   -1.162679    0.236170
     19          6           0       -3.632473   -2.054420    0.402540
     20          1           0       -4.468875   -2.295790   -0.253930
     21          1           0       -3.243766   -2.977609    0.849011
     22          1           0       -3.963768   -1.373899    1.195761
     23          6           0       -3.011131    1.832231   -0.699936
     24          1           0       -3.616373    2.576852   -0.180018
     25          1           0       -2.556091    2.289160   -1.587626
     26          1           0       -3.642352    0.990893   -1.003033
     27          6           0        0.642800    3.154444    0.543566
     28          1           0       -0.410228    3.358587    0.754129
     29          1           0        1.192401    3.035736    1.486268
     30          1           0        1.075552    3.980162   -0.024090
     31          6           0        4.434403   -0.567136   -0.741214
     32          1           0        3.888999   -0.286218   -1.652734
     33          1           0        4.934214    0.323692   -0.337536
     34          1           0        5.183645   -1.318241   -0.997922
 ---------------------------------------------------------------------
 Rotational constants (GHZ):           0.8262888           0.3933796           0.2834440
 Leave Link  202 at Fri May 24 08:32:01 2019, MaxMem=   402653184 cpu:               0.7 elap:               0.3
 (Enter /n/sw/g16_nehalem/g16/l301.exe)
 Standard basis: 6-31G(d) (6D, 7F)
 Ernie: Thresh=  0.10000D-02 Tol=  0.10000D-05 Strict=F.
 There are   263 symmetry adapted cartesian basis functions of A   symmetry.
 There are   263 symmetry adapted basis functions of A   symmetry.
   263 basis functions,   496 primitive gaussians,   263 cartesian basis functions
    59 alpha electrons       59 beta electrons
       nuclear repulsion energy      1138.5576820877 Hartrees.
 IExCor=  402 DFT=T Ex+Corr=B3LYP ExCW=0 ScaHFX=  0.200000
 ScaDFX=  0.800000  0.720000  1.000000  0.810000 ScalE2=  1.000000  1.000000
 IRadAn=      5 IRanWt=     -1 IRanGd=            0 ICorTp=0 IEmpDi=  4
 NAtoms=   34 NActive=   34 NUniq=   34 SFac= 1.00D+00 NAtFMM=   60 NAOKFM=F Big=F
 Integral buffers will be    131072 words long.
 Raffenetti 2 integral format.
 Two-electron integral symmetry is turned on.
 ------------------------------------------------------------------------------
 Polarizable Continuum Model (PCM)
 =================================
 Model                : PCM.
 Atomic radii         : UFF (Universal Force Field).
 Polarization charges : Total charges.
 Charge compensation  : None.
 Solution method      : On-the-fly selection.
 Cavity type          : Scaled VdW (van der Waals Surface) (Alpha=1.100).
 Cavity algorithm     : GePol (No added spheres)
                        Default sphere list used, NSphG=   34.
                        Lebedev-Laikov grids with approx.  5.0 points / Ang**2.
                        Smoothing algorithm: York/Karplus (Gamma=1.0000).
                        Polarization charges: spherical gaussians, with
                                              point-specific exponents (IZeta= 3).
                        Self-potential: point-specific (ISelfS= 7).
                        Self-field    : sphere-specific E.n sum rule (ISelfD= 2).
 1st derivatives      : Analytical E(r).r(x)/FMM algorithm (CHGder, D1EAlg=3).
                        Cavity 1st derivative terms included.
 Solvent              : TetraHydroFuran, Eps=   7.425700 Eps(inf)=   1.974025
 ------------------------------------------------------------------------------
 GePol: Number of generator spheres                  =      34
 GePol: Total number of spheres                      =      34
 GePol: Number of exposed spheres                    =      34 (100.00%)
 GePol: Number of points                             =    2350
 GePol: Average weight of points                     =       0.13
 GePol: Minimum weight of points                     =   0.41D-11
 GePol: Maximum weight of points                     =    0.20577
 GePol: Number of points with low weight             =     152
 GePol: Fraction of low-weight points (<1% of avg)   =       6.47%
 GePol: Cavity surface area                          =    311.568 Ang**2
 GePol: Cavity volume                                =    324.858 Ang**3
 Leave Link  301 at Fri May 24 08:32:02 2019, MaxMem=   402653184 cpu:               0.6 elap:               0.6
 (Enter /n/sw/g16_nehalem/g16/l302.exe)
 NPDir=0 NMtPBC=     1 NCelOv=     1 NCel=       1 NClECP=     1 NCelD=      1
         NCelK=      1 NCelE2=     1 NClLst=     1 CellRange=     0.0.
 One-electron integrals computed using PRISM.
 One-electron integral symmetry used in STVInt
 NBasis=   263 RedAO= T EigKep=  1.54D-03  NBF=   263
 NBsUse=   263 1.00D-06 EigRej= -1.00D+00 NBFU=   263
 Precomputing XC quadrature grid using
 IXCGrd= 4 IRadAn=           5 IRanWt=          -1 IRanGd=           0 AccXCQ= 0.00D+00.
 Generated NRdTot=       0 NPtTot=           0 NUsed=           0 NTot=          32
 NSgBfM=   261   261   261   261   261 MxSgAt=    34 MxSgA2=    34.
 Leave Link  302 at Fri May 24 08:32:12 2019, MaxMem=   402653184 cpu:              19.8 elap:              10.3
 (Enter /n/sw/g16_nehalem/g16/l303.exe)
 DipDrv:  MaxL=1.
 Leave Link  303 at Fri May 24 08:32:13 2019, MaxMem=   402653184 cpu:               1.1 elap:               0.8
 (Enter /n/sw/g16_nehalem/g16/l401.exe)
 ExpMin= 1.61D-01 ExpMax= 5.48D+03 ExpMxC= 8.25D+02 IAcc=3 IRadAn=         5 AccDes= 0.00D+00
 Harris functional with IExCor=  402 and IRadAn=       5 diagonalized for initial guess.
 HarFok:  IExCor=  402 AccDes= 0.00D+00 IRadAn=         5 IDoV= 1 UseB2=F ITyADJ=14
 ICtDFT=  3500011 ScaDFX=  1.000000  1.000000  1.000000  1.000000
 FoFCou: FMM=F IPFlag=           0 FMFlag=      100000 FMFlg1=           0
         NFxFlg=           0 DoJE=T BraDBF=F KetDBF=T FulRan=T
         wScrn=  0.000000 ICntrl=       500 IOpCl=  0 I1Cent=   200000004 NGrid=           0
         NMat0=    1 NMatS0=      1 NMatT0=    0 NMatD0=    1 NMtDS0=    0 NMtDT0=    0
 Petite list used in FoFCou.
 Harris En= -768.264894982622    
 JPrj=0 DoOrth=F DoCkMO=F.
 Leave Link  401 at Fri May 24 08:32:32 2019, MaxMem=   402653184 cpu:              47.1 elap:              19.1
 (Enter /n/sw/g16_nehalem/g16/l502.exe)
 Integral symmetry usage will be decided dynamically.
 Closed shell SCF:
 Using DIIS extrapolation, IDIIS=  1040.
 NGot=   402653184 LenX=   402510103 LenY=   402440493
 Requested convergence on RMS density matrix=1.00D-08 within 128 cycles.
 Requested convergence on MAX density matrix=1.00D-06.
 Requested convergence on             energy=1.00D-06.
 No special actions if energy rises.
 Fock matrices will be formed incrementally for  20 cycles.

 Cycle   1  Pass 1  IDiag  1:
 FoFJK:  IHMeth= 1 ICntrl=       0 DoSepK=F KAlg= 0 I1Cent=           0 FoldK=F
 IRaf= 860000000 NMat=       1 IRICut=       1 DoRegI=T DoRafI=F ISym2E= 0 IDoP0=0 IntGTp=1.
 FoFCou: FMM=F IPFlag=           0 FMFlag=      100000 FMFlg1=           0
         NFxFlg=           0 DoJE=F BraDBF=F KetDBF=F FulRan=T
         wScrn=  0.000000 ICntrl=         0 IOpCl=  0 I1Cent=           0 NGrid=           0
         NMat0=    1 NMatS0=      1 NMatT0=    0 NMatD0=    1 NMtDS0=    0 NMtDT0=    0
 Symmetry not used in FoFCou.
 Inv3:  Mode=1 IEnd=    16567500.
 Iteration    1 A*A^-1 deviation from unit magnitude is 1.24D-14 for   2348.
 Iteration    1 A*A^-1 deviation from orthogonality  is 3.02D-15 for   1842   1634.
 Iteration    1 A^-1*A deviation from unit magnitude is 1.24D-14 for   2348.
 Iteration    1 A^-1*A deviation from orthogonality  is 1.55D-15 for   1819   1126.
 E= -768.090279758869    
 DIIS: error= 2.07D-02 at cycle   1 NSaved=   1.
 NSaved= 1 IEnMin= 1 EnMin= -768.090279758869     IErMin= 1 ErrMin= 2.07D-02
 ErrMax= 2.07D-02  0.00D+00 EMaxC= 1.00D-01 BMatC= 2.55D-01 BMatP= 2.55D-01
 IDIUse=3 WtCom= 7.93D-01 WtEn= 2.07D-01
 Coeff-Com:  0.100D+01
 Coeff-En:   0.100D+01
 Coeff:      0.100D+01
 Gap=     0.011 Goal=   None    Shift=    0.000
 GapD=    0.011 DampG=0.250 DampE=0.500 DampFc=0.2500 IDamp=-1.
 Damping current iteration by 2.50D-01
 RMSDP=4.90D-03 MaxDP=1.43D-01              OVMax= 3.46D-01

 Cycle   2  Pass 1  IDiag  1:
 RMSU=  1.22D-03    CP:  9.95D-01
 E= -768.164915570896     Delta-E=       -0.074635812027 Rises=F Damp=T
 DIIS: error= 1.02D-02 at cycle   2 NSaved=   2.
 NSaved= 2 IEnMin= 2 EnMin= -768.164915570896     IErMin= 2 ErrMin= 1.02D-02
 ErrMax= 1.02D-02  0.00D+00 EMaxC= 1.00D-01 BMatC= 6.84D-02 BMatP= 2.55D-01
 IDIUse=3 WtCom= 8.98D-01 WtEn= 1.02D-01
 Coeff-Com: -0.682D+00 0.168D+01
 Coeff-En:   0.000D+00 0.100D+01
 Coeff:     -0.613D+00 0.161D+01
 Gap=     0.114 Goal=   None    Shift=    0.000
 RMSDP=1.42D-03 MaxDP=4.12D-02 DE=-7.46D-02 OVMax= 4.56D-01

 Cycle   3  Pass 1  IDiag  1:
 RMSU=  1.39D-03    CP:  9.86D-01  1.17D+00
 E= -768.294329470358     Delta-E=       -0.129413899461 Rises=F Damp=F
 DIIS: error= 5.91D-03 at cycle   3 NSaved=   3.
 NSaved= 3 IEnMin= 3 EnMin= -768.294329470358     IErMin= 3 ErrMin= 5.91D-03
 ErrMax= 5.91D-03  0.00D+00 EMaxC= 1.00D-01 BMatC= 4.20D-02 BMatP= 6.84D-02
 IDIUse=3 WtCom= 9.41D-01 WtEn= 5.91D-02
 Coeff-Com: -0.502D+00 0.101D+01 0.489D+00
 Coeff-En:   0.000D+00 0.000D+00 0.100D+01
 Coeff:     -0.473D+00 0.954D+00 0.519D+00
 Gap=     0.140 Goal=   None    Shift=    0.000
 RMSDP=8.24D-04 MaxDP=2.64D-02 DE=-1.29D-01 OVMax= 3.88D-02

 Cycle   4  Pass 1  IDiag  1:
 RMSU=  6.03D-04    CP:  9.90D-01  1.39D+00  6.53D-01
 E= -768.328510673686     Delta-E=       -0.034181203328 Rises=F Damp=F
 DIIS: error= 2.08D-03 at cycle   4 NSaved=   4.
 NSaved= 4 IEnMin= 4 EnMin= -768.328510673686     IErMin= 4 ErrMin= 2.08D-03
 ErrMax= 2.08D-03  0.00D+00 EMaxC= 1.00D-01 BMatC= 3.00D-03 BMatP= 4.20D-02
 IDIUse=3 WtCom= 9.79D-01 WtEn= 2.08D-02
 Coeff-Com: -0.220D+00 0.371D+00 0.218D+00 0.631D+00
 Coeff-En:   0.000D+00 0.000D+00 0.000D+00 0.100D+01
 Coeff:     -0.215D+00 0.363D+00 0.213D+00 0.639D+00
 Gap=     0.127 Goal=   None    Shift=    0.000
 RMSDP=2.18D-04 MaxDP=1.29D-02 DE=-3.42D-02 OVMax= 1.12D-02

 Cycle   5  Pass 1  IDiag  1:
 RMSU=  1.92D-04    CP:  9.89D-01  1.43D+00  7.06D-01  9.04D-01
 E= -768.330495443023     Delta-E=       -0.001984769337 Rises=F Damp=F
 DIIS: error= 1.39D-03 at cycle   5 NSaved=   5.
 NSaved= 5 IEnMin= 5 EnMin= -768.330495443023     IErMin= 5 ErrMin= 1.39D-03
 ErrMax= 1.39D-03  0.00D+00 EMaxC= 1.00D-01 BMatC= 9.30D-04 BMatP= 3.00D-03
 IDIUse=3 WtCom= 9.86D-01 WtEn= 1.39D-02
 Coeff-Com: -0.953D-01 0.142D+00 0.514D-01 0.371D+00 0.530D+00
 Coeff-En:   0.000D+00 0.000D+00 0.000D+00 0.150D+00 0.850D+00
 Coeff:     -0.940D-01 0.140D+00 0.506D-01 0.368D+00 0.535D+00
 Gap=     0.128 Goal=   None    Shift=    0.000
 RMSDP=9.91D-05 MaxDP=6.94D-03 DE=-1.98D-03 OVMax= 5.24D-03

 Cycle   6  Pass 1  IDiag  1:
 RMSU=  7.06D-05    CP:  9.89D-01  1.44D+00  7.06D-01  9.76D-01  7.36D-01
 E= -768.331110715852     Delta-E=       -0.000615272829 Rises=F Damp=F
 DIIS: error= 4.56D-04 at cycle   6 NSaved=   6.
 NSaved= 6 IEnMin= 6 EnMin= -768.331110715852     IErMin= 6 ErrMin= 4.56D-04
 ErrMax= 4.56D-04  0.00D+00 EMaxC= 1.00D-01 BMatC= 1.25D-04 BMatP= 9.30D-04
 IDIUse=3 WtCom= 9.95D-01 WtEn= 4.56D-03
 Coeff-Com: -0.352D-01 0.457D-01-0.652D-02 0.142D+00 0.329D+00 0.525D+00
 Coeff-En:   0.000D+00 0.000D+00 0.000D+00 0.000D+00 0.000D+00 0.100D+01
 Coeff:     -0.350D-01 0.455D-01-0.649D-02 0.141D+00 0.328D+00 0.527D+00
 Gap=     0.128 Goal=   None    Shift=    0.000
 RMSDP=3.61D-05 MaxDP=2.44D-03 DE=-6.15D-04 OVMax= 2.44D-03

 Cycle   7  Pass 1  IDiag  1:
 RMSU=  2.67D-05    CP:  9.89D-01  1.44D+00  7.05D-01  1.00D+00  8.10D-01
                    CP:  8.48D-01
 E= -768.331204056205     Delta-E=       -0.000093340353 Rises=F Damp=F
 DIIS: error= 1.32D-04 at cycle   7 NSaved=   7.
 NSaved= 7 IEnMin= 7 EnMin= -768.331204056205     IErMin= 7 ErrMin= 1.32D-04
 ErrMax= 1.32D-04  0.00D+00 EMaxC= 1.00D-01 BMatC= 1.09D-05 BMatP= 1.25D-04
 IDIUse=3 WtCom= 9.99D-01 WtEn= 1.32D-03
 Coeff-Com: -0.702D-02 0.666D-02-0.154D-01 0.215D-01 0.105D+00 0.275D+00
 Coeff-Com:  0.615D+00
 Coeff-En:   0.000D+00 0.000D+00 0.000D+00 0.000D+00 0.000D+00 0.000D+00
 Coeff-En:   0.100D+01
 Coeff:     -0.701D-02 0.665D-02-0.154D-01 0.215D-01 0.105D+00 0.274D+00
 Coeff:      0.615D+00
 Gap=     0.128 Goal=   None    Shift=    0.000
 RMSDP=1.50D-05 MaxDP=6.47D-04 DE=-9.33D-05 OVMax= 1.11D-03

 Cycle   8  Pass 1  IDiag  1:
 RMSU=  7.93D-06    CP:  9.89D-01  1.45D+00  7.04D-01  1.02D+00  8.41D-01
                    CP:  9.19D-01  8.48D-01
 E= -768.331214565964     Delta-E=       -0.000010509759 Rises=F Damp=F
 DIIS: error= 2.85D-05 at cycle   8 NSaved=   8.
 NSaved= 8 IEnMin= 8 EnMin= -768.331214565964     IErMin= 8 ErrMin= 2.85D-05
 ErrMax= 2.85D-05  0.00D+00 EMaxC= 1.00D-01 BMatC= 6.23D-07 BMatP= 1.09D-05
 IDIUse=1 WtCom= 1.00D+00 WtEn= 0.00D+00
 Coeff-Com:  0.142D-03-0.722D-03-0.514D-02-0.797D-02-0.230D-03 0.324D-01
 Coeff-Com:  0.218D+00 0.764D+00
 Coeff:      0.142D-03-0.722D-03-0.514D-02-0.797D-02-0.230D-03 0.324D-01
 Coeff:      0.218D+00 0.764D+00
 Gap=     0.128 Goal=   None    Shift=    0.000
 RMSDP=5.42D-06 MaxDP=1.22D-04 DE=-1.05D-05 OVMax= 7.12D-04

 Cycle   9  Pass 1  IDiag  1:
 RMSU=  2.81D-06    CP:  9.89D-01  1.45D+00  7.05D-01  1.02D+00  8.50D-01
                    CP:  9.48D-01  9.33D-01  1.03D+00
 E= -768.331215189767     Delta-E=       -0.000000623803 Rises=F Damp=F
 DIIS: error= 1.41D-05 at cycle   9 NSaved=   9.
 NSaved= 9 IEnMin= 9 EnMin= -768.331215189767     IErMin= 9 ErrMin= 1.41D-05
 ErrMax= 1.41D-05  0.00D+00 EMaxC= 1.00D-01 BMatC= 1.35D-07 BMatP= 6.23D-07
 IDIUse=1 WtCom= 1.00D+00 WtEn= 0.00D+00
 Coeff-Com:  0.473D-03-0.638D-03-0.139D-02-0.597D-02-0.984D-02-0.783D-02
 Coeff-Com:  0.600D-01 0.433D+00 0.532D+00
 Coeff:      0.473D-03-0.638D-03-0.139D-02-0.597D-02-0.984D-02-0.783D-02
 Coeff:      0.600D-01 0.433D+00 0.532D+00
 Gap=     0.128 Goal=   None    Shift=    0.000
 RMSDP=1.64D-06 MaxDP=5.85D-05 DE=-6.24D-07 OVMax= 1.91D-04

 Cycle  10  Pass 1  IDiag  1:
 RMSU=  9.30D-07    CP:  9.89D-01  1.44D+00  7.05D-01  1.02D+00  8.52D-01
                    CP:  9.56D-01  9.54D-01  1.09D+00  7.65D-01
 E= -768.331215308974     Delta-E=       -0.000000119207 Rises=F Damp=F
 DIIS: error= 2.18D-06 at cycle  10 NSaved=  10.
 NSaved=10 IEnMin=10 EnMin= -768.331215308974     IErMin=10 ErrMin= 2.18D-06
 ErrMax= 2.18D-06  0.00D+00 EMaxC= 1.00D-01 BMatC= 4.61D-09 BMatP= 1.35D-07
 IDIUse=1 WtCom= 1.00D+00 WtEn= 0.00D+00
 Coeff-Com:  0.234D-03-0.284D-03-0.530D-04-0.142D-02-0.393D-02-0.567D-02
 Coeff-Com: -0.397D-02 0.583D-01 0.157D+00 0.800D+00
 Coeff:      0.234D-03-0.284D-03-0.530D-04-0.142D-02-0.393D-02-0.567D-02
 Coeff:     -0.397D-02 0.583D-01 0.157D+00 0.800D+00
 Gap=     0.128 Goal=   None    Shift=    0.000
 RMSDP=6.45D-07 MaxDP=1.36D-05 DE=-1.19D-07 OVMax= 8.76D-05

 Cycle  11  Pass 1  IDiag  1:
 RMSU=  2.76D-07    CP:  9.89D-01  1.44D+00  7.05D-01  1.02D+00  8.53D-01
                    CP:  9.60D-01  9.62D-01  1.12D+00  8.23D-01  9.95D-01
 E= -768.331215315270     Delta-E=       -0.000000006296 Rises=F Damp=F
 DIIS: error= 8.15D-07 at cycle  11 NSaved=  11.
 NSaved=11 IEnMin=11 EnMin= -768.331215315270     IErMin=11 ErrMin= 8.15D-07
 ErrMax= 8.15D-07  0.00D+00 EMaxC= 1.00D-01 BMatC= 9.70D-10 BMatP= 4.61D-09
 IDIUse=1 WtCom= 1.00D+00 WtEn= 0.00D+00
 Coeff-Com:  0.525D-04-0.567D-04 0.737D-04-0.143D-03-0.105D-02-0.163D-02
 Coeff-Com: -0.640D-02-0.529D-02 0.340D-01 0.408D+00 0.572D+00
 Coeff:      0.525D-04-0.567D-04 0.737D-04-0.143D-03-0.105D-02-0.163D-02
 Coeff:     -0.640D-02-0.529D-02 0.340D-01 0.408D+00 0.572D+00
 Gap=     0.128 Goal=   None    Shift=    0.000
 RMSDP=1.73D-07 MaxDP=4.85D-06 DE=-6.30D-09 OVMax= 1.87D-05

 Cycle  12  Pass 1  IDiag  1:
 RMSU=  9.87D-08    CP:  9.89D-01  1.44D+00  7.05D-01  1.02D+00  8.53D-01
                    CP:  9.61D-01  9.63D-01  1.12D+00  8.38D-01  1.05D+00
                    CP:  6.94D-01
 E= -768.331215316247     Delta-E=       -0.000000000976 Rises=F Damp=F
 DIIS: error= 3.23D-07 at cycle  12 NSaved=  12.
 NSaved=12 IEnMin=12 EnMin= -768.331215316247     IErMin=12 ErrMin= 3.23D-07
 ErrMax= 3.23D-07  0.00D+00 EMaxC= 1.00D-01 BMatC= 7.17D-11 BMatP= 9.70D-10
 IDIUse=1 WtCom= 1.00D+00 WtEn= 0.00D+00
 Coeff-Com:  0.773D-06 0.990D-06 0.364D-04 0.104D-03 0.758D-05 0.823D-04
 Coeff-Com: -0.231D-02-0.998D-02-0.740D-02 0.503D-01 0.233D+00 0.736D+00
 Coeff:      0.773D-06 0.990D-06 0.364D-04 0.104D-03 0.758D-05 0.823D-04
 Coeff:     -0.231D-02-0.998D-02-0.740D-02 0.503D-01 0.233D+00 0.736D+00
 Gap=     0.128 Goal=   None    Shift=    0.000
 RMSDP=5.83D-08 MaxDP=1.18D-06 DE=-9.76D-10 OVMax= 7.16D-06

 Cycle  13  Pass 1  IDiag  1:
 RMSU=  2.32D-08    CP:  9.89D-01  1.44D+00  7.05D-01  1.02D+00  8.53D-01
                    CP:  9.61D-01  9.64D-01  1.13D+00  8.42D-01  1.07D+00
                    CP:  7.92D-01  9.09D-01
 E= -768.331215316369     Delta-E=       -0.000000000122 Rises=F Damp=F
 DIIS: error= 9.00D-08 at cycle  13 NSaved=  13.
 NSaved=13 IEnMin=13 EnMin= -768.331215316369     IErMin=13 ErrMin= 9.00D-08
 ErrMax= 9.00D-08  0.00D+00 EMaxC= 1.00D-01 BMatC= 7.09D-12 BMatP= 7.17D-11
 IDIUse=1 WtCom= 1.00D+00 WtEn= 0.00D+00
 Coeff-Com: -0.285D-05 0.380D-05 0.116D-04 0.592D-04 0.675D-04 0.166D-03
 Coeff-Com: -0.687D-03-0.438D-02-0.553D-02-0.104D-02 0.801D-01 0.355D+00
 Coeff-Com:  0.576D+00
 Coeff:     -0.285D-05 0.380D-05 0.116D-04 0.592D-04 0.675D-04 0.166D-03
 Coeff:     -0.687D-03-0.438D-02-0.553D-02-0.104D-02 0.801D-01 0.355D+00
 Coeff:      0.576D+00
 Gap=     0.128 Goal=   None    Shift=    0.000
 RMSDP=1.25D-08 MaxDP=4.02D-07 DE=-1.22D-10 OVMax= 8.74D-07

 Cycle  14  Pass 1  IDiag  1:
 RMSU=  9.71D-09    CP:  9.89D-01  1.44D+00  7.05D-01  1.02D+00  8.53D-01
                    CP:  9.61D-01  9.64D-01  1.13D+00  8.42D-01  1.07D+00
                    CP:  8.01D-01  9.55D-01  8.11D-01
 E= -768.331215316358     Delta-E=        0.000000000011 Rises=F Damp=F
 DIIS: error= 3.81D-08 at cycle  14 NSaved=  14.
 NSaved=14 IEnMin=13 EnMin= -768.331215316369     IErMin=14 ErrMin= 3.81D-08
 ErrMax= 3.81D-08  0.00D+00 EMaxC= 1.00D-01 BMatC= 8.53D-13 BMatP= 7.09D-12
 IDIUse=1 WtCom= 1.00D+00 WtEn= 0.00D+00
 Coeff-Com: -0.181D-05 0.218D-05-0.473D-06 0.107D-04 0.268D-04 0.625D-04
 Coeff-Com:  0.656D-04-0.347D-03-0.126D-02-0.857D-02-0.599D-03 0.424D-01
 Coeff-Com:  0.275D+00 0.694D+00
 Coeff:     -0.181D-05 0.218D-05-0.473D-06 0.107D-04 0.268D-04 0.625D-04
 Coeff:      0.656D-04-0.347D-03-0.126D-02-0.857D-02-0.599D-03 0.424D-01
 Coeff:      0.275D+00 0.694D+00
 Gap=     0.128 Goal=   None    Shift=    0.000
 RMSDP=4.39D-09 MaxDP=1.64D-07 DE= 1.07D-11 OVMax= 2.32D-07

 Error on total polarization charges =  0.01326
 SCF Done:  E(RB3LYP) =  -768.331215316     A.U. after   14 cycles
            NFock= 14  Conv=0.44D-08     -V/T= 2.0091
 KE= 7.614038289393D+02 PE=-4.052159598189D+03 EE= 1.383866871845D+03
 Leave Link  502 at Fri May 24 08:37:23 2019, MaxMem=   402653184 cpu:            1122.5 elap:             290.4
 (Enter /n/sw/g16_nehalem/g16/l601.exe)
 Copying SCF densities to generalized density rwf, IOpCl= 0 IROHF=0.

 **********************************************************************

            Population analysis using the SCF density.

 **********************************************************************

 Orbital symmetries:
       Occupied  (A) (A) (A) (A) (A) (A) (A) (A) (A) (A) (A) (A)
                 (A) (A) (A) (A) (A) (A) (A) (A) (A) (A) (A) (A)
                 (A) (A) (A) (A) (A) (A) (A) (A) (A) (A) (A) (A)
                 (A) (A) (A) (A) (A) (A) (A) (A) (A) (A) (A) (A)
                 (A) (A) (A) (A) (A) (A) (A) (A) (A) (A) (A)
       Virtual   (A) (A) (A) (A) (A) (A) (A) (A) (A) (A) (A) (A)
                 (A) (A) (A) (A) (A) (A) (A) (A) (A) (A) (A) (A)
                 (A) (A) (A) (A) (A) (A) (A) (A) (A) (A) (A) (A)
                 (A) (A) (A) (A) (A) (A) (A) (A) (A) (A) (A) (A)
                 (A) (A) (A) (A) (A) (A) (A) (A) (A) (A) (A) (A)
                 (A) (A) (A) (A) (A) (A) (A) (A) (A) (A) (A) (A)
                 (A) (A) (A) (A) (A) (A) (A) (A) (A) (A) (A) (A)
                 (A) (A) (A) (A) (A) (A) (A) (A) (A) (A) (A) (A)
                 (A) (A) (A) (A) (A) (A) (A) (A) (A) (A) (A) (A)
                 (A) (A) (A) (A) (A) (A) (A) (A) (A) (A) (A) (A)
                 (A) (A) (A) (A) (A) (A) (A) (A) (A) (A) (A) (A)
                 (A) (A) (A) (A) (A) (A) (A) (A) (A) (A) (A) (A)
                 (A) (A) (A) (A) (A) (A) (A) (A) (A) (A) (A) (A)
                 (A) (A) (A) (A) (A) (A) (A) (A) (A) (A) (A) (A)
                 (A) (A) (A) (A) (A) (A) (A) (A) (A) (A) (A) (A)
                 (A) (A) (A) (A) (A) (A) (A) (A) (A) (A) (A) (A)
                 (A) (A) (A) (A) (A) (A) (A) (A) (A) (A) (A) (A)
 The electronic state is 1-A.
 Alpha  occ. eigenvalues --  -19.32911 -19.21346 -19.19284 -19.19060 -19.18344
 Alpha  occ. eigenvalues --  -10.39523 -10.31855 -10.31630 -10.29652 -10.29340
 Alpha  occ. eigenvalues --  -10.27861 -10.26206 -10.24824 -10.24824 -10.24722
 Alpha  occ. eigenvalues --   -1.21528  -1.09854  -1.08132  -1.06631  -1.06266
 Alpha  occ. eigenvalues --   -0.87129  -0.85850  -0.77185  -0.74939  -0.73700
 Alpha  occ. eigenvalues --   -0.71297  -0.69000  -0.67743  -0.65078  -0.63194
 Alpha  occ. eigenvalues --   -0.60310  -0.58761  -0.55615  -0.54900  -0.53594
 Alpha  occ. eigenvalues --   -0.51976  -0.51274  -0.50854  -0.50376  -0.49290
 Alpha  occ. eigenvalues --   -0.48865  -0.47888  -0.46055  -0.45769  -0.45430
 Alpha  occ. eigenvalues --   -0.43876  -0.43398  -0.41584  -0.41022  -0.40563
 Alpha  occ. eigenvalues --   -0.40234  -0.37419  -0.35874  -0.35599  -0.34822
 Alpha  occ. eigenvalues --   -0.32483  -0.30723  -0.29547  -0.27838
 Alpha virt. eigenvalues --   -0.15084   0.00242   0.04839   0.05620   0.06507
 Alpha virt. eigenvalues --    0.06901   0.07567   0.08540   0.08774   0.10506
 Alpha virt. eigenvalues --    0.11384   0.11541   0.11873   0.12563   0.13201
 Alpha virt. eigenvalues --    0.13563   0.14244   0.14569   0.14953   0.15248
 Alpha virt. eigenvalues --    0.15795   0.16509   0.16665   0.17060   0.18009
 Alpha virt. eigenvalues --    0.18654   0.18930   0.19740   0.20183   0.22491
 Alpha virt. eigenvalues --    0.24423   0.25948   0.26748   0.27839   0.29618
 Alpha virt. eigenvalues --    0.44151   0.46213   0.47127   0.47656   0.49045
 Alpha virt. eigenvalues --    0.49234   0.49440   0.50397   0.51837   0.52522
 Alpha virt. eigenvalues --    0.53612   0.53821   0.54180   0.54678   0.56280
 Alpha virt. eigenvalues --    0.57089   0.58333   0.58649   0.59409   0.59725
 Alpha virt. eigenvalues --    0.61058   0.65155   0.66114   0.67901   0.70961
 Alpha virt. eigenvalues --    0.72631   0.72959   0.74657   0.76277   0.77333
 Alpha virt. eigenvalues --    0.78455   0.79433   0.80870   0.81692   0.82157
 Alpha virt. eigenvalues --    0.82822   0.83588   0.84168   0.84579   0.85067
 Alpha virt. eigenvalues --    0.86105   0.86493   0.87197   0.87863   0.90371
 Alpha virt. eigenvalues --    0.91109   0.91533   0.93270   0.94034   0.94824
 Alpha virt. eigenvalues --    0.96144   0.97204   0.98254   0.99860   1.00523
 Alpha virt. eigenvalues --    1.03716   1.04499   1.08754   1.12322   1.12982
 Alpha virt. eigenvalues --    1.13562   1.15601   1.16302   1.20346   1.21073
 Alpha virt. eigenvalues --    1.22894   1.27035   1.27781   1.30470   1.31332
 Alpha virt. eigenvalues --    1.33237   1.35981   1.37482   1.40736   1.42103
 Alpha virt. eigenvalues --    1.43877   1.45354   1.45917   1.47976   1.52340
 Alpha virt. eigenvalues --    1.52734   1.56016   1.57298   1.59356   1.63108
 Alpha virt. eigenvalues --    1.65608   1.65783   1.68121   1.68528   1.71240
 Alpha virt. eigenvalues --    1.72240   1.75394   1.76899   1.80197   1.81384
 Alpha virt. eigenvalues --    1.82487   1.84331   1.85820   1.87166   1.88810
 Alpha virt. eigenvalues --    1.90043   1.93133   1.97386   1.98643   1.99408
 Alpha virt. eigenvalues --    2.00353   2.01268   2.03018   2.03431   2.05150
 Alpha virt. eigenvalues --    2.06501   2.07029   2.08366   2.10328   2.10752
 Alpha virt. eigenvalues --    2.12120   2.12561   2.13245   2.14155   2.15299
 Alpha virt. eigenvalues --    2.16395   2.18979   2.20284   2.21789   2.22966
 Alpha virt. eigenvalues --    2.26884   2.28122   2.29302   2.34834   2.36202
 Alpha virt. eigenvalues --    2.37823   2.39814   2.42511   2.43608   2.47522
 Alpha virt. eigenvalues --    2.49336   2.54401   2.54775   2.56853   2.59263
 Alpha virt. eigenvalues --    2.63808   2.68415   2.69581   2.74049   2.74706
 Alpha virt. eigenvalues --    2.78089   2.79619   2.82529   2.88094   2.93053
 Alpha virt. eigenvalues --    2.93435   3.00429   3.02748   3.07476   3.84218
 Alpha virt. eigenvalues --    3.90970   3.94743   3.98439   4.06805   4.15100
 Alpha virt. eigenvalues --    4.22838   4.23520   4.23670   4.24499   4.28596
 Alpha virt. eigenvalues --    4.37415   4.43326   4.54509   4.63277
          Condensed to atoms (all electrons):
               1          2          3          4          5          6
     1  C    4.988297   0.262270  -0.033090  -0.039926   0.293637   0.002418
     2  C    0.262270   5.178896   0.247322  -0.000219  -0.046053  -0.038890
     3  C   -0.033090   0.247322   4.828191  -0.039253   0.004666   0.359588
     4  C   -0.039926  -0.000219  -0.039253   5.172780   0.263577   0.003023
     5  C    0.293637  -0.046053   0.004666   0.263577   5.037807  -0.000222
     6  H    0.002418  -0.038890   0.359588   0.003023  -0.000222   0.429363
     7  H   -0.025950   0.338146  -0.042088   0.001129  -0.005244   0.000957
     8  H    0.356305  -0.051319  -0.000809  -0.002312  -0.040303  -0.000128
     9  H   -0.006354   0.001162  -0.000456   0.363701  -0.032634  -0.000183
    10  H   -0.052194  -0.002459   0.000797  -0.045482   0.355039  -0.000030
    11  O    0.001471  -0.028358   0.396882   0.117443  -0.021805  -0.035258
    12  O   -0.030912   0.181304  -0.028516  -0.000050   0.002646   0.001752
    13  O    0.223211  -0.043362   0.003477   0.002433  -0.038352  -0.000042
    14  O   -0.035736   0.003301  -0.000141  -0.032949   0.193072   0.000002
    15  C    0.002670  -0.000572   0.002075   0.316851  -0.020954  -0.000148
    16  H   -0.000226  -0.000004   0.001137  -0.043621  -0.002129  -0.000026
    17  H    0.000417  -0.000041   0.000028  -0.056830   0.004271   0.000006
    18  O   -0.000050  -0.000008   0.000256  -0.043791   0.002393   0.000022
    19  C    0.002257  -0.027000  -0.001979   0.000005  -0.000128   0.001820
    20  H   -0.000151   0.004810  -0.000155   0.000000   0.000001  -0.000064
    21  H   -0.000019  -0.003990   0.002251  -0.000003   0.000020   0.000178
    22  H    0.000092  -0.008794  -0.000215   0.000001  -0.000006   0.000041
    23  C   -0.028471  -0.001877  -0.000033  -0.000150   0.003577   0.000002
    24  H    0.005100  -0.000204   0.000003   0.000000  -0.000156   0.000000
    25  H   -0.009468  -0.000416   0.000054  -0.000010   0.000476   0.000000
    26  H   -0.005317   0.001475  -0.000134   0.000021  -0.000111   0.000004
    27  C   -0.001492  -0.000073   0.000005   0.002956  -0.027153   0.000000
    28  H    0.000781  -0.000108  -0.000002   0.000164  -0.005685   0.000000
    29  H   -0.000422   0.000067  -0.000004   0.000059  -0.009312   0.000000
    30  H   -0.000139   0.000004   0.000000  -0.000179   0.005133   0.000000
    31  C   -0.000004   0.000000  -0.000007  -0.004319   0.000012   0.000000
    32  H    0.000017   0.000000  -0.000003   0.004430  -0.000406   0.000000
    33  H    0.000000   0.000000   0.000001  -0.001363   0.000090   0.000000
    34  H    0.000000   0.000000   0.000000  -0.000090   0.000002   0.000000
               7          8          9         10         11         12
     1  C   -0.025950   0.356305  -0.006354  -0.052194   0.001471  -0.030912
     2  C    0.338146  -0.051319   0.001162  -0.002459  -0.028358   0.181304
     3  C   -0.042088  -0.000809  -0.000456   0.000797   0.396882  -0.028516
     4  C    0.001129  -0.002312   0.363701  -0.045482   0.117443  -0.000050
     5  C   -0.005244  -0.040303  -0.032634   0.355039  -0.021805   0.002646
     6  H    0.000957  -0.000128  -0.000183  -0.000030  -0.035258   0.001752
     7  H    0.510220   0.005612  -0.000002   0.004218   0.000770  -0.026546
     8  H    0.005612   0.571509   0.002977   0.006083   0.000539   0.000065
     9  H   -0.000002   0.002977   0.478953   0.005302  -0.028427   0.000003
    10  H    0.004218   0.006083   0.005302   0.578759   0.000421  -0.000057
    11  O    0.000770   0.000539  -0.028427   0.000421   7.934940   0.001260
    12  O   -0.026546   0.000065   0.000003  -0.000057   0.001260   8.239073
    13  O    0.000215  -0.033271  -0.000042   0.000394   0.000024   0.002261
    14  O   -0.000023   0.000793   0.004908  -0.032417   0.001163  -0.000009
    15  C    0.000049   0.000012  -0.034361  -0.004064  -0.037188   0.000000
    16  H   -0.000003   0.000005   0.004027   0.004269  -0.003238   0.000000
    17  H   -0.000006  -0.000011  -0.001685  -0.000398   0.002879   0.000000
    18  O    0.000000   0.000001  -0.002890   0.000064   0.001642   0.000000
    19  C   -0.005540  -0.000189   0.000000   0.000000  -0.000002   0.219727
    20  H   -0.000008   0.000002   0.000000   0.000000   0.000001  -0.029401
    21  H   -0.000504   0.000002   0.000000  -0.000001  -0.000049  -0.033444
    22  H    0.009692   0.000063   0.000000   0.000000   0.000005  -0.033193
    23  C   -0.000419  -0.006656  -0.000007  -0.000266   0.000003  -0.002712
    24  H   -0.000015  -0.000027   0.000000   0.000005   0.000000   0.000078
    25  H    0.000028   0.009046  -0.000001   0.000047   0.000000   0.000125
    26  H    0.000274   0.000470   0.000000   0.000003  -0.000002   0.007244
    27  C   -0.000023  -0.000341  -0.000213  -0.005634  -0.000042   0.000000
    28  H    0.000009   0.000200   0.000006   0.000086   0.000004   0.000001
    29  H    0.000001   0.000026   0.000084   0.009625  -0.000004   0.000000
    30  H    0.000000   0.000008  -0.000007  -0.000004   0.000000   0.000000
    31  C    0.000000   0.000000   0.003580   0.000011  -0.000011   0.000000
    32  H    0.000000  -0.000002   0.003059  -0.000011   0.000093   0.000000
    33  H    0.000000   0.000000  -0.000076   0.000003   0.000006   0.000000
    34  H    0.000000   0.000000  -0.000149   0.000000  -0.000004   0.000000
              13         14         15         16         17         18
     1  C    0.223211  -0.035736   0.002670  -0.000226   0.000417  -0.000050
     2  C   -0.043362   0.003301  -0.000572  -0.000004  -0.000041  -0.000008
     3  C    0.003477  -0.000141   0.002075   0.001137   0.000028   0.000256
     4  C    0.002433  -0.032949   0.316851  -0.043621  -0.056830  -0.043791
     5  C   -0.038352   0.193072  -0.020954  -0.002129   0.004271   0.002393
     6  H   -0.000042   0.000002  -0.000148  -0.000026   0.000006   0.000022
     7  H    0.000215  -0.000023   0.000049  -0.000003  -0.000006   0.000000
     8  H   -0.033271   0.000793   0.000012   0.000005  -0.000011   0.000001
     9  H   -0.000042   0.004908  -0.034361   0.004027  -0.001685  -0.002890
    10  H    0.000394  -0.032417  -0.004064   0.004269  -0.000398   0.000064
    11  O    0.000024   0.001163  -0.037188  -0.003238   0.002879   0.001642
    12  O    0.002261  -0.000009   0.000000   0.000000   0.000000   0.000000
    13  O    8.233445   0.001989  -0.000023   0.000000   0.000000   0.000000
    14  O    0.001989   8.251148  -0.003769   0.000238   0.006235  -0.000002
    15  C   -0.000023  -0.003769   4.884039   0.376682   0.360843   0.258691
    16  H    0.000000   0.000238   0.376682   0.531478  -0.026276  -0.035497
    17  H    0.000000   0.006235   0.360843  -0.026276   0.550088  -0.029071
    18  O    0.000000  -0.000002   0.258691  -0.035497  -0.029071   8.175606
    19  C   -0.000506   0.000000   0.000000   0.000000   0.000000   0.000000
    20  H   -0.000004   0.000000   0.000000   0.000000   0.000000   0.000000
    21  H    0.000013   0.000000   0.000000   0.000000   0.000000   0.000000
    22  H    0.000437   0.000000   0.000000   0.000000   0.000000   0.000000
    23  C    0.231072  -0.000417   0.000001   0.000000   0.000000   0.000000
    24  H   -0.031288  -0.000008   0.000000   0.000000   0.000000   0.000000
    25  H   -0.034629   0.000301   0.000000   0.000000   0.000000   0.000000
    26  H   -0.033694   0.000009   0.000000   0.000000   0.000000   0.000000
    27  C   -0.004342   0.231328   0.000010  -0.000001   0.000003   0.000002
    28  H    0.010183  -0.032952  -0.000033   0.000002   0.000085   0.000000
    29  H    0.000203  -0.035796   0.000327  -0.000043   0.000115   0.000000
    30  H    0.000125  -0.031661   0.000004   0.000000  -0.000030   0.000000
    31  C    0.000000  -0.000018  -0.046940   0.005691  -0.007961   0.244867
    32  H    0.000000   0.000015  -0.003385  -0.000355  -0.000971  -0.038315
    33  H    0.000000  -0.000018  -0.009377   0.000221   0.011732  -0.035190
    34  H    0.000000   0.000000   0.005256  -0.000196  -0.000081  -0.031421
              19         20         21         22         23         24
     1  C    0.002257  -0.000151  -0.000019   0.000092  -0.028471   0.005100
     2  C   -0.027000   0.004810  -0.003990  -0.008794  -0.001877  -0.000204
     3  C   -0.001979  -0.000155   0.002251  -0.000215  -0.000033   0.000003
     4  C    0.000005   0.000000  -0.000003   0.000001  -0.000150   0.000000
     5  C   -0.000128   0.000001   0.000020  -0.000006   0.003577  -0.000156
     6  H    0.001820  -0.000064   0.000178   0.000041   0.000002   0.000000
     7  H   -0.005540  -0.000008  -0.000504   0.009692  -0.000419  -0.000015
     8  H   -0.000189   0.000002   0.000002   0.000063  -0.006656  -0.000027
     9  H    0.000000   0.000000   0.000000   0.000000  -0.000007   0.000000
    10  H    0.000000   0.000000  -0.000001   0.000000  -0.000266   0.000005
    11  O   -0.000002   0.000001  -0.000049   0.000005   0.000003   0.000000
    12  O    0.219727  -0.029401  -0.033444  -0.033193  -0.002712   0.000078
    13  O   -0.000506  -0.000004   0.000013   0.000437   0.231072  -0.031288
    14  O    0.000000   0.000000   0.000000   0.000000  -0.000417  -0.000008
    15  C    0.000000   0.000000   0.000000   0.000000   0.000001   0.000000
    16  H    0.000000   0.000000   0.000000   0.000000   0.000000   0.000000
    17  H    0.000000   0.000000   0.000000   0.000000   0.000000   0.000000
    18  O    0.000000   0.000000   0.000000   0.000000   0.000000   0.000000
    19  C    4.919573   0.385760   0.368007   0.371805   0.000280  -0.000006
    20  H    0.385760   0.497302  -0.029405  -0.025949   0.000035  -0.000002
    21  H    0.368007  -0.029405   0.565013  -0.040825  -0.000007   0.000000
    22  H    0.371805  -0.025949  -0.040825   0.546204   0.000121  -0.000005
    23  C    0.000280   0.000035  -0.000007   0.000121   4.910902   0.383906
    24  H   -0.000006  -0.000002   0.000000  -0.000005   0.383906   0.520031
    25  H   -0.000012   0.000000   0.000000   0.000001   0.369699  -0.028619
    26  H    0.000134  -0.000095   0.000054  -0.000312   0.366961  -0.029325
    27  C    0.000000   0.000000   0.000000   0.000000   0.000319   0.000045
    28  H    0.000000   0.000000   0.000000   0.000000  -0.000060  -0.000100
    29  H    0.000000   0.000000   0.000000   0.000000  -0.000013   0.000000
    30  H    0.000000   0.000000   0.000000   0.000000  -0.000009  -0.000003
    31  C    0.000000   0.000000   0.000000   0.000000   0.000000   0.000000
    32  H    0.000000   0.000000   0.000000   0.000000   0.000000   0.000000
    33  H    0.000000   0.000000   0.000000   0.000000   0.000000   0.000000
    34  H    0.000000   0.000000   0.000000   0.000000   0.000000   0.000000
              25         26         27         28         29         30
     1  C   -0.009468  -0.005317  -0.001492   0.000781  -0.000422  -0.000139
     2  C   -0.000416   0.001475  -0.000073  -0.000108   0.000067   0.000004
     3  C    0.000054  -0.000134   0.000005  -0.000002  -0.000004   0.000000
     4  C   -0.000010   0.000021   0.002956   0.000164   0.000059  -0.000179
     5  C    0.000476  -0.000111  -0.027153  -0.005685  -0.009312   0.005133
     6  H    0.000000   0.000004   0.000000   0.000000   0.000000   0.000000
     7  H    0.000028   0.000274  -0.000023   0.000009   0.000001   0.000000
     8  H    0.009046   0.000470  -0.000341   0.000200   0.000026   0.000008
     9  H   -0.000001   0.000000  -0.000213   0.000006   0.000084  -0.000007
    10  H    0.000047   0.000003  -0.005634   0.000086   0.009625  -0.000004
    11  O    0.000000  -0.000002  -0.000042   0.000004  -0.000004   0.000000
    12  O    0.000125   0.007244   0.000000   0.000001   0.000000   0.000000
    13  O   -0.034629  -0.033694  -0.004342   0.010183   0.000203   0.000125
    14  O    0.000301   0.000009   0.231328  -0.032952  -0.035796  -0.031661
    15  C    0.000000   0.000000   0.000010  -0.000033   0.000327   0.000004
    16  H    0.000000   0.000000  -0.000001   0.000002  -0.000043   0.000000
    17  H    0.000000   0.000000   0.000003   0.000085   0.000115  -0.000030
    18  O    0.000000   0.000000   0.000002   0.000000   0.000000   0.000000
    19  C   -0.000012   0.000134   0.000000   0.000000   0.000000   0.000000
    20  H    0.000000  -0.000095   0.000000   0.000000   0.000000   0.000000
    21  H    0.000000   0.000054   0.000000   0.000000   0.000000   0.000000
    22  H    0.000001  -0.000312   0.000000   0.000000   0.000000   0.000000
    23  C    0.369699   0.366961   0.000319  -0.000060  -0.000013  -0.000009
    24  H   -0.028619  -0.029325   0.000045  -0.000100   0.000000  -0.000003
    25  H    0.569912  -0.041633   0.000061  -0.000251   0.000000  -0.000005
    26  H   -0.041633   0.563890  -0.000010   0.000066   0.000000   0.000000
    27  C    0.000061  -0.000010   4.912120   0.367500   0.367388   0.383165
    28  H   -0.000251   0.000066   0.367500   0.554209  -0.041476  -0.028515
    29  H    0.000000   0.000000   0.367388  -0.041476   0.577693  -0.028843
    30  H   -0.000005   0.000000   0.383165  -0.028515  -0.028843   0.519994
    31  C    0.000000   0.000000   0.000000   0.000000  -0.000001   0.000000
    32  H    0.000000   0.000000  -0.000001   0.000000  -0.000001   0.000000
    33  H    0.000000   0.000000   0.000000   0.000000   0.000002   0.000000
    34  H    0.000000   0.000000   0.000000   0.000000   0.000000   0.000000
              31         32         33         34
     1  C   -0.000004   0.000017   0.000000   0.000000
     2  C    0.000000   0.000000   0.000000   0.000000
     3  C   -0.000007  -0.000003   0.000001   0.000000
     4  C   -0.004319   0.004430  -0.001363  -0.000090
     5  C    0.000012  -0.000406   0.000090   0.000002
     6  H    0.000000   0.000000   0.000000   0.000000
     7  H    0.000000   0.000000   0.000000   0.000000
     8  H    0.000000  -0.000002   0.000000   0.000000
     9  H    0.003580   0.003059  -0.000076  -0.000149
    10  H    0.000011  -0.000011   0.000003   0.000000
    11  O   -0.000011   0.000093   0.000006  -0.000004
    12  O    0.000000   0.000000   0.000000   0.000000
    13  O    0.000000   0.000000   0.000000   0.000000
    14  O   -0.000018   0.000015  -0.000018   0.000000
    15  C   -0.046940  -0.003385  -0.009377   0.005256
    16  H    0.005691  -0.000355   0.000221  -0.000196
    17  H   -0.007961  -0.000971   0.011732  -0.000081
    18  O    0.244867  -0.038315  -0.035190  -0.031421
    19  C    0.000000   0.000000   0.000000   0.000000
    20  H    0.000000   0.000000   0.000000   0.000000
    21  H    0.000000   0.000000   0.000000   0.000000
    22  H    0.000000   0.000000   0.000000   0.000000
    23  C    0.000000   0.000000   0.000000   0.000000
    24  H    0.000000   0.000000   0.000000   0.000000
    25  H    0.000000   0.000000   0.000000   0.000000
    26  H    0.000000   0.000000   0.000000   0.000000
    27  C    0.000000  -0.000001   0.000000   0.000000
    28  H    0.000000   0.000000   0.000000   0.000000
    29  H   -0.000001  -0.000001   0.000002   0.000000
    30  H    0.000000   0.000000   0.000000   0.000000
    31  C    4.911671   0.362447   0.368835   0.387162
    32  H    0.362447   0.596277  -0.045367  -0.032012
    33  H    0.368835  -0.045367   0.578055  -0.028606
    34  H    0.387162  -0.032012  -0.028606   0.517871
 Mulliken charges:
               1
     1  C    0.130977
     2  C    0.034990
     3  C    0.300151
     4  C    0.061974
     5  C    0.084235
     6  H    0.275815
     7  H    0.235047
     8  H    0.181651
     9  H    0.239727
    10  H    0.177892
    11  O   -0.305158
    12  O   -0.470698
    13  O   -0.489928
    14  O   -0.488584
    15  C   -0.046694
    16  H    0.187865
    17  H    0.186660
    18  O   -0.467310
    19  C   -0.234006
    20  H    0.197322
    21  H    0.172707
    22  H    0.180838
    23  C   -0.225781
    24  H    0.180593
    25  H    0.165294
    26  H    0.170027
    27  C   -0.225577
    28  H    0.175886
    29  H    0.160325
    30  H    0.180961
    31  C   -0.225015
    32  H    0.154492
    33  H    0.161052
    34  H    0.182268
 Sum of Mulliken charges =   1.00000
 Mulliken charges with hydrogens summed into heavy atoms:
               1
     1  C    0.312628
     2  C    0.270038
[...]
 47,-0.01091267,-0.03414041,-0.00019126,-0.00033043,-0.00006803,0.00007
 301,0.00000470,0.00000195,0.00107026,-0.00076254,-0.00082031,0.0000337
 0,0.00007994,0.00003864,0.00002539,0.00001639,-0.00007247,-0.00001848,
 -0.00000817,0.00001107,0.00000144,-0.00000325,0.00000822,-0.00000248,0
 .00000028,0.00001130,0.00003150,-0.00000333,0.00005824,-0.00002074,0.0
 0000334,0.00000148,0.00000920,-0.00001094,-0.00002714,0.00000785,0.000
 00470,-0.00000694,0.02030724,-0.05805694,0.03887679,0.00100598,0.00142
 548,0.00496469,-0.02224793,0.06369261,0.00031076,-0.00053326,0.0001946
 6,-0.00009227,0.00011596,-0.00004504,-0.00000413,0.00020384,0.00000025
 ,-0.00029117,0.00046830,0.00048753,0.00186469,0.00389199,-0.00031021,-
 0.00001685,-0.00000655,-0.00004153,0.00001248,0.00000622,-0.00000085,0
 .00019017,0.00008775,0.00002901,-0.00015296,0.00012600,0.00003702,-0.0
 0056465,-0.00129043,0.00005682,0.00003252,-0.00039072,0.00005308,-0.00
 029219,-0.00027261,0.00006764,-0.00031536,0.00020285,-0.00004169,-0.00
 626097,-0.01423983,-0.02227359,-0.00021814,-0.00009165,-0.00008616,0.0
 0001796,-0.00002680,0.00001852,0.00065012,-0.00081158,-0.00002338,0.00
 022515,0.00001293,0.00002731,0.00010096,0.00004682,-0.00013676,-0.0000
 3085,-0.00001499,0.00001503,-0.00000232,-0.00001634,0.00002316,-0.0000
 0712,-0.00000100,0.00001928,0.00018247,-0.00008269,0.00016565,-0.00004
 691,0.00002458,-0.00000882,0.00000605,-0.00000263,-0.00001606,-0.00003
 285,-0.00001011,-0.00003105,-0.11019763,0.03405303,-0.23057733,0.00277
 687,0.00062483,0.00686080,0.12143535,-0.02506774,0.25771381,-0.0002797
 4,0.00073182,0.00018484,0.00008908,-0.00018020,0.00002894,-0.00016292,
 0.00001006,0.00005198,0.00008151,-0.00007468,-0.00012859,0.00093574,0.
 00201586,0.00018370,0.00000991,-0.00000571,-0.00002317,0.00000329,0.00
 003199,-0.00001587,0.00004070,-0.00004023,-0.00002705,0.00002603,-0.00
 001032,0.00002620,-0.00013455,-0.00007862,-0.00000451,0.00009231,0.000
 18707,0.00001455,-0.00001636,-0.00002247,0.00000431,-0.00064089,-0.000
 73089,-0.00048976,0.00321637,0.00334566,-0.00315064,-0.00000960,0.0000
 2016,-0.00004074,-0.00000987,-0.00001128,0.00000746,0.00000731,0.00000
 192,-0.00002380,0.00001779,-0.00001612,0.00001267,0.00001232,0.0000211
 7,-0.00001360,-0.00000531,-0.00000262,0.00000096,0.00000215,-0.0000022
 0,0.00000262,-0.00000002,-0.00000194,0.00000094,0.00028406,-0.00023637
 ,0.00025633,-0.00000720,0.00001977,0.00000813,-0.00001347,0.00001680,-
 0.00006528,-0.00008148,0.00002165,-0.00008312,-0.09936948,-0.08402227,
 0.06085379,-0.00907423,-0.02365106,0.01738809,0.00830711,0.01381323,-0
 .00922611,0.09667909,0.00057120,-0.00100313,0.00036964,-0.00010293,0.0
 0019868,-0.00012585,0.00026563,0.00027359,-0.00001674,-0.00109536,0.00
 005112,0.00062724,0.00137002,-0.00198186,-0.00391233,-0.00004776,-0.00
 000799,-0.00003129,0.00000750,0.00003475,-0.00002076,-0.00001230,0.000
 00649,-0.00002556,-0.00002471,0.00000171,-0.00004423,0.00011665,0.0000
 0189,-0.00008728,0.00004886,-0.00101624,-0.00011890,-0.00032546,-0.000
 28996,0.00006446,-0.00024020,0.00044040,-0.00000295,-0.01073935,-0.032
 84551,0.00962422,-0.00029552,0.00004758,-0.00011705,0.00001977,-0.0000
 0321,0.00000284,-0.00003340,-0.00000187,-0.00002285,0.00032449,-0.0000
 7886,-0.00008024,0.00011086,0.00004611,-0.00014506,-0.00003379,-0.0000
 1719,0.00001729,-0.00000535,-0.00001519,0.00002408,-0.00000918,-0.0000
 0248,0.00002085,0.00013670,-0.00006614,0.00020931,-0.00004338,0.000024
 01,-0.00001923,-0.00000341,0.00000408,-0.00003766,-0.00001120,-0.00000
 654,-0.00002769,-0.07885417,-0.19476766,0.10728010,0.00142333,0.007085
 67,-0.00278808,-0.00127360,-0.00086594,0.00302570,0.08883754,0.2248142
 5,0.00018982,-0.00050500,0.00038912,-0.00011151,0.00004728,-0.00002001
 ,0.00013415,0.00014732,-0.00001288,-0.00073610,-0.00013935,0.00065688,
 0.00026159,-0.00411798,-0.00152512,-0.00002773,0.00000104,-0.00002763,
 -0.00001576,0.00002032,-0.00001138,0.00006460,0.00003046,0.00001129,-0
 .00004616,0.00004448,-0.00004052,-0.00008064,-0.00030540,0.00039754,0.
 00010568,-0.00053186,-0.00009769,-0.00010870,-0.00011689,0.00003202,0.
 00009241,0.00026263,0.00001583,-0.00901528,-0.02273698,0.01049674,-0.0
 0005961,-0.00003425,-0.00007775,0.00000023,-0.00002976,-0.00000157,0.0
 0005590,0.00000663,-0.00001681,0.00006223,0.00000536,0.00002191,0.0000
 2660,0.00000528,-0.00005654,-0.00001231,-0.00000622,0.00000930,-0.0000
 0191,-0.00000399,0.00000639,-0.00000363,0.00000186,0.00000781,-0.00005
 676,0.00005347,-0.00000353,-0.00000983,0.00000498,-0.00000863,-0.00000
 305,-0.00001119,0.00000232,0.00001779,-0.00000488,0.00001466,0.0624771
 2,0.11890879,-0.13506768,0.00045237,0.00320892,-0.00151257,0.01208417,
 0.01952907,-0.01220812,-0.06573268,-0.11373343,0.13861891,-0.00053770,
 -0.00011348,-0.00041494,-0.00025697,-0.00033848,-0.00005395,-0.0014091
 7,0.00003350,0.00009933,-0.00025636,-0.00201726,0.00115898,0.00083751,
 0.00164447,0.00058245,0.00012751,-0.00000335,-0.00015551,0.00006420,-0
 .00001030,0.00006839,0.00000857,-0.00000919,0.00004236,-0.00097636,0.0
 0047392,-0.00030899,-0.00008430,0.00000994,-0.00011854,0.00115830,0.00
 009162,0.00024103,0.00056720,0.00010982,0.00000923,0.00083632,-0.00046
 376,0.00014284,0.00004692,-0.00067083,-0.00001719,-0.03471849,-0.00659
 648,0.02677779,0.00008605,0.00028743,-0.00135827,0.00474259,-0.0025427
 9,-0.00170482,-0.11785133,-0.01543006,0.05713808,-0.00024338,-0.000126
 46,0.00017151,0.00004862,0.00001878,-0.00001310,0.00000286,0.00002036,
 -0.00003514,0.00003443,0.00002058,-0.00002690,-0.00019509,0.00016663,-
 0.00032503,0.00006087,-0.00004238,0.00002913,0.00000273,-0.00001260,0.
 00005668,0.00004043,-0.00000370,0.00005283,-0.00000438,0.00055330,0.00
 033305,0.00002905,-0.00006712,-0.00006169,-0.00001078,0.00000247,-0.00
 008076,0.00000454,-0.00011755,-0.00000184,0.55071263,-0.00035705,-0.00
 021986,-0.00025866,-0.00019644,-0.00022278,-0.00000704,-0.00090493,0.0
 0002513,0.00005693,0.00104490,-0.00173897,-0.00206138,0.00101713,0.001
 23734,0.00058768,0.00007307,0.00001553,-0.00013853,0.00001654,-0.00000
 264,0.00004134,0.00004081,0.00000373,0.00004394,0.00029464,0.00007491,
 -0.00002524,-0.00015488,0.00008303,0.00013104,0.00068011,-0.00000429,0
 .00033651,0.00033215,0.00008899,0.00001269,0.00059436,-0.00032611,0.00
 013294,-0.00014636,-0.00060800,0.00010485,0.01359140,0.00712838,-0.019
 14273,0.00505236,-0.00259060,-0.00307396,0.00461632,0.00150483,-0.0027
 4510,-0.04623881,-0.11704807,0.06343656,-0.00014100,-0.00006720,0.0000
 9996,0.00002985,0.00001194,-0.00000804,0.00000332,0.00000950,-0.000020
 61,0.00001885,0.00001169,-0.00001630,-0.00012591,0.00011485,-0.0002448
 7,0.00004422,-0.00002869,0.00002345,0.00000157,-0.00001040,0.00004266,
 0.00002898,-0.00000281,0.00003743,-0.00001330,0.00034058,0.00022289,0.
 00000934,-0.00003592,-0.00003630,0.00001098,0.00000237,-0.00006154,0.0
 0001398,-0.00009973,-0.00000129,-0.05721114,0.58748791,0.00038652,0.00
 044756,0.00052912,0.00019727,0.00025067,0.00003863,0.00129980,0.000322
 13,-0.00017415,-0.00272970,0.00336412,0.00496183,-0.00180925,-0.001471
 86,-0.00125330,-0.00009700,-0.00005273,0.00025103,-0.00001820,0.000014
 95,-0.00004905,-0.00004710,0.00000611,-0.00007181,-0.00122413,0.000299
 18,0.00032312,0.00022561,-0.00013972,-0.00014331,-0.00127472,-0.000490
 84,-0.00096532,-0.00042508,-0.00013514,-0.00003975,-0.00082592,0.00040
 115,-0.00024945,-0.00006940,0.00062331,-0.00022241,0.02086329,-0.00274
 020,-0.02253728,0.00121370,-0.00151711,0.00091243,-0.00144073,0.004396
 55,0.00062683,0.06389879,0.03783106,-0.13102246,0.00016478,0.00008195,
 -0.00011967,-0.00004090,-0.00001479,0.00001044,-0.00000334,-0.00000900
 ,0.00002741,-0.00002111,-0.00001659,0.00001810,0.00015829,-0.00015018,
 0.00034989,-0.00005790,0.00003730,-0.00003713,0.00000082,0.00001955,-0
 .00005749,-0.00004482,0.00000188,-0.00004988,0.00007455,-0.00044011,-0
 .00022084,-0.00003360,0.00003854,0.00002727,0.00002532,-0.00002688,0.0
 0001747,0.00000167,0.00011271,0.00001262,0.04188114,0.04379085,0.52121
 291,0.00000880,-0.00010778,-0.00005681,0.00001424,0.00001680,-0.000000
 09,-0.00007797,-0.00009188,0.00003423,-0.00028236,-0.00080880,-0.00080
 071,0.00040034,0.00013763,-0.00018978,0.00000707,0.00001543,-0.0000097
 5,-0.00001366,0.00000124,-0.00000515,0.00000608,0.00000682,0.00000677,
 -0.00119218,-0.00031046,0.00057848,0.00005597,-0.00002364,0.00005924,0
 .00017130,0.00025891,0.00011891,-0.00002521,0.00001292,0.00000181,0.00
 003549,-0.00000456,0.00004628,-0.00007138,0.00000102,0.00003545,0.0034
 6562,-0.00077888,0.00090052,-0.00023521,0.00037841,-0.00000111,-0.0004
 4033,0.00005687,0.00015295,0.01164198,-0.00919056,0.02603165,0.0000128
 4,0.00000769,-0.00000563,-0.00000091,-0.00000030,0.00000007,0.00000009
 ,-0.00000172,0.00000098,-0.00000268,-0.00000134,0.00000090,0.00000222,
 0.00000082,-0.00001670,0.00000270,-0.00000075,0.00000276,-0.00000009,-
 0.00000113,0.00000213,0.00000322,0.00000020,0.00000220,0.00000490,0.00
 002293,-0.00000046,-0.00000057,-0.00000159,-0.00000119,0.00000003,-0.0
 0000359,-0.00000307,-0.00000019,-0.00000764,-0.00000274,-0.12929684,0.
 03418489,-0.11144537,0.13226438,0.00006848,0.00006576,0.00007463,0.000
 03674,0.00004433,0.00001867,0.00014645,-0.00000916,0.00001461,-0.00032
 576,0.00084757,0.00026466,-0.00017353,-0.00020656,-0.00023007,-0.00001
 930,-0.00000479,0.00002692,-0.00000355,0.00000460,-0.00000891,-0.00000
 236,0.00000648,-0.00000547,-0.00026959,0.00014427,0.00012468,0.0000349
 3,-0.00003720,0.00000047,-0.00017433,-0.00005372,-0.00015965,-0.000053
 79,-0.00002958,-0.00000726,-0.00013022,0.00005073,-0.00003275,-0.00003
 805,0.00010030,0.00001206,0.00176753,-0.00135251,-0.00147120,-0.000389
 38,0.00012750,0.00016921,-0.00048973,0.00016799,-0.00011195,0.00158786
 ,-0.00416619,0.01921959,0.00002180,0.00001106,-0.00001696,-0.00000640,
 -0.00000188,0.00000161,-0.00000055,-0.00000134,0.00000458,-0.00000225,
 -0.00000266,0.00000201,0.00002650,-0.00002026,0.00005013,-0.00000887,0
 .00000559,-0.00000559,0.00000042,0.00000267,-0.00000710,-0.00000794,-0
 .00000068,-0.00000695,0.00000516,-0.00008467,-0.00005431,-0.00000829,0
 .00001098,0.00001115,0.00000310,0.00000005,0.00000999,0.00000343,0.000
 01054,0.00000069,0.03158552,-0.06756362,0.04486085,-0.03180179,0.06774
 572,-0.00001698,-0.00010665,-0.00006479,-0.00001204,-0.00000251,0.0000
 0316,-0.00002653,-0.00008995,-0.00004873,0.00045637,-0.00045267,-0.000
 45501,0.00036255,0.00012216,0.00036024,-0.00001137,0.00000929,-0.00004
 449,-0.00000609,-0.00000251,0.00000236,0.00001404,-0.00000595,0.000012
 36,0.00110030,0.00002035,-0.00044842,-0.00011974,0.00011077,0.00003899
 ,-0.00010750,-0.00002194,0.00029855,0.00000860,0.00000347,0.00001206,0
 .00007453,-0.00002898,0.00002825,-0.00003198,0.00000500,0.00008252,-0.
 00486339,0.00327430,0.00148638,0.00072177,-0.00045072,-0.00021768,0.00
 020983,-0.00065836,-0.00026485,0.00404461,0.01249119,-0.02776401,0.000
 00079,0.00000216,-0.00000321,0.00000161,0.00000011,0.00000031,0.000000
 33,-0.00000232,-0.00000056,-0.00000037,0.00000139,0.00000015,-0.000001
 38,0.00001313,-0.00003280,0.00000407,-0.00000169,0.00000429,-0.0000015
 9,-0.00000270,0.00000601,0.00000404,-0.00000170,0.00000386,-0.00001901
 ,-0.00001063,-0.00002914,-0.00000221,0.00000680,0.00000943,0.00000048,
 0.00000727,0.00001094,0.00000471,-0.00001177,0.00000012,-0.10944191,0.
 04487457,-0.21422847,0.11405754,-0.05966953,0.24181102,0.00006690,0.00
 002877,0.00006391,0.00003088,0.00003689,0.00001720,0.00019360,0.000059
 57,-0.00002188,-0.00046885,0.00049959,-0.00005318,-0.00020774,-0.00030
 575,-0.00014786,-0.00000912,0.00000364,-0.00000213,-0.00001081,0.00000
 193,-0.00000916,0.00000225,-0.00000039,-0.00000599,0.00015836,-0.00008
 855,-0.00002928,-0.00000166,0.00001591,0.00001218,-0.00000049,0.000132
 53,0.00013542,-0.00008200,-0.00000916,-0.00000210,-0.00012218,0.000072
 54,-0.00001900,0.00006024,0.00012846,-0.00000633,0.00310120,-0.0054123
 4,-0.00273368,0.00007340,0.00019161,0.00003725,-0.00027760,0.00136311,
 -0.00003754,-0.01740594,-0.02044285,0.00581142,0.00003505,0.00001726,-
 0.00002411,-0.00000643,-0.00000270,0.00000162,-0.00000040,-0.00000299,
 0.00000479,-0.00000478,-0.00000261,0.00000405,0.00002389,-0.00002258,0
 .00004693,-0.00000908,0.00000599,-0.00000440,-0.00000043,0.00000159,-0
 .00000877,-0.00000475,0.00000102,-0.00000743,-0.00001193,-0.00005315,-
 0.00004149,0.00000244,0.00000645,0.00000683,-0.00000115,0.00000093,0.0
 0001439,-0.00000579,0.00002273,0.00000048,-0.10031818,-0.08396232,-0.0
 4633586,-0.00618842,-0.01409511,-0.00918528,0.10860728,0.00010558,0.00
 000106,0.00006653,0.00005231,0.00007288,0.00000461,0.00033045,0.000027
 48,-0.00004120,-0.00035666,-0.00000819,0.00017635,-0.00012218,-0.00027
 509,-0.00015332,-0.00001783,-0.00000325,0.00004591,-0.00001369,0.00000
 138,-0.00001375,-0.00000448,0.00000173,-0.00000881,-0.00001355,-0.0000
 0527,0.00001462,0.00003084,-0.00000345,-0.00000215,-0.00018751,0.00004
 780,-0.00008423,-0.00012374,-0.00002223,0.00000005,-0.00016409,0.00009
 806,-0.00002341,-0.00002547,0.00017567,-0.00000561,0.00448001,0.000668
 76,-0.00089673,-0.00007484,0.00041101,0.00019762,-0.00155088,0.0007706
 4,0.00065138,-0.01507388,-0.01382968,0.00610156,0.00005351,0.00002610,
 -0.00003738,-0.00001011,-0.00000420,0.00000278,-0.00000080,-0.00000416
 ,0.00000695,-0.00000776,-0.00000368,0.00000612,0.00004181,-0.00003457,
 0.00006502,-0.00001246,0.00000896,-0.00000543,-0.00000101,0.00000232,-
 0.00001137,-0.00000753,0.00000060,-0.00001070,0.00000628,-0.00011961,-
 0.00008135,-0.00000780,0.00001328,0.00001301,0.00000484,-0.00000363,0.
 00001699,0.00000078,0.00002235,0.00000132,-0.08617228,-0.21431356,-0.0
 8385648,0.00452050,0.00796112,0.00249053,0.10424906,0.23385245,-0.0000
 1959,-0.00007117,-0.00005167,0.00000026,0.00000174,-0.00003126,-0.0000
 7453,-0.00010135,0.00000717,-0.00005288,-0.00053036,-0.00061703,0.0001
 9159,0.00004292,0.00019644,0.00000561,0.00000232,0.00000869,0.00000176
 ,-0.00000613,0.00000338,0.00000211,-0.00000290,0.00000464,0.00011744,-
 0.00009303,-0.00000426,-0.00001463,0.00003100,0.00001584,0.00007827,0.
 00007616,0.00000794,0.00001963,0.00001687,0.00000488,0.00006004,-0.000
 01183,0.00002546,0.00005573,0.00000187,-0.00000886,-0.00206096,0.00478
 552,0.00281977,-0.00022021,0.00024815,0.00009953,-0.00122048,-0.001146
 92,0.00021193,0.02180653,0.02591972,0.00446986,-0.00000636,-0.00000490
 ,0.00000759,0.00000292,0.00000072,-0.00000093,-0.00000024,0.00000087,-
 0.00000231,0.00000004,0.00000106,-0.00000041,-0.00000979,0.00000646,-0
 .00002300,0.00000386,-0.00000243,0.00000332,-0.00000053,-0.00000148,0.
 00000182,0.00000463,0.00000107,0.00000280,-0.00001205,0.00002907,0.000
 02043,0.00000948,-0.00000132,-0.00000232,-0.00000547,-0.00000034,0.000
 00470,-0.00000773,0.00000464,-0.00000358,-0.04772223,-0.08817129,-0.09
 650694,-0.01113214,-0.02205674,-0.00883524,0.04385262,0.08506709,0.099
 97992,0.00011347,0.00003617,0.00005658,0.00005299,0.00006416,0.0000176
 8,0.00026513,-0.00001404,-0.00002583,0.00026395,0.00043440,0.00040769,
 -0.00014444,-0.00024225,-0.00010978,-0.00003529,0.00000212,0.00001877,
 -0.00000932,0.00000392,-0.00001396,-0.00000515,-0.00000055,-0.00000951
 ,0.00031038,-0.00004714,-0.00004778,0.00000753,0.00000299,-0.00002507,
 -0.00028521,-0.00008580,0.00004450,-0.00010891,-0.00003587,-0.00000328
 ,-0.00016469,0.00008154,-0.00003101,-0.00003356,0.00016201,-0.00000475
 ,-0.00014586,-0.00323807,0.00177633,-0.00090721,0.00061142,0.00036713,
 -0.00004852,0.00016112,0.00004642,-0.01998372,0.01190910,0.01209963,0.
 00004519,0.00002668,-0.00003480,-0.00001025,-0.00000360,0.00000298,-0.
 00000064,-0.00000492,0.00000822,-0.00000586,-0.00000467,0.00000478,0.0
 0004323,-0.00003046,0.00006607,-0.00001224,0.00000842,-0.00000608,-0.0
 0000075,0.00000251,-0.00001031,-0.00000931,-0.00000065,-0.00001035,0.0
 0000711,-0.00011573,-0.00007345,-0.00000893,0.00001523,0.00001418,0.00
 000136,0.00000155,0.00001636,0.00000177,0.00002095,0.00000110,-0.17325
 198,0.12775237,0.03755257,-0.01026926,0.01271287,0.00278124,0.01278224
 ,-0.00992747,-0.00365271,0.19154674,-0.00000319,0.00004464,-0.00000340
 ,-0.00000046,-0.00000899,-0.00000680,-0.00005792,0.00001666,0.00001854
 ,-0.00011136,0.00014178,0.00031540,-0.00015225,-0.00004626,-0.00009455
 ,0.00000584,0.,-0.00000542,0.00000371,-0.00000026,0.00000205,-0.000004
 78,-0.00000227,-0.00000254,-0.00005142,0.00000812,-0.00011148,0.000021
 54,-0.00002115,-0.00002880,0.00014443,0.00007169,0.00003815,0.00001498
 ,0.00000268,-0.00000104,-0.00000583,0.00000032,-0.00000367,0.00005659,
 0.00000501,-0.00002273,-0.00267883,-0.00011252,0.00230509,-0.00039192,
 0.00052692,0.00029272,-0.00007243,0.00037441,0.00026397,-0.01444515,0.
 01306314,0.00593279,-0.00000762,-0.00000403,0.00000503,0.00000130,0.00
 000047,-0.00000026,-0.00000021,0.00000065,-0.00000087,0.00000110,0.000
 00051,-0.00000079,-0.00000695,0.00000138,0.00000212,-0.00000030,-0.000
 00045,-0.00000088,0.00000039,0.00000029,-0.00000055,0.00000026,0.00000
 073,0.00000010,-0.00000265,0.00002103,0.00000971,0.00000666,-0.0000035
 9,-0.00000290,-0.00000441,-0.00000149,0.00000271,-0.00000590,0.0000062
 7,-0.00000143,0.13693089,-0.19325748,-0.04583879,0.00351328,-0.0037724
 6,-0.00191190,0.01756092,-0.01553310,-0.00403507,-0.14025831,0.1984773
 4,-0.00005184,-0.00006007,-0.00003503,-0.00002904,-0.00003620,0.000002
 80,-0.00013409,-0.00002345,0.00000947,0.00020396,-0.00029902,-0.000704
 00,0.00022057,0.00014266,0.00024325,0.00000830,0.00000552,-0.00003537,
 0.00000007,-0.00000083,0.00000595,0.00001214,0.00000178,0.00000947,0.0
 0041602,0.00000643,0.00012949,-0.00007855,0.00006038,0.00003187,0.0001
 2159,0.00003170,0.00017126,0.00005057,0.00001932,0.00000077,0.00010288
 ,-0.00004998,0.00002269,0.00000107,-0.00009361,0.00003469,0.00198678,0
 .00290826,-0.00251341,0.00116732,-0.00052787,-0.00042961,-0.00016930,0
 .00012568,0.00000129,0.02406845,-0.01645115,-0.01176975,-0.00002153,-0
 .00001121,0.00001661,0.00000448,0.00000194,-0.00000129,0.00000054,0.00
 000194,-0.00000344,0.00000264,0.00000158,-0.00000256,-0.00002004,0.000
 01823,-0.00004126,0.00000737,-0.00000494,0.00000412,0.00000034,-0.0000
 0158,0.00000659,0.00000507,-0.00000024,0.00000647,-0.00001614,0.000045
 56,0.00002689,0.00000371,-0.00000343,-0.00000143,-0.00000076,0.0000032
 2,-0.00000207,0.00000078,-0.00001414,-0.00000142,0.03305599,-0.0379634
 2,-0.06137036,-0.01836218,0.01897793,0.00826641,0.00866638,-0.00969651
 ,-0.00180828,-0.05122360,0.04288551,0.06972918\\0.00001338,-0.00001050
 ,-0.00000157,0.00001165,0.00000423,-0.00001098,-0.00000407,0.00000177,
 0.00001843,0.00000653,0.00000988,-0.00000110,-0.00001454,-0.00001052,0
 .00000261,0.00000456,-0.00000036,0.00000839,0.00000031,0.00000067,0.00
 000260,0.00000109,-0.00000398,-0.00000368,0.00000314,-0.00000377,0.000
 00255,-0.00000056,0.00000494,-0.00000093,0.00000415,-0.00000397,0.0000
 1088,-0.00000343,-0.00000819,0.00000319,-0.00001721,0.00000021,-0.0000
 0637,0.00000571,0.00000579,-0.00001064,-0.00001412,0.00001469,0.000003
 96,-0.00000150,0.00000914,0.00000822,-0.00000241,0.00000577,0.00000304
 ,0.00000868,0.00000083,0.00001261,0.00000757,-0.00000050,-0.00000328,0
 .00000492,-0.00000802,0.00000105,0.00000318,-0.00000284,0.00000669,-0.
 00000106,-0.00000148,-0.00000014,0.00000647,-0.00000917,-0.00000764,-0
 .00000174,-0.00000468,-0.00001597,-0.00000126,-0.00001089,-0.00001426,
 -0.00000111,-0.00000941,-0.00001013,-0.00000921,0.00000496,-0.00000921
 ,-0.00000440,0.00000202,-0.00001256,-0.00000700,0.00000719,-0.00000831
 ,-0.00000521,0.00000150,-0.00001218,-0.00000007,0.00000499,0.00001082,
 0.00000335,-0.00000028,0.00000939,0.00000097,0.00000643,0.00000883,0.0
 0000325,0.00000354,0.00001570\\\@


 YOU CAN LEAD A BOY TO COLLEGE....
 BUT YOU CANNOT MAKE HIM THINK....
           ELBERT HUBBARD
 Job cpu time:       0 days  2 hours 15 minutes  4.4 seconds.
 Elapsed time:       0 days  0 hours 56 minutes 12.9 seconds.
 File lengths (MBytes):  RWF=    382 Int=      0 D2E=      0 Chk=     17 Scr=      1
 Normal termination of Gaussian 16 at Fri May 24 09:36:07 2019.
