 Entering Gaussian System, Link 0=g16
 Input=clay-glucose_cation-172-b3lyp_d3bj-631gd-pcm_thf.gjf
 Output=clay-glucose_cation-172-b3lyp_d3bj-631gd-pcm_thf.out
 Initial command:
 /n/sw/g16_nehalem/g16/l1.exe "/scratch/Gau-193011.inp" -scrdir="/scratch/"
 Entering Link 1 = /n/sw/g16_nehalem/g16/l1.exe PID=    193013.
  
 Copyright (c) 1988,1990,1992,1993,1995,1998,2003,2009,2016,
            Gaussian, Inc.  All Rights Reserved.
  
 This is part of the Gaussian(R) 16 program.  It is based on
 the Gaussian(R) 09 system (copyright 2009, Gaussian, Inc.),
 the Gaussian(R) 03 system (copyright 2003, Gaussian, Inc.),
 the Gaussian(R) 98 system (copyright 1998, Gaussian, Inc.),
 the Gaussian(R) 94 system (copyright 1995, Gaussian, Inc.),
 the Gaussian 92(TM) system (copyright 1992, Gaussian, Inc.),
 the Gaussian 90(TM) system (copyright 1990, Gaussian, Inc.),
 the Gaussian 88(TM) system (copyright 1988, Gaussian, Inc.),
 the Gaussian 86(TM) system (copyright 1986, Carnegie Mellon
 University), and the Gaussian 82(TM) system (copyright 1983,
 Carnegie Mellon University). Gaussian is a federally registered
 trademark of Gaussian, Inc.
  
 This software contains proprietary and confidential information,
 including trade secrets, belonging to Gaussian, Inc.
  
 This software is provided under written license and may be
 used, copied, transmitted, or stored only in accord with that
 written license.
  
 The following legend is applicable only to US Government
 contracts under FAR:
  
                    RESTRICTED RIGHTS LEGEND
  
 Use, reproduction and disclosure by the US Government is
 subject to restrictions as set forth in subparagraphs (a)
 and (c) of the Commercial Computer Software - Restricted
 Rights clause in FAR 52.227-19.
  
 Gaussian, Inc.
 340 Quinnipiac St., Bldg. 40, Wallingford CT 06492
  
  
 ---------------------------------------------------------------
 Warning -- This program may not be used in any manner that
 competes with the business of Gaussian, Inc. or will provide
 assistance to any competitor of Gaussian, Inc.  The licensee
 of this program is prohibited from giving any competitor of
 Gaussian, Inc. access to this program.  By using this program,
 the user acknowledges that Gaussian, Inc. is engaged in the
 business of creating and licensing software in the field of
 computational chemistry and represents and warrants to the
 licensee that it is not a competitor of Gaussian, Inc. and that
 it will not use this program in any manner prohibited above.
 ---------------------------------------------------------------
  

 Cite this work as:
 Gaussian 16, Revision A.03,
 M. J. Frisch, G. W. Trucks, H. B. Schlegel, G. E. Scuseria, 
 M. A. Robb, J. R. Cheeseman, G. Scalmani, V. Barone, 
 G. A. Petersson, H. Nakatsuji, X. Li, M. Caricato, A. V. Marenich, 
 J. Bloino, B. G. Janesko, R. Gomperts, B. Mennucci, H. P. Hratchian, 
 J. V. Ortiz, A. F. Izmaylov, J. L. Sonnenberg, D. Williams-Young, 
 F. Ding, F. Lipparini, F. Egidi, J. Goings, B. Peng, A. Petrone, 
 T. Henderson, D. Ranasinghe, V. G. Zakrzewski, J. Gao, N. Rega, 
 G. Zheng, W. Liang, M. Hada, M. Ehara, K. Toyota, R. Fukuda, 
 J. Hasegawa, M. Ishida, T. Nakajima, Y. Honda, O. Kitao, H. Nakai, 
 T. Vreven, K. Throssell, J. A. Montgomery, Jr., J. E. Peralta, 
 F. Ogliaro, M. J. Bearpark, J. J. Heyd, E. N. Brothers, K. N. Kudin, 
 V. N. Staroverov, T. A. Keith, R. Kobayashi, J. Normand, 
 K. Raghavachari, A. P. Rendell, J. C. Burant, S. S. Iyengar, 
 J. Tomasi, M. Cossi, J. M. Millam, M. Klene, C. Adamo, R. Cammi, 
 J. W. Ochterski, R. L. Martin, K. Morokuma, O. Farkas, 
 J. B. Foresman, and D. J. Fox, Gaussian, Inc., Wallingford CT, 2016.
 
 ******************************************
 Gaussian 16:  ES64L-G16RevA.03 25-Dec-2016
                24-May-2019 
 ******************************************
 %nprocshared=4
 Will use up to    4 processors via shared memory.
 %mem=3GB
 -------------------------------------------------------------------
 #p b3lyp 6-31g* opt freq=noraman scrf=(pcm,solvent=tetrahydrofuran)
 -------------------------------------------------------------------
 1/18=20,19=15,26=3,38=1/1,3;
 2/9=110,12=2,17=6,18=5,40=1/2;
 3/5=1,6=6,7=1,11=2,25=1,30=1,70=2201,71=1,72=20,74=-5/1,2,3;
 4//1;
 5/5=2,38=5,53=20/2;
 6/7=2,8=2,9=2,10=2,28=1/1;
 7//1,2,3,16;
 1/18=20,19=15,26=3/3(2);
 2/9=110/2;
 99//99;
 2/9=110/2;
 3/5=1,6=6,7=1,11=2,25=1,30=1,70=2205,71=1,72=20,74=-5/1,2,3;
 4/5=5,16=3,69=1/1;
 5/5=2,38=5,53=20/2;
 7//1,2,3,16;
 1/18=20,19=15,26=3/3(-5);
 2/9=110/2;
 6/7=2,8=2,9=2,10=2,19=2,28=1/1;
 99/9=1/99;
 Leave Link    1 at Fri May 24 08:32:16 2019, MaxMem=   402653184 cpu:               0.3 elap:               0.2
 (Enter /n/sw/g16_nehalem/g16/l101.exe)
 -----
 title
 -----
 Symbolic Z-matrix:
 Charge =  1 Multiplicity = 1
 6                     1.16909   0.89353   0.21222 
 6                     2.01394  -0.36594  -0.04198 
 6                     1.55163  -0.87338  -1.3876 
 6                    -0.71634  -0.68289  -0.58817 
 6                    -0.3457    0.56357   0.24293 
 1                     2.20776  -1.15804  -2.21097 
 1                     3.07791  -0.11644  -0.07522 
 1                     1.463     1.33563   1.17226 
 1                    -0.71192  -1.55144   0.07014 
 1                    -0.88445   1.42601  -0.16894 
 8                     0.32921  -1.03197  -1.62133 
 8                     1.7114   -1.36378   0.90803 
 8                     1.4927    1.71958  -0.8939 
 8                    -0.80359   0.26807   1.54759 
 6                    -2.00764  -0.54566  -1.41125 
 1                    -2.25052  -1.51016  -1.87871 
 1                    -1.84254   0.19258  -2.20265 
 8                    -3.0644   -0.06338  -0.61969 
 6                     2.78031  -2.28398   1.19144 
 1                     2.42548  -2.89599   2.02115 
 1                     3.0026   -2.928     0.33402 
 1                     3.68307  -1.74042   1.49111 
 6                     1.32101   3.12136  -0.67569 
 1                     1.96739   3.46699   0.14086 
 1                     1.61069   3.61441  -1.60484 
 1                     0.279     3.37407  -0.44404 
 6                    -1.33464   1.395     2.24563 
 1                    -2.19706   1.81219   1.71089 
 1                    -1.65295   1.02715   3.22257 
 1                    -0.57937   2.17914   2.38729 
 6                    -3.66583  -1.04116   0.23074 
 1                    -3.96712  -1.92806  -0.34274 
 1                    -4.55359  -0.57036   0.65761 
 1                    -2.99496  -1.34012   1.04487 
 
 ITRead=  0  0  0  0  0  0  0  0  0  0  0  0  0  0  0  0  0  0  0  0
 ITRead=  0  0  0  0  0  0  0  0  0  0  0  0  0  0
 MicOpt= -1 -1 -1 -1 -1 -1 -1 -1 -1 -1 -1 -1 -1 -1 -1 -1 -1 -1 -1 -1
 MicOpt= -1 -1 -1 -1 -1 -1 -1 -1 -1 -1 -1 -1 -1 -1
 NAtoms=     34 NQM=       34 NQMF=       0 NMMI=      0 NMMIF=      0
                NMic=       0 NMicF=      0.
                    Isotopes and Nuclear Properties:
 (Nuclear quadrupole moments (NQMom) in fm**2, nuclear magnetic moments (NMagM)
  in nuclear magnetons)

  Atom         1           2           3           4           5           6           7           8           9          10
 IAtWgt=          12          12          12          12          12           1           1           1           1           1
 AtmWgt=  12.0000000  12.0000000  12.0000000  12.0000000  12.0000000   1.0078250   1.0078250   1.0078250   1.0078250   1.0078250
 NucSpn=           0           0           0           0           0           1           1           1           1           1
 AtZEff=   0.0000000   0.0000000   0.0000000   0.0000000   0.0000000   0.0000000   0.0000000   0.0000000   0.0000000   0.0000000
 NQMom=    0.0000000   0.0000000   0.0000000   0.0000000   0.0000000   0.0000000   0.0000000   0.0000000   0.0000000   0.0000000
 NMagM=    0.0000000   0.0000000   0.0000000   0.0000000   0.0000000   2.7928460   2.7928460   2.7928460   2.7928460   2.7928460
 AtZNuc=   6.0000000   6.0000000   6.0000000   6.0000000   6.0000000   1.0000000   1.0000000   1.0000000   1.0000000   1.0000000

  Atom        11          12          13          14          15          16          17          18          19          20
 IAtWgt=          16          16          16          16          12           1           1          16          12           1
 AtmWgt=  15.9949146  15.9949146  15.9949146  15.9949146  12.0000000   1.0078250   1.0078250  15.9949146  12.0000000   1.0078250
 NucSpn=           0           0           0           0           0           1           1           0           0           1
 AtZEff=   0.0000000   0.0000000   0.0000000   0.0000000   0.0000000   0.0000000   0.0000000   0.0000000   0.0000000   0.0000000
 NQMom=    0.0000000   0.0000000   0.0000000   0.0000000   0.0000000   0.0000000   0.0000000   0.0000000   0.0000000   0.0000000
 NMagM=    0.0000000   0.0000000   0.0000000   0.0000000   0.0000000   2.7928460   2.7928460   0.0000000   0.0000000   2.7928460
 AtZNuc=   8.0000000   8.0000000   8.0000000   8.0000000   6.0000000   1.0000000   1.0000000   8.0000000   6.0000000   1.0000000

  Atom        21          22          23          24          25          26          27          28          29          30
 IAtWgt=           1           1          12           1           1           1          12           1           1           1
 AtmWgt=   1.0078250   1.0078250  12.0000000   1.0078250   1.0078250   1.0078250  12.0000000   1.0078250   1.0078250   1.0078250
 NucSpn=           1           1           0           1           1           1           0           1           1           1
 AtZEff=   0.0000000   0.0000000   0.0000000   0.0000000   0.0000000   0.0000000   0.0000000   0.0000000   0.0000000   0.0000000
 NQMom=    0.0000000   0.0000000   0.0000000   0.0000000   0.0000000   0.0000000   0.0000000   0.0000000   0.0000000   0.0000000
 NMagM=    2.7928460   2.7928460   0.0000000   2.7928460   2.7928460   2.7928460   0.0000000   2.7928460   2.7928460   2.7928460
 AtZNuc=   1.0000000   1.0000000   6.0000000   1.0000000   1.0000000   1.0000000   6.0000000   1.0000000   1.0000000   1.0000000

  Atom        31          32          33          34
 IAtWgt=          12           1           1           1
 AtmWgt=  12.0000000   1.0078250   1.0078250   1.0078250
 NucSpn=           0           1           1           1
 AtZEff=   0.0000000   0.0000000   0.0000000   0.0000000
 NQMom=    0.0000000   0.0000000   0.0000000   0.0000000
 NMagM=    0.0000000   2.7928460   2.7928460   2.7928460
 AtZNuc=   6.0000000   1.0000000   1.0000000   1.0000000
 Leave Link  101 at Fri May 24 08:32:16 2019, MaxMem=   402653184 cpu:               0.6 elap:               0.2
 (Enter /n/sw/g16_nehalem/g16/l103.exe)

 GradGradGradGradGradGradGradGradGradGradGradGradGradGradGradGradGradGrad
 Berny optimization.
 Initialization pass.
                           ----------------------------
                           !    Initial Parameters    !
                           ! (Angstroms and Degrees)  !
 --------------------------                            --------------------------
 ! Name  Definition              Value          Derivative Info.                !
 --------------------------------------------------------------------------------
 ! R1    R(1,2)                  1.5377         estimate D2E/DX2                !
 ! R2    R(1,5)                  1.5506         estimate D2E/DX2                !
 ! R3    R(1,8)                  1.0971         estimate D2E/DX2                !
 ! R4    R(1,13)                 1.4179         estimate D2E/DX2                !
 ! R5    R(2,3)                  1.5106         estimate D2E/DX2                !
 ! R6    R(2,7)                  1.0933         estimate D2E/DX2                !
 ! R7    R(2,12)                 1.4106         estimate D2E/DX2                !
 ! R8    R(3,6)                  1.0906         estimate D2E/DX2                !
 ! R9    R(3,11)                 1.2546         estimate D2E/DX2                !
 ! R10   R(4,5)                  1.5433         estimate D2E/DX2                !
 ! R11   R(4,9)                  1.0898         estimate D2E/DX2                !
 ! R12   R(4,11)                 1.5108         estimate D2E/DX2                !
 ! R13   R(4,15)                 1.5374         estimate D2E/DX2                !
 ! R14   R(5,10)                 1.0971         estimate D2E/DX2                !
 ! R15   R(5,14)                 1.4139         estimate D2E/DX2                !
 ! R16   R(12,19)                1.4386         estimate D2E/DX2                !
 ! R17   R(13,23)                1.429          estimate D2E/DX2                !
 ! R18   R(14,27)                1.428          estimate D2E/DX2                !
 ! R19   R(15,16)                1.099          estimate D2E/DX2                !
 ! R20   R(15,17)                1.0948         estimate D2E/DX2                !
 ! R21   R(15,18)                1.4057         estimate D2E/DX2                !
 ! R22   R(18,31)                1.4286         estimate D2E/DX2                !
 ! R23   R(19,20)                1.0904         estimate D2E/DX2                !
 ! R24   R(19,21)                1.0951         estimate D2E/DX2                !
 ! R25   R(19,22)                1.0956         estimate D2E/DX2                !
 ! R26   R(23,24)                1.0973         estimate D2E/DX2                !
 ! R27   R(23,25)                1.091          estimate D2E/DX2                !
 ! R28   R(23,26)                1.097          estimate D2E/DX2                !
 ! R29   R(27,28)                1.0972         estimate D2E/DX2                !
 ! R30   R(27,29)                1.0914         estimate D2E/DX2                !
 ! R31   R(27,30)                1.0979         estimate D2E/DX2                !
 ! R32   R(31,32)                1.0983         estimate D2E/DX2                !
 ! R33   R(31,33)                1.0918         estimate D2E/DX2                !
 ! R34   R(31,34)                1.0965         estimate D2E/DX2                !
 ! A1    A(2,1,5)              111.4512         estimate D2E/DX2                !
 ! A2    A(2,1,8)              109.1194         estimate D2E/DX2                !
 ! A3    A(2,1,13)             102.874          estimate D2E/DX2                !
 ! A4    A(5,1,8)              109.2771         estimate D2E/DX2                !
 ! A5    A(5,1,13)             111.2458         estimate D2E/DX2                !
 ! A6    A(8,1,13)             112.7518         estimate D2E/DX2                !
 ! A7    A(1,2,3)              104.7285         estimate D2E/DX2                !
 ! A8    A(1,2,7)              110.6575         estimate D2E/DX2                !
 ! A9    A(1,2,12)             110.5007         estimate D2E/DX2                !
 ! A10   A(3,2,7)              110.3284         estimate D2E/DX2                !
 ! A11   A(3,2,12)             107.2575         estimate D2E/DX2                !
 ! A12   A(7,2,12)             112.9924         estimate D2E/DX2                !
 ! A13   A(2,3,6)              125.1733         estimate D2E/DX2                !
 ! A14   A(2,3,11)             120.4374         estimate D2E/DX2                !
 ! A15   A(6,3,11)             114.3639         estimate D2E/DX2                !
 ! A16   A(5,4,9)              108.5061         estimate D2E/DX2                !
 ! A17   A(5,4,11)             112.8728         estimate D2E/DX2                !
 ! A18   A(5,4,15)             114.7034         estimate D2E/DX2                !
 ! A19   A(9,4,11)             103.0688         estimate D2E/DX2                !
 ! A20   A(9,4,15)             113.4478         estimate D2E/DX2                !
 ! A21   A(11,4,15)            103.6375         estimate D2E/DX2                !
 ! A22   A(1,5,4)              113.3164         estimate D2E/DX2                !
 ! A23   A(1,5,10)             107.7582         estimate D2E/DX2                !
 ! A24   A(1,5,14)             112.2788         estimate D2E/DX2                !
 ! A25   A(4,5,10)             108.3488         estimate D2E/DX2                !
 ! A26   A(4,5,14)             104.4976         estimate D2E/DX2                !
 ! A27   A(10,5,14)            110.589          estimate D2E/DX2                !
 ! A28   A(3,11,4)             121.1773         estimate D2E/DX2                !
 ! A29   A(2,12,19)            115.2013         estimate D2E/DX2                !
 ! A30   A(1,13,23)            115.1464         estimate D2E/DX2                !
 ! A31   A(5,14,27)            113.9884         estimate D2E/DX2                !
 ! A32   A(4,15,16)            109.5729         estimate D2E/DX2                !
 ! A33   A(4,15,17)            108.6947         estimate D2E/DX2                !
 ! A34   A(4,15,18)            111.1359         estimate D2E/DX2                !
 ! A35   A(16,15,17)           108.5205         estimate D2E/DX2                !
 ! A36   A(16,15,18)           111.9927         estimate D2E/DX2                !
 ! A37   A(17,15,18)           106.8029         estimate D2E/DX2                !
 ! A38   A(15,18,31)           114.6377         estimate D2E/DX2                !
 ! A39   A(12,19,20)           105.4943         estimate D2E/DX2                !
 ! A40   A(12,19,21)           111.8842         estimate D2E/DX2                !
 ! A41   A(12,19,22)           110.4127         estimate D2E/DX2                !
 ! A42   A(20,19,21)           109.3747         estimate D2E/DX2                !
 ! A43   A(20,19,22)           109.7851         estimate D2E/DX2                !
 ! A44   A(21,19,22)           109.7958         estimate D2E/DX2                !
 ! A45   A(13,23,24)           110.6002         estimate D2E/DX2                !
 ! A46   A(13,23,25)           106.3414         estimate D2E/DX2                !
 ! A47   A(13,23,26)           111.8613         estimate D2E/DX2                !
 ! A48   A(24,23,25)           109.5722         estimate D2E/DX2                !
 ! A49   A(24,23,26)           109.26           estimate D2E/DX2                !
 ! A50   A(25,23,26)           109.1439         estimate D2E/DX2                !
 ! A51   A(14,27,28)           110.7406         estimate D2E/DX2                !
 ! A52   A(14,27,29)           106.2629         estimate D2E/DX2                !
 ! A53   A(14,27,30)           111.7697         estimate D2E/DX2                !
 ! A54   A(28,27,29)           109.5844         estimate D2E/DX2                !
 ! A55   A(28,27,30)           109.3929         estimate D2E/DX2                !
 ! A56   A(29,27,30)           109.0193         estimate D2E/DX2                !
 ! A57   A(18,31,32)           110.937          estimate D2E/DX2                !
 ! A58   A(18,31,33)           106.2556         estimate D2E/DX2                !
 ! A59   A(18,31,34)           111.7789         estimate D2E/DX2                !
 ! A60   A(32,31,33)           109.2272         estimate D2E/DX2                !
 ! A61   A(32,31,34)           109.5953         estimate D2E/DX2                !
 ! A62   A(33,31,34)           108.9517         estimate D2E/DX2                !
 ! D1    D(5,1,2,3)             60.3144         estimate D2E/DX2                !
 ! D2    D(5,1,2,7)            179.1956         estimate D2E/DX2                !
 ! D3    D(5,1,2,12)           -54.8853         estimate D2E/DX2                !
 ! D4    D(8,1,2,3)           -178.9132         estimate D2E/DX2                !
 ! D5    D(8,1,2,7)            -60.032          estimate D2E/DX2                !
 ! D6    D(8,1,2,12)            65.8871         estimate D2E/DX2                !
 ! D7    D(13,1,2,3)           -58.9725         estimate D2E/DX2                !
 ! D8    D(13,1,2,7)            59.9087         estimate D2E/DX2                !
 ! D9    D(13,1,2,12)         -174.1723         estimate D2E/DX2                !
 ! D10   D(2,1,5,4)            -26.7376         estimate D2E/DX2                !
 ! D11   D(2,1,5,10)          -146.6042         estimate D2E/DX2                !
 ! D12   D(2,1,5,14)            91.3731         estimate D2E/DX2                !
 ! D13   D(8,1,5,4)           -147.4176         estimate D2E/DX2                !
 ! D14   D(8,1,5,10)            92.7158         estimate D2E/DX2                !
 ! D15   D(8,1,5,14)           -29.3069         estimate D2E/DX2                !
 ! D16   D(13,1,5,4)            87.4431         estimate D2E/DX2                !
 ! D17   D(13,1,5,10)          -32.4235         estimate D2E/DX2                !
 ! D18   D(13,1,5,14)         -154.4463         estimate D2E/DX2                !
 ! D19   D(2,1,13,23)         -155.0327         estimate D2E/DX2                !
 ! D20   D(5,1,13,23)           85.5376         estimate D2E/DX2                !
 ! D21   D(8,1,13,23)          -37.6339         estimate D2E/DX2                !
 ! D22   D(1,2,3,6)            131.3847         estimate D2E/DX2                !
 ! D23   D(1,2,3,11)           -50.5553         estimate D2E/DX2                !
 ! D24   D(7,2,3,6)             12.2816         estimate D2E/DX2                !
 ! D25   D(7,2,3,11)          -169.6584         estimate D2E/DX2                !
 ! D26   D(12,2,3,6)          -111.1733         estimate D2E/DX2                !
 ! D27   D(12,2,3,11)           66.8868         estimate D2E/DX2                !
 ! D28   D(1,2,12,19)         -152.3045         estimate D2E/DX2                !
 ! D29   D(3,2,12,19)           94.0937         estimate D2E/DX2                !
 ! D30   D(7,2,12,19)          -27.7084         estimate D2E/DX2                !
 ! D31   D(2,3,11,4)             1.9126         estimate D2E/DX2                !
 ! D32   D(6,3,11,4)          -179.8281         estimate D2E/DX2                !
 ! D33   D(9,4,5,1)             93.42           estimate D2E/DX2                !
 ! D34   D(9,4,5,10)          -147.0509         estimate D2E/DX2                !
 ! D35   D(9,4,5,14)           -29.1175         estimate D2E/DX2                !
 ! D36   D(11,4,5,1)           -20.1583         estimate D2E/DX2                !
 ! D37   D(11,4,5,10)           99.3708         estimate D2E/DX2                !
 ! D38   D(11,4,5,14)         -142.6959         estimate D2E/DX2                !
 ! D39   D(15,4,5,1)          -138.5659         estimate D2E/DX2                !
 ! D40   D(15,4,5,10)          -19.0368         estimate D2E/DX2                !
 ! D41   D(15,4,5,14)           98.8966         estimate D2E/DX2                !
 ! D42   D(5,4,11,3)            36.0139         estimate D2E/DX2                !
 ! D43   D(9,4,11,3)           -80.8312         estimate D2E/DX2                !
 ! D44   D(15,4,11,3)          160.7011         estimate D2E/DX2                !
 ! D45   D(5,4,15,16)         -173.7873         estimate D2E/DX2                !
 ! D46   D(5,4,15,17)           67.7744         estimate D2E/DX2                !
 ! D47   D(5,4,15,18)          -49.4841         estimate D2E/DX2                !
 ! D48   D(9,4,15,16)          -48.3121         estimate D2E/DX2                !
 ! D49   D(9,4,15,17)         -166.7504         estimate D2E/DX2                !
 ! D50   D(9,4,15,18)           75.9911         estimate D2E/DX2                !
 ! D51   D(11,4,15,16)          62.7178         estimate D2E/DX2                !
 ! D52   D(11,4,15,17)         -55.7205         estimate D2E/DX2                !
 ! D53   D(11,4,15,18)        -172.979          estimate D2E/DX2                !
 ! D54   D(1,5,14,27)           93.4526         estimate D2E/DX2                !
 ! D55   D(4,5,14,27)         -143.335          estimate D2E/DX2                !
 ! D56   D(10,5,14,27)         -26.9453         estimate D2E/DX2                !
 ! D57   D(2,12,19,20)         173.089          estimate D2E/DX2                !
 ! D58   D(2,12,19,21)         -68.0725         estimate D2E/DX2                !
 ! D59   D(2,12,19,22)          54.5367         estimate D2E/DX2                !
 ! D60   D(1,13,23,24)          60.9021         estimate D2E/DX2                !
 ! D61   D(1,13,23,25)         179.7937         estimate D2E/DX2                !
 ! D62   D(1,13,23,26)         -61.1371         estimate D2E/DX2                !
 ! D63   D(5,14,27,28)          60.6629         estimate D2E/DX2                !
 ! D64   D(5,14,27,29)         179.5987         estimate D2E/DX2                !
 ! D65   D(5,14,27,30)         -61.5827         estimate D2E/DX2                !
 ! D66   D(4,15,18,31)         -77.9836         estimate D2E/DX2                !
 ! D67   D(16,15,18,31)         44.9379         estimate D2E/DX2                !
 ! D68   D(17,15,18,31)        163.611          estimate D2E/DX2                !
 ! D69   D(15,18,31,32)        -52.7532         estimate D2E/DX2                !
 ! D70   D(15,18,31,33)       -171.3626         estimate D2E/DX2                !
 ! D71   D(15,18,31,34)         69.8999         estimate D2E/DX2                !
 --------------------------------------------------------------------------------
 Trust Radius=3.00D-01 FncErr=1.00D-07 GrdErr=1.00D-06 EigMax=2.50D+02 EigMin=1.00D-04
 Number of steps in this run=    177 maximum allowed number of steps=    204.
 GradGradGradGradGradGradGradGradGradGradGradGradGradGradGradGradGradGrad

 Leave Link  103 at Fri May 24 08:32:16 2019, MaxMem=   402653184 cpu:               0.1 elap:               0.1
 (Enter /n/sw/g16_nehalem/g16/l202.exe)
                          Input orientation:                          
 ---------------------------------------------------------------------
 Center     Atomic      Atomic             Coordinates (Angstroms)
 Number     Number       Type             X           Y           Z
 ---------------------------------------------------------------------
      1          6           0        1.169089    0.893525    0.212215
      2          6           0        2.013936   -0.365935   -0.041981
      3          6           0        1.551626   -0.873377   -1.387598
      4          6           0       -0.716338   -0.682890   -0.588170
      5          6           0       -0.345698    0.563571    0.242927
      6          1           0        2.207763   -1.158038   -2.210971
      7          1           0        3.077913   -0.116441   -0.075217
      8          1           0        1.462997    1.335631    1.172261
      9          1           0       -0.711916   -1.551444    0.070136
     10          1           0       -0.884447    1.426014   -0.168939
     11          8           0        0.329207   -1.031973   -1.621325
     12          8           0        1.711404   -1.363777    0.908033
     13          8           0        1.492702    1.719583   -0.893895
     14          8           0       -0.803587    0.268070    1.547591
     15          6           0       -2.007638   -0.545662   -1.411248
     16          1           0       -2.250519   -1.510156   -1.878712
     17          1           0       -1.842542    0.192577   -2.202648
     18          8           0       -3.064401   -0.063384   -0.619691
     19          6           0        2.780309   -2.283978    1.191438
     20          1           0        2.425483   -2.895992    2.021150
     21          1           0        3.002603   -2.927997    0.334020
     22          1           0        3.683067   -1.740419    1.491111
     23          6           0        1.321011    3.121359   -0.675686
     24          1           0        1.967386    3.466989    0.140862
     25          1           0        1.610690    3.614412   -1.604836
     26          1           0        0.278995    3.374073   -0.444038
     27          6           0       -1.334635    1.395000    2.245634
     28          1           0       -2.197058    1.812193    1.710885
     29          1           0       -1.652949    1.027148    3.222573
     30          1           0       -0.579366    2.179141    2.387287
     31          6           0       -3.665832   -1.041164    0.230741
     32          1           0       -3.967124   -1.928056   -0.342738
     33          1           0       -4.553590   -0.570364    0.657614
     34          1           0       -2.994963   -1.340123    1.044875
 ---------------------------------------------------------------------
                    Distance matrix (angstroms):
                    1          2          3          4          5
     1  C    0.000000
     2  C    1.537733   0.000000
     3  C    2.414059   1.510600   0.000000
     4  C    2.584673   2.802352   2.412267   0.000000
     5  C    1.550610   2.552063   2.885008   1.543296   0.000000
     6  H    3.340596   2.317221   1.090638   3.377812   3.937730
     7  H    2.178591   1.093343   2.150546   3.870443   3.504960
     8  H    1.097054   2.161769   3.382373   3.452976   2.175113
     9  H    3.088080   2.974604   2.776398   1.089850   2.153430
    10  H    2.155419   3.409959   3.564657   2.156732   1.097129
    11  O    2.788335   2.403382   1.254627   1.510772   2.544935
    12  O    2.423568   1.410582   2.352858   2.931921   2.896326
    13  O    1.417948   2.312321   2.640200   3.277987   2.451212
    14  O    2.462899   3.296534   3.932590   2.339533   1.413906
    15  C    3.846880   4.252088   3.574397   1.537447   2.593981
    16  H    4.673690   4.782091   3.886256   2.168774   3.525626
    17  H    3.923368   4.455653   3.649786   2.154372   2.891196
    18  O    4.419296   5.120038   4.749050   2.428617   2.920364
    19  C    3.694785   2.405730   3.186045   4.237573   4.333605
    20  H    4.383060   3.290451   4.058837   4.645149   4.775992
    21  H    4.240359   2.771823   3.048076   4.440885   4.838436
    22  H    3.859187   2.650580   3.685345   4.979613   4.805963
    23  C    2.403059   3.611502   4.064224   4.316336   3.188110
    24  H    2.695382   3.837565   4.620370   4.995534   3.713571
    25  H    3.301501   4.295147   4.493432   4.991540   4.068085
    26  H    2.715889   4.142382   4.533291   4.179762   2.959913
    27  C    3.264185   4.421199   5.164921   3.567963   2.383297
    28  H    3.797487   5.054627   5.555674   3.701841   2.672357
    29  H    4.128439   5.103336   5.927476   4.280564   3.286655
    30  H    3.072595   4.370809   5.301769   4.130778   2.694986
    31  C    5.207670   5.726262   5.465258   3.081962   3.687630
    32  H    5.886423   6.189003   5.714952   3.489740   4.434629
    33  H    5.923716   6.607845   6.445803   4.035981   4.377685
    34  H    4.798107   5.217218   5.177475   2.879396   3.359431
                    6          7          8          9         10
     6  H    0.000000
     7  H    2.530520   0.000000
     8  H    4.268410   2.504530   0.000000
     9  H    3.725955   4.055017   3.778906   0.000000
    10  H    4.517630   4.253028   2.705084   2.992019   0.000000
    11  O    1.972954   3.283905   3.833426   2.053005   3.102270
    12  O    3.164947   2.095227   2.723660   2.570947   3.959955
    13  O    3.244488   2.560100   2.101738   4.060704   2.502515
    14  O    5.022828   4.224618   2.533370   2.345615   2.072160
    15  C    4.334070   5.275608   4.717954   2.210202   2.586967
    16  H    4.484491   5.795448   5.585440   2.483347   3.662045
    17  H    4.269567   5.369575   4.860367   3.079849   2.564232
    18  O    5.614815   6.166627   5.066129   2.867816   2.678373
    19  C    3.629316   2.528082   3.851915   3.740262   5.389351
    20  H    4.580255   3.542079   4.421948   3.931607   5.867867
    21  H    3.200235   2.842181   4.609941   3.970162   5.858288
    22  H    4.027543   2.336001   3.806896   4.622852   5.800366
    23  C    4.632134   3.732374   2.573692   5.150158   2.827549
    24  H    5.194206   3.757783   2.420925   5.689317   3.520583
    25  H    4.847698   4.290891   3.595403   5.906445   3.616157
    26  H    5.232803   4.489283   2.858239   5.050445   2.285653
    27  C    6.239224   5.209739   2.997065   3.715118   2.456378
    28  H    6.603459   5.893650   3.730044   4.026383   2.325042
    29  H    7.014523   5.879139   3.742734   4.180017   3.500292
    30  H    6.328414   4.970846   2.521714   4.393634   2.682269
    31  C    6.361976   6.813723   5.730663   3.001966   3.739360
    32  H    6.497111   7.279153   6.514069   3.302829   4.558825
    33  H    7.368177   7.680034   6.332219   4.008255   4.258089
    34  H    6.140199   6.295381   5.200894   2.491400   3.684988
                   11         12         13         14         15
    11  O    0.000000
    12  O    2.901416   0.000000
    13  O    3.074725   3.577972   0.000000
    14  O    3.607681   3.065475   3.652491   0.000000
    15  C    2.396138   4.458660   4.201353   3.296457   0.000000
    16  H    2.636265   4.846051   5.041109   4.122530   1.098982
    17  H    2.560069   4.972837   3.894667   3.892225   1.094791
    18  O    3.668516   5.180085   4.901158   3.149326   1.405668
    19  C    3.935359   1.438626   4.694150   4.414080   5.720153
    20  H    4.597452   2.024011   5.538150   4.545596   6.079307
    21  H    3.816455   2.107954   5.038609   5.116120   5.815840
    22  H    4.630068   2.090286   4.738941   4.916023   6.498866
    23  C    4.373565   4.772527   1.429010   4.195013   5.006795
    24  H    5.101920   4.897997   2.085539   4.459850   5.857579
    25  H    4.819893   5.577367   2.027248   5.192739   5.516882
    26  H    4.560895   5.130995   2.100665   3.845234   4.639882
    27  C    4.859212   4.321849   4.237432   1.428022   4.194268
    28  H    5.057165   5.099748   4.517498   2.086323   3.917024
    29  H    5.624257   4.732070   5.226844   2.025631   4.906305
    30  H    5.215911   4.470804   3.907789   2.099418   4.888086
    31  C    4.403472   5.429316   5.957936   3.411837   2.385636
    32  H    4.571237   5.841962   6.589290   4.290021   2.625321
    33  H    5.408175   6.319997   6.648961   3.944306   3.280651
    34  H    4.272433   4.708415   5.767128   2.764261   2.763787
                   16         17         18         19         20
    16  H    0.000000
    17  H    1.780640   0.000000
    18  O    2.083432   2.015988   0.000000
    19  C    5.944228   6.246911   6.509367   0.000000
    20  H    6.244554   6.752464   6.718373   1.090360   0.000000
    21  H    5.873819   6.296673   6.776733   1.095144   1.783395
    22  H    6.827604   6.921899   7.266103   1.095551   1.788242
    23  C    5.971100   4.573559   5.420107   5.901980   6.685903
    24  H    6.829449   5.543407   6.193614   5.902387   6.650779
    25  H    6.422238   4.898076   6.029359   6.631603   7.496467
    26  H    5.684402   4.208984   4.798464   6.398820   7.070946
    27  C    5.127280   4.635839   3.650899   5.619517   5.709772
    28  H    4.891428   4.250244   3.114748   6.467041   6.605388
    29  H    5.728709   5.492311   4.236089   5.894306   5.785158
    30  H    5.882382   5.158445   4.499582   5.712872   5.909327
    31  C    2.583187   3.281446   1.428638   6.634776   6.614384
    32  H    2.341066   3.531317   2.090123   6.928797   6.884061
    33  H    3.552505   4.014095   2.026381   7.550332   7.481660
    34  H    3.021667   3.771425   2.098967   5.853726   5.723205
                   21         22         23         24         25
    21  H    0.000000
    22  H    1.792270   0.000000
    23  C    6.359400   5.823333   0.000000
    24  H    6.481113   5.646577   1.097275   0.000000
    25  H    6.964173   6.523331   1.091025   1.787855   0.000000
    26  H    6.909378   6.441315   1.096961   1.789247   1.782870
    27  C    6.415154   5.964687   4.308930   4.430186   5.331683
    28  H    7.169493   6.873516   4.448196   4.748254   5.361058
    29  H    6.757298   6.255434   5.331658   5.343837   6.375669
    30  H    6.567288   5.859558   3.725723   3.631931   4.774243
    31  C    6.931005   7.488912   6.558720   7.215585   7.272236
    32  H    7.073541   7.869157   7.319277   8.034848   7.963909
    33  H    7.922070   8.360997   7.065228   7.687027   7.786487
    34  H    6.244794   6.704882   6.441489   6.967817   7.265014
                   26         27         28         29         30
    26  H    0.000000
    27  C    3.708755   0.000000
    28  H    3.635107   1.097169   0.000000
    29  H    4.762825   1.091352   1.788170   0.000000
    30  H    3.190775   1.097895   1.791396   1.782518   0.000000
    31  C    5.959136   3.927998   3.534087   4.157003   4.954526
    32  H    6.793553   4.967129   4.619520   5.176879   5.983227
    33  H    6.334516   4.092204   3.512720   4.188649   5.132836
    34  H    5.929528   3.417515   3.319235   3.485304   4.474639
                   31         32         33         34
    31  C    0.000000
    32  H    1.098286   0.000000
    33  H    1.091782   1.785490   0.000000
    34  H    1.096474   1.793386   1.780960   0.000000
 Stoichiometry    C10H19O5(1+)
 Framework group  C1[X(C10H19O5)]
 Deg. of freedom    96
 Full point group                 C1      NOp   1
 Largest Abelian subgroup         C1      NOp   1
 Largest concise Abelian subgroup C1      NOp   1
                         Standard orientation:                         
 ---------------------------------------------------------------------
 Center     Atomic      Atomic             Coordinates (Angstroms)
 Number     Number       Type             X           Y           Z
 ---------------------------------------------------------------------
      1          6           0        1.169089    0.893525    0.212215
      2          6           0        2.013936   -0.365935   -0.041981
      3          6           0        1.551626   -0.873377   -1.387598
      4          6           0       -0.716338   -0.682890   -0.588170
      5          6           0       -0.345698    0.563571    0.242927
      6          1           0        2.207763   -1.158038   -2.210971
      7          1           0        3.077913   -0.116441   -0.075217
      8          1           0        1.462997    1.335631    1.172261
      9          1           0       -0.711916   -1.551444    0.070136
     10          1           0       -0.884447    1.426014   -0.168939
     11          8           0        0.329207   -1.031973   -1.621325
     12          8           0        1.711404   -1.363777    0.908033
     13          8           0        1.492702    1.719583   -0.893895
     14          8           0       -0.803587    0.268070    1.547591
     15          6           0       -2.007638   -0.545662   -1.411248
     16          1           0       -2.250519   -1.510156   -1.878712
     17          1           0       -1.842542    0.192577   -2.202648
     18          8           0       -3.064401   -0.063384   -0.619691
     19          6           0        2.780309   -2.283978    1.191438
     20          1           0        2.425483   -2.895992    2.021150
     21          1           0        3.002603   -2.927997    0.334020
     22          1           0        3.683067   -1.740419    1.491111
     23          6           0        1.321011    3.121359   -0.675686
     24          1           0        1.967386    3.466989    0.140862
     25          1           0        1.610690    3.614412   -1.604836
     26          1           0        0.278995    3.374073   -0.444038
     27          6           0       -1.334635    1.395000    2.245634
     28          1           0       -2.197058    1.812193    1.710885
     29          1           0       -1.652949    1.027148    3.222573
     30          1           0       -0.579366    2.179141    2.387287
     31          6           0       -3.665832   -1.041164    0.230741
     32          1           0       -3.967124   -1.928056   -0.342738
     33          1           0       -4.553590   -0.570364    0.657614
     34          1           0       -2.994963   -1.340123    1.044875
 ---------------------------------------------------------------------
 Rotational constants (GHZ):           0.7022128           0.4595204           0.4099280
 Leave Link  202 at Fri May 24 08:32:17 2019, MaxMem=   402653184 cpu:               0.2 elap:               0.1
 (Enter /n/sw/g16_nehalem/g16/l301.exe)
 Standard basis: 6-31G(d) (6D, 7F)
 Ernie: Thresh=  0.10000D-02 Tol=  0.10000D-05 Strict=F.
 There are   263 symmetry adapted cartesian basis functions of A   symmetry.
 There are   263 symmetry adapted basis functions of A   symmetry.
   263 basis functions,   496 primitive gaussians,   263 cartesian basis functions
    59 alpha electrons       59 beta electrons
       nuclear repulsion energy      1176.1895501840 Hartrees.
 IExCor=  402 DFT=T Ex+Corr=B3LYP ExCW=0 ScaHFX=  0.200000
 ScaDFX=  0.800000  0.720000  1.000000  0.810000 ScalE2=  1.000000  1.000000
 IRadAn=      5 IRanWt=     -1 IRanGd=            0 ICorTp=0 IEmpDi=  4
 NAtoms=   34 NActive=   34 NUniq=   34 SFac= 1.00D+00 NAtFMM=   60 NAOKFM=F Big=F
 Integral buffers will be    131072 words long.
 Raffenetti 2 integral format.
 Two-electron integral symmetry is turned on.
 ------------------------------------------------------------------------------
 Polarizable Continuum Model (PCM)
 =================================
 Model                : PCM.
 Atomic radii         : UFF (Universal Force Field).
 Polarization charges : Total charges.
 Charge compensation  : None.
 Solution method      : On-the-fly selection.
 Cavity type          : Scaled VdW (van der Waals Surface) (Alpha=1.100).
 Cavity algorithm     : GePol (No added spheres)
                        Default sphere list used, NSphG=   34.
                        Lebedev-Laikov grids with approx.  5.0 points / Ang**2.
                        Smoothing algorithm: York/Karplus (Gamma=1.0000).
                        Polarization charges: spherical gaussians, with
                                              point-specific exponents (IZeta= 3).
                        Self-potential: point-specific (ISelfS= 7).
                        Self-field    : sphere-specific E.n sum rule (ISelfD= 2).
 1st derivatives      : Analytical E(r).r(x)/FMM algorithm (CHGder, D1EAlg=3).
                        Cavity 1st derivative terms included.
 Solvent              : TetraHydroFuran, Eps=   7.425700 Eps(inf)=   1.974025
 ------------------------------------------------------------------------------
 GePol: Number of generator spheres                  =      34
 GePol: Total number of spheres                      =      34
 GePol: Number of exposed spheres                    =      34 (100.00%)
 GePol: Number of points                             =    2308
 GePol: Average weight of points                     =       0.13
 GePol: Minimum weight of points                     =   0.21D-09
 GePol: Maximum weight of points                     =    0.20577
 GePol: Number of points with low weight             =     139
 GePol: Fraction of low-weight points (<1% of avg)   =       6.02%
 GePol: Cavity surface area                          =    304.695 Ang**2
 GePol: Cavity volume                                =    322.987 Ang**3
 Leave Link  301 at Fri May 24 08:32:17 2019, MaxMem=   402653184 cpu:               0.4 elap:               0.1
 (Enter /n/sw/g16_nehalem/g16/l302.exe)
 NPDir=0 NMtPBC=     1 NCelOv=     1 NCel=       1 NClECP=     1 NCelD=      1
         NCelK=      1 NCelE2=     1 NClLst=     1 CellRange=     0.0.
 One-electron integrals computed using PRISM.
 One-electron integral symmetry used in STVInt
 NBasis=   263 RedAO= T EigKep=  1.49D-03  NBF=   263
 NBsUse=   263 1.00D-06 EigRej= -1.00D+00 NBFU=   263
 Precomputing XC quadrature grid using
 IXCGrd= 4 IRadAn=           5 IRanWt=          -1 IRanGd=           0 AccXCQ= 0.00D+00.
 Generated NRdTot=       0 NPtTot=           0 NUsed=           0 NTot=          32
 NSgBfM=   262   262   262   262   262 MxSgAt=    34 MxSgA2=    34.
 Leave Link  302 at Fri May 24 08:32:18 2019, MaxMem=   402653184 cpu:               2.6 elap:               0.7
 (Enter /n/sw/g16_nehalem/g16/l303.exe)
 DipDrv:  MaxL=1.
 Leave Link  303 at Fri May 24 08:32:18 2019, MaxMem=   402653184 cpu:               0.2 elap:               0.1
 (Enter /n/sw/g16_nehalem/g16/l401.exe)
 ExpMin= 1.61D-01 ExpMax= 5.48D+03 ExpMxC= 8.25D+02 IAcc=3 IRadAn=         5 AccDes= 0.00D+00
 Harris functional with IExCor=  402 and IRadAn=       5 diagonalized for initial guess.
 HarFok:  IExCor=  402 AccDes= 0.00D+00 IRadAn=         5 IDoV= 1 UseB2=F ITyADJ=14
 ICtDFT=  3500011 ScaDFX=  1.000000  1.000000  1.000000  1.000000
 FoFCou: FMM=F IPFlag=           0 FMFlag=      100000 FMFlg1=           0
         NFxFlg=           0 DoJE=T BraDBF=F KetDBF=T FulRan=T
         wScrn=  0.000000 ICntrl=       500 IOpCl=  0 I1Cent=   200000004 NGrid=           0
         NMat0=    1 NMatS0=      1 NMatT0=    0 NMatD0=    1 NMtDS0=    0 NMtDT0=    0
 Petite list used in FoFCou.
 Harris En= -768.254622410367    
 JPrj=0 DoOrth=F DoCkMO=F.
 Leave Link  401 at Fri May 24 08:32:23 2019, MaxMem=   402653184 cpu:              20.2 elap:               5.1
 (Enter /n/sw/g16_nehalem/g16/l502.exe)
 Integral symmetry usage will be decided dynamically.
 Closed shell SCF:
 Using DIIS extrapolation, IDIIS=  1040.
 NGot=   402653184 LenX=   402510103 LenY=   402440493
 Requested convergence on RMS density matrix=1.00D-08 within 128 cycles.
 Requested convergence on MAX density matrix=1.00D-06.
 Requested convergence on             energy=1.00D-06.
 No special actions if energy rises.
 Fock matrices will be formed incrementally for  20 cycles.

 Cycle   1  Pass 1  IDiag  1:
 FoFJK:  IHMeth= 1 ICntrl=       0 DoSepK=F KAlg= 0 I1Cent=           0 FoldK=F
 IRaf= 890000000 NMat=       1 IRICut=       1 DoRegI=T DoRafI=F ISym2E= 0 IDoP0=0 IntGTp=1.
 FoFCou: FMM=F IPFlag=           0 FMFlag=      100000 FMFlg1=           0
         NFxFlg=           0 DoJE=F BraDBF=F KetDBF=F FulRan=T
         wScrn=  0.000000 ICntrl=         0 IOpCl=  0 I1Cent=           0 NGrid=           0
         NMat0=    1 NMatS0=      1 NMatT0=    0 NMatD0=    1 NMtDS0=    0 NMtDT0=    0
 Symmetry not used in FoFCou.
 Inv3:  Mode=1 IEnd=    15980592.
 Iteration    1 A*A^-1 deviation from unit magnitude is 7.44D-15 for    563.
 Iteration    1 A*A^-1 deviation from orthogonality  is 1.82D-15 for   2303    499.
 Iteration    1 A^-1*A deviation from unit magnitude is 7.66D-15 for    563.
 Iteration    1 A^-1*A deviation from orthogonality  is 2.11D-15 for   2293   2285.
 E= -768.088779802402    
 DIIS: error= 2.43D-02 at cycle   1 NSaved=   1.
 NSaved= 1 IEnMin= 1 EnMin= -768.088779802402     IErMin= 1 ErrMin= 2.43D-02
 ErrMax= 2.43D-02  0.00D+00 EMaxC= 1.00D-01 BMatC= 2.51D-01 BMatP= 2.51D-01
 IDIUse=3 WtCom= 7.57D-01 WtEn= 2.43D-01
 Coeff-Com:  0.100D+01
 Coeff-En:   0.100D+01
 Coeff:      0.100D+01
 Gap=     0.011 Goal=   None    Shift=    0.000
 GapD=    0.011 DampG=0.250 DampE=0.500 DampFc=0.2500 IDamp=-1.
 Damping current iteration by 2.50D-01
 RMSDP=4.24D-03 MaxDP=1.07D-01              OVMax= 2.58D-01

 Cycle   2  Pass 1  IDiag  1:
 RMSU=  1.06D-03    CP:  9.95D-01
 E= -768.168745707668     Delta-E=       -0.079965905265 Rises=F Damp=T
 DIIS: error= 1.23D-02 at cycle   2 NSaved=   2.
 NSaved= 2 IEnMin= 2 EnMin= -768.168745707668     IErMin= 2 ErrMin= 1.23D-02
 ErrMax= 1.23D-02  0.00D+00 EMaxC= 1.00D-01 BMatC= 7.09D-02 BMatP= 2.51D-01
 IDIUse=3 WtCom= 8.77D-01 WtEn= 1.23D-01
 Coeff-Com: -0.834D+00 0.183D+01
 Coeff-En:   0.000D+00 0.100D+01
 Coeff:     -0.732D+00 0.173D+01
 Gap=     0.141 Goal=   None    Shift=    0.000
 RMSDP=1.27D-03 MaxDP=2.99D-02 DE=-8.00D-02 OVMax= 2.39D-01

 Cycle   3  Pass 1  IDiag  1:
 RMSU=  1.07D-03    CP:  9.86D-01  1.62D+00
 E= -768.309600169449     Delta-E=       -0.140854461781 Rises=F Damp=F
 DIIS: error= 4.18D-03 at cycle   3 NSaved=   3.
 NSaved= 3 IEnMin= 3 EnMin= -768.309600169449     IErMin= 3 ErrMin= 4.18D-03
 ErrMax= 4.18D-03  0.00D+00 EMaxC= 1.00D-01 BMatC= 1.84D-02 BMatP= 7.09D-02
 IDIUse=3 WtCom= 9.58D-01 WtEn= 4.18D-02
 Coeff-Com: -0.467D+00 0.906D+00 0.561D+00
 Coeff-En:   0.000D+00 0.000D+00 0.100D+01
 Coeff:     -0.448D+00 0.869D+00 0.579D+00
 Gap=     0.128 Goal=   None    Shift=    0.000
 RMSDP=5.81D-04 MaxDP=2.29D-02 DE=-1.41D-01 OVMax= 3.03D-02

 Cycle   4  Pass 1  IDiag  1:
 RMSU=  4.23D-04    CP:  9.89D-01  1.74D+00  6.56D-01
 E= -768.322496361270     Delta-E=       -0.012896191821 Rises=F Damp=F
 DIIS: error= 1.90D-03 at cycle   4 NSaved=   4.
 NSaved= 4 IEnMin= 4 EnMin= -768.322496361270     IErMin= 4 ErrMin= 1.90D-03
 ErrMax= 1.90D-03  0.00D+00 EMaxC= 1.00D-01 BMatC= 2.91D-03 BMatP= 1.84D-02
 IDIUse=3 WtCom= 9.81D-01 WtEn= 1.90D-02
 Coeff-Com: -0.159D+00 0.271D+00 0.299D+00 0.589D+00
 Coeff-En:   0.000D+00 0.000D+00 0.800D-01 0.920D+00
 Coeff:     -0.156D+00 0.266D+00 0.295D+00 0.595D+00
 Gap=     0.123 Goal=   None    Shift=    0.000
 RMSDP=1.94D-04 MaxDP=8.82D-03 DE=-1.29D-02 OVMax= 1.17D-02

 Cycle   5  Pass 1  IDiag  1:
 RMSU=  1.31D-04    CP:  9.88D-01  1.76D+00  7.33D-01  7.30D-01
 E= -768.324654032251     Delta-E=       -0.002157670981 Rises=F Damp=F
 DIIS: error= 6.35D-04 at cycle   5 NSaved=   5.
 NSaved= 5 IEnMin= 5 EnMin= -768.324654032251     IErMin= 5 ErrMin= 6.35D-04
 ErrMax= 6.35D-04  0.00D+00 EMaxC= 1.00D-01 BMatC= 2.98D-04 BMatP= 2.91D-03
 IDIUse=3 WtCom= 9.94D-01 WtEn= 6.35D-03
 Coeff-Com: -0.541D-01 0.842D-01 0.100D+00 0.310D+00 0.559D+00
 Coeff-En:   0.000D+00 0.000D+00 0.000D+00 0.000D+00 0.100D+01
 Coeff:     -0.538D-01 0.837D-01 0.998D-01 0.308D+00 0.562D+00
 Gap=     0.126 Goal=   None    Shift=    0.000
 RMSDP=6.75D-05 MaxDP=3.36D-03 DE=-2.16D-03 OVMax= 3.28D-03

 Cycle   6  Pass 1  IDiag  1:
 RMSU=  4.95D-05    CP:  9.88D-01  1.76D+00  7.36D-01  7.78D-01  6.89D-01
 E= -768.324849928581     Delta-E=       -0.000195896330 Rises=F Damp=F
 DIIS: error= 2.26D-04 at cycle   6 NSaved=   6.
 NSaved= 6 IEnMin= 6 EnMin= -768.324849928581     IErMin= 6 ErrMin= 2.26D-04
 ErrMax= 2.26D-04  0.00D+00 EMaxC= 1.00D-01 BMatC= 4.79D-05 BMatP= 2.98D-04
 IDIUse=3 WtCom= 9.98D-01 WtEn= 2.26D-03
 Coeff-Com: -0.154D-01 0.202D-01 0.237D-01 0.124D+00 0.347D+00 0.501D+00
 Coeff-En:   0.000D+00 0.000D+00 0.000D+00 0.000D+00 0.886D-01 0.911D+00
 Coeff:     -0.154D-01 0.201D-01 0.237D-01 0.123D+00 0.346D+00 0.502D+00
 Gap=     0.126 Goal=   None    Shift=    0.000
 RMSDP=2.13D-05 MaxDP=1.61D-03 DE=-1.96D-04 OVMax= 1.20D-03

 Cycle   7  Pass 1  IDiag  1:
 RMSU=  1.46D-05    CP:  9.88D-01  1.76D+00  7.36D-01  7.89D-01  7.55D-01
                    CP:  7.57D-01
 E= -768.324885824119     Delta-E=       -0.000035895538 Rises=F Damp=F
 DIIS: error= 5.74D-05 at cycle   7 NSaved=   7.
 NSaved= 7 IEnMin= 7 EnMin= -768.324885824119     IErMin= 7 ErrMin= 5.74D-05
 ErrMax= 5.74D-05  0.00D+00 EMaxC= 1.00D-01 BMatC= 3.13D-06 BMatP= 4.79D-05
 IDIUse=1 WtCom= 1.00D+00 WtEn= 0.00D+00
 Coeff-Com: -0.424D-02 0.443D-02 0.299D-02 0.425D-01 0.148D+00 0.277D+00
 Coeff-Com:  0.529D+00
 Coeff:     -0.424D-02 0.443D-02 0.299D-02 0.425D-01 0.148D+00 0.277D+00
 Coeff:      0.529D+00
 Gap=     0.125 Goal=   None    Shift=    0.000
 RMSDP=7.25D-06 MaxDP=3.96D-04 DE=-3.59D-05 OVMax= 5.01D-04

 Cycle   8  Pass 1  IDiag  1:
 RMSU=  5.00D-06    CP:  9.88D-01  1.76D+00  7.37D-01  7.95D-01  7.78D-01
                    CP:  7.68D-01  7.88D-01
 E= -768.324888380784     Delta-E=       -0.000002556665 Rises=F Damp=F
 DIIS: error= 2.24D-05 at cycle   8 NSaved=   8.
 NSaved= 8 IEnMin= 8 EnMin= -768.324888380784     IErMin= 8 ErrMin= 2.24D-05
 ErrMax= 2.24D-05  0.00D+00 EMaxC= 1.00D-01 BMatC= 2.69D-07 BMatP= 3.13D-06
 IDIUse=1 WtCom= 1.00D+00 WtEn= 0.00D+00
 Coeff-Com: -0.816D-04-0.345D-03-0.247D-02 0.145D-02 0.151D-01 0.469D-01
 Coeff-Com:  0.241D+00 0.698D+00
 Coeff:     -0.816D-04-0.345D-03-0.247D-02 0.145D-02 0.151D-01 0.469D-01
 Coeff:      0.241D+00 0.698D+00
 Gap=     0.125 Goal=   None    Shift=    0.000
 RMSDP=2.88D-06 MaxDP=8.53D-05 DE=-2.56D-06 OVMax= 3.15D-04

 Cycle   9  Pass 1  IDiag  1:
 RMSU=  1.92D-06    CP:  9.88D-01  1.76D+00  7.37D-01  7.98D-01  7.83D-01
                    CP:  7.93D-01  8.48D-01  9.16D-01
 E= -768.324888600306     Delta-E=       -0.000000219522 Rises=F Damp=F
 DIIS: error= 8.35D-06 at cycle   9 NSaved=   9.
 NSaved= 9 IEnMin= 9 EnMin= -768.324888600306     IErMin= 9 ErrMin= 8.35D-06
 ErrMax= 8.35D-06  0.00D+00 EMaxC= 1.00D-01 BMatC= 6.50D-08 BMatP= 2.69D-07
 IDIUse=1 WtCom= 1.00D+00 WtEn= 0.00D+00
 Coeff-Com:  0.261D-03-0.402D-03-0.167D-02-0.411D-02-0.103D-01-0.104D-01
 Coeff-Com:  0.704D-01 0.408D+00 0.548D+00
 Coeff:      0.261D-03-0.402D-03-0.167D-02-0.411D-02-0.103D-01-0.104D-01
 Coeff:      0.704D-01 0.408D+00 0.548D+00
 Gap=     0.125 Goal=   None    Shift=    0.000
 RMSDP=1.12D-06 MaxDP=4.34D-05 DE=-2.20D-07 OVMax= 1.11D-04

 Cycle  10  Pass 1  IDiag  1:
 RMSU=  5.72D-07    CP:  9.88D-01  1.76D+00  7.38D-01  7.98D-01  7.85D-01
                    CP:  8.00D-01  8.81D-01  9.94D-01  7.22D-01
 E= -768.324888658944     Delta-E=       -0.000000058638 Rises=F Damp=F
 DIIS: error= 1.88D-06 at cycle  10 NSaved=  10.
 NSaved=10 IEnMin=10 EnMin= -768.324888658944     IErMin=10 ErrMin= 1.88D-06
 ErrMax= 1.88D-06  0.00D+00 EMaxC= 1.00D-01 BMatC= 2.27D-09 BMatP= 6.50D-08
 IDIUse=1 WtCom= 1.00D+00 WtEn= 0.00D+00
 Coeff-Com:  0.940D-04-0.107D-03-0.452D-03-0.164D-02-0.533D-02-0.821D-02
 Coeff-Com:  0.542D-02 0.729D-01 0.189D+00 0.749D+00
 Coeff:      0.940D-04-0.107D-03-0.452D-03-0.164D-02-0.533D-02-0.821D-02
 Coeff:      0.542D-02 0.729D-01 0.189D+00 0.749D+00
 Gap=     0.125 Goal=   None    Shift=    0.000
 RMSDP=3.23D-07 MaxDP=7.18D-06 DE=-5.86D-08 OVMax= 3.09D-05

 Cycle  11  Pass 1  IDiag  1:
 RMSU=  1.92D-07    CP:  9.88D-01  1.76D+00  7.38D-01  7.99D-01  7.85D-01
                    CP:  8.01D-01  8.90D-01  1.01D+00  7.82D-01  9.63D-01
 E= -768.324888661477     Delta-E=       -0.000000002533 Rises=F Damp=F
 DIIS: error= 6.60D-07 at cycle  11 NSaved=  11.
 NSaved=11 IEnMin=11 EnMin= -768.324888661477     IErMin=11 ErrMin= 6.60D-07
 ErrMax= 6.60D-07  0.00D+00 EMaxC= 1.00D-01 BMatC= 4.14D-10 BMatP= 2.27D-09
 IDIUse=1 WtCom= 1.00D+00 WtEn= 0.00D+00
 Coeff-Com:  0.203D-04-0.162D-04-0.901D-04-0.416D-03-0.170D-02-0.293D-02
 Coeff-Com: -0.318D-02-0.151D-02 0.475D-01 0.379D+00 0.583D+00
 Coeff:      0.203D-04-0.162D-04-0.901D-04-0.416D-03-0.170D-02-0.293D-02
 Coeff:     -0.318D-02-0.151D-02 0.475D-01 0.379D+00 0.583D+00
 Gap=     0.125 Goal=   None    Shift=    0.000
 RMSDP=1.07D-07 MaxDP=3.84D-06 DE=-2.53D-09 OVMax= 8.61D-06

 Cycle  12  Pass 1  IDiag  1:
 RMSU=  7.04D-08    CP:  9.88D-01  1.76D+00  7.38D-01  7.99D-01  7.85D-01
                    CP:  8.02D-01  8.91D-01  1.02D+00  7.93D-01  1.03D+00
                    CP:  7.95D-01
 E= -768.324888661880     Delta-E=       -0.000000000403 Rises=F Damp=F
 DIIS: error= 1.71D-07 at cycle  12 NSaved=  12.
 NSaved=12 IEnMin=12 EnMin= -768.324888661880     IErMin=12 ErrMin= 1.71D-07
 ErrMax= 1.71D-07  0.00D+00 EMaxC= 1.00D-01 BMatC= 2.89D-11 BMatP= 4.14D-10
 IDIUse=1 WtCom= 1.00D+00 WtEn= 0.00D+00
 Coeff-Com: -0.641D-05 0.116D-04 0.243D-04 0.601D-04 0.811D-05-0.472D-04
 Coeff-Com: -0.223D-02-0.116D-01-0.554D-02 0.451D-01 0.224D+00 0.750D+00
 Coeff:     -0.641D-05 0.116D-04 0.243D-04 0.601D-04 0.811D-05-0.472D-04
 Coeff:     -0.223D-02-0.116D-01-0.554D-02 0.451D-01 0.224D+00 0.750D+00
 Gap=     0.125 Goal=   None    Shift=    0.000
 RMSDP=3.70D-08 MaxDP=9.00D-07 DE=-4.03D-10 OVMax= 3.95D-06

 Cycle  13  Pass 1  IDiag  1:
 RMSU=  1.73D-08    CP:  9.88D-01  1.76D+00  7.38D-01  7.99D-01  7.86D-01
                    CP:  8.02D-01  8.92D-01  1.02D+00  8.01D-01  1.06D+00
                    CP:  8.88D-01  9.70D-01
 E= -768.324888661894     Delta-E=       -0.000000000013 Rises=F Damp=F
 DIIS: error= 7.24D-08 at cycle  13 NSaved=  13.
 NSaved=13 IEnMin=13 EnMin= -768.324888661894     IErMin=13 ErrMin= 7.24D-08
 ErrMax= 7.24D-08  0.00D+00 EMaxC= 1.00D-01 BMatC= 4.17D-12 BMatP= 2.89D-11
 IDIUse=1 WtCom= 1.00D+00 WtEn= 0.00D+00
 Coeff-Com: -0.428D-05 0.611D-05 0.173D-04 0.637D-04 0.143D-03 0.242D-03
 Coeff-Com: -0.761D-03-0.539D-02-0.605D-02-0.958D-02 0.644D-01 0.368D+00
 Coeff-Com:  0.589D+00
 Coeff:     -0.428D-05 0.611D-05 0.173D-04 0.637D-04 0.143D-03 0.242D-03
 Coeff:     -0.761D-03-0.539D-02-0.605D-02-0.958D-02 0.644D-01 0.368D+00
 Coeff:      0.589D+00
 Gap=     0.125 Goal=   None    Shift=    0.000
 RMSDP=1.09D-08 MaxDP=3.31D-07 DE=-1.34D-11 OVMax= 1.07D-06

 Cycle  14  Pass 1  IDiag  1:
 RMSU=  7.93D-09    CP:  9.88D-01  1.76D+00  7.38D-01  7.99D-01  7.86D-01
                    CP:  8.02D-01  8.92D-01  1.02D+00  8.02D-01  1.06D+00
                    CP:  9.06D-01  1.04D+00  8.15D-01
 E= -768.324888661906     Delta-E=       -0.000000000012 Rises=F Damp=F
 DIIS: error= 2.61D-08 at cycle  14 NSaved=  14.
 NSaved=14 IEnMin=14 EnMin= -768.324888661906     IErMin=14 ErrMin= 2.61D-08
 ErrMax= 2.61D-08  0.00D+00 EMaxC= 1.00D-01 BMatC= 5.28D-13 BMatP= 4.17D-12
 IDIUse=1 WtCom= 1.00D+00 WtEn= 0.00D+00
 Coeff-Com: -0.939D-06 0.991D-06 0.368D-05 0.180D-04 0.546D-04 0.107D-03
 Coeff-Com:  0.639D-05-0.544D-03-0.154D-02-0.103D-01-0.618D-02 0.340D-01
 Coeff-Com:  0.282D+00 0.702D+00
 Coeff:     -0.939D-06 0.991D-06 0.368D-05 0.180D-04 0.546D-04 0.107D-03
 Coeff:      0.639D-05-0.544D-03-0.154D-02-0.103D-01-0.618D-02 0.340D-01
 Coeff:      0.282D+00 0.702D+00
 Gap=     0.125 Goal=   None    Shift=    0.000
 RMSDP=3.85D-09 MaxDP=9.99D-08 DE=-1.23D-11 OVMax= 4.35D-07

 Error on total polarization charges =  0.01227
 SCF Done:  E(RB3LYP) =  -768.324888662     A.U. after   14 cycles
            NFock= 14  Conv=0.38D-08     -V/T= 2.0091
 KE= 7.613952376025D+02 PE=-4.127778160792D+03 EE= 1.421868484344D+03
 Leave Link  502 at Fri May 24 08:34:40 2019, MaxMem=   402653184 cpu:             548.1 elap:             137.1
 (Enter /n/sw/g16_nehalem/g16/l601.exe)
 Copying SCF densities to generalized density rwf, IOpCl= 0 IROHF=0.

 **********************************************************************

            Population analysis using the SCF density.

 **********************************************************************

 Orbital symmetries:
       Occupied  (A) (A) (A) (A) (A) (A) (A) (A) (A) (A) (A) (A)
                 (A) (A) (A) (A) (A) (A) (A) (A) (A) (A) (A) (A)
                 (A) (A) (A) (A) (A) (A) (A) (A) (A) (A) (A) (A)
                 (A) (A) (A) (A) (A) (A) (A) (A) (A) (A) (A) (A)
                 (A) (A) (A) (A) (A) (A) (A) (A) (A) (A) (A)
       Virtual   (A) (A) (A) (A) (A) (A) (A) (A) (A) (A) (A) (A)
                 (A) (A) (A) (A) (A) (A) (A) (A) (A) (A) (A) (A)
                 (A) (A) (A) (A) (A) (A) (A) (A) (A) (A) (A) (A)
                 (A) (A) (A) (A) (A) (A) (A) (A) (A) (A) (A) (A)
                 (A) (A) (A) (A) (A) (A) (A) (A) (A) (A) (A) (A)
                 (A) (A) (A) (A) (A) (A) (A) (A) (A) (A) (A) (A)
                 (A) (A) (A) (A) (A) (A) (A) (A) (A) (A) (A) (A)
                 (A) (A) (A) (A) (A) (A) (A) (A) (A) (A) (A) (A)
                 (A) (A) (A) (A) (A) (A) (A) (A) (A) (A) (A) (A)
                 (A) (A) (A) (A) (A) (A) (A) (A) (A) (A) (A) (A)
                 (A) (A) (A) (A) (A) (A) (A) (A) (A) (A) (A) (A)
                 (A) (A) (A) (A) (A) (A) (A) (A) (A) (A) (A) (A)
                 (A) (A) (A) (A) (A) (A) (A) (A) (A) (A) (A) (A)
                 (A) (A) (A) (A) (A) (A) (A) (A) (A) (A) (A) (A)
                 (A) (A) (A) (A) (A) (A) (A) (A) (A) (A) (A) (A)
                 (A) (A) (A) (A) (A) (A) (A) (A) (A) (A) (A) (A)
                 (A) (A) (A) (A) (A) (A) (A) (A) (A) (A) (A) (A)
 The electronic state is 1-A.
 Alpha  occ. eigenvalues --  -19.32991 -19.21676 -19.19768 -19.18843 -19.18458
 Alpha  occ. eigenvalues --  -10.39583 -10.31357 -10.31279 -10.29204 -10.28968
 Alpha  occ. eigenvalues --  -10.27437 -10.26306 -10.25534 -10.24857 -10.24425
 Alpha  occ. eigenvalues --   -1.21743  -1.09720  -1.07951  -1.07024  -1.06259
 Alpha  occ. eigenvalues --   -0.86575  -0.85330  -0.76311  -0.74687  -0.73955
 Alpha  occ. eigenvalues --   -0.71274  -0.68929  -0.67644  -0.65918  -0.61031
 Alpha  occ. eigenvalues --   -0.60525  -0.58407  -0.57066  -0.54320  -0.53217
 Alpha  occ. eigenvalues --   -0.51751  -0.50994  -0.50696  -0.49936  -0.49643
 Alpha  occ. eigenvalues --   -0.48148  -0.47684  -0.46676  -0.46023  -0.45856
 Alpha  occ. eigenvalues --   -0.43706  -0.43350  -0.42003  -0.40849  -0.40493
 Alpha  occ. eigenvalues --   -0.39361  -0.37441  -0.36397  -0.35665  -0.34275
 Alpha  occ. eigenvalues --   -0.32224  -0.31298  -0.29253  -0.28060
 Alpha virt. eigenvalues --   -0.15514   0.00199   0.04510   0.05556   0.06351
 Alpha virt. eigenvalues --    0.07129   0.08711   0.09443   0.10643   0.10856
 Alpha virt. eigenvalues --    0.11144   0.11848   0.12227   0.12732   0.13283
 Alpha virt. eigenvalues --    0.13414   0.13948   0.14734   0.14904   0.15456
 Alpha virt. eigenvalues --    0.15602   0.15915   0.16752   0.16989   0.17391
 Alpha virt. eigenvalues --    0.18387   0.19588   0.20123   0.21906   0.22761
 Alpha virt. eigenvalues --    0.23371   0.24550   0.27237   0.27984   0.29550
 Alpha virt. eigenvalues --    0.44637   0.45930   0.46933   0.47490   0.47739
 Alpha virt. eigenvalues --    0.48391   0.49526   0.49933   0.51153   0.51565
 Alpha virt. eigenvalues --    0.52399   0.53240   0.53634   0.55195   0.55913
 Alpha virt. eigenvalues --    0.56936   0.57968   0.58349   0.59526   0.61669
 Alpha virt. eigenvalues --    0.63121   0.63478   0.65619   0.69657   0.70891
 Alpha virt. eigenvalues --    0.72809   0.73255   0.73751   0.76529   0.79855
 Alpha virt. eigenvalues --    0.80073   0.80789   0.81310   0.81494   0.82424
 Alpha virt. eigenvalues --    0.82676   0.82822   0.84339   0.84483   0.85340
 Alpha virt. eigenvalues --    0.85825   0.86186   0.87673   0.88594   0.89630
 Alpha virt. eigenvalues --    0.90180   0.91340   0.92793   0.93930   0.95067
 Alpha virt. eigenvalues --    0.95331   0.96919   0.98617   0.99571   1.02116
 Alpha virt. eigenvalues --    1.02956   1.05243   1.05878   1.09123   1.12546
 Alpha virt. eigenvalues --    1.13892   1.15210   1.17433   1.20097   1.20607
 Alpha virt. eigenvalues --    1.22724   1.25701   1.26819   1.29756   1.32122
 Alpha virt. eigenvalues --    1.35683   1.37885   1.38392   1.40495   1.41690
 Alpha virt. eigenvalues --    1.43006   1.45711   1.45998   1.48298   1.49176
 Alpha virt. eigenvalues --    1.52332   1.53653   1.57104   1.58355   1.60779
 Alpha virt. eigenvalues --    1.62501   1.64311   1.66554   1.68262   1.70586
 Alpha virt. eigenvalues --    1.72421   1.76595   1.77668   1.80685   1.81370
 Alpha virt. eigenvalues --    1.84287   1.86159   1.89060   1.89520   1.91252
 Alpha virt. eigenvalues --    1.94152   1.94937   1.96327   1.98718   1.99838
 Alpha virt. eigenvalues --    2.01751   2.03097   2.03656   2.04124   2.05107
 Alpha virt. eigenvalues --    2.06144   2.07123   2.08398   2.08919   2.11446
 Alpha virt. eigenvalues --    2.11802   2.13389   2.14328   2.15066   2.17748
 Alpha virt. eigenvalues --    2.19011   2.20313   2.22603   2.24410   2.26381
 Alpha virt. eigenvalues --    2.27196   2.30353   2.32699   2.34375   2.36457
 Alpha virt. eigenvalues --    2.37668   2.39650   2.44465   2.45044   2.48351
 Alpha virt. eigenvalues --    2.51863   2.54617   2.56309   2.57437   2.61113
 Alpha virt. eigenvalues --    2.63846   2.65167   2.70526   2.72218   2.75327
 Alpha virt. eigenvalues --    2.78298   2.79495   2.80444   2.87777   2.91232
 Alpha virt. eigenvalues --    2.94299   2.97923   3.01514   3.07171   3.79810
 Alpha virt. eigenvalues --    3.88340   3.94738   4.04218   4.11513   4.19281
 Alpha virt. eigenvalues --    4.22258   4.23007   4.24047   4.26417   4.30914
 Alpha virt. eigenvalues --    4.31982   4.54554   4.56413   4.69669
          Condensed to atoms (all electrons):
               1          2          3          4          5          6
     1  C    5.049535   0.349626  -0.051017  -0.043411   0.277236   0.003565
     2  C    0.349626   5.014853   0.272034  -0.014754  -0.021534  -0.035754
     3  C   -0.051017   0.272034   4.810725  -0.030210  -0.028097   0.359977
     4  C   -0.043411  -0.014754  -0.030210   5.177377   0.304153   0.003018
     5  C    0.277236  -0.021534  -0.028097   0.304153   5.015893  -0.000120
     6  H    0.003565  -0.035754   0.359977   0.003018  -0.000120   0.428794
     7  H   -0.028085   0.360126  -0.043868   0.000634   0.004531  -0.000743
     8  H    0.371016  -0.037780   0.007374   0.003882  -0.051581  -0.000101
     9  H   -0.002876   0.000118  -0.002688   0.364581  -0.042812  -0.000126
    10  H   -0.054262   0.003211   0.001489  -0.048185   0.367989   0.000026
    11  O   -0.003100  -0.028056   0.398644   0.100833  -0.017333  -0.038846
    12  O   -0.039555   0.188931  -0.032143   0.001400  -0.002112   0.002120
    13  O    0.158054  -0.056579   0.025474   0.004423  -0.038181  -0.000411
    14  O   -0.031116  -0.001081   0.000401  -0.031088   0.177430   0.000001
    15  C    0.001425   0.000104   0.001043   0.305514  -0.032383  -0.000070
    16  H   -0.000039  -0.000022  -0.000058  -0.050483   0.005647   0.000013
    17  H   -0.000015  -0.000011   0.000465  -0.045144  -0.007570  -0.000009
    18  O    0.000485  -0.000009  -0.000037  -0.054638   0.009430   0.000001
    19  C    0.003904  -0.034883  -0.000249  -0.000047  -0.000082   0.000174
    20  H   -0.000142   0.004930  -0.000229   0.000008   0.000017   0.000004
    21  H   -0.000231  -0.004999   0.002625  -0.000040  -0.000009  -0.000725
    22  H    0.000125  -0.007912  -0.000674   0.000019   0.000001   0.000073
    23  C   -0.032619   0.005295  -0.000460   0.000097  -0.004125   0.000016
    24  H   -0.008017  -0.000222   0.000134   0.000009  -0.000891   0.000001
    25  H    0.004676  -0.000220  -0.000030   0.000000  -0.000065  -0.000003
    26  H   -0.004438   0.000050  -0.000043  -0.000043   0.004324  -0.000002
    27  C   -0.002237   0.000048  -0.000002   0.004660  -0.031360   0.000000
    28  H   -0.000749  -0.000020   0.000003  -0.000328  -0.009282   0.000000
    29  H   -0.000092   0.000006   0.000000  -0.000220   0.005143   0.000000
    30  H    0.003529  -0.000011  -0.000004  -0.000044  -0.004516   0.000000
    31  C   -0.000024   0.000001   0.000004  -0.002107  -0.001867   0.000000
    32  H    0.000003   0.000000   0.000000  -0.002156   0.000321   0.000000
    33  H    0.000000   0.000000   0.000000  -0.000130   0.000006   0.000000
    34  H   -0.000020   0.000008   0.000003   0.005678  -0.001375   0.000000
               7          8          9         10         11         12
     1  C   -0.028085   0.371016  -0.002876  -0.054262  -0.003100  -0.039555
     2  C    0.360126  -0.037780   0.000118   0.003211  -0.028056   0.188931
     3  C   -0.043868   0.007374  -0.002688   0.001489   0.398644  -0.032143
     4  C    0.000634   0.003882   0.364581  -0.048185   0.100833   0.001400
     5  C    0.004531  -0.051581  -0.042812   0.367989  -0.017333  -0.002112
     6  H   -0.000743  -0.000101  -0.000126   0.000026  -0.038846   0.002120
     7  H    0.516689  -0.006065   0.000077  -0.000163   0.002301  -0.026442
     8  H   -0.006065   0.529414  -0.000069   0.000577  -0.000055   0.003199
     9  H    0.000077  -0.000069   0.469275   0.004402  -0.023948   0.008957
    10  H   -0.000163   0.000577   0.004402   0.551459   0.000908   0.000054
    11  O    0.002301  -0.000055  -0.023948   0.000908   7.938190  -0.004947
    12  O   -0.026442   0.003199   0.008957   0.000054  -0.004947   8.238109
    13  O    0.003666  -0.024827   0.000038   0.001313  -0.003878   0.001466
    14  O   -0.000146   0.002226   0.004516  -0.029676   0.000955   0.001638
    15  C    0.000017  -0.000116  -0.028570  -0.002441  -0.025151   0.000303
    16  H    0.000000   0.000002  -0.004997   0.000467   0.002732  -0.000002
    17  H   -0.000001   0.000002   0.003879   0.002363   0.001185  -0.000003
    18  O    0.000000   0.000001  -0.000336   0.003641   0.001011   0.000000
    19  C   -0.005944   0.000087  -0.000072   0.000005   0.000106   0.222759
    20  H    0.000059  -0.000020  -0.000026   0.000000  -0.000005  -0.029873
    21  H   -0.000654   0.000023  -0.000055   0.000000   0.000261  -0.032469
    22  H    0.009463  -0.000062   0.000028   0.000000  -0.000011  -0.032694
    23  C    0.000077  -0.004252   0.000000   0.002751   0.000034  -0.000052
    24  H   -0.000119   0.009207   0.000000   0.000140  -0.000005  -0.000002
    25  H   -0.000024   0.000015   0.000000  -0.000156   0.000006   0.000000
    26  H    0.000037  -0.001599   0.000000   0.002892   0.000000   0.000004
    27  C   -0.000002   0.002137  -0.000068  -0.006514  -0.000043   0.000048
    28  H    0.000000   0.000153   0.000085   0.011007  -0.000003   0.000000
    29  H    0.000000  -0.000163  -0.000032   0.000006   0.000000  -0.000002
    30  H    0.000008   0.001537   0.000015  -0.001223   0.000004  -0.000003
    31  C    0.000000   0.000000   0.002263  -0.000230  -0.000009  -0.000001
    32  H    0.000000   0.000000  -0.000026   0.000027   0.000009   0.000000
    33  H    0.000000   0.000000  -0.000055  -0.000005   0.000000   0.000000
    34  H    0.000000  -0.000001   0.001138  -0.000027  -0.000040  -0.000004
              13         14         15         16         17         18
     1  C    0.158054  -0.031116   0.001425  -0.000039  -0.000015   0.000485
     2  C   -0.056579  -0.001081   0.000104  -0.000022  -0.000011  -0.000009
     3  C    0.025474   0.000401   0.001043  -0.000058   0.000465  -0.000037
     4  C    0.004423  -0.031088   0.305514  -0.050483  -0.045144  -0.054638
     5  C   -0.038181   0.177430  -0.032383   0.005647  -0.007570   0.009430
     6  H   -0.000411   0.000001  -0.000070   0.000013  -0.000009   0.000001
     7  H    0.003666  -0.000146   0.000017   0.000000  -0.000001   0.000000
     8  H   -0.024827   0.002226  -0.000116   0.000002   0.000002   0.000001
     9  H    0.000038   0.004516  -0.028570  -0.004997   0.003879  -0.000336
    10  H    0.001313  -0.029676  -0.002441   0.000467   0.002363   0.003641
    11  O   -0.003878   0.000955  -0.025151   0.002732   0.001185   0.001011
    12  O    0.001466   0.001638   0.000303  -0.000002  -0.000003   0.000000
    13  O    8.292396   0.001572  -0.000314   0.000001   0.000194  -0.000001
    14  O    0.001572   8.252986  -0.001273  -0.000201   0.000079  -0.000316
    15  C   -0.000314  -0.001273   4.879441   0.362584   0.381296   0.264971
    16  H    0.000001  -0.000201   0.362584   0.569178  -0.031353  -0.030569
    17  H    0.000194   0.000079   0.381296  -0.031353   0.535445  -0.034062
    18  O   -0.000001  -0.000316   0.264971  -0.030569  -0.034062   8.168030
    19  C   -0.000043   0.000081  -0.000004   0.000000   0.000000   0.000000
    20  H    0.000001   0.000004   0.000000   0.000000   0.000000   0.000000
    21  H    0.000004  -0.000001   0.000000   0.000000   0.000000   0.000000
    22  H   -0.000009  -0.000001   0.000000   0.000000   0.000000   0.000000
    23  C    0.235569   0.000014  -0.000005   0.000000   0.000002   0.000000
    24  H   -0.035072   0.000031  -0.000001   0.000000   0.000001   0.000000
    25  H   -0.030415   0.000001  -0.000001   0.000000   0.000000   0.000000
    26  H   -0.036509  -0.000370   0.000026   0.000000  -0.000012  -0.000005
    27  C   -0.000036   0.232815  -0.000122   0.000001   0.000011  -0.000786
    28  H    0.000031  -0.035422   0.000085   0.000020  -0.000017   0.003073
    29  H    0.000001  -0.030891   0.000008   0.000000   0.000000  -0.000019
    30  H   -0.000324  -0.036127  -0.000028   0.000000   0.000000   0.000030
    31  C    0.000000  -0.001937  -0.047161  -0.008053   0.005804   0.240055
    32  H    0.000000   0.000057  -0.007987   0.012194   0.000075  -0.034430
    33  H    0.000000  -0.000033   0.005034  -0.000016  -0.000180  -0.031734
    34  H    0.000000   0.008273  -0.004805  -0.001502  -0.000334  -0.038175
              19         20         21         22         23         24
     1  C    0.003904  -0.000142  -0.000231   0.000125  -0.032619  -0.008017
     2  C   -0.034883   0.004930  -0.004999  -0.007912   0.005295  -0.000222
     3  C   -0.000249  -0.000229   0.002625  -0.000674  -0.000460   0.000134
     4  C   -0.000047   0.000008  -0.000040   0.000019   0.000097   0.000009
     5  C   -0.000082   0.000017  -0.000009   0.000001  -0.004125  -0.000891
     6  H    0.000174   0.000004  -0.000725   0.000073   0.000016   0.000001
     7  H   -0.005944   0.000059  -0.000654   0.009463   0.000077  -0.000119
     8  H    0.000087  -0.000020   0.000023  -0.000062  -0.004252   0.009207
     9  H   -0.000072  -0.000026  -0.000055   0.000028   0.000000   0.000000
    10  H    0.000005   0.000000   0.000000   0.000000   0.002751   0.000140
    11  O    0.000106  -0.000005   0.000261  -0.000011   0.000034  -0.000005
    12  O    0.222759  -0.029873  -0.032469  -0.032694  -0.000052  -0.000002
    13  O   -0.000043   0.000001   0.000004  -0.000009   0.235569  -0.035072
    14  O    0.000081   0.000004  -0.000001  -0.000001   0.000014   0.000031
    15  C   -0.000004   0.000000   0.000000   0.000000  -0.000005  -0.000001
    16  H    0.000000   0.000000   0.000000   0.000000   0.000000   0.000000
    17  H    0.000000   0.000000   0.000000   0.000000   0.000002   0.000001
    18  O    0.000000   0.000000   0.000000   0.000000   0.000000   0.000000
    19  C    4.914617   0.385997   0.371167   0.371453   0.000002   0.000000
    20  H    0.385997   0.495733  -0.029597  -0.025929   0.000000   0.000000
    21  H    0.371167  -0.029597   0.560454  -0.040093   0.000000   0.000000
    22  H    0.371453  -0.025929  -0.040093   0.546950   0.000000   0.000000
    23  C    0.000002   0.000000   0.000000   0.000000   4.896790   0.373068
    24  H    0.000000   0.000000   0.000000   0.000000   0.373068   0.564594
    25  H    0.000000   0.000000   0.000000   0.000000   0.385936  -0.028397
    26  H    0.000000   0.000000   0.000000   0.000000   0.364897  -0.043517
    27  C   -0.000002   0.000000   0.000000   0.000000  -0.000092  -0.000029
    28  H    0.000000   0.000000   0.000000   0.000000  -0.000028   0.000003
    29  H    0.000000   0.000000   0.000000   0.000000   0.000002   0.000000
    30  H   -0.000001   0.000000   0.000000   0.000000   0.000148   0.000048
    31  C    0.000000   0.000000   0.000000   0.000000   0.000000   0.000000
    32  H    0.000000   0.000000   0.000000   0.000000   0.000000   0.000000
    33  H    0.000000   0.000000   0.000000   0.000000   0.000000   0.000000
    34  H    0.000000   0.000000   0.000000   0.000000   0.000000   0.000000
              25         26         27         28         29         30
     1  C    0.004676  -0.004438  -0.002237  -0.000749  -0.000092   0.003529
     2  C   -0.000220   0.000050   0.000048  -0.000020   0.000006  -0.000011
     3  C   -0.000030  -0.000043  -0.000002   0.000003   0.000000  -0.000004
     4  C    0.000000  -0.000043   0.004660  -0.000328  -0.000220  -0.000044
     5  C   -0.000065   0.004324  -0.031360  -0.009282   0.005143  -0.004516
     6  H   -0.000003  -0.000002   0.000000   0.000000   0.000000   0.000000
     7  H   -0.000024   0.000037  -0.000002   0.000000   0.000000   0.000008
     8  H    0.000015  -0.001599   0.002137   0.000153  -0.000163   0.001537
     9  H    0.000000   0.000000  -0.000068   0.000085  -0.000032   0.000015
    10  H   -0.000156   0.002892  -0.006514   0.011007   0.000006  -0.001223
    11  O    0.000006   0.000000  -0.000043  -0.000003   0.000000   0.000004
    12  O    0.000000   0.000004   0.000048   0.000000  -0.000002  -0.000003
    13  O   -0.030415  -0.036509  -0.000036   0.000031   0.000001  -0.000324
    14  O    0.000001  -0.000370   0.232815  -0.035422  -0.030891  -0.036127
    15  C   -0.000001   0.000026  -0.000122   0.000085   0.000008  -0.000028
    16  H    0.000000   0.000000   0.000001   0.000020   0.000000   0.000000
    17  H    0.000000  -0.000012   0.000011  -0.000017   0.000000   0.000000
    18  O    0.000000  -0.000005  -0.000786   0.003073  -0.000019   0.000030
    19  C    0.000000   0.000000  -0.000002   0.000000   0.000000  -0.000001
    20  H    0.000000   0.000000   0.000000   0.000000   0.000000   0.000000
    21  H    0.000000   0.000000   0.000000   0.000000   0.000000   0.000000
    22  H    0.000000   0.000000   0.000000   0.000000   0.000000   0.000000
    23  C    0.385936   0.364897  -0.000092  -0.000028   0.000002   0.000148
    24  H   -0.028397  -0.043517  -0.000029   0.000003   0.000000   0.000048
    25  H    0.510640  -0.029755   0.000003   0.000000   0.000000  -0.000003
    26  H   -0.029755   0.577694   0.000122   0.000000  -0.000004   0.000681
    27  C    0.000003   0.000122   4.907758   0.367849   0.385999   0.365149
    28  H    0.000000   0.000000   0.367849   0.569479  -0.028652  -0.044099
    29  H    0.000000  -0.000004   0.385999  -0.028652   0.516978  -0.030818
    30  H   -0.000003   0.000681   0.365149  -0.044099  -0.030818   0.588353
    31  C    0.000000   0.000000   0.000552  -0.000186   0.000046  -0.000004
    32  H    0.000000   0.000000  -0.000006   0.000023  -0.000001   0.000000
    33  H    0.000000   0.000000   0.000045   0.000056  -0.000003   0.000000
    34  H    0.000000   0.000000  -0.000456  -0.000523  -0.000028   0.000055
              31         32         33         34
     1  C   -0.000024   0.000003   0.000000  -0.000020
     2  C    0.000001   0.000000   0.000000   0.000008
     3  C    0.000004   0.000000   0.000000   0.000003
     4  C   -0.002107  -0.002156  -0.000130   0.005678
     5  C   -0.001867   0.000321   0.000006  -0.001375
     6  H    0.000000   0.000000   0.000000   0.000000
     7  H    0.000000   0.000000   0.000000   0.000000
     8  H    0.000000   0.000000   0.000000  -0.000001
     9  H    0.002263  -0.000026  -0.000055   0.001138
    10  H   -0.000230   0.000027  -0.000005  -0.000027
    11  O   -0.000009   0.000009   0.000000  -0.000040
    12  O   -0.000001   0.000000   0.000000  -0.000004
    13  O    0.000000   0.000000   0.000000   0.000000
    14  O   -0.001937   0.000057  -0.000033   0.008273
    15  C   -0.047161  -0.007987   0.005034  -0.004805
    16  H   -0.008053   0.012194  -0.000016  -0.001502
    17  H    0.005804   0.000075  -0.000180  -0.000334
    18  O    0.240055  -0.034430  -0.031734  -0.038175
    19  C    0.000000   0.000000   0.000000   0.000000
    20  H    0.000000   0.000000   0.000000   0.000000
    21  H    0.000000   0.000000   0.000000   0.000000
    22  H    0.000000   0.000000   0.000000   0.000000
    23  C    0.000000   0.000000   0.000000   0.000000
    24  H    0.000000   0.000000   0.000000   0.000000
    25  H    0.000000   0.000000   0.000000   0.000000
    26  H    0.000000   0.000000   0.000000   0.000000
    27  C    0.000552  -0.000006   0.000045  -0.000456
    28  H   -0.000186   0.000023   0.000056  -0.000523
    29  H    0.000046  -0.000001  -0.000003  -0.000028
    30  H   -0.000004   0.000000   0.000000   0.000055
    31  C    4.924105   0.364787   0.386792   0.362461
    32  H    0.364787   0.581497  -0.028167  -0.043097
    33  H    0.386792  -0.028167   0.521384  -0.032140
    34  H    0.362461  -0.043097  -0.032140   0.582668
 Mulliken charges:
               1
     1  C    0.078862
     2  C    0.044504
     3  C    0.309412
     4  C    0.046742
     5  C    0.123175
     6  H    0.279126
     7  H    0.214571
     8  H    0.195837
     9  H    0.247383
    10  H    0.188156
    11  O   -0.301749
    12  O   -0.468684
    13  O   -0.497605
    14  O   -0.483399
    15  C   -0.051419
    16  H    0.174456
    17  H    0.187909
    18  O   -0.465612
    19  C   -0.229026
    20  H    0.199070
    21  H    0.174336
    22  H    0.179270
    23  C   -0.223065
    24  H    0.169035
    25  H    0.187791
    26  H    0.165567
    27  C   -0.225444
    28  H    0.167441
    29  H    0.182736
    30  H    0.157647
    31  C   -0.225290
    32  H    0.156876
    33  H    0.179147
    34  H    0.162242
 Sum of Mulliken charges =   1.00000
 Mulliken charges with hydrogens summed into heavy atoms:
               1
     1  C    0.274700
     2  C    0.259075
     3  C    0.588538
     4  C    0.294125
     5  C    0.311330
    11  O   -0.301749
[...]
 2711,0.01259571,0.00616998,-0.03385632,0.00017067,-0.00016791,-0.00000
 653,-0.00007588,0.00000010,-0.00002827,-0.00000072,-0.00000103,0.00000
 414,-0.00012688,0.00004000,0.00012657,-0.00006290,0.00006351,-0.000024
 46,0.00000908,-0.00001015,0.00000548,0.00000940,-0.00000813,-0.0000091
 9,0.00001283,-0.00000781,0.00000291,0.00012198,-0.00026029,-0.00002861
 ,0.00001574,0.00003512,0.00001306,-0.00003129,0.00004085,0.00001406,-0
 .00007163,0.00004267,-0.00001737,-0.03272300,-0.08897947,0.10014531,-0
 .00446372,-0.00258725,0.00849830,0.02683092,0.09465422,-0.00038277,-0.
 00030514,-0.00022290,0.00006226,0.00006321,-0.00006317,-0.00024957,0.0
 0001097,0.00003770,0.00041579,0.00054378,-0.00017068,0.00031265,-0.002
 97610,0.00114109,0.00001937,0.00005764,-0.00001325,0.00004804,-0.00006
 328,-0.00001044,0.00007426,0.00000186,0.00000692,0.00004149,0.00000783
 ,-0.00001068,-0.00001990,-0.00021442,0.00024515,0.00030199,-0.00035072
 ,-0.00042732,0.00011257,-0.00013237,0.00017345,0.00026497,0.00035629,-
 0.00020825,0.00814158,-0.00051673,-0.01967025,0.00019276,-0.00008994,0
 .00008356,-0.00007793,-0.00002052,-0.00004368,-0.00001132,0.00001454,0
 .00000935,-0.00025736,-0.00017654,0.00002439,-0.00011844,0.00012478,-0
 .00005577,0.00001224,-0.00002062,0.00001066,0.00002289,-0.00001765,-0.
 00001257,0.00002805,-0.00001433,0.00000336,0.00001272,-0.00024798,-0.0
 0002403,0.00001683,0.00002884,0.00002102,0.00000438,0.00003495,-0.0000
 0617,-0.00003292,0.00000862,0.00000167,0.06770402,0.08829525,-0.266031
 21,0.00449467,0.00633333,-0.01184596,-0.07952937,-0.09016973,0.2910011
 1,0.00015757,0.00000241,-0.00083942,0.00013789,0.00000780,-0.00001374,
 -0.00003323,0.00002499,-0.00001744,0.00000654,0.00021229,-0.00002288,0
 .00182059,0.00025035,0.00009414,-0.00001299,0.00000375,0.00001046,0.00
 000736,-0.00001944,-0.00000603,-0.00055413,0.00034695,0.00049507,-0.00
 008217,-0.00006137,0.00013898,-0.00034873,0.00015646,0.00000084,0.0000
 4344,-0.00008581,0.00010827,0.00000900,-0.00004275,0.00000691,0.000237
 38,0.00005636,-0.00026385,0.01564540,0.01490345,0.00293479,-0.00017159
 ,0.00002103,0.00008651,0.00002695,-0.00002105,-0.00002100,0.00001760,0
 .00000030,-0.00001005,0.00004957,-0.00019712,-0.00023439,-0.00001588,0
 .00000923,-0.00001651,-0.00000096,-0.00000070,0.00000023,0.00000519,-0
 .00000360,-0.00000062,0.00000400,0.00000090,0.00000010,-0.00031789,0.0
 0004604,0.00063475,0.00003590,-0.00000517,0.00002327,-0.00006241,0.000
 05324,0.00002012,-0.00046184,-0.00013669,0.00033810,-0.18812933,-0.127
 13181,-0.01941738,-0.01672519,-0.01795235,-0.00134134,-0.00561887,-0.0
 0499493,-0.00173978,0.19429108,-0.00041752,-0.00020854,-0.00126002,0.0
 0007525,0.00002784,0.00013717,-0.00042757,0.00003214,-0.00006024,-0.00
 014056,0.00027409,0.00019690,-0.00115911,-0.00065951,0.00510325,0.0000
 5658,0.00001917,0.00003464,0.00006601,-0.00006167,-0.00001623,0.000581
 32,-0.00014679,-0.00045035,0.00012994,0.00033673,0.00006308,0.00018926
 ,0.00042931,-0.00058536,0.00055627,-0.00024793,-0.00065859,0.00021950,
 -0.00013655,0.00014351,0.00061351,0.00035992,-0.00011417,-0.00953237,-
 0.03122685,-0.01502368,0.00024716,-0.00000696,0.00020381,-0.00008433,-
 0.00002926,-0.00003460,-0.00003139,0.00001639,-0.00002378,-0.00025386,
 0.00003055,0.00000133,-0.00011788,0.00013255,-0.00007026,0.00000310,-0
 .00001831,0.00000551,0.00002682,-0.00001981,-0.00000636,0.00004537,-0.
 00001421,0.00000173,0.00013067,-0.00052213,-0.00015187,0.00003803,0.00
 003308,0.00005274,-0.00001004,0.00005713,0.00001140,-0.00014056,-0.000
 27366,0.00043255,-0.12373560,-0.16790100,-0.01716518,0.00728272,0.0106
 4930,0.00199087,-0.00885952,-0.00596478,-0.00070600,0.13449177,0.19490
 035,0.00011680,0.00012785,0.00006369,-0.00008926,-0.00009860,0.0001622
 5,-0.00017459,-0.00003728,-0.00006183,-0.00021403,0.00017660,0.0001487
 4,-0.00279119,-0.00153233,0.00248493,0.00004430,0.00000800,0.00002039,
 -0.00000438,0.00002549,0.00000394,0.00087397,-0.00083566,-0.00053140,0
 .00015230,0.00019764,-0.00008031,-0.00030310,-0.00007741,-0.00052016,0
 .00028817,-0.00005204,-0.00036430,0.00006668,0.00001185,-0.00003256,-0
 .00000637,0.00004838,0.00009005,-0.00661208,-0.02085542,-0.00567172,-0
 .00006224,0.00005538,0.00015526,0.00001078,-0.00002688,-0.00001094,-0.
 00000755,-0.00000307,-0.00001475,-0.00007558,-0.00016644,-0.00014592,0
 .00000788,0.00002379,-0.00001298,-0.00000304,0.00000387,-0.00000007,0.
 00000206,-0.00000445,0.00000073,0.00000635,-0.00000424,0.00000361,0.00
 088325,-0.00005719,-0.00111371,-0.00000232,0.00000614,-0.00000226,-0.0
 0004429,0.00001772,0.00000650,0.00024372,0.00081653,-0.00117823,-0.019
 14314,-0.01478666,-0.05750436,-0.01333006,-0.01116324,-0.00031702,0.02
 097693,0.02002120,0.00618865,0.01905816,0.02799583,0.05828165,-0.00047
 050,-0.00024671,0.00045886,-0.00007764,0.00000687,-0.00020608,-0.00055
 271,-0.00020693,-0.00057664,-0.00248805,-0.00092823,0.00211513,-0.0007
 6266,-0.00071981,0.00000962,0.00018633,0.00009052,0.00004669,0.0000730
 1,-0.00004134,0.00003040,0.00015171,0.00007685,-0.00001396,-0.00010752
 ,0.00024016,-0.00004148,-0.00023570,-0.00019944,0.00001258,0.00246823,
 0.00008677,-0.00008253,0.00032030,-0.00021875,0.00032816,0.00019849,0.
 00045421,-0.00020602,0.00054668,0.00054038,0.00053477,-0.02715434,-0.0
 2078463,0.02538732,0.00365639,-0.00109607,-0.00243189,-0.00129761,0.00
 102642,-0.00000179,-0.09287448,-0.01586763,0.03636264,-0.00026529,0.00
 029108,-0.00009582,0.00002092,-0.00003190,0.00002101,0.00004352,-0.000
 03426,-0.00003899,0.00006637,-0.00003016,0.00001073,-0.00002197,-0.000
 31397,-0.00004541,0.00001713,0.00003715,0.00003873,0.00001115,0.000039
 07,-0.00001842,-0.00000267,0.00000153,0.00001219,0.00005680,-0.0009447
 8,-0.00089760,-0.00003813,-0.00021807,-0.00017837,-0.00000156,-0.00000
 296,0.00012157,0.00005537,0.00015950,0.00008789,0.58187848,-0.00048313
 ,-0.00013704,0.00055583,-0.00009250,-0.00003359,-0.00033164,-0.0009384
 5,-0.00043912,-0.00100707,-0.00281052,0.00152772,-0.00289397,-0.000304
 30,-0.00101292,-0.00137526,0.00029223,0.00022440,0.00005049,0.00006964
 ,-0.00002363,0.00008254,0.00021064,0.00010666,0.00000951,0.00037108,-0
 .00033330,0.00008482,-0.00030389,-0.00034640,0.00003948,0.00476967,-0.
 00071464,0.00046669,0.00033723,-0.00023715,0.00050295,0.00012639,0.000
 40987,-0.00007144,-0.00092994,-0.00060728,0.00118772,0.00044861,0.0075
 5255,-0.00522942,0.00524176,0.00141040,-0.00356889,0.00380896,0.000165
 82,-0.00367728,-0.04550044,-0.15681004,0.07274551,-0.00031591,0.000347
 84,-0.00010413,0.00004454,-0.00004694,0.00003413,0.00005032,-0.0000340
 0,-0.00005407,0.00007147,-0.00004505,0.00001265,-0.00004175,-0.0002942
 0,-0.00003825,0.00002240,0.00003850,0.00004225,0.00000457,0.00003203,-
 0.00001808,0.00000485,0.00001080,0.00000164,-0.00027031,0.00012696,-0.
 00035466,0.00004721,-0.00041125,-0.00014257,0.00005499,0.00005416,0.00
 018363,0.00008034,-0.00001626,0.00008754,-0.05931955,0.53253061,0.0003
 1511,0.00034641,-0.00045660,-0.00008397,-0.00002042,0.00019305,0.00059
 333,0.00036073,0.00079095,0.00229793,-0.00198076,0.00411785,-0.0004613
 3,-0.00035061,0.00163485,-0.00023930,-0.00020174,-0.00001034,-0.000051
 23,0.00004298,-0.00004867,-0.00018294,-0.00007125,-0.00001145,-0.00028
 703,0.00083524,0.00014611,0.00035576,0.00074101,-0.00010083,-0.0043795
 0,0.00081268,-0.00029193,-0.00014760,0.00014640,-0.00034745,-0.0000366
 5,-0.00023962,0.00000293,0.00062878,0.00069691,-0.00101778,0.01878737,
 0.01362922,-0.02710266,-0.00158920,0.00426599,0.00140847,0.00286083,-0
 .00182348,-0.00042788,0.04079631,0.04464586,-0.11543319,0.00017975,-0.
 00019077,0.00006734,-0.00003560,0.00003710,-0.00002444,-0.00002790,0.0
 0001699,0.00002716,-0.00003635,0.00002710,-0.00000718,0.00005594,0.000
 18632,0.00003103,-0.00002465,-0.00002067,-0.00003021,-0.00000039,-0.00
 001896,0.00000912,-0.00000092,0.00000325,0.00001059,0.00011161,-0.0002
 6293,-0.00005917,-0.00007143,0.00013479,0.00022260,-0.00007123,-0.0000
 6374,-0.00017413,0.00002214,0.00008792,-0.00000259,0.01958706,0.062331
 72,0.54690119,0.00001959,0.00011073,-0.00001123,-0.00001058,-0.0000267
 6,0.00001692,-0.00003635,0.00000494,0.00006548,-0.00003755,0.00015123,
 0.00011147,0.00019637,-0.00001304,-0.00013142,-0.00001729,-0.00003554,
 0.00000475,-0.00000980,0.00001176,0.00000197,0.00000312,-0.00000426,0.
 00000112,-0.00006557,-0.00003464,-0.00006770,0.00003824,0.00008591,0.0
 0001598,-0.00027176,0.00013393,-0.00004494,-0.00002531,0.00003847,-0.0
 0003398,-0.00003534,-0.00005657,0.00003623,-0.00039915,-0.00039393,-0.
 00005070,0.00221832,-0.00362345,-0.00361188,0.00007548,0.00099525,0.00
 028343,0.00007419,0.00023462,0.00010367,-0.00727347,-0.01745102,0.0012
 1304,0.00003153,-0.00003391,0.00000960,-0.00000446,0.00000297,-0.00000
 505,-0.00000843,0.00000399,0.00000657,-0.00000542,0.00000547,-0.000000
 55,0.00000379,0.00004076,0.00000583,-0.00000231,-0.00000501,-0.0000044
 1,-0.00000183,-0.00000547,0.00000221,0.00000072,0.00000109,-0.00000137
 ,-0.00005110,0.00024563,0.00018478,0.00002274,0.00001781,0.00004107,0.
 00000202,0.00000487,-0.00001193,-0.00000081,-0.00005187,-0.00002292,-0
 .07114588,-0.04840450,-0.03772936,0.07044661,0.00012893,0.00014362,-0.
 00013291,-0.00000541,-0.00001114,0.00006320,0.00014424,0.00006168,0.00
 016456,0.00032554,-0.00028137,0.00032081,0.00011281,-0.00000531,0.0003
 3168,-0.00004781,-0.00005670,-0.00000280,-0.00002190,0.00001641,-0.000
 01053,-0.00004188,-0.00002216,-0.00000038,-0.00004545,-0.00002091,-0.0
 0000724,0.00012499,0.00018008,-0.00002415,-0.00076219,0.00017306,-0.00
 011114,-0.00007332,0.00005693,-0.00010162,-0.00003598,-0.00010612,0.00
 003759,0.00010781,0.00002622,-0.00015571,0.00470036,0.00037970,-0.0029
 9091,-0.00130265,0.00104788,0.00083110,0.00010059,0.00034819,0.0002942
 7,-0.01570096,-0.02937760,0.00052059,0.00007519,-0.00007823,0.00002362
 ,-0.00000797,0.00000982,-0.00000659,-0.00001162,0.00000861,0.00001225,
 -0.00001626,0.00000849,-0.00000262,0.00001666,0.00007749,0.00000998,-0
 .00000621,-0.00000946,-0.00001045,-0.00000343,-0.00000982,0.00000522,-
 0.00000098,0.00000047,-0.00000067,0.00005673,0.00001822,0.00010030,-0.
 00002045,0.00006951,0.00005636,-0.00000938,-0.00000350,-0.00003891,-0.
 00002392,-0.00001208,-0.00002004,-0.05044759,-0.20549656,-0.11080966,0
 .06360848,0.23302415,0.00000948,-0.00006117,0.00004123,0.00002358,-0.0
 0001390,-0.00000364,0.00002653,-0.00002097,-0.00004308,-0.00013026,-0.
 00023066,-0.00055483,0.00019809,0.00029105,-0.00046547,0.00000906,0.00
 001473,-0.00000227,-0.00000152,-0.00000063,0.00000063,0.00001554,-0.00
 000023,0.00000683,-0.00002026,-0.00008779,-0.00004681,0.00002133,-0.00
 012746,0.00004542,0.00024449,-0.00008192,0.00007396,-0.00002015,0.0000
 2401,0.00000326,-0.00004467,-0.00002319,0.00003205,-0.00055148,-0.0004
 3333,0.00007330,-0.00147882,0.00409104,0.00407033,-0.00128371,-0.00158
 453,0.00012738,-0.00026595,0.00013032,0.00020246,0.01237629,0.02460595
 ,0.00939385,0.00001114,-0.00001747,0.00000372,-0.00000072,-0.00000147,
 -0.00000289,-0.00000499,0.00000269,0.00000366,-0.00000235,0.00000354,-
 0.00000056,-0.00000466,0.00001173,0.00000088,0.00000207,-0.00000173,-0
 .00000045,-0.00000136,-0.00000228,0.00000152,-0.00000057,-0.00000111,-
 0.00000368,-0.00002223,0.00016852,0.00014564,0.00000577,0.00002319,-0.
 00005983,0.00002966,0.00000898,0.00003382,-0.00004617,-0.00003804,-0.0
 0001232,-0.03826251,-0.11601773,-0.13507898,0.03802751,0.11669665,0.13
 837737,0.00007252,0.00004082,-0.00009820,0.00003681,0.00000706,0.00004
 901,0.00017765,0.00007140,0.00014481,0.00054415,0.00007630,0.00010948,
 0.00002568,0.00014021,0.00014072,-0.00003286,-0.00002920,-0.00001206,-
 0.00001547,0.00000266,-0.00001035,-0.00003404,-0.00002147,0.00000010,0
 .00013183,-0.00009260,0.00000193,0.00002171,0.00002437,0.00001640,-0.0
 0054355,0.00006207,-0.00006679,-0.00008283,0.00003554,-0.00008656,-0.0
 0002941,-0.00011080,0.00003340,-0.00010175,-0.00035070,-0.00025859,0.0
 0112539,-0.00304163,-0.00057233,-0.00004089,0.00019598,0.00008087,-0.0
 0061371,0.00022594,0.00040099,-0.01400138,0.00109760,0.01188627,0.0000
 6614,-0.00006650,0.00002232,-0.00000451,0.00000889,-0.00000279,-0.0000
 0782,0.00000725,0.00000850,-0.00001729,0.00000505,-0.00000255,-0.00000
 560,0.00008090,0.00001145,-0.00000306,-0.00001066,-0.00000890,-0.00000
 091,-0.00000876,0.00000342,0.00000383,-0.00000206,-0.00000325,-0.00019
 790,0.00027202,0.00013347,0.00003907,-0.00008543,0.00006821,-0.0000083
 8,-0.00001019,-0.00004930,0.00005055,-0.00006944,-0.00001937,-0.228904
 69,0.10019614,0.08100861,0.00993905,-0.00355057,-0.00421746,0.24736999
 ,-0.00000604,0.00000295,-0.00002644,0.00000622,0.00000798,0.00002302,0
 .00000879,0.00002403,0.00008294,0.00036165,-0.00019965,0.00070672,-0.0
 0005667,0.00008003,0.00018518,-0.00002113,-0.00004801,0.00000706,-0.00
 000163,-0.00000247,-0.00000852,-0.00001080,-0.00000548,-0.00000214,-0.
 00018183,0.00007875,-0.00008831,0.00002807,0.00002680,0.00002047,-0.00
 044300,0.00026515,-0.00015350,-0.00001224,0.00000950,-0.00003694,0.000
 00838,-0.00001861,-0.00000845,0.00017792,0.00006252,-0.00004106,-0.002
 75454,-0.00288967,0.00214328,-0.00000601,0.00028482,0.00035205,-0.0007
 9894,0.00040469,0.00065320,-0.02608661,0.00959209,0.01589586,0.0000178
 6,-0.00001898,0.00000287,-0.00000485,0.00000265,-0.00000343,-0.0000035
 1,0.00000092,0.00000487,-0.00000272,0.00000384,-0.00000051,-0.00000408
 ,0.00001497,0.00000044,0.,-0.00000260,-0.00000152,0.00000086,-0.000000
 80,0.00000039,0.00000141,-0.00000140,-0.00000027,-0.00000955,-0.000019
 08,-0.00006015,-0.00001484,-0.00000729,0.00000040,0.00000145,-0.000006
 30,0.00000221,0.00000069,0.00001092,0.00000981,0.10943716,-0.11094968,
 -0.05326499,0.02097146,-0.00912492,-0.00798154,-0.10558355,0.11455473,
 -0.00003116,-0.00001444,0.00005943,-0.00000047,-0.00000901,-0.00002371
 ,-0.00013930,-0.00006062,-0.00010164,-0.00050220,0.00038272,-0.0006853
 3,0.00011756,-0.00006135,-0.00017311,0.00003270,0.00003544,-0.00000170
 ,0.00000745,-0.00000234,0.00001018,0.00002658,0.00001206,0.00000174,0.
 00026738,-0.00016592,0.00006075,-0.00003923,-0.00006197,-0.00000843,0.
 00065748,-0.00020674,0.00007927,0.00003232,-0.00001832,0.00004999,0.00
 000965,0.00004880,-0.00000135,-0.00015716,-0.00016574,0.00003294,0.001
 37607,0.00366029,-0.00105598,-0.00020500,0.00015703,0.00019642,0.00110
 431,-0.00006137,-0.00049097,0.02230352,-0.00568062,-0.01426305,-0.0000
 2921,0.00003140,-0.00000812,0.00000472,-0.00000440,0.00000334,0.000003
 91,-0.00000312,-0.00000547,0.00000630,-0.00000418,0.00000158,-0.000002
 23,-0.00003572,-0.00000430,0.00000154,0.00000405,0.00000452,0.00000039
 ,0.00000315,-0.00000207,-0.00000119,0.00000125,0.00000083,-0.00006487,
 0.00003404,0.00003764,-0.00000560,-0.00005535,-0.00000161,-0.00001427,
 0.00000424,-0.00000879,0.00001975,-0.00002928,-0.00001751,0.07668581,-
 0.04546181,-0.08735676,0.01432703,-0.00833449,-0.00538441,-0.09620930,
 0.04524635,0.09720628,-0.00011619,0.00001878,-0.00003102,0.00001517,-0
 .00000750,-0.00001810,-0.00011335,-0.00009487,-0.00011362,-0.00159732,
 0.00035935,-0.00052520,-0.00001442,0.00012490,0.00030644,0.00005722,-0
 .00000681,0.00001016,0.00000472,-0.00000429,0.00000092,0.00001061,-0.0
 0000520,0.00000661,-0.00137842,-0.00061068,0.00075969,0.00006428,-0.00
 000333,-0.00002291,0.00106823,-0.00001730,-0.00030436,0.00002099,-0.00
 002315,0.00002647,0.00006936,0.00006462,-0.00004756,-0.00063409,-0.000
 30886,0.00001215,0.00348868,-0.00053178,0.00053228,-0.00039799,-0.0000
 5823,0.00014374,-0.00028948,0.00017430,0.00003667,0.01362047,-0.008088
 41,0.01748134,-0.00002181,0.00002728,-0.00001380,0.00000332,-0.0000043
 9,0.00000354,0.00000554,-0.00000444,-0.00000186,0.00000523,-0.00000502
 ,0.00000063,-0.00000212,-0.00004149,-0.00000763,0.00000211,0.00000413,
 0.00000400,0.00000069,0.00000452,-0.00000118,-0.00000150,0.00000170,0.
 00000209,0.00026620,-0.00007876,-0.00021624,-0.00002298,0.00008478,-0.
 00001075,0.00001173,0.00001372,0.00007548,-0.00006538,0.00011882,0.000
 08628,-0.16334948,0.04346216,-0.12214397,-0.00366936,0.00263361,-0.004
 64070,-0.01495834,0.00498063,-0.01958326,0.16791769,-0.00004656,0.0000
 1636,-0.00013972,0.00000460,0.00004986,0.00002574,0.00010610,0.0000659
 3,0.00018979,-0.00021418,0.00030427,0.00041217,-0.00036629,-0.00000930
 ,0.00120854,-0.00004577,-0.00003278,-0.00000899,0.00000089,-0.00001390
 ,-0.00001755,-0.00005998,-0.00001882,-0.00000599,-0.00030699,0.0003044
 2,0.00007308,0.00004201,0.00009057,-0.00011163,-0.00065803,0.00005994,
 -0.00020807,-0.00001119,-0.00003956,-0.00003830,0.00011947,0.00006212,
 -0.00011548,0.00086672,0.00055777,-0.00038482,0.00341012,-0.00105823,-
 0.00214390,-0.00065181,0.00013956,0.00021426,-0.00053519,0.00010900,0.
 00028955,0.00727936,-0.01392282,0.02774501,0.00000759,-0.00000694,-0.0
 0000358,-0.00000009,0.00000401,0.00000294,0.00000487,-0.00000241,0.000
 00042,-0.00000503,-0.00000076,-0.00000042,0.00001260,-0.00004120,-0.00
 000571,-0.00000414,0.00000391,0.00000034,0.00000464,0.00000657,-0.0000
 0214,-0.00000286,-0.00000090,0.00001057,0.00022227,-0.00064740,-0.0005
 3768,-0.00005950,0.00001034,0.00006282,-0.00006230,-0.00001682,-0.0000
 0675,0.00000837,0.00015684,0.00008732,0.03916512,-0.06654927,0.0399709
 7,-0.01652938,0.00896537,-0.01934526,0.01048336,-0.00213240,0.01081599
 ,-0.04217880,0.07358667,-0.00004312,0.00000503,0.00000283,0.00004448,-
 0.00001295,-0.00000693,-0.00001052,0.00001719,-0.00000903,0.00025243,0
 .00027998,-0.00045730,0.00023853,0.00013329,-0.00044816,0.00001396,0.0
 0004240,-0.00002311,-0.00000293,-0.00000420,0.00000593,0.00002442,-0.0
 0000065,0.00001014,0.00100673,-0.00006168,0.00012975,-0.00004974,-0.00
 014856,-0.00000540,0.00030299,-0.00032884,0.00018154,-0.00002324,-0.00
 000194,0.00000934,-0.00001158,-0.00003358,0.00005033,-0.00080620,-0.00
 090488,-0.00005562,-0.00417474,0.00163314,0.00152018,0.00017425,-0.000
 39424,-0.00036644,0.00067137,-0.00008708,-0.00021116,-0.00167919,0.016
 21371,-0.02046405,0.00001617,-0.00000989,0.00000558,0.00000290,0.00000
 083,0.00000313,0.00000078,0.00000256,-0.00000063,-0.00000520,-0.000002
 75,-0.00000088,-0.00001800,0.00002496,-0.00000006,0.00000445,-0.000005
 09,0.00000060,-0.00000282,-0.00000410,0.00000150,0.00000359,-0.0000009
 1,-0.00000760,-0.00017959,0.00024017,0.00017345,0.00003163,-0.00004949
 ,-0.00002897,0.00001359,-0.00000110,0.00001736,-0.00000200,-0.00006824
 ,-0.00001545,-0.11875369,0.04192715,-0.18758099,-0.01273124,0.00329263
 ,-0.01097811,0.00749783,-0.00365936,0.01184937,0.12819369,-0.05803347,
 0.20669888\\-0.00001021,-0.00000984,0.00000584,-0.00000191,-0.00001919
 ,0.00000939,-0.00000668,-0.00000008,-0.00001195,0.00001761,-0.00000398
 ,-0.00001047,0.00000440,0.00000841,0.00000562,-0.00000263,-0.00000143,
 -0.00000172,-0.00000199,-0.00000123,-0.00000173,0.00000282,-0.00000091
 ,-0.00000352,-0.00000332,-0.00000111,0.00000335,-0.00000075,-0.0000008
 3,-0.00000013,-0.00001177,0.00000210,0.00001282,0.00000134,0.00000934,
 -0.00000090,0.00000315,0.00000248,-0.00000804,-0.00000001,0.00000242,-
 0.00000182,-0.00001547,0.00001004,0.00000156,-0.00000158,0.00000092,0.
 00000393,0.00000205,0.00000142,-0.00000144,0.00000968,-0.00000117,0.00
 000289,-0.00000600,-0.00000780,-0.00000561,-0.00000228,-0.00000170,-0.
 00000100,0.00000418,-0.00000591,0.00000725,0.00000040,-0.00000228,-0.0
 0000487,0.00000099,-0.00000131,-0.00000292,0.00000341,-0.00000267,-0.0
 0000253,0.00000287,-0.00000175,-0.00000148,0.00000498,0.00000095,-0.00
 000084,0.00000225,0.00000105,-0.00000126,0.00000332,0.00000381,0.00000
 092,0.00000228,0.00000164,0.00000034,0.00000579,0.00000065,-0.00000059
 ,-0.00000565,0.00000424,0.00000155,-0.00000130,0.00000486,0.00000339,-
 0.00000089,0.00000474,0.00000243,0.00000093,0.00000415,0.00000153\\\@


 MEN HAVE BECOME THE TOOLS OF THEIR TOOLS... THOREAU   
 Job cpu time:       0 days  1 hours 15 minutes 51.7 seconds.
 Elapsed time:       0 days  0 hours 18 minutes 58.3 seconds.
 File lengths (MBytes):  RWF=    378 Int=      0 D2E=      0 Chk=     16 Scr=      1
 Normal termination of Gaussian 16 at Fri May 24 08:54:03 2019.
