 Entering Gaussian System, Link 0=g16
 Input=clay-glucose_cation-005-b3lyp_d3bj-631gd-pcm_thf.gjf
 Output=clay-glucose_cation-005-b3lyp_d3bj-631gd-pcm_thf.out
 Initial command:
 /n/sw/g16_nehalem/g16/l1.exe "/scratch/Gau-45568.inp" -scrdir="/scratch/"
 Entering Link 1 = /n/sw/g16_nehalem/g16/l1.exe PID=     45581.
  
 Copyright (c) 1988,1990,1992,1993,1995,1998,2003,2009,2016,
            Gaussian, Inc.  All Rights Reserved.
  
 This is part of the Gaussian(R) 16 program.  It is based on
 the Gaussian(R) 09 system (copyright 2009, Gaussian, Inc.),
 the Gaussian(R) 03 system (copyright 2003, Gaussian, Inc.),
 the Gaussian(R) 98 system (copyright 1998, Gaussian, Inc.),
 the Gaussian(R) 94 system (copyright 1995, Gaussian, Inc.),
 the Gaussian 92(TM) system (copyright 1992, Gaussian, Inc.),
 the Gaussian 90(TM) system (copyright 1990, Gaussian, Inc.),
 the Gaussian 88(TM) system (copyright 1988, Gaussian, Inc.),
 the Gaussian 86(TM) system (copyright 1986, Carnegie Mellon
 University), and the Gaussian 82(TM) system (copyright 1983,
 Carnegie Mellon University). Gaussian is a federally registered
 trademark of Gaussian, Inc.
  
 This software contains proprietary and confidential information,
 including trade secrets, belonging to Gaussian, Inc.
  
 This software is provided under written license and may be
 used, copied, transmitted, or stored only in accord with that
 written license.
  
 The following legend is applicable only to US Government
 contracts under FAR:
  
                    RESTRICTED RIGHTS LEGEND
  
 Use, reproduction and disclosure by the US Government is
 subject to restrictions as set forth in subparagraphs (a)
 and (c) of the Commercial Computer Software - Restricted
 Rights clause in FAR 52.227-19.
  
 Gaussian, Inc.
 340 Quinnipiac St., Bldg. 40, Wallingford CT 06492
  
  
 ---------------------------------------------------------------
 Warning -- This program may not be used in any manner that
 competes with the business of Gaussian, Inc. or will provide
 assistance to any competitor of Gaussian, Inc.  The licensee
 of this program is prohibited from giving any competitor of
 Gaussian, Inc. access to this program.  By using this program,
 the user acknowledges that Gaussian, Inc. is engaged in the
 business of creating and licensing software in the field of
 computational chemistry and represents and warrants to the
 licensee that it is not a competitor of Gaussian, Inc. and that
 it will not use this program in any manner prohibited above.
 ---------------------------------------------------------------
  

 Cite this work as:
 Gaussian 16, Revision A.03,
 M. J. Frisch, G. W. Trucks, H. B. Schlegel, G. E. Scuseria, 
 M. A. Robb, J. R. Cheeseman, G. Scalmani, V. Barone, 
 G. A. Petersson, H. Nakatsuji, X. Li, M. Caricato, A. V. Marenich, 
 J. Bloino, B. G. Janesko, R. Gomperts, B. Mennucci, H. P. Hratchian, 
 J. V. Ortiz, A. F. Izmaylov, J. L. Sonnenberg, D. Williams-Young, 
 F. Ding, F. Lipparini, F. Egidi, J. Goings, B. Peng, A. Petrone, 
 T. Henderson, D. Ranasinghe, V. G. Zakrzewski, J. Gao, N. Rega, 
 G. Zheng, W. Liang, M. Hada, M. Ehara, K. Toyota, R. Fukuda, 
 J. Hasegawa, M. Ishida, T. Nakajima, Y. Honda, O. Kitao, H. Nakai, 
 T. Vreven, K. Throssell, J. A. Montgomery, Jr., J. E. Peralta, 
 F. Ogliaro, M. J. Bearpark, J. J. Heyd, E. N. Brothers, K. N. Kudin, 
 V. N. Staroverov, T. A. Keith, R. Kobayashi, J. Normand, 
 K. Raghavachari, A. P. Rendell, J. C. Burant, S. S. Iyengar, 
 J. Tomasi, M. Cossi, J. M. Millam, M. Klene, C. Adamo, R. Cammi, 
 J. W. Ochterski, R. L. Martin, K. Morokuma, O. Farkas, 
 J. B. Foresman, and D. J. Fox, Gaussian, Inc., Wallingford CT, 2016.
 
 ******************************************
 Gaussian 16:  ES64L-G16RevA.03 25-Dec-2016
                24-May-2019 
 ******************************************
 %nprocshared=4
 Will use up to    4 processors via shared memory.
 %mem=3GB
 -------------------------------------------------------------------
 #p b3lyp 6-31g* opt freq=noraman scrf=(pcm,solvent=tetrahydrofuran)
 -------------------------------------------------------------------
 1/18=20,19=15,26=3,38=1/1,3;
 2/9=110,12=2,17=6,18=5,40=1/2;
 3/5=1,6=6,7=1,11=2,25=1,30=1,70=2201,71=1,72=20,74=-5/1,2,3;
 4//1;
 5/5=2,38=5,53=20/2;
 6/7=2,8=2,9=2,10=2,28=1/1;
 7//1,2,3,16;
 1/18=20,19=15,26=3/3(2);
 2/9=110/2;
 99//99;
 2/9=110/2;
 3/5=1,6=6,7=1,11=2,25=1,30=1,70=2205,71=1,72=20,74=-5/1,2,3;
 4/5=5,16=3,69=1/1;
 5/5=2,38=5,53=20/2;
 7//1,2,3,16;
 1/18=20,19=15,26=3/3(-5);
 2/9=110/2;
 6/7=2,8=2,9=2,10=2,19=2,28=1/1;
 99/9=1/99;
 Leave Link    1 at Fri May 24 08:30:06 2019, MaxMem=   402653184 cpu:               0.5 elap:               0.2
 (Enter /n/sw/g16_nehalem/g16/l101.exe)
 -----
 title
 -----
 Symbolic Z-matrix:
 Charge =  1 Multiplicity = 1
 6                    -1.09322   0.47894  -0.53252 
 6                    -1.57236  -0.8689    0.06992 
 6                    -0.49169  -1.895    -0.02785 
 6                     1.32619  -0.2687   -0.16962 
 6                     0.28992   0.84616   0.05285 
 1                    -0.74361  -2.95592  -0.06971 
 1                    -1.77921  -0.73937   1.14841 
 1                    -0.9727    0.33792  -1.61203 
 1                     1.69286  -0.21968  -1.19597 
 1                     0.20451   1.05429   1.12991 
 8                     0.73604  -1.65743  -0.1264 
 8                    -2.69242  -1.34509  -0.62711 
 8                    -2.04091   1.50901  -0.41441 
 8                     0.86386   1.94376  -0.62286 
 6                     2.46896  -0.2724    0.84463 
 1                     2.06691  -0.51613   1.83373 
 1                     2.86029   0.75511   0.87583 
 8                     3.46663  -1.21609   0.55476 
 6                    -3.64555  -2.07301   0.16056 
 1                    -3.22069  -3.00383   0.55587 
 1                    -4.01325  -1.45984   0.99215 
 1                    -4.46867  -2.31204  -0.51308 
 6                    -2.60988   1.76091   0.87071 
 1                    -3.20481   2.66809   0.75532 
 1                    -1.85327   1.93183   1.64588 
 1                    -3.27471   0.94661   1.18441 
 6                     0.60444   3.23397  -0.05993 
 1                     0.87349   3.2591    1.00413 
 1                     1.24032   3.93178  -0.6077 
 1                    -0.44397   3.51864  -0.18494 
 6                     4.4351   -0.77951  -0.39693 
 1                     5.17857  -1.57552  -0.46794 
 1                     3.99752  -0.61594  -1.39115 
 1                     4.9234    0.14687  -0.06587 
 
 ITRead=  0  0  0  0  0  0  0  0  0  0  0  0  0  0  0  0  0  0  0  0
 ITRead=  0  0  0  0  0  0  0  0  0  0  0  0  0  0
 MicOpt= -1 -1 -1 -1 -1 -1 -1 -1 -1 -1 -1 -1 -1 -1 -1 -1 -1 -1 -1 -1
 MicOpt= -1 -1 -1 -1 -1 -1 -1 -1 -1 -1 -1 -1 -1 -1
 NAtoms=     34 NQM=       34 NQMF=       0 NMMI=      0 NMMIF=      0
                NMic=       0 NMicF=      0.
                    Isotopes and Nuclear Properties:
 (Nuclear quadrupole moments (NQMom) in fm**2, nuclear magnetic moments (NMagM)
  in nuclear magnetons)

  Atom         1           2           3           4           5           6           7           8           9          10
 IAtWgt=          12          12          12          12          12           1           1           1           1           1
 AtmWgt=  12.0000000  12.0000000  12.0000000  12.0000000  12.0000000   1.0078250   1.0078250   1.0078250   1.0078250   1.0078250
 NucSpn=           0           0           0           0           0           1           1           1           1           1
 AtZEff=   0.0000000   0.0000000   0.0000000   0.0000000   0.0000000   0.0000000   0.0000000   0.0000000   0.0000000   0.0000000
 NQMom=    0.0000000   0.0000000   0.0000000   0.0000000   0.0000000   0.0000000   0.0000000   0.0000000   0.0000000   0.0000000
 NMagM=    0.0000000   0.0000000   0.0000000   0.0000000   0.0000000   2.7928460   2.7928460   2.7928460   2.7928460   2.7928460
 AtZNuc=   6.0000000   6.0000000   6.0000000   6.0000000   6.0000000   1.0000000   1.0000000   1.0000000   1.0000000   1.0000000

  Atom        11          12          13          14          15          16          17          18          19          20
 IAtWgt=          16          16          16          16          12           1           1          16          12           1
 AtmWgt=  15.9949146  15.9949146  15.9949146  15.9949146  12.0000000   1.0078250   1.0078250  15.9949146  12.0000000   1.0078250
 NucSpn=           0           0           0           0           0           1           1           0           0           1
 AtZEff=   0.0000000   0.0000000   0.0000000   0.0000000   0.0000000   0.0000000   0.0000000   0.0000000   0.0000000   0.0000000
 NQMom=    0.0000000   0.0000000   0.0000000   0.0000000   0.0000000   0.0000000   0.0000000   0.0000000   0.0000000   0.0000000
 NMagM=    0.0000000   0.0000000   0.0000000   0.0000000   0.0000000   2.7928460   2.7928460   0.0000000   0.0000000   2.7928460
 AtZNuc=   8.0000000   8.0000000   8.0000000   8.0000000   6.0000000   1.0000000   1.0000000   8.0000000   6.0000000   1.0000000

  Atom        21          22          23          24          25          26          27          28          29          30
 IAtWgt=           1           1          12           1           1           1          12           1           1           1
 AtmWgt=   1.0078250   1.0078250  12.0000000   1.0078250   1.0078250   1.0078250  12.0000000   1.0078250   1.0078250   1.0078250
 NucSpn=           1           1           0           1           1           1           0           1           1           1
 AtZEff=   0.0000000   0.0000000   0.0000000   0.0000000   0.0000000   0.0000000   0.0000000   0.0000000   0.0000000   0.0000000
 NQMom=    0.0000000   0.0000000   0.0000000   0.0000000   0.0000000   0.0000000   0.0000000   0.0000000   0.0000000   0.0000000
 NMagM=    2.7928460   2.7928460   0.0000000   2.7928460   2.7928460   2.7928460   0.0000000   2.7928460   2.7928460   2.7928460
 AtZNuc=   1.0000000   1.0000000   6.0000000   1.0000000   1.0000000   1.0000000   6.0000000   1.0000000   1.0000000   1.0000000

  Atom        31          32          33          34
 IAtWgt=          12           1           1           1
 AtmWgt=  12.0000000   1.0078250   1.0078250   1.0078250
 NucSpn=           0           1           1           1
 AtZEff=   0.0000000   0.0000000   0.0000000   0.0000000
 NQMom=    0.0000000   0.0000000   0.0000000   0.0000000
 NMagM=    0.0000000   2.7928460   2.7928460   2.7928460
 AtZNuc=   6.0000000   1.0000000   1.0000000   1.0000000
 Leave Link  101 at Fri May 24 08:30:07 2019, MaxMem=   402653184 cpu:               0.9 elap:               0.3
 (Enter /n/sw/g16_nehalem/g16/l103.exe)

 GradGradGradGradGradGradGradGradGradGradGradGradGradGradGradGradGradGrad
 Berny optimization.
 Initialization pass.
                           ----------------------------
                           !    Initial Parameters    !
                           ! (Angstroms and Degrees)  !
 --------------------------                            --------------------------
 ! Name  Definition              Value          Derivative Info.                !
 --------------------------------------------------------------------------------
 ! R1    R(1,2)                  1.5522         estimate D2E/DX2                !
 ! R2    R(1,5)                  1.5462         estimate D2E/DX2                !
 ! R3    R(1,8)                  1.0953         estimate D2E/DX2                !
 ! R4    R(1,13)                 1.4047         estimate D2E/DX2                !
 ! R5    R(2,3)                  1.4934         estimate D2E/DX2                !
 ! R6    R(2,7)                  1.1058         estimate D2E/DX2                !
 ! R7    R(2,12)                 1.4025         estimate D2E/DX2                !
 ! R8    R(3,6)                  1.0912         estimate D2E/DX2                !
 ! R9    R(3,11)                 1.2544         estimate D2E/DX2                !
 ! R10   R(4,5)                  1.5383         estimate D2E/DX2                !
 ! R11   R(4,9)                  1.091          estimate D2E/DX2                !
 ! R12   R(4,11)                 1.5095         estimate D2E/DX2                !
 ! R13   R(4,15)                 1.528          estimate D2E/DX2                !
 ! R14   R(5,10)                 1.1003         estimate D2E/DX2                !
 ! R15   R(5,14)                 1.4109         estimate D2E/DX2                !
 ! R16   R(12,19)                1.4348         estimate D2E/DX2                !
 ! R17   R(13,23)                1.4278         estimate D2E/DX2                !
 ! R18   R(14,27)                1.4314         estimate D2E/DX2                !
 ! R19   R(15,16)                1.0951         estimate D2E/DX2                !
 ! R20   R(15,17)                1.0999         estimate D2E/DX2                !
 ! R21   R(15,18)                1.4035         estimate D2E/DX2                !
 ! R22   R(18,31)                1.4263         estimate D2E/DX2                !
 ! R23   R(19,20)                1.0969         estimate D2E/DX2                !
 ! R24   R(19,21)                1.0967         estimate D2E/DX2                !
 ! R25   R(19,22)                1.0902         estimate D2E/DX2                !
 ! R26   R(23,24)                1.091          estimate D2E/DX2                !
 ! R27   R(23,25)                1.0966         estimate D2E/DX2                !
 ! R28   R(23,26)                1.097          estimate D2E/DX2                !
 ! R29   R(27,28)                1.0978         estimate D2E/DX2                !
 ! R30   R(27,29)                1.0915         estimate D2E/DX2                !
 ! R31   R(27,30)                1.0935         estimate D2E/DX2                !
 ! R32   R(31,32)                1.0915         estimate D2E/DX2                !
 ! R33   R(31,33)                1.0985         estimate D2E/DX2                !
 ! R34   R(31,34)                1.0983         estimate D2E/DX2                !
 ! A1    A(2,1,5)              109.5999         estimate D2E/DX2                !
 ! A2    A(2,1,8)              107.7393         estimate D2E/DX2                !
 ! A3    A(2,1,13)             113.3212         estimate D2E/DX2                !
 ! A4    A(5,1,8)              107.7749         estimate D2E/DX2                !
 ! A5    A(5,1,13)             113.4243         estimate D2E/DX2                !
 ! A6    A(8,1,13)             104.5671         estimate D2E/DX2                !
 ! A7    A(1,2,3)              110.356          estimate D2E/DX2                !
 ! A8    A(1,2,7)              109.5472         estimate D2E/DX2                !
 ! A9    A(1,2,12)             110.3932         estimate D2E/DX2                !
 ! A10   A(3,2,7)              106.2422         estimate D2E/DX2                !
 ! A11   A(3,2,12)             108.1837         estimate D2E/DX2                !
 ! A12   A(7,2,12)             112.0305         estimate D2E/DX2                !
 ! A13   A(2,3,6)              120.2292         estimate D2E/DX2                !
 ! A14   A(2,3,11)             125.6803         estimate D2E/DX2                !
 ! A15   A(6,3,11)             114.0212         estimate D2E/DX2                !
 ! A16   A(5,4,9)              109.2629         estimate D2E/DX2                !
 ! A17   A(5,4,11)             113.5313         estimate D2E/DX2                !
 ! A18   A(5,4,15)             114.179          estimate D2E/DX2                !
 ! A19   A(9,4,11)             101.517          estimate D2E/DX2                !
 ! A20   A(9,4,15)             111.9139         estimate D2E/DX2                !
 ! A21   A(11,4,15)            105.7333         estimate D2E/DX2                !
 ! A22   A(1,5,4)              112.0703         estimate D2E/DX2                !
 ! A23   A(1,5,10)             110.248          estimate D2E/DX2                !
 ! A24   A(1,5,14)             111.5518         estimate D2E/DX2                !
 ! A25   A(4,5,10)             109.3262         estimate D2E/DX2                !
 ! A26   A(4,5,14)             102.739          estimate D2E/DX2                !
 ! A27   A(10,5,14)            110.685          estimate D2E/DX2                !
 ! A28   A(3,11,4)             123.9951         estimate D2E/DX2                !
 ! A29   A(2,12,19)            115.4621         estimate D2E/DX2                !
 ! A30   A(1,13,23)            118.2873         estimate D2E/DX2                !
 ! A31   A(5,14,27)            116.0486         estimate D2E/DX2                !
 ! A32   A(4,15,16)            108.9949         estimate D2E/DX2                !
 ! A33   A(4,15,17)            106.4184         estimate D2E/DX2                !
 ! A34   A(4,15,18)            113.3388         estimate D2E/DX2                !
 ! A35   A(16,15,17)           108.2335         estimate D2E/DX2                !
 ! A36   A(16,15,18)           107.3282         estimate D2E/DX2                !
 ! A37   A(17,15,18)           112.3989         estimate D2E/DX2                !
 ! A38   A(15,18,31)           114.4978         estimate D2E/DX2                !
 ! A39   A(12,19,20)           111.7801         estimate D2E/DX2                !
 ! A40   A(12,19,21)           110.8143         estimate D2E/DX2                !
 ! A41   A(12,19,22)           105.8772         estimate D2E/DX2                !
 ! A42   A(20,19,21)           109.3323         estimate D2E/DX2                !
 ! A43   A(20,19,22)           109.2127         estimate D2E/DX2                !
 ! A44   A(21,19,22)           109.7552         estimate D2E/DX2                !
 ! A45   A(13,23,24)           105.5932         estimate D2E/DX2                !
 ! A46   A(13,23,25)           112.8785         estimate D2E/DX2                !
 ! A47   A(13,23,26)           111.5868         estimate D2E/DX2                !
 ! A48   A(24,23,25)           108.7475         estimate D2E/DX2                !
 ! A49   A(24,23,26)           108.4812         estimate D2E/DX2                !
 ! A50   A(25,23,26)           109.3716         estimate D2E/DX2                !
 ! A51   A(14,27,28)           110.9403         estimate D2E/DX2                !
 ! A52   A(14,27,29)           105.8619         estimate D2E/DX2                !
 ! A53   A(14,27,30)           111.3126         estimate D2E/DX2                !
 ! A54   A(28,27,29)           109.208          estimate D2E/DX2                !
 ! A55   A(28,27,30)           109.8644         estimate D2E/DX2                !
 ! A56   A(29,27,30)           109.557          estimate D2E/DX2                !
 ! A57   A(18,31,32)           106.4205         estimate D2E/DX2                !
 ! A58   A(18,31,33)           112.2729         estimate D2E/DX2                !
 ! A59   A(18,31,34)           111.0354         estimate D2E/DX2                !
 ! A60   A(32,31,33)           108.7252         estimate D2E/DX2                !
 ! A61   A(32,31,34)           109.3836         estimate D2E/DX2                !
 ! A62   A(33,31,34)           108.9253         estimate D2E/DX2                !
 ! D1    D(5,1,2,3)            -49.292          estimate D2E/DX2                !
 ! D2    D(5,1,2,7)             67.343          estimate D2E/DX2                !
 ! D3    D(5,1,2,12)          -168.8326         estimate D2E/DX2                !
 ! D4    D(8,1,2,3)             67.7178         estimate D2E/DX2                !
 ! D5    D(8,1,2,7)           -175.6472         estimate D2E/DX2                !
 ! D6    D(8,1,2,12)           -51.8229         estimate D2E/DX2                !
 ! D7    D(13,1,2,3)          -177.1016         estimate D2E/DX2                !
 ! D8    D(13,1,2,7)           -60.4666         estimate D2E/DX2                !
 ! D9    D(13,1,2,12)           63.3578         estimate D2E/DX2                !
 ! D10   D(2,1,5,4)             55.7528         estimate D2E/DX2                !
 ! D11   D(2,1,5,10)           -66.2662         estimate D2E/DX2                !
 ! D12   D(2,1,5,14)           170.3332         estimate D2E/DX2                !
 ! D13   D(8,1,5,4)            -61.2345         estimate D2E/DX2                !
 ! D14   D(8,1,5,10)           176.7464         estimate D2E/DX2                !
 ! D15   D(8,1,5,14)            53.3458         estimate D2E/DX2                !
 ! D16   D(13,1,5,4)          -176.495          estimate D2E/DX2                !
 ! D17   D(13,1,5,10)           61.486          estimate D2E/DX2                !
 ! D18   D(13,1,5,14)          -61.9146         estimate D2E/DX2                !
 ! D19   D(2,1,13,23)           51.1944         estimate D2E/DX2                !
 ! D20   D(5,1,13,23)          -74.5998         estimate D2E/DX2                !
 ! D21   D(8,1,13,23)          168.2494         estimate D2E/DX2                !
 ! D22   D(1,2,3,6)           -153.5872         estimate D2E/DX2                !
 ! D23   D(1,2,3,11)            23.1984         estimate D2E/DX2                !
 ! D24   D(7,2,3,6)             87.7409         estimate D2E/DX2                !
 ! D25   D(7,2,3,11)           -95.4736         estimate D2E/DX2                !
 ! D26   D(12,2,3,6)           -32.7182         estimate D2E/DX2                !
 ! D27   D(12,2,3,11)          144.0674         estimate D2E/DX2                !
 ! D28   D(1,2,12,19)         -146.8894         estimate D2E/DX2                !
 ! D29   D(3,2,12,19)           92.2646         estimate D2E/DX2                !
 ! D30   D(7,2,12,19)          -24.5114         estimate D2E/DX2                !
 ! D31   D(2,3,11,4)            -0.3297         estimate D2E/DX2                !
 ! D32   D(6,3,11,4)           176.6298         estimate D2E/DX2                !
 ! D33   D(9,4,5,1)             78.875          estimate D2E/DX2                !
 ! D34   D(9,4,5,10)          -158.5809         estimate D2E/DX2                !
 ! D35   D(9,4,5,14)           -40.9964         estimate D2E/DX2                !
 ! D36   D(11,4,5,1)           -33.6361         estimate D2E/DX2                !
 ! D37   D(11,4,5,10)           88.9079         estimate D2E/DX2                !
 ! D38   D(11,4,5,14)         -153.5076         estimate D2E/DX2                !
 ! D39   D(15,4,5,1)          -154.9489         estimate D2E/DX2                !
 ! D40   D(15,4,5,10)          -32.4049         estimate D2E/DX2                !
 ! D41   D(15,4,5,14)           85.1797         estimate D2E/DX2                !
 ! D42   D(5,4,11,3)             5.4751         estimate D2E/DX2                !
 ! D43   D(9,4,11,3)          -111.651          estimate D2E/DX2                !
 ! D44   D(15,4,11,3)          131.4057         estimate D2E/DX2                !
 ! D45   D(5,4,15,16)           66.0658         estimate D2E/DX2                !
 ! D46   D(5,4,15,17)          -50.4477         estimate D2E/DX2                !
 ! D47   D(5,4,15,18)         -174.489          estimate D2E/DX2                !
 ! D48   D(9,4,15,16)         -169.1556         estimate D2E/DX2                !
 ! D49   D(9,4,15,17)           74.331          estimate D2E/DX2                !
 ! D50   D(9,4,15,18)          -49.7104         estimate D2E/DX2                !
 ! D51   D(11,4,15,16)         -59.4666         estimate D2E/DX2                !
 ! D52   D(11,4,15,17)        -175.9801         estimate D2E/DX2                !
 ! D53   D(11,4,15,18)          59.9786         estimate D2E/DX2                !
 ! D54   D(1,5,14,27)           92.7117         estimate D2E/DX2                !
 ! D55   D(4,5,14,27)         -147.0582         estimate D2E/DX2                !
 ! D56   D(10,5,14,27)         -30.4404         estimate D2E/DX2                !
 ! D57   D(2,12,19,20)         -64.5851         estimate D2E/DX2                !
 ! D58   D(2,12,19,21)          57.6423         estimate D2E/DX2                !
 ! D59   D(2,12,19,22)         176.5937         estimate D2E/DX2                !
 ! D60   D(1,13,23,24)         172.7577         estimate D2E/DX2                !
 ! D61   D(1,13,23,25)          54.0767         estimate D2E/DX2                !
 ! D62   D(1,13,23,26)         -69.5741         estimate D2E/DX2                !
 ! D63   D(5,14,27,28)          53.1153         estimate D2E/DX2                !
 ! D64   D(5,14,27,29)         171.4707         estimate D2E/DX2                !
 ! D65   D(5,14,27,30)         -69.5565         estimate D2E/DX2                !
 ! D66   D(4,15,18,31)          83.1193         estimate D2E/DX2                !
 ! D67   D(16,15,18,31)       -156.4854         estimate D2E/DX2                !
 ! D68   D(17,15,18,31)        -37.5971         estimate D2E/DX2                !
 ! D69   D(15,18,31,32)        175.9817         estimate D2E/DX2                !
 ! D70   D(15,18,31,33)        -65.178          estimate D2E/DX2                !
 ! D71   D(15,18,31,34)         57.0319         estimate D2E/DX2                !
 --------------------------------------------------------------------------------
 Trust Radius=3.00D-01 FncErr=1.00D-07 GrdErr=1.00D-06 EigMax=2.50D+02 EigMin=1.00D-04
 Number of steps in this run=    177 maximum allowed number of steps=    204.
 GradGradGradGradGradGradGradGradGradGradGradGradGradGradGradGradGradGrad

 Leave Link  103 at Fri May 24 08:30:07 2019, MaxMem=   402653184 cpu:               0.1 elap:               0.1
 (Enter /n/sw/g16_nehalem/g16/l202.exe)
                          Input orientation:                          
 ---------------------------------------------------------------------
 Center     Atomic      Atomic             Coordinates (Angstroms)
 Number     Number       Type             X           Y           Z
 ---------------------------------------------------------------------
      1          6           0       -1.093220    0.478939   -0.532520
      2          6           0       -1.572363   -0.868898    0.069916
      3          6           0       -0.491690   -1.895003   -0.027851
      4          6           0        1.326187   -0.268700   -0.169615
      5          6           0        0.289923    0.846164    0.052852
      6          1           0       -0.743609   -2.955920   -0.069712
      7          1           0       -1.779211   -0.739368    1.148413
      8          1           0       -0.972701    0.337916   -1.612028
      9          1           0        1.692858   -0.219684   -1.195965
     10          1           0        0.204513    1.054285    1.129907
     11          8           0        0.736044   -1.657431   -0.126397
     12          8           0       -2.692421   -1.345090   -0.627109
     13          8           0       -2.040911    1.509010   -0.414414
     14          8           0        0.863862    1.943755   -0.622860
     15          6           0        2.468959   -0.272396    0.844634
     16          1           0        2.066915   -0.516125    1.833727
     17          1           0        2.860285    0.755108    0.875830
     18          8           0        3.466634   -1.216090    0.554763
     19          6           0       -3.645552   -2.073007    0.160559
     20          1           0       -3.220686   -3.003832    0.555869
     21          1           0       -4.013252   -1.459841    0.992149
     22          1           0       -4.468666   -2.312040   -0.513082
     23          6           0       -2.609884    1.760907    0.870710
     24          1           0       -3.204815    2.668092    0.755323
     25          1           0       -1.853266    1.931834    1.645876
     26          1           0       -3.274708    0.946609    1.184409
     27          6           0        0.604437    3.233968   -0.059934
     28          1           0        0.873489    3.259102    1.004130
     29          1           0        1.240321    3.931781   -0.607698
     30          1           0       -0.443973    3.518643   -0.184939
     31          6           0        4.435095   -0.779508   -0.396934
     32          1           0        5.178572   -1.575516   -0.467944
     33          1           0        3.997519   -0.615942   -1.391153
     34          1           0        4.923396    0.146867   -0.065870
 ---------------------------------------------------------------------
                    Distance matrix (angstroms):
                    1          2          3          4          5
     1  C    0.000000
     2  C    1.552151   0.000000
     3  C    2.500426   1.493420   0.000000
     4  C    2.558162   2.969715   2.443284   0.000000
     5  C    1.546156   2.531766   2.851566   1.538264   0.000000
     6  H    3.483486   2.249887   1.091220   3.393404   3.941961
     7  H    2.186411   1.105767   2.092080   3.406204   2.827628
     8  H    1.095331   2.155210   2.779733   2.780903   2.150433
     9  H    2.947959   3.561685   2.990557   1.090983   2.159584
    10  H    2.186046   2.824801   3.243979   2.167302   1.100298
    11  O    2.841693   2.447257   1.254385   1.509540   2.549341
    12  O    2.427648   1.402545   2.346216   4.185347   3.762754
    13  O    1.404676   2.471550   3.759896   3.815433   2.467892
    14  O    2.446225   3.784990   4.114319   2.305240   1.410921
    15  C    3.892323   4.157918   3.487051   1.527954   2.574159
    16  H    4.071330   4.059535   3.451556   2.150181   2.860952
    17  H    4.205939   4.789077   4.367547   2.120046   2.700434
    18  O    4.984734   5.074161   4.058163   2.450262   3.820510
    19  C    3.675212   2.399210   3.164495   5.299314   4.901135
    20  H    4.223789   2.740632   3.002940   5.355495   5.234489
    21  H    3.822312   2.675382   3.692041   5.592685   4.971645
    22  H    4.379906   3.288026   4.028115   6.154147   5.739225
    23  C    2.431618   2.938298   4.319703   4.549092   3.148734
    24  H    3.302993   3.955374   5.366213   5.478160   4.003259
    25  H    2.726533   3.225935   4.393169   4.271683   2.882649
    26  H    2.815218   2.726928   4.158067   4.947584   3.741270
    27  C    3.270407   4.646378   5.244890   3.577937   2.411068
    28  H    3.736113   4.888285   5.430792   3.745397   2.658524
    29  H    4.168115   5.605075   6.106349   4.224137   3.295545
    30  H    3.127640   4.537481   5.416135   4.180630   2.781599
    31  C    5.671361   6.026234   5.064954   3.158783   4.475217
    32  H    6.600025   6.809091   5.696282   4.078926   5.480388
    33  H    5.277465   5.763878   4.862878   2.957828   4.239006
    34  H    6.043815   6.576101   5.787386   3.622619   4.687450
                    6          7          8          9         10
     6  H    0.000000
     7  H    2.733021   0.000000
     8  H    3.644253   3.070999   0.000000
     9  H    3.832989   4.221545   2.754856   0.000000
    10  H    4.291825   2.674452   3.068750   3.041028   0.000000
    11  O    1.969431   2.965550   3.017999   2.031400   3.035495
    12  O    2.589080   2.086464   2.600002   4.562982   4.151666
    13  O    4.662340   2.750658   1.986659   4.188106   2.762903
    14  O    5.186208   4.162018   2.632515   2.386661   2.073184
    15  C    4.284615   4.284541   4.272317   2.183840   2.639920
    16  H    4.180278   3.913078   4.673530   3.067056   2.535762
    17  H    5.258691   4.881873   4.588602   2.570105   2.684620
    18  O    4.598165   5.300809   5.178572   2.684056   4.015822
    19  C    3.042011   2.497534   4.012324   5.811505   5.053968
    20  H    2.555300   2.748955   4.573893   5.912979   5.341331
    21  H    3.749182   2.352539   4.388464   6.235826   4.912163
    22  H    3.806207   3.530868   4.522358   6.542833   5.989170
    23  C    5.159053   2.649247   3.296856   5.167928   2.913302
    24  H    6.194169   3.714519   4.002050   6.011154   3.790541
    25  H    5.297615   2.718138   3.732279   5.027931   2.295816
    26  H    4.817573   2.253958   3.672847   5.630553   3.481313
    27  C    6.334985   4.788453   3.644650   3.795120   2.515289
    28  H    6.511117   4.800562   4.334285   4.196872   2.307502
    29  H    7.187895   5.832764   4.338434   4.217287   3.517407
    30  H    6.482517   4.657397   3.526069   4.423043   2.867475
    31  C    5.626972   6.403695   5.654144   2.910621   4.857146
    32  H    6.093959   7.191835   6.542806   3.810315   5.848952
    33  H    5.449770   6.311516   5.065740   2.346611   4.851010
    34  H    6.460824   6.869122   6.098448   3.442071   4.951883
                   11         12         13         14         15
    11  O    0.000000
    12  O    3.478885   0.000000
    13  O    4.221467   2.935233   0.000000
    14  O    3.637493   4.843931   2.944513   0.000000
    15  C    2.421615   5.473257   5.009744   3.105028   0.000000
    16  H    2.629807   5.421640   5.101916   3.678745   1.095148
    17  H    3.367076   6.123904   5.123946   2.764898   1.099943
    18  O    2.848663   6.272752   6.220814   4.259793   1.403545
    19  C    4.410604   1.434832   3.966902   6.089576   6.410726
    20  H    4.234855   2.104739   4.764353   6.523155   6.317926
    21  H    4.883237   2.092787   3.831791   6.162707   6.591726
    22  H    5.259947   2.025596   4.528151   6.823467   7.357593
    23  C    4.886153   3.449274   1.427840   3.785643   5.470800
    24  H    5.917597   4.275429   2.016539   4.356396   6.391100
    25  H    4.767421   4.075398   2.111584   3.539787   4.917545
    26  H    4.958363   2.978681   2.096374   4.624747   5.881423
    27  C    4.893621   5.670867   3.177893   1.431376   4.072993
    28  H    5.046710   6.047747   3.683587   2.092206   3.878459
    29  H    5.632516   6.581201   4.083339   2.023413   4.614534
    30  H    5.309200   5.376517   2.577110   2.093437   4.890518
    31  C    3.811419   7.153625   6.868499   4.496767   2.379988
    32  H    4.456391   7.875974   7.850994   5.570098   3.280699
    33  H    3.649867   6.772792   6.475498   4.118511   2.730066
    34  H    4.559942   7.780848   7.104821   4.474244   2.651237
                   16         17         18         19         20
    16  H    0.000000
    17  H    1.778493   0.000000
    18  O    2.021117   2.087191   0.000000
    19  C    6.152695   7.129920   7.174461   0.000000
    20  H    5.981666   7.156131   6.922158   1.096912   0.000000
    21  H    6.210256   7.222537   7.496627   1.096685   1.789528
    22  H    7.172631   8.065358   8.081484   1.090159   1.782887
    23  C    5.290059   5.561871   6.773950   4.034330   4.814036
    24  H    6.252466   6.360776   7.722391   4.798543   5.675452
    25  H    4.625539   4.918863   6.277045   4.632192   5.236292
    26  H    5.576212   6.145733   7.107701   3.209965   4.000496
    27  C    4.448370   3.479835   5.326635   6.802574   7.343087
    28  H    4.045347   3.199032   5.191693   7.040222   7.495835
    29  H    5.140786   3.862174   5.727858   7.779425   8.328097
    30  H    5.163228   4.436268   6.185281   6.452598   7.127525
    31  C    3.263969   2.540669   1.426271   8.202487   8.029099
    32  H    4.012781   3.551337   2.026289   8.860456   8.581131
    33  H    3.759926   2.883104   2.104425   7.933939   7.848273
    34  H    3.493925   2.348017   2.089256   8.854715   8.754401
                   21         22         23         24         25
    21  H    0.000000
    22  H    1.788677   0.000000
    23  C    3.515310   4.686027   0.000000
    24  H    4.213014   5.292248   1.090982   0.000000
    25  H    4.073863   5.432484   1.096617   1.778158   0.000000
    26  H    2.524562   3.863393   1.097032   1.775529   1.790005
    27  C    6.667966   7.529935   3.656209   3.936402   3.262766
    28  H    6.793291   7.866268   3.794243   4.128409   3.099786
    29  H    7.696046   8.460897   4.660736   4.818088   4.318410
    30  H    6.237835   7.092439   2.982482   3.038055   2.802847
    31  C    8.588770   9.035436   7.595549   8.460607   7.146183
    32  H    9.307786   9.675418   8.578098   9.475535   8.137351
    33  H    8.400282   8.678943   7.377209   8.201576   7.067276
    34  H    9.141367   9.718902   7.760967   8.549781   7.213829
                   26         27         28         29         30
    26  H    0.000000
    27  C    4.672062   0.000000
    28  H    4.752648   1.097840   0.000000
    29  H    5.701613   1.091484   1.784671   0.000000
    30  H    4.062454   1.093540   1.793587   1.785008   0.000000
    31  C    8.057369   5.558372   5.564026   5.696248   6.505717
    32  H    8.974928   6.649836   6.638846   6.771977   7.592336
    33  H    7.871491   5.301599   5.523849   5.375661   6.186808
    34  H    8.331368   5.308826   5.218491   5.308879   6.339692
                   31         32         33         34
    31  C    0.000000
    32  H    1.091526   0.000000
    33  H    1.098498   1.779883   0.000000
    34  H    1.098277   1.787003   1.787596   0.000000
 Stoichiometry    C10H19O5(1+)
 Framework group  C1[X(C10H19O5)]
 Deg. of freedom    96
 Full point group                 C1      NOp   1
 Largest Abelian subgroup         C1      NOp   1
 Largest concise Abelian subgroup C1      NOp   1
                         Standard orientation:                         
 ---------------------------------------------------------------------
 Center     Atomic      Atomic             Coordinates (Angstroms)
 Number     Number       Type             X           Y           Z
 ---------------------------------------------------------------------
      1          6           0       -1.093220    0.478939   -0.532520
      2          6           0       -1.572363   -0.868898    0.069916
      3          6           0       -0.491690   -1.895003   -0.027851
      4          6           0        1.326187   -0.268700   -0.169615
      5          6           0        0.289923    0.846164    0.052852
      6          1           0       -0.743609   -2.955920   -0.069712
      7          1           0       -1.779211   -0.739368    1.148413
      8          1           0       -0.972701    0.337916   -1.612028
      9          1           0        1.692858   -0.219684   -1.195965
     10          1           0        0.204513    1.054285    1.129907
     11          8           0        0.736044   -1.657431   -0.126397
     12          8           0       -2.692421   -1.345090   -0.627109
     13          8           0       -2.040911    1.509010   -0.414414
     14          8           0        0.863862    1.943755   -0.622860
     15          6           0        2.468959   -0.272396    0.844634
     16          1           0        2.066915   -0.516125    1.833727
     17          1           0        2.860285    0.755108    0.875830
     18          8           0        3.466634   -1.216090    0.554763
     19          6           0       -3.645552   -2.073007    0.160559
     20          1           0       -3.220686   -3.003832    0.555869
     21          1           0       -4.013252   -1.459841    0.992149
     22          1           0       -4.468666   -2.312040   -0.513082
     23          6           0       -2.609884    1.760907    0.870710
     24          1           0       -3.204815    2.668092    0.755323
     25          1           0       -1.853266    1.931834    1.645876
     26          1           0       -3.274708    0.946609    1.184409
     27          6           0        0.604437    3.233968   -0.059934
     28          1           0        0.873489    3.259102    1.004130
     29          1           0        1.240321    3.931781   -0.607698
     30          1           0       -0.443973    3.518643   -0.184939
     31          6           0        4.435095   -0.779508   -0.396934
     32          1           0        5.178572   -1.575516   -0.467944
     33          1           0        3.997519   -0.615942   -1.391153
     34          1           0        4.923396    0.146867   -0.065870
 ---------------------------------------------------------------------
 Rotational constants (GHZ):           0.8072428           0.4056627           0.2899578
 Leave Link  202 at Fri May 24 08:30:07 2019, MaxMem=   402653184 cpu:               0.4 elap:               0.1
 (Enter /n/sw/g16_nehalem/g16/l301.exe)
 Standard basis: 6-31G(d) (6D, 7F)
 Ernie: Thresh=  0.10000D-02 Tol=  0.10000D-05 Strict=F.
 There are   263 symmetry adapted cartesian basis functions of A   symmetry.
 There are   263 symmetry adapted basis functions of A   symmetry.
   263 basis functions,   496 primitive gaussians,   263 cartesian basis functions
    59 alpha electrons       59 beta electrons
       nuclear repulsion energy      1143.2869438798 Hartrees.
 IExCor=  402 DFT=T Ex+Corr=B3LYP ExCW=0 ScaHFX=  0.200000
 ScaDFX=  0.800000  0.720000  1.000000  0.810000 ScalE2=  1.000000  1.000000
 IRadAn=      5 IRanWt=     -1 IRanGd=            0 ICorTp=0 IEmpDi=  4
 NAtoms=   34 NActive=   34 NUniq=   34 SFac= 1.00D+00 NAtFMM=   60 NAOKFM=F Big=F
 Integral buffers will be    131072 words long.
 Raffenetti 2 integral format.
 Two-electron integral symmetry is turned on.
 ------------------------------------------------------------------------------
 Polarizable Continuum Model (PCM)
 =================================
 Model                : PCM.
 Atomic radii         : UFF (Universal Force Field).
 Polarization charges : Total charges.
 Charge compensation  : None.
 Solution method      : On-the-fly selection.
 Cavity type          : Scaled VdW (van der Waals Surface) (Alpha=1.100).
 Cavity algorithm     : GePol (No added spheres)
                        Default sphere list used, NSphG=   34.
                        Lebedev-Laikov grids with approx.  5.0 points / Ang**2.
                        Smoothing algorithm: York/Karplus (Gamma=1.0000).
                        Polarization charges: spherical gaussians, with
                                              point-specific exponents (IZeta= 3).
                        Self-potential: point-specific (ISelfS= 7).
                        Self-field    : sphere-specific E.n sum rule (ISelfD= 2).
 1st derivatives      : Analytical E(r).r(x)/FMM algorithm (CHGder, D1EAlg=3).
                        Cavity 1st derivative terms included.
 Solvent              : TetraHydroFuran, Eps=   7.425700 Eps(inf)=   1.974025
 ------------------------------------------------------------------------------
 GePol: Number of generator spheres                  =      34
 GePol: Total number of spheres                      =      34
 GePol: Number of exposed spheres                    =      34 (100.00%)
 GePol: Number of points                             =    2307
 GePol: Average weight of points                     =       0.13
 GePol: Minimum weight of points                     =   0.60D-11
 GePol: Maximum weight of points                     =    0.20577
 GePol: Number of points with low weight             =     147
 GePol: Fraction of low-weight points (<1% of avg)   =       6.37%
 GePol: Cavity surface area                          =    302.997 Ang**2
 GePol: Cavity volume                                =    322.544 Ang**3
 Leave Link  301 at Fri May 24 08:30:08 2019, MaxMem=   402653184 cpu:               0.4 elap:               0.2
 (Enter /n/sw/g16_nehalem/g16/l302.exe)
 NPDir=0 NMtPBC=     1 NCelOv=     1 NCel=       1 NClECP=     1 NCelD=      1
         NCelK=      1 NCelE2=     1 NClLst=     1 CellRange=     0.0.
 One-electron integrals computed using PRISM.
 One-electron integral symmetry used in STVInt
 NBasis=   263 RedAO= T EigKep=  1.64D-03  NBF=   263
 NBsUse=   263 1.00D-06 EigRej= -1.00D+00 NBFU=   263
 Precomputing XC quadrature grid using
 IXCGrd= 4 IRadAn=           5 IRanWt=          -1 IRanGd=           0 AccXCQ= 0.00D+00.
 Generated NRdTot=       0 NPtTot=           0 NUsed=           0 NTot=          32
 NSgBfM=   262   262   262   262   262 MxSgAt=    34 MxSgA2=    34.
 Leave Link  302 at Fri May 24 08:30:09 2019, MaxMem=   402653184 cpu:               2.9 elap:               0.8
 (Enter /n/sw/g16_nehalem/g16/l303.exe)
 DipDrv:  MaxL=1.
 Leave Link  303 at Fri May 24 08:30:09 2019, MaxMem=   402653184 cpu:               0.8 elap:               0.3
 (Enter /n/sw/g16_nehalem/g16/l401.exe)
 ExpMin= 1.61D-01 ExpMax= 5.48D+03 ExpMxC= 8.25D+02 IAcc=3 IRadAn=         5 AccDes= 0.00D+00
 Harris functional with IExCor=  402 and IRadAn=       5 diagonalized for initial guess.
 HarFok:  IExCor=  402 AccDes= 0.00D+00 IRadAn=         5 IDoV= 1 UseB2=F ITyADJ=14
 ICtDFT=  3500011 ScaDFX=  1.000000  1.000000  1.000000  1.000000
 FoFCou: FMM=F IPFlag=           0 FMFlag=      100000 FMFlg1=           0
         NFxFlg=           0 DoJE=T BraDBF=F KetDBF=T FulRan=T
         wScrn=  0.000000 ICntrl=       500 IOpCl=  0 I1Cent=   200000004 NGrid=           0
         NMat0=    1 NMatS0=      1 NMatT0=    0 NMatD0=    1 NMtDS0=    0 NMtDT0=    0
 Petite list used in FoFCou.
 Harris En= -768.259887161547    
 JPrj=0 DoOrth=F DoCkMO=F.
 Leave Link  401 at Fri May 24 08:30:14 2019, MaxMem=   402653184 cpu:              20.1 elap:               5.3
 (Enter /n/sw/g16_nehalem/g16/l502.exe)
 Integral symmetry usage will be decided dynamically.
 Closed shell SCF:
 Using DIIS extrapolation, IDIIS=  1040.
 NGot=   402653184 LenX=   402510103 LenY=   402440493
 Requested convergence on RMS density matrix=1.00D-08 within 128 cycles.
 Requested convergence on MAX density matrix=1.00D-06.
 Requested convergence on             energy=1.00D-06.
 No special actions if energy rises.
 Fock matrices will be formed incrementally for  20 cycles.

 Cycle   1  Pass 1  IDiag  1:
 FoFJK:  IHMeth= 1 ICntrl=       0 DoSepK=F KAlg= 0 I1Cent=           0 FoldK=F
 IRaf= 870000000 NMat=       1 IRICut=       1 DoRegI=T DoRafI=F ISym2E= 0 IDoP0=0 IntGTp=1.
 FoFCou: FMM=F IPFlag=           0 FMFlag=      100000 FMFlg1=           0
         NFxFlg=           0 DoJE=F BraDBF=F KetDBF=F FulRan=T
         wScrn=  0.000000 ICntrl=         0 IOpCl=  0 I1Cent=           0 NGrid=           0
         NMat0=    1 NMatS0=      1 NMatT0=    0 NMatD0=    1 NMtDS0=    0 NMtDT0=    0
 Symmetry not used in FoFCou.
 Inv3:  Mode=1 IEnd=    15966747.
 Iteration    1 A*A^-1 deviation from unit magnitude is 6.22D-15 for    566.
 Iteration    1 A*A^-1 deviation from orthogonality  is 2.50D-15 for   2049    260.
 Iteration    1 A^-1*A deviation from unit magnitude is 5.55D-15 for    566.
 Iteration    1 A^-1*A deviation from orthogonality  is 1.56D-14 for   2183   2152.
 E= -768.083051706634    
 DIIS: error= 2.60D-02 at cycle   1 NSaved=   1.
 NSaved= 1 IEnMin= 1 EnMin= -768.083051706634     IErMin= 1 ErrMin= 2.60D-02
 ErrMax= 2.60D-02  0.00D+00 EMaxC= 1.00D-01 BMatC= 2.56D-01 BMatP= 2.56D-01
 IDIUse=3 WtCom= 7.40D-01 WtEn= 2.60D-01
 Coeff-Com:  0.100D+01
 Coeff-En:   0.100D+01
 Coeff:      0.100D+01
 Gap=     0.006 Goal=   None    Shift=    0.000
 GapD=    0.006 DampG=0.250 DampE=0.500 DampFc=0.2500 IDamp=-1.
 Damping current iteration by 2.50D-01
 RMSDP=4.78D-03 MaxDP=1.24D-01              OVMax= 2.99D-01

 Cycle   2  Pass 1  IDiag  1:
 RMSU=  1.19D-03    CP:  9.95D-01
 E= -768.159789737877     Delta-E=       -0.076738031243 Rises=F Damp=T
 DIIS: error= 1.26D-02 at cycle   2 NSaved=   2.
 NSaved= 2 IEnMin= 2 EnMin= -768.159789737877     IErMin= 2 ErrMin= 1.26D-02
 ErrMax= 1.26D-02  0.00D+00 EMaxC= 1.00D-01 BMatC= 6.92D-02 BMatP= 2.56D-01
 IDIUse=3 WtCom= 8.74D-01 WtEn= 1.26D-01
 Coeff-Com: -0.710D+00 0.171D+01
 Coeff-En:   0.000D+00 0.100D+01
 Coeff:     -0.621D+00 0.162D+01
 Gap=     0.125 Goal=   None    Shift=    0.000
 RMSDP=1.37D-03 MaxDP=3.71D-02 DE=-7.67D-02 OVMax= 4.01D-01

 Cycle   3  Pass 1  IDiag  1:
 RMSU=  1.32D-03    CP:  9.86D-01  1.27D+00
 E= -768.294374029923     Delta-E=       -0.134584292047 Rises=F Damp=F
 DIIS: error= 5.95D-03 at cycle   3 NSaved=   3.
 NSaved= 3 IEnMin= 3 EnMin= -768.294374029923     IErMin= 3 ErrMin= 5.95D-03
 ErrMax= 5.95D-03  0.00D+00 EMaxC= 1.00D-01 BMatC= 3.45D-02 BMatP= 6.92D-02
 IDIUse=3 WtCom= 9.40D-01 WtEn= 5.95D-02
 Coeff-Com: -0.486D+00 0.979D+00 0.507D+00
 Coeff-En:   0.000D+00 0.000D+00 0.100D+01
 Coeff:     -0.457D+00 0.921D+00 0.536D+00
 Gap=     0.138 Goal=   None    Shift=    0.000
 RMSDP=7.56D-04 MaxDP=2.36D-02 DE=-1.35D-01 OVMax= 3.10D-02

 Cycle   4  Pass 1  IDiag  1:
 RMSU=  5.49D-04    CP:  9.90D-01  1.47D+00  6.56D-01
 E= -768.322057927057     Delta-E=       -0.027683897134 Rises=F Damp=F
 DIIS: error= 2.28D-03 at cycle   4 NSaved=   4.
 NSaved= 4 IEnMin= 4 EnMin= -768.322057927057     IErMin= 4 ErrMin= 2.28D-03
 ErrMax= 2.28D-03  0.00D+00 EMaxC= 1.00D-01 BMatC= 2.76D-03 BMatP= 3.45D-02
 IDIUse=3 WtCom= 9.77D-01 WtEn= 2.28D-02
 Coeff-Com: -0.198D+00 0.336D+00 0.233D+00 0.629D+00
 Coeff-En:   0.000D+00 0.000D+00 0.000D+00 0.100D+01
 Coeff:     -0.193D+00 0.328D+00 0.227D+00 0.637D+00
 Gap=     0.127 Goal=   None    Shift=    0.000
 RMSDP=2.06D-04 MaxDP=1.15D-02 DE=-2.77D-02 OVMax= 1.13D-02

 Cycle   5  Pass 1  IDiag  1:
 RMSU=  1.75D-04    CP:  9.89D-01  1.50D+00  7.13D-01  8.71D-01
 E= -768.323958000277     Delta-E=       -0.001900073220 Rises=F Damp=F
 DIIS: error= 1.27D-03 at cycle   5 NSaved=   5.
 NSaved= 5 IEnMin= 5 EnMin= -768.323958000277     IErMin= 5 ErrMin= 1.27D-03
 ErrMax= 1.27D-03  0.00D+00 EMaxC= 1.00D-01 BMatC= 6.98D-04 BMatP= 2.76D-03
 IDIUse=3 WtCom= 9.87D-01 WtEn= 1.27D-02
 Coeff-Com: -0.811D-01 0.122D+00 0.617D-01 0.361D+00 0.536D+00
 Coeff-En:   0.000D+00 0.000D+00 0.000D+00 0.124D+00 0.876D+00
 Coeff:     -0.801D-01 0.121D+00 0.609D-01 0.358D+00 0.540D+00
 Gap=     0.129 Goal=   None    Shift=    0.000
 RMSDP=8.73D-05 MaxDP=6.02D-03 DE=-1.90D-03 OVMax= 4.42D-03

 Cycle   6  Pass 1  IDiag  1:
 RMSU=  6.29D-05    CP:  9.89D-01  1.51D+00  7.14D-01  9.37D-01  7.34D-01
 E= -768.324416625995     Delta-E=       -0.000458625718 Rises=F Damp=F
 DIIS: error= 4.60D-04 at cycle   6 NSaved=   6.
 NSaved= 6 IEnMin= 6 EnMin= -768.324416625995     IErMin= 6 ErrMin= 4.60D-04
 ErrMax= 4.60D-04  0.00D+00 EMaxC= 1.00D-01 BMatC= 9.55D-05 BMatP= 6.98D-04
 IDIUse=3 WtCom= 9.95D-01 WtEn= 4.60D-03
 Coeff-Com: -0.296D-01 0.385D-01 0.199D-02 0.144D+00 0.335D+00 0.510D+00
 Coeff-En:   0.000D+00 0.000D+00 0.000D+00 0.000D+00 0.192D-01 0.981D+00
 Coeff:     -0.295D-01 0.383D-01 0.199D-02 0.143D+00 0.333D+00 0.512D+00
 Gap=     0.128 Goal=   None    Shift=    0.000
 RMSDP=3.07D-05 MaxDP=2.35D-03 DE=-4.59D-04 OVMax= 2.02D-03

 Cycle   7  Pass 1  IDiag  1:
 RMSU=  2.33D-05    CP:  9.89D-01  1.51D+00  7.14D-01  9.58D-01  7.99D-01
                    CP:  8.17D-01
 E= -768.324488210583     Delta-E=       -0.000071584588 Rises=F Damp=F
 DIIS: error= 1.22D-04 at cycle   7 NSaved=   7.
 NSaved= 7 IEnMin= 7 EnMin= -768.324488210583     IErMin= 7 ErrMin= 1.22D-04
 ErrMax= 1.22D-04  0.00D+00 EMaxC= 1.00D-01 BMatC= 7.88D-06 BMatP= 9.55D-05
 IDIUse=3 WtCom= 9.99D-01 WtEn= 1.22D-03
 Coeff-Com: -0.625D-02 0.595D-02-0.110D-01 0.283D-01 0.113D+00 0.274D+00
 Coeff-Com:  0.596D+00
 Coeff-En:   0.000D+00 0.000D+00 0.000D+00 0.000D+00 0.000D+00 0.000D+00
 Coeff-En:   0.100D+01
 Coeff:     -0.624D-02 0.594D-02-0.110D-01 0.282D-01 0.113D+00 0.273D+00
 Coeff:      0.597D+00
 Gap=     0.128 Goal=   None    Shift=    0.000
 RMSDP=1.24D-05 MaxDP=5.74D-04 DE=-7.16D-05 OVMax= 9.19D-04

 Cycle   8  Pass 1  IDiag  1:
 RMSU=  6.93D-06    CP:  9.89D-01  1.51D+00  7.14D-01  9.71D-01  8.27D-01
                    CP:  8.79D-01  8.20D-01
 E= -768.324495612102     Delta-E=       -0.000007401519 Rises=F Damp=F
 DIIS: error= 2.94D-05 at cycle   8 NSaved=   8.
 NSaved= 8 IEnMin= 8 EnMin= -768.324495612102     IErMin= 8 ErrMin= 2.94D-05
 ErrMax= 2.94D-05  0.00D+00 EMaxC= 1.00D-01 BMatC= 4.52D-07 BMatP= 7.88D-06
 IDIUse=1 WtCom= 1.00D+00 WtEn= 0.00D+00
 Coeff-Com: -0.529D-04-0.403D-03-0.439D-02-0.585D-02 0.141D-02 0.333D-01
 Coeff-Com:  0.211D+00 0.765D+00
 Coeff:     -0.529D-04-0.403D-03-0.439D-02-0.585D-02 0.141D-02 0.333D-01
 Coeff:      0.211D+00 0.765D+00
 Gap=     0.128 Goal=   None    Shift=    0.000
 RMSDP=4.51D-06 MaxDP=1.20D-04 DE=-7.40D-06 OVMax= 6.05D-04

 Cycle   9  Pass 1  IDiag  1:
 RMSU=  2.44D-06    CP:  9.89D-01  1.51D+00  7.15D-01  9.74D-01  8.37D-01
                    CP:  9.05D-01  8.98D-01  1.01D+00
 E= -768.324496063818     Delta-E=       -0.000000451716 Rises=F Damp=F
 DIIS: error= 1.28D-05 at cycle   9 NSaved=   9.
 NSaved= 9 IEnMin= 9 EnMin= -768.324496063818     IErMin= 9 ErrMin= 1.28D-05
 ErrMax= 1.28D-05  0.00D+00 EMaxC= 1.00D-01 BMatC= 9.89D-08 BMatP= 4.52D-07
 IDIUse=1 WtCom= 1.00D+00 WtEn= 0.00D+00
 Coeff-Com:  0.343D-03-0.478D-03-0.141D-02-0.545D-02-0.958D-02-0.702D-02
 Coeff-Com:  0.581D-01 0.428D+00 0.538D+00
 Coeff:      0.343D-03-0.478D-03-0.141D-02-0.545D-02-0.958D-02-0.702D-02
 Coeff:      0.581D-01 0.428D+00 0.538D+00
 Gap=     0.128 Goal=   None    Shift=    0.000
 RMSDP=1.41D-06 MaxDP=5.38D-05 DE=-4.52D-07 OVMax= 1.59D-04

 Cycle  10  Pass 1  IDiag  1:
 RMSU=  8.25D-07    CP:  9.89D-01  1.51D+00  7.15D-01  9.75D-01  8.38D-01
                    CP:  9.14D-01  9.19D-01  1.08D+00  7.67D-01
 E= -768.324496151073     Delta-E=       -0.000000087255 Rises=F Damp=F
 DIIS: error= 1.86D-06 at cycle  10 NSaved=  10.
 NSaved=10 IEnMin=10 EnMin= -768.324496151073     IErMin=10 ErrMin= 1.86D-06
 ErrMax= 1.86D-06  0.00D+00 EMaxC= 1.00D-01 BMatC= 3.75D-09 BMatP= 9.89D-08
 IDIUse=1 WtCom= 1.00D+00 WtEn= 0.00D+00
 Coeff-Com:  0.202D-03-0.250D-03-0.176D-03-0.165D-02-0.435D-02-0.607D-02
 Coeff-Com: -0.230D-02 0.725D-01 0.179D+00 0.763D+00
 Coeff:      0.202D-03-0.250D-03-0.176D-03-0.165D-02-0.435D-02-0.607D-02
 Coeff:     -0.230D-02 0.725D-01 0.179D+00 0.763D+00
 Gap=     0.128 Goal=   None    Shift=    0.000
 RMSDP=5.16D-07 MaxDP=1.21D-05 DE=-8.73D-08 OVMax= 6.82D-05

 Cycle  11  Pass 1  IDiag  1:
 RMSU=  2.28D-07    CP:  9.89D-01  1.51D+00  7.15D-01  9.75D-01  8.39D-01
                    CP:  9.17D-01  9.26D-01  1.10D+00  8.09D-01  9.41D-01
 E= -768.324496155859     Delta-E=       -0.000000004786 Rises=F Damp=F
 DIIS: error= 7.04D-07 at cycle  11 NSaved=  11.
 NSaved=11 IEnMin=11 EnMin= -768.324496155859     IErMin=11 ErrMin= 7.04D-07
 ErrMax= 7.04D-07  0.00D+00 EMaxC= 1.00D-01 BMatC= 5.40D-10 BMatP= 3.75D-09
 IDIUse=1 WtCom= 1.00D+00 WtEn= 0.00D+00
 Coeff-Com:  0.435D-04-0.463D-04 0.194D-04-0.283D-03-0.121D-02-0.178D-02
 Coeff-Com: -0.499D-02 0.375D-02 0.419D-01 0.357D+00 0.605D+00
 Coeff:      0.435D-04-0.463D-04 0.194D-04-0.283D-03-0.121D-02-0.178D-02
 Coeff:     -0.499D-02 0.375D-02 0.419D-01 0.357D+00 0.605D+00
 Gap=     0.128 Goal=   None    Shift=    0.000
 RMSDP=1.40D-07 MaxDP=3.72D-06 DE=-4.79D-09 OVMax= 1.53D-05

 Cycle  12  Pass 1  IDiag  1:
 RMSU=  8.36D-08    CP:  9.89D-01  1.51D+00  7.15D-01  9.75D-01  8.39D-01
                    CP:  9.18D-01  9.27D-01  1.11D+00  8.27D-01  9.93D-01
                    CP:  7.56D-01
 E= -768.324496156379     Delta-E=       -0.000000000520 Rises=F Damp=F
 DIIS: error= 2.84D-07 at cycle  12 NSaved=  12.
 NSaved=12 IEnMin=12 EnMin= -768.324496156379     IErMin=12 ErrMin= 2.84D-07
 ErrMax= 2.84D-07  0.00D+00 EMaxC= 1.00D-01 BMatC= 5.83D-11 BMatP= 5.40D-10
 IDIUse=1 WtCom= 1.00D+00 WtEn= 0.00D+00
 Coeff-Com:  0.327D-05-0.200D-05 0.296D-04 0.627D-04-0.547D-04-0.503D-05
 Coeff-Com: -0.231D-02-0.824D-02-0.540D-02 0.580D-01 0.277D+00 0.681D+00
 Coeff:      0.327D-05-0.200D-05 0.296D-04 0.627D-04-0.547D-04-0.503D-05
 Coeff:     -0.231D-02-0.824D-02-0.540D-02 0.580D-01 0.277D+00 0.681D+00
 Gap=     0.128 Goal=   None    Shift=    0.000
 RMSDP=4.74D-08 MaxDP=1.39D-06 DE=-5.20D-10 OVMax= 5.66D-06

 Cycle  13  Pass 1  IDiag  1:
 RMSU=  2.12D-08    CP:  9.89D-01  1.51D+00  7.15D-01  9.75D-01  8.39D-01
                    CP:  9.18D-01  9.27D-01  1.11D+00  8.29D-01  1.01D+00
                    CP:  8.49D-01  8.08D-01
 E= -768.324496156480     Delta-E=       -0.000000000101 Rises=F Damp=F
 DIIS: error= 4.29D-08 at cycle  13 NSaved=  13.
 NSaved=13 IEnMin=13 EnMin= -768.324496156480     IErMin=13 ErrMin= 4.29D-08
 ErrMax= 4.29D-08  0.00D+00 EMaxC= 1.00D-01 BMatC= 2.08D-12 BMatP= 5.83D-11
 IDIUse=1 WtCom= 1.00D+00 WtEn= 0.00D+00
 Coeff-Com: -0.223D-05 0.320D-05 0.936D-05 0.423D-04 0.515D-04 0.131D-03
 Coeff-Com: -0.518D-03-0.302D-02-0.439D-02-0.538D-03 0.628D-01 0.235D+00
 Coeff-Com:  0.711D+00
 Coeff:     -0.223D-05 0.320D-05 0.936D-05 0.423D-04 0.515D-04 0.131D-03
 Coeff:     -0.518D-03-0.302D-02-0.439D-02-0.538D-03 0.628D-01 0.235D+00
 Coeff:      0.711D+00
 Gap=     0.128 Goal=   None    Shift=    0.000
 RMSDP=8.90D-09 MaxDP=2.57D-07 DE=-1.01D-10 OVMax= 7.79D-07

 Error on total polarization charges =  0.01328
 SCF Done:  E(RB3LYP) =  -768.324496156     A.U. after   13 cycles
            NFock= 13  Conv=0.89D-08     -V/T= 2.0091
 KE= 7.613953460138D+02 PE=-4.061258902477D+03 EE= 1.388252116427D+03
 Leave Link  502 at Fri May 24 08:32:21 2019, MaxMem=   402653184 cpu:             505.9 elap:             126.7
 (Enter /n/sw/g16_nehalem/g16/l601.exe)
 Copying SCF densities to generalized density rwf, IOpCl= 0 IROHF=0.

 **********************************************************************

            Population analysis using the SCF density.

 **********************************************************************

 Orbital symmetries:
       Occupied  (A) (A) (A) (A) (A) (A) (A) (A) (A) (A) (A) (A)
                 (A) (A) (A) (A) (A) (A) (A) (A) (A) (A) (A) (A)
                 (A) (A) (A) (A) (A) (A) (A) (A) (A) (A) (A) (A)
                 (A) (A) (A) (A) (A) (A) (A) (A) (A) (A) (A) (A)
                 (A) (A) (A) (A) (A) (A) (A) (A) (A) (A) (A)
       Virtual   (A) (A) (A) (A) (A) (A) (A) (A) (A) (A) (A) (A)
                 (A) (A) (A) (A) (A) (A) (A) (A) (A) (A) (A) (A)
                 (A) (A) (A) (A) (A) (A) (A) (A) (A) (A) (A) (A)
                 (A) (A) (A) (A) (A) (A) (A) (A) (A) (A) (A) (A)
                 (A) (A) (A) (A) (A) (A) (A) (A) (A) (A) (A) (A)
                 (A) (A) (A) (A) (A) (A) (A) (A) (A) (A) (A) (A)
                 (A) (A) (A) (A) (A) (A) (A) (A) (A) (A) (A) (A)
                 (A) (A) (A) (A) (A) (A) (A) (A) (A) (A) (A) (A)
                 (A) (A) (A) (A) (A) (A) (A) (A) (A) (A) (A) (A)
                 (A) (A) (A) (A) (A) (A) (A) (A) (A) (A) (A) (A)
                 (A) (A) (A) (A) (A) (A) (A) (A) (A) (A) (A) (A)
                 (A) (A) (A) (A) (A) (A) (A) (A) (A) (A) (A) (A)
                 (A) (A) (A) (A) (A) (A) (A) (A) (A) (A) (A) (A)
                 (A) (A) (A) (A) (A) (A) (A) (A) (A) (A) (A) (A)
                 (A) (A) (A) (A) (A) (A) (A) (A) (A) (A) (A) (A)
                 (A) (A) (A) (A) (A) (A) (A) (A) (A) (A) (A) (A)
                 (A) (A) (A) (A) (A) (A) (A) (A) (A) (A) (A) (A)
 The electronic state is 1-A.
 Alpha  occ. eigenvalues --  -19.33067 -19.21384 -19.19585 -19.19420 -19.18421
 Alpha  occ. eigenvalues --  -10.39760 -10.32152 -10.31986 -10.29884 -10.29711
 Alpha  occ. eigenvalues --  -10.27958 -10.26396 -10.25719 -10.25008 -10.24758
 Alpha  occ. eigenvalues --   -1.21740  -1.10083  -1.08339  -1.06773  -1.06556
 Alpha  occ. eigenvalues --   -0.87289  -0.85985  -0.77378  -0.75439  -0.74319
 Alpha  occ. eigenvalues --   -0.71723  -0.69644  -0.68119  -0.65123  -0.62725
 Alpha  occ. eigenvalues --   -0.60729  -0.59063  -0.55854  -0.55027  -0.53879
 Alpha  occ. eigenvalues --   -0.52725  -0.51527  -0.50947  -0.50708  -0.49367
 Alpha  occ. eigenvalues --   -0.48782  -0.47958  -0.46558  -0.45799  -0.45666
 Alpha  occ. eigenvalues --   -0.44084  -0.43635  -0.42355  -0.41771  -0.40734
 Alpha  occ. eigenvalues --   -0.40185  -0.37928  -0.35959  -0.35179  -0.34679
 Alpha  occ. eigenvalues --   -0.32049  -0.31887  -0.29687  -0.27995
 Alpha virt. eigenvalues --   -0.15197   0.00040   0.04127   0.04685   0.05692
 Alpha virt. eigenvalues --    0.07131   0.07676   0.08338   0.08677   0.10087
 Alpha virt. eigenvalues --    0.10512   0.11150   0.12191   0.12391   0.12607
 Alpha virt. eigenvalues --    0.13317   0.13452   0.13925   0.14668   0.14986
 Alpha virt. eigenvalues --    0.15868   0.16606   0.16978   0.17408   0.18130
 Alpha virt. eigenvalues --    0.19156   0.20257   0.20874   0.21596   0.22530
 Alpha virt. eigenvalues --    0.24969   0.25548   0.26354   0.28128   0.28427
 Alpha virt. eigenvalues --    0.43716   0.45338   0.46776   0.46838   0.47976
 Alpha virt. eigenvalues --    0.49112   0.49297   0.50388   0.51192   0.52200
 Alpha virt. eigenvalues --    0.53042   0.53540   0.54242   0.55596   0.56118
 Alpha virt. eigenvalues --    0.56453   0.57112   0.59144   0.59838   0.61826
 Alpha virt. eigenvalues --    0.63329   0.65627   0.67121   0.68485   0.70625
 Alpha virt. eigenvalues --    0.71697   0.74414   0.75365   0.76193   0.77825
 Alpha virt. eigenvalues --    0.78625   0.79277   0.80940   0.81815   0.82048
 Alpha virt. eigenvalues --    0.82543   0.83733   0.83991   0.85049   0.85326
 Alpha virt. eigenvalues --    0.86153   0.86459   0.87856   0.88773   0.90659
 Alpha virt. eigenvalues --    0.91697   0.91876   0.92179   0.94233   0.95236
 Alpha virt. eigenvalues --    0.96398   0.97595   0.99379   1.00205   1.02856
 Alpha virt. eigenvalues --    1.03892   1.04270   1.08883   1.11526   1.12233
 Alpha virt. eigenvalues --    1.13279   1.14204   1.15829   1.19655   1.22352
 Alpha virt. eigenvalues --    1.22988   1.27752   1.27859   1.30057   1.31283
 Alpha virt. eigenvalues --    1.33626   1.34021   1.38991   1.40304   1.42727
 Alpha virt. eigenvalues --    1.43781   1.45111   1.45982   1.47364   1.49842
 Alpha virt. eigenvalues --    1.53337   1.56245   1.56809   1.57579   1.58224
 Alpha virt. eigenvalues --    1.63488   1.66184   1.67973   1.70604   1.72103
 Alpha virt. eigenvalues --    1.72799   1.75147   1.78979   1.79146   1.81141
 Alpha virt. eigenvalues --    1.81836   1.82822   1.84100   1.87595   1.88329
 Alpha virt. eigenvalues --    1.89215   1.92141   1.95194   1.98329   1.99323
 Alpha virt. eigenvalues --    2.00777   2.01700   2.02156   2.02924   2.04151
 Alpha virt. eigenvalues --    2.05225   2.06270   2.06656   2.10003   2.10961
 Alpha virt. eigenvalues --    2.12545   2.13179   2.13878   2.15382   2.15918
 Alpha virt. eigenvalues --    2.16883   2.19416   2.21438   2.22230   2.24876
 Alpha virt. eigenvalues --    2.26767   2.28234   2.28847   2.35442   2.36218
 Alpha virt. eigenvalues --    2.37862   2.39225   2.41648   2.44009   2.46517
 Alpha virt. eigenvalues --    2.49058   2.53897   2.55183   2.55507   2.59962
 Alpha virt. eigenvalues --    2.62317   2.64664   2.69184   2.73988   2.76318
 Alpha virt. eigenvalues --    2.77560   2.79138   2.82466   2.88259   2.92808
 Alpha virt. eigenvalues --    2.93168   2.98890   3.02020   3.07080   3.84574
 Alpha virt. eigenvalues --    3.91013   3.93916   3.97840   4.05825   4.15129
 Alpha virt. eigenvalues --    4.22471   4.23256   4.23756   4.25176   4.28749
 Alpha virt. eigenvalues --    4.37236   4.43635   4.53573   4.63835
          Condensed to atoms (all electrons):
               1          2          3          4          5          6
     1  C    4.953523   0.242173  -0.032230  -0.035088   0.271158   0.002092
     2  C    0.242173   5.187905   0.278623  -0.001230  -0.050137  -0.042158
     3  C   -0.032230   0.278623   4.799593  -0.038861   0.004156   0.364176
     4  C   -0.035088  -0.001230  -0.038861   5.168638   0.264993   0.002969
     5  C    0.271158  -0.050137   0.004156   0.264993   5.095579  -0.000144
     6  H    0.002092  -0.042158   0.364176   0.002969  -0.000144   0.427045
     7  H   -0.028408   0.342188  -0.048054   0.001053  -0.004420   0.001189
     8  H    0.377920  -0.041430  -0.004428  -0.002797  -0.046455  -0.000100
     9  H   -0.005130   0.001070  -0.000389   0.365345  -0.035896  -0.000181
    10  H   -0.051761  -0.000710   0.000177  -0.045180   0.352528  -0.000022
    11  O    0.002517  -0.030223   0.398425   0.119711  -0.023805  -0.034903
    12  O   -0.028847   0.177424  -0.027544  -0.000030   0.002912   0.000549
    13  O    0.277068  -0.037373   0.002237   0.002298  -0.040465  -0.000035
    14  O   -0.035816   0.003336  -0.000118  -0.034617   0.194321   0.000002
    15  C    0.002000  -0.000399   0.002088   0.314759  -0.019598  -0.000138
    16  H   -0.000184  -0.000041   0.001173  -0.043603  -0.002894  -0.000023
    17  H    0.000410  -0.000042   0.000025  -0.057290   0.004487   0.000006
    18  O   -0.000039  -0.000011   0.000292  -0.044585   0.002344   0.000024
    19  C    0.002743  -0.029957  -0.001786   0.000006  -0.000128   0.002386
    20  H   -0.000081  -0.004271   0.002623  -0.000004   0.000017   0.000907
    21  H    0.000089  -0.009865  -0.000538   0.000001  -0.000001   0.000047
    22  H   -0.000150   0.004853  -0.000129   0.000000   0.000001  -0.000086
    23  C   -0.042302  -0.006074   0.000305   0.000248  -0.006857  -0.000001
    24  H    0.005074   0.000023  -0.000005  -0.000001  -0.000055   0.000000
    25  H   -0.003277  -0.002178   0.000068  -0.000324   0.004963   0.000000
    26  H   -0.010062   0.006000  -0.000068   0.000023  -0.000568   0.000009
    27  C   -0.002486  -0.000027   0.000003   0.003591  -0.028218   0.000000
    28  H   -0.000505   0.000074  -0.000003   0.000068  -0.011001   0.000000
    29  H   -0.000090   0.000005   0.000000  -0.000172   0.004810   0.000000
    30  H    0.001402  -0.000067  -0.000002   0.000009  -0.003996   0.000000
    31  C   -0.000003   0.000000  -0.000008  -0.004070   0.000015   0.000000
    32  H    0.000000   0.000000   0.000000  -0.000093   0.000002   0.000000
    33  H    0.000013   0.000000  -0.000004   0.004424  -0.000352  -0.000001
    34  H    0.000000   0.000000   0.000002  -0.001448   0.000086   0.000000
               7          8          9         10         11         12
     1  C   -0.028408   0.377920  -0.005130  -0.051761   0.002517  -0.028847
     2  C    0.342188  -0.041430   0.001070  -0.000710  -0.030223   0.177424
     3  C   -0.048054  -0.004428  -0.000389   0.000177   0.398425  -0.027544
     4  C    0.001053  -0.002797   0.365345  -0.045180   0.119711  -0.000030
     5  C   -0.004420  -0.046455  -0.035896   0.352528  -0.023805   0.002912
     6  H    0.001189  -0.000100  -0.000181  -0.000022  -0.034903   0.000549
     7  H    0.523382   0.004833   0.000001   0.003288   0.000971  -0.029988
     8  H    0.004833   0.540516   0.002983   0.005487   0.000975   0.000255
     9  H    0.000001   0.002983   0.475302   0.005471  -0.028480   0.000001
    10  H    0.003288   0.005487   0.005471   0.584462   0.000812  -0.000064
    11  O    0.000971   0.000975  -0.028480   0.000812   7.929544   0.001322
    12  O   -0.029988   0.000255   0.000001  -0.000064   0.001322   8.238101
    13  O   -0.005508  -0.039742  -0.000031  -0.002370   0.000026   0.002572
    14  O   -0.000009   0.001445   0.005911  -0.034248   0.001138  -0.000009
    15  C    0.000055  -0.000031  -0.033871  -0.003601  -0.037872   0.000000
    16  H    0.000015   0.000006   0.003990   0.004610  -0.003267   0.000000
    17  H   -0.000007  -0.000011  -0.001991  -0.000560   0.002914   0.000000
    18  O    0.000000   0.000001  -0.002806   0.000073   0.001720   0.000000
    19  C   -0.005340  -0.000128   0.000000   0.000004   0.000016   0.224375
    20  H   -0.001358  -0.000003   0.000000  -0.000001  -0.000067  -0.034362
    21  H    0.011263   0.000038   0.000000   0.000000   0.000006  -0.034359
    22  H   -0.000040   0.000000   0.000000   0.000000   0.000001  -0.029220
    23  C    0.005569   0.005551  -0.000001   0.002194  -0.000001  -0.000532
    24  H   -0.000100  -0.000128   0.000000  -0.000051   0.000000  -0.000030
    25  H   -0.000504  -0.000293  -0.000003   0.002293  -0.000002   0.000141
    26  H    0.001075  -0.000142   0.000000  -0.000139  -0.000002   0.001114
    27  C   -0.000018  -0.000140  -0.000185  -0.006217  -0.000044   0.000000
    28  H    0.000002   0.000048   0.000094   0.012060  -0.000002   0.000000
    29  H    0.000000  -0.000006  -0.000017   0.000010   0.000000   0.000000
    30  H    0.000001  -0.000066  -0.000001  -0.001265   0.000003   0.000001
    31  C    0.000000   0.000000   0.003578   0.000013  -0.000018   0.000000
    32  H    0.000000   0.000000  -0.000140   0.000000  -0.000005   0.000000
    33  H    0.000000  -0.000002   0.002945  -0.000012   0.000106   0.000000
    34  H    0.000000   0.000000  -0.000089   0.000004   0.000009   0.000000
              13         14         15         16         17         18
     1  C    0.277068  -0.035816   0.002000  -0.000184   0.000410  -0.000039
     2  C   -0.037373   0.003336  -0.000399  -0.000041  -0.000042  -0.000011
     3  C    0.002237  -0.000118   0.002088   0.001173   0.000025   0.000292
     4  C    0.002298  -0.034617   0.314759  -0.043603  -0.057290  -0.044585
     5  C   -0.040465   0.194321  -0.019598  -0.002894   0.004487   0.002344
     6  H   -0.000035   0.000002  -0.000138  -0.000023   0.000006   0.000024
     7  H   -0.005508  -0.000009   0.000055   0.000015  -0.000007   0.000000
     8  H   -0.039742   0.001445  -0.000031   0.000006  -0.000011   0.000001
     9  H   -0.000031   0.005911  -0.033871   0.003990  -0.001991  -0.002806
    10  H   -0.002370  -0.034248  -0.003601   0.004610  -0.000560   0.000073
    11  O    0.000026   0.001138  -0.037872  -0.003267   0.002914   0.001720
    12  O    0.002572  -0.000009   0.000000   0.000000   0.000000   0.000000
    13  O    8.177009   0.001100  -0.000023   0.000000   0.000000   0.000000
    14  O    0.001100   8.248007  -0.003723   0.000245   0.006044  -0.000002
    15  C   -0.000023  -0.003723   4.882396   0.376851   0.361070   0.260704
    16  H    0.000000   0.000245   0.376851   0.533084  -0.026417  -0.035622
    17  H    0.000000   0.006044   0.361070  -0.026417   0.550454  -0.029216
    18  O    0.000000  -0.000002   0.260704  -0.035622  -0.029216   8.174296
    19  C   -0.000017   0.000000   0.000000   0.000000   0.000000   0.000000
    20  H    0.000000   0.000000   0.000000   0.000000   0.000000   0.000000
    21  H   -0.000025   0.000000   0.000000   0.000000   0.000000   0.000000
    22  H    0.000002   0.000000   0.000000   0.000000   0.000000   0.000000
    23  C    0.232577  -0.000012  -0.000001  -0.000002  -0.000001   0.000000
    24  H   -0.030976  -0.000007   0.000000   0.000000   0.000000   0.000000
    25  H   -0.036317   0.000023   0.000010  -0.000007   0.000002   0.000000
    26  H   -0.034682  -0.000002   0.000000   0.000000   0.000000   0.000000
    27  C   -0.002553   0.231264   0.000040   0.000002   0.000014   0.000001
    28  H    0.000180  -0.034033   0.000133  -0.000032   0.000043   0.000000
    29  H    0.000128  -0.032142   0.000013   0.000000  -0.000047   0.000000
    30  H    0.007769  -0.034206  -0.000021   0.000001   0.000058   0.000000
    31  C    0.000000  -0.000016  -0.047228   0.005716  -0.007971   0.244390
    32  H    0.000000   0.000000   0.005194  -0.000192  -0.000078  -0.031427
    33  H    0.000000   0.000003  -0.003432  -0.000352  -0.001027  -0.038262
    34  H    0.000000  -0.000018  -0.009249   0.000202   0.011944  -0.034996
              19         20         21         22         23         24
     1  C    0.002743  -0.000081   0.000089  -0.000150  -0.042302   0.005074
     2  C   -0.029957  -0.004271  -0.009865   0.004853  -0.006074   0.000023
     3  C   -0.001786   0.002623  -0.000538  -0.000129   0.000305  -0.000005
     4  C    0.000006  -0.000004   0.000001   0.000000   0.000248  -0.000001
     5  C   -0.000128   0.000017  -0.000001   0.000001  -0.006857  -0.000055
     6  H    0.002386   0.000907   0.000047  -0.000086  -0.000001   0.000000
     7  H   -0.005340  -0.001358   0.011263  -0.000040   0.005569  -0.000100
     8  H   -0.000128  -0.000003   0.000038   0.000000   0.005551  -0.000128
     9  H    0.000000   0.000000   0.000000   0.000000  -0.000001   0.000000
    10  H    0.000004  -0.000001   0.000000   0.000000   0.002194  -0.000051
    11  O    0.000016  -0.000067   0.000006   0.000001  -0.000001   0.000000
    12  O    0.224375  -0.034362  -0.034359  -0.029220  -0.000532  -0.000030
    13  O   -0.000017   0.000000  -0.000025   0.000002   0.232577  -0.030976
    14  O    0.000000   0.000000   0.000000   0.000000  -0.000012  -0.000007
    15  C    0.000000   0.000000   0.000000   0.000000  -0.000001   0.000000
    16  H    0.000000   0.000000   0.000000   0.000000  -0.000002   0.000000
    17  H    0.000000   0.000000   0.000000   0.000000  -0.000001   0.000000
    18  O    0.000000   0.000000   0.000000   0.000000   0.000000   0.000000
    19  C    4.922640   0.367310   0.368806   0.386645  -0.000793   0.000005
    20  H    0.367310   0.569341  -0.042268  -0.029248   0.000017   0.000000
    21  H    0.368806  -0.042268   0.553934  -0.025872  -0.000101   0.000011
    22  H    0.386645  -0.029248  -0.025872   0.491749   0.000018   0.000000
    23  C   -0.000793   0.000017  -0.000101   0.000018   4.942444   0.388425
    24  H    0.000005   0.000000   0.000011   0.000000   0.388425   0.499793
    25  H    0.000012   0.000000  -0.000025   0.000000   0.359937  -0.028657
    26  H    0.000640   0.000046   0.001633  -0.000046   0.366395  -0.029067
    27  C    0.000000   0.000000   0.000000   0.000000   0.000344   0.000052
    28  H    0.000000   0.000000   0.000000   0.000000  -0.000170   0.000001
    29  H    0.000000   0.000000   0.000000   0.000000   0.000009  -0.000002
    30  H    0.000000   0.000000   0.000000   0.000000  -0.000689  -0.000115
    31  C    0.000000   0.000000   0.000000   0.000000   0.000000   0.000000
    32  H    0.000000   0.000000   0.000000   0.000000   0.000000   0.000000
    33  H    0.000000   0.000000   0.000000   0.000000   0.000000   0.000000
    34  H    0.000000   0.000000   0.000000   0.000000   0.000000   0.000000
              25         26         27         28         29         30
     1  C   -0.003277  -0.010062  -0.002486  -0.000505  -0.000090   0.001402
     2  C   -0.002178   0.006000  -0.000027   0.000074   0.000005  -0.000067
     3  C    0.000068  -0.000068   0.000003  -0.000003   0.000000  -0.000002
     4  C   -0.000324   0.000023   0.003591   0.000068  -0.000172   0.000009
     5  C    0.004963  -0.000568  -0.028218  -0.011001   0.004810  -0.003996
     6  H    0.000000   0.000009   0.000000   0.000000   0.000000   0.000000
     7  H   -0.000504   0.001075  -0.000018   0.000002   0.000000   0.000001
     8  H   -0.000293  -0.000142  -0.000140   0.000048  -0.000006  -0.000066
     9  H   -0.000003   0.000000  -0.000185   0.000094  -0.000017  -0.000001
    10  H    0.002293  -0.000139  -0.006217   0.012060   0.000010  -0.001265
    11  O   -0.000002  -0.000002  -0.000044  -0.000002   0.000000   0.000003
    12  O    0.000141   0.001114   0.000000   0.000000   0.000000   0.000001
    13  O   -0.036317  -0.034682  -0.002553   0.000180   0.000128   0.007769
    14  O    0.000023  -0.000002   0.231264  -0.034033  -0.032142  -0.034206
    15  C    0.000010   0.000000   0.000040   0.000133   0.000013  -0.000021
    16  H   -0.000007   0.000000   0.000002  -0.000032   0.000000   0.000001
    17  H    0.000002   0.000000   0.000014   0.000043  -0.000047   0.000058
    18  O    0.000000   0.000000   0.000001   0.000000   0.000000   0.000000
    19  C    0.000012   0.000640   0.000000   0.000000   0.000000   0.000000
    20  H    0.000000   0.000046   0.000000   0.000000   0.000000   0.000000
    21  H   -0.000025   0.001633   0.000000   0.000000   0.000000   0.000000
    22  H    0.000000  -0.000046   0.000000   0.000000   0.000000   0.000000
    23  C    0.359937   0.366395   0.000344  -0.000170   0.000009  -0.000689
    24  H   -0.028657  -0.029067   0.000052   0.000001  -0.000002  -0.000115
    25  H    0.584938  -0.044674   0.000511   0.000212  -0.000017  -0.000323
    26  H   -0.044674   0.575430   0.000012   0.000005   0.000000   0.000179
    27  C    0.000511   0.000012   4.910448   0.367248   0.383890   0.368471
    28  H    0.000212   0.000005   0.367248   0.574848  -0.027554  -0.041621
    29  H   -0.000017   0.000000   0.383890  -0.027554   0.517735  -0.030083
    30  H   -0.000323   0.000179   0.368471  -0.041621  -0.030083   0.558334
    31  C    0.000000   0.000000   0.000000   0.000000   0.000000   0.000000
    32  H    0.000000   0.000000   0.000000   0.000000   0.000000   0.000000
    33  H    0.000000   0.000000  -0.000001   0.000000   0.000000   0.000000
    34  H    0.000000   0.000000   0.000001   0.000001   0.000000   0.000000
              31         32         33         34
     1  C   -0.000003   0.000000   0.000013   0.000000
     2  C    0.000000   0.000000   0.000000   0.000000
     3  C   -0.000008   0.000000  -0.000004   0.000002
     4  C   -0.004070  -0.000093   0.004424  -0.001448
     5  C    0.000015   0.000002  -0.000352   0.000086
     6  H    0.000000   0.000000  -0.000001   0.000000
     7  H    0.000000   0.000000   0.000000   0.000000
     8  H    0.000000   0.000000  -0.000002   0.000000
     9  H    0.003578  -0.000140   0.002945  -0.000089
    10  H    0.000013   0.000000  -0.000012   0.000004
    11  O   -0.000018  -0.000005   0.000106   0.000009
    12  O    0.000000   0.000000   0.000000   0.000000
    13  O    0.000000   0.000000   0.000000   0.000000
    14  O   -0.000016   0.000000   0.000003  -0.000018
    15  C   -0.047228   0.005194  -0.003432  -0.009249
    16  H    0.005716  -0.000192  -0.000352   0.000202
    17  H   -0.007971  -0.000078  -0.001027   0.011944
    18  O    0.244390  -0.031427  -0.038262  -0.034996
    19  C    0.000000   0.000000   0.000000   0.000000
    20  H    0.000000   0.000000   0.000000   0.000000
    21  H    0.000000   0.000000   0.000000   0.000000
    22  H    0.000000   0.000000   0.000000   0.000000
    23  C    0.000000   0.000000   0.000000   0.000000
    24  H    0.000000   0.000000   0.000000   0.000000
    25  H    0.000000   0.000000   0.000000   0.000000
    26  H    0.000000   0.000000   0.000000   0.000000
    27  C    0.000000   0.000000  -0.000001   0.000001
    28  H    0.000000   0.000000   0.000000   0.000001
    29  H    0.000000   0.000000   0.000000   0.000000
    30  H    0.000000   0.000000   0.000000   0.000000
    31  C    4.912240   0.387215   0.363153   0.368458
    32  H    0.387215   0.517511  -0.032150  -0.028398
    33  H    0.363153  -0.032150   0.594542  -0.045112
    34  H    0.368458  -0.028398  -0.045112   0.577398
 Mulliken charges:
               1
     1  C    0.138280
     2  C    0.012518
     3  C    0.300199
     4  C    0.061255
     5  C    0.072618
     6  H    0.276391
     7  H    0.228867
     8  H    0.195846
     9  H    0.242523
    10  H    0.172713
    11  O   -0.301527
    12  O   -0.463783
    13  O   -0.472847
    14  O   -0.483864
    15  C   -0.046124
    16  H    0.186740
    17  H    0.187187
    18  O   -0.466881
    19  C   -0.237438
    20  H    0.171401
    21  H    0.177227
    22  H    0.201523
    23  C   -0.246499
    24  H    0.195810
    25  H    0.163491
    26  H    0.166893
    27  C   -0.226003
    28  H    0.159905
    29  H    0.183528
    30  H    0.176225
    31  C   -0.225463
    32  H    0.182561
    33  H    0.155523
    34  H    0.161206
 Sum of Mulliken charges =   1.00000
 Mulliken charges with hydrogens summed into heavy atoms:
               1
     1  C    0.334125
     2  C    0.241385
     3  C    0.576590
     4  C    0.303778
     5  C    0.245331
    11  O   -0.301527
    12  O   -0.463783
    13  O   -0.472847
    14  O   -0.483864
    15  C    0.327803
    18  O   -0.466881
    19  C    0.312713
    23  C    0.279695
    27  C    0.293655
    31  C    0.273827
 Electronic spatial extent (au):  <R**2>=           3853.0038
 Charge=              1.0000 electrons
 Dipole moment (field-independent basis, Debye):
    X=             -1.8530    Y=             -2.8521    Z=              3.1450  Tot=              4.6324
 Quadrupole moment (field-independent basis, Debye-Ang):
   XX=            -63.6624   YY=            -67.7966   ZZ=            -84.9889
   XY=             11.3178   XZ=            -10.8170   YZ=              4.6514
 Traceless Quadrupole moment (field-independent basis, Debye-Ang):
   XX=              8.4869   YY=              4.3527   ZZ=            -12.8396
   XY=             11.3178   XZ=            -10.8170   YZ=              4.6514
[...]
 ,0.00002277,-0.00016980,0.00002555,-0.00001072,0.00001383,-0.00002487,
 0.00000514,-0.00002219,0.00032882,-0.00009084,-0.00002807,0.00009691,0
 .00005177,-0.00014468,-0.00000501,-0.00001659,0.00002286,-0.00000789,0
 .00000022,0.00002345,-0.00003518,-0.00002084,0.00001800,0.00001832,-0.
 00000204,-0.00020501,-0.00004623,0.00000984,0.00001899,0.00000801,-0.0
 0007117,0.00008180,0.00001527,0.00000531,0.00005962,-0.09621199,-0.148
 48620,0.08443174,0.00054028,0.00221538,0.00082084,0.10825243,0.1775405
 1,-0.00001658,-0.00013227,0.00032776,-0.00007803,-0.00006903,0.0000109
 2,-0.00000192,0.00008963,0.00000865,-0.00045207,-0.00006732,0.00049892
 ,-0.00003698,-0.00273804,-0.00050152,-0.00001186,0.00000147,-0.0000288
 2,-0.00001106,0.00002444,-0.00001406,0.00005457,0.00000219,0.00002312,
 -0.00003282,0.00004645,-0.00003863,-0.00010966,-0.00025366,0.00046877,
 0.00012786,-0.00019655,-0.00003333,-0.00004945,-0.00006918,0.00002796,
 -0.00007408,-0.00001058,-0.00004167,-0.00877255,-0.01399730,0.00815771
 ,0.00000953,-0.00001277,-0.00006028,-0.00000688,-0.00001847,0.00000167
 ,0.00003055,0.00000528,-0.00000007,0.00001356,-0.00000355,0.00001577,0
 .00000543,0.00000350,-0.00003175,-0.00000010,-0.00000081,0.00000268,-0
 .00000223,0.00000036,0.00000496,-0.00000790,-0.00000448,0.00000611,-0.
 00005164,-0.00001355,-0.00018554,0.00001796,0.00000605,0.00001748,-0.0
 0004394,-0.00004635,0.00006842,0.00003730,0.00001028,0.00003515,0.0863
 6415,0.09425336,-0.12797827,0.01918483,0.01889265,-0.01330264,-0.09241
 772,-0.09209757,0.12874798,0.00053037,0.00108021,-0.00045252,0.0000978
 5,-0.00042750,0.00013190,-0.00015803,-0.00010307,0.00003921,0.00012384
 ,-0.00014087,-0.00008896,-0.00022067,-0.00141405,0.00172225,0.00002218
 ,0.00001078,0.00000010,0.00000464,0.00002259,-0.00000526,-0.00007463,-
 0.00000395,-0.00003513,0.00002304,-0.00011841,-0.00001247,0.00015752,0
 .00004540,-0.00023867,0.00008025,0.00026346,-0.00003394,0.00020924,0.0
 0019232,-0.00002842,-0.00191068,-0.00167065,-0.00009317,0.00125938,0.0
 0920110,0.00282063,0.00013770,-0.00007069,0.00005669,-0.00000783,0.000
 02186,-0.00002034,0.00005961,0.00001298,0.00005839,-0.00015074,0.00009
 455,0.00001698,-0.00006199,-0.00001704,0.00007863,0.00000474,0.0000108
 1,-0.00001286,0.00000322,-0.00000351,-0.00001341,0.00001822,0.00001222
 ,-0.00000970,-0.00017489,-0.00051127,0.00015993,0.00000699,-0.00004232
 ,0.00004145,0.00000304,0.00012820,-0.00010393,0.00000964,0.00002009,-0
 .00012946,-0.30239400,0.05763597,-0.03415706,-0.00521210,0.00008983,-0
 .00056181,-0.01552041,0.00345603,-0.00367351,0.32309239,0.00144158,-0.
 00185233,-0.00013938,-0.00026104,0.00031857,-0.00009833,0.00085626,0.0
 0002109,-0.00010562,-0.00018239,0.00084328,0.00008825,0.00321957,0.003
 90010,-0.00149833,-0.00009888,0.00002741,0.00008951,0.00001176,-0.0000
 7120,-0.00000578,-0.00002306,0.00006969,0.00004272,-0.00026821,0.00003
 346,0.00011249,-0.00017374,-0.00052727,0.00044755,-0.00059903,-0.00123
 870,0.00013856,-0.00016612,0.00000848,-0.00001752,-0.00062514,0.001669
 30,-0.00024468,0.03306909,-0.02583193,-0.00445133,-0.00013158,0.000204
 84,0.00008983,0.00003689,-0.00007469,0.00001406,-0.00011862,-0.0000429
 1,-0.00011856,0.00017930,-0.00009347,-0.00005172,0.00000899,-0.0000280
 6,-0.00003362,-0.00000320,0.00000829,0.00000510,-0.00001218,-0.0000073
 7,0.00001309,-0.00000726,-0.00000100,0.00000631,-0.00103256,-0.0000762
 4,0.00087368,-0.00005153,-0.00006103,-0.00001734,-0.00000692,-0.000155
 28,0.00005463,0.00016272,0.00008481,-0.00012200,0.05084342,-0.06165487
 ,0.01143758,0.00108073,0.00234196,0.00168333,-0.01930383,0.00757037,-0
 .00360993,-0.06777783,0.07462803,0.00028308,-0.00014320,0.00019617,-0.
 00005235,0.00000620,-0.00009361,0.00012704,0.00008983,-0.00001583,-0.0
 0000465,0.00023719,-0.00004295,0.00034459,0.00151234,-0.00049837,-0.00
 002402,0.00000487,0.00000065,-0.00000094,0.00003541,-0.00001619,0.0000
 2285,-0.00004475,-0.00004238,-0.00006640,-0.00001461,0.00006052,-0.000
 35692,-0.00028501,-0.00014880,-0.00010102,-0.00041415,0.00008398,-0.00
 015756,-0.00013710,0.00002388,-0.00053185,-0.00017553,-0.00017866,0.01
 622339,-0.01113407,0.00272843,-0.00007198,0.00002937,-0.00004701,0.000
 00427,-0.00003796,0.00002088,-0.00004785,-0.00002103,-0.00005117,0.000
 13206,-0.00003360,0.00000809,0.00003673,0.00002938,-0.00005103,-0.0000
 0045,-0.00000879,0.00000733,0.00000006,0.00000380,0.00000724,-0.000015
 66,-0.00000967,0.00000649,0.00043388,0.00044990,0.00014213,0.00008877,
 0.00000239,0.00003357,0.00002030,0.00013358,-0.00020212,-0.00001462,-0
 .00010143,-0.00014157,-0.03691443,0.01150040,-0.06009992,-0.03119196,0
 .00725222,-0.00243843,0.01729479,-0.00408510,0.00378974,0.03458056,-0.
 00463258,0.05693020,-0.00062219,-0.00022081,-0.00055327,-0.00026707,-0
 .00036828,-0.00007583,-0.00158261,0.00003403,0.00000555,0.00022038,-0.
 00209244,0.00077914,0.00116771,0.00183506,0.00066594,0.00015438,-0.000
 01990,-0.00016589,0.00004445,-0.00001086,0.00008837,-0.00000351,0.0000
 3293,0.00001526,-0.00088553,0.00021897,-0.00037763,-0.00012040,0.00002
 610,-0.00012541,0.00126788,0.00007547,0.00043399,0.00059577,0.00011018
 ,0.00005344,0.00093735,-0.00047342,-0.00005015,0.00002073,-0.00071964,
 0.00010404,-0.03885044,-0.00122365,0.02450231,0.00036677,0.00021441,-0
 .00165129,0.00526032,-0.00323244,-0.00136609,-0.13258568,-0.01065231,0
 .06189988,-0.00026158,-0.00012717,0.00017385,0.00000824,0.00002269,-0.
 00003830,0.00002486,0.00000468,-0.00003465,0.00005133,0.00002119,-0.00
 001110,-0.00014121,0.00008396,0.00033724,0.00003388,-0.00003662,-0.000
 02647,-0.00002543,0.00002357,-0.00002613,0.00002591,0.00000300,-0.0000
 6169,-0.00004373,0.00063674,0.00023718,0.00001454,-0.00003081,-0.00006
 846,-0.00000930,-0.00012692,0.00001042,0.00005109,-0.00008562,-0.00005
 174,0.53616157,-0.00033886,-0.00016597,-0.00021751,-0.00016851,-0.0001
 7820,-0.00000949,-0.00066800,0.00008852,-0.00000875,0.00113442,-0.0009
 3992,-0.00140126,0.00074981,0.00093678,0.00036765,0.00007016,-0.000002
 87,-0.00009377,0.00000138,-0.00000173,0.00003566,0.00002365,0.00002606
 ,0.00002006,0.00001271,0.00016984,0.00000777,-0.00011503,0.00007150,0.
 00011184,0.00045926,-0.00006643,0.00021460,0.00026329,0.00006965,0.000
 02308,0.00048209,-0.00023961,-0.00002367,-0.00010661,-0.00048342,0.000
 10652,0.01957509,0.00349130,-0.02166053,0.00521232,-0.00319810,-0.0020
 3045,0.00457930,0.00167958,-0.00232100,-0.04271535,-0.10282948,0.05365
 118,-0.00011351,-0.00005318,0.00007778,0.00000509,0.00000953,-0.000017
 11,0.00001027,0.00000189,-0.00001600,0.00002361,0.00001037,-0.00000544
 ,-0.00007887,0.00003604,0.00016533,0.00001990,-0.00001714,-0.00001281,
 -0.00001174,0.00001594,-0.00001169,0.00001373,0.00000414,-0.00002990,-
 0.00002600,0.00032683,0.00014258,0.00002497,-0.00001576,-0.00004337,0.
 00000090,-0.00007809,0.00001084,0.00002046,-0.00004485,-0.00002882,-0.
 05274015,0.59957107,0.00042515,0.00051634,0.00051215,0.00019010,0.0002
 3249,0.00007014,0.00129499,0.00030203,-0.00013446,-0.00318005,0.003718
 70,0.00480992,-0.00183097,-0.00136971,-0.00128524,-0.00011629,-0.00003
 130,0.00022267,-0.00000228,0.00001727,-0.00004837,-0.00003725,-0.00004
 216,-0.00006027,-0.00120051,0.00039113,0.00000120,0.00025137,-0.000173
 55,-0.00015191,-0.00116962,-0.00058899,-0.00101238,-0.00038498,-0.0001
 3435,-0.00005293,-0.00082578,0.00032867,-0.00003544,-0.00006884,0.0005
 8828,-0.00029444,0.01660715,-0.00681006,-0.01453454,0.00042783,-0.0010
 4625,0.00140146,-0.00159797,0.00395746,0.00041449,0.07141381,0.0306497
 3,-0.13028571,0.00015123,0.00007524,-0.00010691,-0.00000676,-0.0000110
 1,0.00002809,-0.00001166,-0.00000557,0.00002054,-0.00003832,-0.0000147
 5,0.00000801,0.00013522,-0.00004304,-0.00025225,-0.00002703,0.00002631
 ,0.00002244,0.00001404,-0.00002125,0.00001610,-0.00002260,-0.00001322,
 0.00004596,0.00007944,-0.00045980,-0.00014925,0.00001363,0.00000476,0.
 00002008,0.00001476,0.00010363,0.00000855,-0.00004818,0.00005170,0.000
 02793,0.05350002,0.02745112,0.52172269,0.00013237,0.00004577,0.0000741
 3,0.00005480,0.00006537,0.00001941,0.00027209,-0.00001508,-0.00001368,
 0.00017925,0.00050986,0.00044186,-0.00018688,-0.00025529,-0.00011482,-
 0.00003826,0.00000552,0.00001818,-0.00000485,0.00000464,-0.00001457,-0
 .00000290,-0.00000957,-0.00000452,0.00025804,-0.00008906,-0.00002659,0
 .00001413,-0.00000179,-0.00003548,-0.00028516,-0.00007417,0.00000632,-
 0.00010723,-0.00003614,-0.00000774,-0.00017301,0.00007941,0.00001406,-
 0.00002608,0.00016622,-0.00003751,-0.00085078,-0.00326228,0.00232036,-
 0.00100645,0.00074713,0.00024380,-0.00002683,0.00018825,0.00003807,-0.
 02348314,0.01620744,0.00914484,0.00004491,0.00002719,-0.00003386,-0.00
 000100,-0.00000558,0.00000809,-0.00000390,-0.00000173,0.00000575,-0.00
 000999,-0.00000399,0.00000265,0.00003296,-0.00000980,-0.00005843,-0.00
 000701,0.00000646,0.00000480,0.00000210,-0.00000475,0.00000273,-0.0000
 0676,-0.00000293,0.00001070,0.00001580,-0.00012469,-0.00005082,-0.0000
 0354,0.00000627,0.00001335,0.00000269,0.00002194,-0.00000109,-0.000012
 58,0.00001829,0.00001030,-0.16938651,0.13215603,0.00630904,0.19013642,
 -0.00000886,0.00003332,-0.00001576,-0.00000420,-0.00001519,-0.00000568
 ,-0.00008172,0.00001691,0.00001036,-0.00010660,0.00012458,0.00019468,-
 0.00011235,-0.00001812,-0.00006458,0.00000817,-0.00000038,-0.00000944,
 0.00000304,-0.00000062,0.00000378,-0.00000332,-0.00000156,-0.00000242,
 0.00000024,0.00000235,-0.00009281,0.00000971,-0.00001485,-0.00002505,0
 .00015587,0.00007324,0.00006802,0.00002219,0.00000480,0.00000071,0.000
 00550,-0.00000580,-0.00000548,0.00005960,-0.00001481,-0.00000627,-0.00
 253139,0.00065239,0.00153093,-0.00019826,0.00046078,0.00014677,-0.0001
 0280,0.00042202,0.00019808,-0.01058233,0.01117206,0.00140413,-0.000010
 82,-0.00000515,0.00000699,0.00000014,0.00000093,-0.00000136,0.00000104
 ,-0.00000006,-0.00000137,0.00000193,0.00000072,-0.00000036,-0.00000430
 ,0.00000162,0.00000732,0.00000008,-0.00000129,-0.00000024,-0.00000059,
 0.00000003,0.00000034,0.00000081,0.00000075,-0.00000117,-0.00000609,0.
 00002977,0.00001045,-0.00000416,-0.00000196,-0.00000064,-0.00000408,0.
 00000472,-0.00000280,0.00000742,-0.00000473,-0.00000213,0.14140788,-0.
 20820584,-0.01150222,-0.14715654,0.21413684,-0.00005004,-0.00006335,-0
 .00002867,-0.00002410,-0.00002631,0.00000232,-0.00009471,-0.00002561,0
 .00000150,0.00027396,-0.00034444,-0.00065588,0.00021780,0.00012557,0.0
 0024861,0.00000596,0.00000354,-0.00003099,-0.00000291,-0.00000067,0.00
 000373,0.00001090,0.00000584,0.00000816,0.00043651,-0.00004632,0.00020
 428,-0.00007907,0.00006940,0.00002788,0.00005043,0.00002447,0.00017227
 ,0.00003398,0.00001449,0.00000282,0.00009045,-0.00003800,-0.00000055,-
 0.00001339,-0.00007533,0.00004344,0.00272864,0.00213390,-0.00257828,0.
 00111477,-0.00059468,-0.00025330,-0.00015832,0.00010152,-0.00004308,0.
 02391766,-0.01869823,-0.00627584,-0.00001427,-0.00000719,0.00001066,0.
 00000080,0.00000127,-0.00000222,0.00000112,-0.00000003,-0.00000214,0.0
 0000301,0.00000156,-0.00000074,-0.00001473,0.00000462,0.00002702,0.000
 00332,-0.00000243,-0.00000232,-0.00000109,0.00000229,-0.00000276,0.000
 00254,0.00000140,-0.00000509,-0.00001306,0.00003285,0.00001318,-0.0000
 0015,0.00000142,-0.00000069,0.00000024,-0.00001271,-0.00000020,0.00000
 238,-0.00000223,-0.00000058,0.00077218,-0.00436043,-0.05023640,-0.0168
 4358,0.00853076,0.05535082,0.00000106,-0.00010410,-0.00003517,0.000010
 68,0.00001686,0.00000151,-0.00009277,-0.00008332,0.00004398,-0.0004881
 0,-0.00069428,-0.00073630,0.00038419,0.00004416,-0.00018475,0.00001022
 ,0.00001324,-0.00000055,-0.00000822,-0.00000105,-0.00000726,0.00000196
 ,0.00000715,0.00000437,-0.00136437,0.00012708,0.00005051,0.00006664,-0
 .00002791,0.00005968,0.00019973,0.00027616,0.00002732,-0.00001282,0.00
 001695,-0.00000523,0.00005139,0.00000538,0.00001882,-0.00003717,0.0000
 0090,0.00000627,0.00386549,-0.00132419,0.00133562,-0.00033778,0.000436
 04,-0.00004819,-0.00050693,0.00017602,0.00012831,0.00775642,-0.0065656
 6,0.03177915,0.00000813,0.00000238,-0.00000114,-0.00000017,-0.00000047
 ,0.00000028,-0.00000134,-0.00000020,0.00000046,-0.00000012,0.00000022,
 -0.00000028,-0.00001743,-0.00000494,0.00001786,0.00000123,-0.00000023,
 -0.00000102,-0.00000302,0.00000166,-0.00000028,0.00000161,0.00000523,-
 0.00000096,0.00000468,0.00004836,0.00000523,0.00000118,-0.00000689,-0.
 00000626,-0.00000220,-0.00000519,-0.00000175,0.00000388,-0.00000712,-0
 .00000400,-0.10514232,0.01708858,-0.10216072,-0.00795876,0.00122078,-0
 .01970271,0.10797833,0.00009368,0.00005803,0.00007999,0.00004157,0.000
 05132,0.00002475,0.00017522,-0.00003551,0.00000468,-0.00043793,0.00074
 535,0.00015374,-0.00013624,-0.00021886,-0.00014324,-0.00003066,0.00000
 119,0.00001559,-0.00000362,0.00000577,-0.00001027,0.00000210,-0.000003
 18,-0.00000090,0.00019149,-0.00006535,-0.00008088,0.00000466,-0.000010
 33,0.00001104,-0.00022717,-0.00010169,-0.00011011,-0.00006576,-0.00003
 629,-0.00000443,-0.00014761,0.00005304,0.00000867,-0.00006581,0.000118
 31,0.00000371,0.00115168,-0.00102866,-0.00116241,-0.00027947,0.0000784
 9,0.00012224,-0.00043736,0.00005454,-0.00019771,0.00015643,-0.00022965
 ,0.01494309,0.00002805,0.00001641,-0.00002247,-0.00000076,-0.00000325,
 0.00000587,-0.00000186,-0.00000123,0.00000361,-0.00000738,-0.00000265,
 0.00000178,0.00002822,-0.00000683,-0.00004967,-0.00000507,0.00000489,0
 .00000393,0.00000257,-0.00000350,0.00000182,-0.00000584,-0.00000348,0.
 00000882,0.00001151,-0.00012292,-0.00005267,-0.00000151,0.00000800,0.0
 0001498,0.00000555,0.00000885,0.00000012,-0.00001592,0.00001996,0.0000
 1215,0.01510036,-0.05863960,0.02729874,0.01096224,-0.00153097,0.022058
 63,-0.01375478,0.05555904,-0.00004128,-0.00012963,-0.00007214,-0.00002
 175,-0.00001317,-0.00001182,-0.00008732,-0.00009444,-0.00002684,0.0004
 2081,-0.00069510,-0.00045355,0.00039644,0.00018690,0.00038160,-0.00000
 109,0.00000699,-0.00004780,-0.00000739,-0.00000160,0.00000452,0.000013
 58,0.00000172,0.00001524,0.00063406,-0.00014623,0.00071368,-0.00011731
 ,0.00012004,0.00002749,-0.00004791,0.00005037,0.00029249,0.00002424,0.
 00001087,0.00001450,0.00011344,-0.00003392,0.00002010,-0.00003682,-0.0
 0001909,0.00007553,-0.00466984,0.00366647,0.00080150,0.00075576,-0.000
 44585,-0.00012764,0.00021054,-0.00068690,-0.00011716,0.00828102,0.0078
 4475,-0.02770468,-0.00000610,-0.00000206,0.00000220,0.00000111,-0.0000
 0102,-0.00000282,-0.00000040,0.00000169,-0.00000105,0.00000351,0.00000
 080,0.00000009,-0.00001217,0.00000437,0.00002052,0.00000304,-0.0000024
 3,-0.00000256,-0.00000065,0.00000305,-0.00000201,0.00000158,0.00000023
 ,-0.00000561,-0.00000997,0.00001483,-0.00001513,-0.00000327,0.00000369
 ,0.00000825,-0.00000018,-0.00001497,-0.00000115,0.00000046,0.00000318,
 0.00000342,-0.09976608,0.02753531,-0.24728887,-0.00051929,-0.00047281,
 0.00364608,0.10142030,-0.03775771,0.27771034,0.00006870,0.00004140,0.0
 0007430,0.00002475,0.00003687,0.00002536,0.00020858,0.00006948,-0.0000
 1088,-0.00048527,0.00055063,-0.00010866,-0.00022815,-0.00030176,-0.000
 15082,-0.00000780,0.00000370,-0.00000579,-0.00000842,0.00000256,-0.000
 01102,0.00000482,-0.00000481,-0.00000078,0.00011309,-0.00010109,-0.000
 00601,-0.00000129,0.00001727,0.00000782,0.00000649,0.00014658,0.000105
 76,-0.00007457,-0.00000817,-0.00000819,-0.00012335,0.00006692,0.000006
 40,0.00006398,0.00011759,-0.00001175,0.00352151,-0.00630573,-0.0019138
 0,0.00011088,0.00019574,0.00003313,-0.00018166,0.00145981,-0.00000117,
 -0.02134419,-0.02203273,0.00644281,0.00003335,0.00001531,-0.00002185,-
 0.00000084,-0.00000290,0.00000463,-0.00000296,-0.00000036,0.00000456,-
 0.00000594,-0.00000272,0.00000118,0.00001370,-0.00001103,-0.00004338,-
 0.00000458,0.00000454,0.00000387,0.00000314,-0.00000335,0.00000435,-0.
 00000240,0.00000044,0.00000775,-0.00000563,-0.00005508,-0.00003045,-0.
 00000557,0.00000422,0.00000929,-0.00000239,0.00002187,-0.00000234,-0.0
 0000027,0.00000727,0.00000572,-0.09647965,-0.08484439,-0.03809799,0.01
 243605,0.01801403,0.00734550,-0.00437330,-0.01233060,-0.00693108,0.106
 72921,0.00010864,-0.00000626,0.00007673,0.00004883,0.00007343,0.000005
 24,0.00032696,-0.00000254,-0.00001603,-0.00034601,-0.00008750,0.000077
 01,-0.00010473,-0.00027115,-0.00010049,-0.00002163,0.00000140,0.000042
 15,-0.00000887,0.00000028,-0.00001623,-0.00000146,-0.00000551,-0.00000
 178,0.00000735,-0.00001768,0.00001235,0.00002985,0.00000251,0.00000084
 ,-0.00018938,0.00004574,-0.00010624,-0.00011426,-0.00001573,-0.0000085
 1,-0.00015021,0.00009122,0.00001753,-0.00001149,0.00016931,-0.00003092
 ,0.00416792,0.00135087,-0.00022016,-0.00009042,0.00044733,0.00015763,-
 0.00176992,0.00051823,0.00031395,-0.01240142,-0.00847650,0.00636168,0.
 00005158,0.00002192,-0.00003282,-0.00000197,-0.00000372,0.00000640,-0.
 00000526,0.00000009,0.00000712,-0.00000915,-0.00000408,0.00000186,0.00
 002264,-0.00001708,-0.00006020,-0.00000594,0.00000688,0.00000434,0.000
 00468,-0.00000422,0.00000520,-0.00000389,0.00000007,0.00001091,0.00001
 086,-0.00012237,-0.00005414,-0.00000234,0.00000392,0.00001600,0.000001
 35,0.00002311,-0.00000241,-0.00000920,0.00001628,0.00001050,-0.0876901
 7,-0.23134886,-0.07344635,-0.01016461,-0.01731652,-0.00881558,0.003093
 18,0.00526075,0.00106165,0.10522847,0.24966641,-0.00002780,-0.00007180
 ,-0.00004598,-0.00000073,-0.00000250,-0.00003463,-0.00009006,-0.000093
 67,0.00001333,-0.00001528,-0.00052511,-0.00056578,0.00017472,0.0000563
 1,0.00019566,0.00000674,0.00000196,0.00000693,0.00000243,-0.00000694,0
 .00000353,0.00000238,0.00000218,0.00000632,0.00011491,-0.00012638,0.00
 002789,-0.00001815,0.00003281,0.00001592,0.00008544,0.00008631,0.00002
 964,0.00001952,0.00001771,0.00000409,0.00006797,-0.00001169,0.00000523
 ,0.00005592,-0.00001050,0.00000827,-0.00230991,0.00447652,0.00187777,-
 0.00021229,0.00020967,0.00002818,-0.00093628,-0.00106400,0.00018657,0.
 02189161,0.02499178,0.00306234,-0.00000636,-0.00000615,0.00000746,-0.0
 0000039,0.00000128,-0.00000256,-0.00000017,0.00000085,-0.00000055,0.00
 000296,0.00000084,-0.00000088,-0.00001270,0.00000077,0.00001963,0.0000
 0126,-0.00000163,-0.00000178,-0.00000049,0.00000088,-0.00000088,0.0000
 0236,0.00000227,-0.00000335,-0.00001393,0.00003193,0.00001571,-0.00000
 372,-0.00000145,0.00000006,-0.00000454,0.00000325,-0.00000441,0.000009
 25,-0.00000263,-0.00000204,-0.03912862,-0.07762934,-0.08342305,-0.0009
 2646,0.00009924,0.00035696,-0.01200313,-0.02518550,-0.00785671,0.03327
 355,0.07472276,0.08607110\\0.00001801,-0.00001270,0.00000667,0.0000060
 9,-0.00000405,-0.00000922,0.00000733,-0.00001078,0.00002096,0.00000094
 ,0.00001516,-0.00000174,0.00001143,0.00000366,-0.00000775,0.00001353,-
 0.00000472,0.00001427,0.00000335,-0.00000551,0.00001409,-0.00000422,-0
 .00001013,-0.00000467,0.00000436,-0.00000457,-0.00000357,-0.00000107,0
 .00000785,-0.00000399,-0.00000557,0.00000777,0.00001285,0.00000072,0.0
 0000456,0.00000799,-0.00002086,-0.00001164,-0.00001841,-0.00001432,-0.
 00001859,-0.00001627,0.00001848,-0.00000487,0.00000966,0.00000202,0.00
 001755,0.00000356,-0.00000301,0.00001301,-0.00001089,-0.00000983,0.000
 01861,-0.00000649,0.00000496,-0.00001552,0.00002459,0.00000773,-0.0000
 0877,0.00001795,0.00000612,-0.00000576,0.00001288,0.00000862,-0.000014
 41,0.00001577,-0.00000205,0.00000450,0.00000231,-0.00000466,-0.0000061
 5,-0.00000973,-0.00001387,0.00000162,-0.00000580,-0.00000269,-0.000004
 22,-0.00000099,-0.00000814,0.00000474,-0.00001079,-0.00000668,0.000008
 51,-0.00001818,-0.00001276,-0.00000379,-0.00002215,-0.00000991,-0.0000
 0195,-0.00001880,0.00000186,0.00001235,0.00000463,0.00000513,0.0000126
 4,0.00000862,-0.00000131,0.00000093,-0.00000054,0.00000026,0.00001468,
 -0.00000683\\\@


 MOM AND DAD WENT TO ALPHA CENTAURI AND ALL
 I GOT WAS THIS DUMB T-SHIRT.
 Job cpu time:       0 days  1 hours 11 minutes 34.2 seconds.
 Elapsed time:       0 days  0 hours 17 minutes 56.1 seconds.
 File lengths (MBytes):  RWF=    378 Int=      0 D2E=      0 Chk=     17 Scr=      1
 Normal termination of Gaussian 16 at Fri May 24 08:50:46 2019.
