 Entering Gaussian System, Link 0=g16
 Input=clay-glucose_cation-208-b3lyp_d3bj-631gd-pcm_thf.gjf
 Output=clay-glucose_cation-208-b3lyp_d3bj-631gd-pcm_thf.out
 Initial command:
 /n/sw/g16_nehalem/g16/l1.exe "/scratch/Gau-60743.inp" -scrdir="/scratch/"
 Entering Link 1 = /n/sw/g16_nehalem/g16/l1.exe PID=     60773.
  
 Copyright (c) 1988,1990,1992,1993,1995,1998,2003,2009,2016,
            Gaussian, Inc.  All Rights Reserved.
  
 This is part of the Gaussian(R) 16 program.  It is based on
 the Gaussian(R) 09 system (copyright 2009, Gaussian, Inc.),
 the Gaussian(R) 03 system (copyright 2003, Gaussian, Inc.),
 the Gaussian(R) 98 system (copyright 1998, Gaussian, Inc.),
 the Gaussian(R) 94 system (copyright 1995, Gaussian, Inc.),
 the Gaussian 92(TM) system (copyright 1992, Gaussian, Inc.),
 the Gaussian 90(TM) system (copyright 1990, Gaussian, Inc.),
 the Gaussian 88(TM) system (copyright 1988, Gaussian, Inc.),
 the Gaussian 86(TM) system (copyright 1986, Carnegie Mellon
 University), and the Gaussian 82(TM) system (copyright 1983,
 Carnegie Mellon University). Gaussian is a federally registered
 trademark of Gaussian, Inc.
  
 This software contains proprietary and confidential information,
 including trade secrets, belonging to Gaussian, Inc.
  
 This software is provided under written license and may be
 used, copied, transmitted, or stored only in accord with that
 written license.
  
 The following legend is applicable only to US Government
 contracts under FAR:
  
                    RESTRICTED RIGHTS LEGEND
  
 Use, reproduction and disclosure by the US Government is
 subject to restrictions as set forth in subparagraphs (a)
 and (c) of the Commercial Computer Software - Restricted
 Rights clause in FAR 52.227-19.
  
 Gaussian, Inc.
 340 Quinnipiac St., Bldg. 40, Wallingford CT 06492
  
  
 ---------------------------------------------------------------
 Warning -- This program may not be used in any manner that
 competes with the business of Gaussian, Inc. or will provide
 assistance to any competitor of Gaussian, Inc.  The licensee
 of this program is prohibited from giving any competitor of
 Gaussian, Inc. access to this program.  By using this program,
 the user acknowledges that Gaussian, Inc. is engaged in the
 business of creating and licensing software in the field of
 computational chemistry and represents and warrants to the
 licensee that it is not a competitor of Gaussian, Inc. and that
 it will not use this program in any manner prohibited above.
 ---------------------------------------------------------------
  

 Cite this work as:
 Gaussian 16, Revision A.03,
 M. J. Frisch, G. W. Trucks, H. B. Schlegel, G. E. Scuseria, 
 M. A. Robb, J. R. Cheeseman, G. Scalmani, V. Barone, 
 G. A. Petersson, H. Nakatsuji, X. Li, M. Caricato, A. V. Marenich, 
 J. Bloino, B. G. Janesko, R. Gomperts, B. Mennucci, H. P. Hratchian, 
 J. V. Ortiz, A. F. Izmaylov, J. L. Sonnenberg, D. Williams-Young, 
 F. Ding, F. Lipparini, F. Egidi, J. Goings, B. Peng, A. Petrone, 
 T. Henderson, D. Ranasinghe, V. G. Zakrzewski, J. Gao, N. Rega, 
 G. Zheng, W. Liang, M. Hada, M. Ehara, K. Toyota, R. Fukuda, 
 J. Hasegawa, M. Ishida, T. Nakajima, Y. Honda, O. Kitao, H. Nakai, 
 T. Vreven, K. Throssell, J. A. Montgomery, Jr., J. E. Peralta, 
 F. Ogliaro, M. J. Bearpark, J. J. Heyd, E. N. Brothers, K. N. Kudin, 
 V. N. Staroverov, T. A. Keith, R. Kobayashi, J. Normand, 
 K. Raghavachari, A. P. Rendell, J. C. Burant, S. S. Iyengar, 
 J. Tomasi, M. Cossi, J. M. Millam, M. Klene, C. Adamo, R. Cammi, 
 J. W. Ochterski, R. L. Martin, K. Morokuma, O. Farkas, 
 J. B. Foresman, and D. J. Fox, Gaussian, Inc., Wallingford CT, 2016.
 
 ******************************************
 Gaussian 16:  ES64L-G16RevA.03 25-Dec-2016
                24-May-2019 
 ******************************************
 %nprocshared=4
 Will use up to    4 processors via shared memory.
 %mem=3GB
 -------------------------------------------------------------------
 #p b3lyp 6-31g* opt freq=noraman scrf=(pcm,solvent=tetrahydrofuran)
 -------------------------------------------------------------------
 1/18=20,19=15,26=3,38=1/1,3;
 2/9=110,12=2,17=6,18=5,40=1/2;
 3/5=1,6=6,7=1,11=2,25=1,30=1,70=2201,71=1,72=20,74=-5/1,2,3;
 4//1;
 5/5=2,38=5,53=20/2;
 6/7=2,8=2,9=2,10=2,28=1/1;
 7//1,2,3,16;
 1/18=20,19=15,26=3/3(2);
 2/9=110/2;
 99//99;
 2/9=110/2;
 3/5=1,6=6,7=1,11=2,25=1,30=1,70=2205,71=1,72=20,74=-5/1,2,3;
 4/5=5,16=3,69=1/1;
 5/5=2,38=5,53=20/2;
 7//1,2,3,16;
 1/18=20,19=15,26=3/3(-5);
 2/9=110/2;
 6/7=2,8=2,9=2,10=2,19=2,28=1/1;
 99/9=1/99;
 Leave Link    1 at Fri May 24 08:32:16 2019, MaxMem=   402653184 cpu:               0.4 elap:               0.1
 (Enter /n/sw/g16_nehalem/g16/l101.exe)
 -----
 title
 -----
 Symbolic Z-matrix:
 Charge =  1 Multiplicity = 1
 6                    -1.06671   0.40114  -0.16036 
 6                    -0.85081  -1.13951   0.02198 
 6                    -0.09806  -1.62593  -1.15852 
 6                     1.35377   0.31292  -1.1227 
 6                     0.30403   1.11032  -0.30931 
 1                    -0.3413   -2.57322  -1.64369 
 1                    -0.16013  -1.28384   0.87041 
 1                    -1.61374   0.57737  -1.09199 
 1                     1.60876   0.87244  -2.02099 
 1                     0.72104   1.27148   0.69341 
 8                     0.83653  -0.98364  -1.70162 
 8                    -1.97858  -1.91625   0.28947 
 8                    -1.88392   0.94467   0.84254 
 8                     0.17649   2.34046  -0.99246 
 6                     2.59951  -0.07691  -0.34958 
 1                     3.1002    0.85435  -0.04194 
 1                     3.28886  -0.6365   -0.99795 
 8                     2.18824  -0.84926   0.75661 
 6                    -3.13219  -1.68651  -0.53665 
 1                    -3.84867  -2.45858  -0.25503 
 1                    -3.56153  -0.69921  -0.3448 
 1                    -2.89851  -1.79119  -1.60458 
 6                    -1.53665   0.68319   2.20657 
 1                    -1.64285  -0.38156   2.44354 
 1                    -0.52264   1.0181    2.45282 
 1                    -2.25074   1.25304   2.80251 
 6                    -0.22609   3.4493   -0.18256 
 1                    -0.14186   4.33204  -0.81909 
 1                    -1.25742   3.34295   0.16661 
 1                     0.44131   3.56131   0.68277 
 6                     3.27568  -1.30488   1.56146 
 1                     3.95663  -1.93824   0.97808 
 1                     2.84069  -1.88886   2.37384 
 1                     3.83684  -0.45837   1.97775 
 
 ITRead=  0  0  0  0  0  0  0  0  0  0  0  0  0  0  0  0  0  0  0  0
 ITRead=  0  0  0  0  0  0  0  0  0  0  0  0  0  0
 MicOpt= -1 -1 -1 -1 -1 -1 -1 -1 -1 -1 -1 -1 -1 -1 -1 -1 -1 -1 -1 -1
 MicOpt= -1 -1 -1 -1 -1 -1 -1 -1 -1 -1 -1 -1 -1 -1
 NAtoms=     34 NQM=       34 NQMF=       0 NMMI=      0 NMMIF=      0
                NMic=       0 NMicF=      0.
                    Isotopes and Nuclear Properties:
 (Nuclear quadrupole moments (NQMom) in fm**2, nuclear magnetic moments (NMagM)
  in nuclear magnetons)

  Atom         1           2           3           4           5           6           7           8           9          10
 IAtWgt=          12          12          12          12          12           1           1           1           1           1
 AtmWgt=  12.0000000  12.0000000  12.0000000  12.0000000  12.0000000   1.0078250   1.0078250   1.0078250   1.0078250   1.0078250
 NucSpn=           0           0           0           0           0           1           1           1           1           1
 AtZEff=   0.0000000   0.0000000   0.0000000   0.0000000   0.0000000   0.0000000   0.0000000   0.0000000   0.0000000   0.0000000
 NQMom=    0.0000000   0.0000000   0.0000000   0.0000000   0.0000000   0.0000000   0.0000000   0.0000000   0.0000000   0.0000000
 NMagM=    0.0000000   0.0000000   0.0000000   0.0000000   0.0000000   2.7928460   2.7928460   2.7928460   2.7928460   2.7928460
 AtZNuc=   6.0000000   6.0000000   6.0000000   6.0000000   6.0000000   1.0000000   1.0000000   1.0000000   1.0000000   1.0000000

  Atom        11          12          13          14          15          16          17          18          19          20
 IAtWgt=          16          16          16          16          12           1           1          16          12           1
 AtmWgt=  15.9949146  15.9949146  15.9949146  15.9949146  12.0000000   1.0078250   1.0078250  15.9949146  12.0000000   1.0078250
 NucSpn=           0           0           0           0           0           1           1           0           0           1
 AtZEff=   0.0000000   0.0000000   0.0000000   0.0000000   0.0000000   0.0000000   0.0000000   0.0000000   0.0000000   0.0000000
 NQMom=    0.0000000   0.0000000   0.0000000   0.0000000   0.0000000   0.0000000   0.0000000   0.0000000   0.0000000   0.0000000
 NMagM=    0.0000000   0.0000000   0.0000000   0.0000000   0.0000000   2.7928460   2.7928460   0.0000000   0.0000000   2.7928460
 AtZNuc=   8.0000000   8.0000000   8.0000000   8.0000000   6.0000000   1.0000000   1.0000000   8.0000000   6.0000000   1.0000000

  Atom        21          22          23          24          25          26          27          28          29          30
 IAtWgt=           1           1          12           1           1           1          12           1           1           1
 AtmWgt=   1.0078250   1.0078250  12.0000000   1.0078250   1.0078250   1.0078250  12.0000000   1.0078250   1.0078250   1.0078250
 NucSpn=           1           1           0           1           1           1           0           1           1           1
 AtZEff=   0.0000000   0.0000000   0.0000000   0.0000000   0.0000000   0.0000000   0.0000000   0.0000000   0.0000000   0.0000000
 NQMom=    0.0000000   0.0000000   0.0000000   0.0000000   0.0000000   0.0000000   0.0000000   0.0000000   0.0000000   0.0000000
 NMagM=    2.7928460   2.7928460   0.0000000   2.7928460   2.7928460   2.7928460   0.0000000   2.7928460   2.7928460   2.7928460
 AtZNuc=   1.0000000   1.0000000   6.0000000   1.0000000   1.0000000   1.0000000   6.0000000   1.0000000   1.0000000   1.0000000

  Atom        31          32          33          34
 IAtWgt=          12           1           1           1
 AtmWgt=  12.0000000   1.0078250   1.0078250   1.0078250
 NucSpn=           0           1           1           1
 AtZEff=   0.0000000   0.0000000   0.0000000   0.0000000
 NQMom=    0.0000000   0.0000000   0.0000000   0.0000000
 NMagM=    0.0000000   2.7928460   2.7928460   2.7928460
 AtZNuc=   6.0000000   1.0000000   1.0000000   1.0000000
 Leave Link  101 at Fri May 24 08:32:17 2019, MaxMem=   402653184 cpu:               2.3 elap:               0.8
 (Enter /n/sw/g16_nehalem/g16/l103.exe)

 GradGradGradGradGradGradGradGradGradGradGradGradGradGradGradGradGradGrad
 Berny optimization.
 Initialization pass.
                           ----------------------------
                           !    Initial Parameters    !
                           ! (Angstroms and Degrees)  !
 --------------------------                            --------------------------
 ! Name  Definition              Value          Derivative Info.                !
 --------------------------------------------------------------------------------
 ! R1    R(1,2)                  1.5664         estimate D2E/DX2                !
 ! R2    R(1,5)                  1.5505         estimate D2E/DX2                !
 ! R3    R(1,8)                  1.0946         estimate D2E/DX2                !
 ! R4    R(1,13)                 1.4032         estimate D2E/DX2                !
 ! R5    R(2,3)                  1.4822         estimate D2E/DX2                !
 ! R6    R(2,7)                  1.1035         estimate D2E/DX2                !
 ! R7    R(2,12)                 1.3953         estimate D2E/DX2                !
 ! R8    R(3,6)                  1.0917         estimate D2E/DX2                !
 ! R9    R(3,11)                 1.2574         estimate D2E/DX2                !
 ! R10   R(4,5)                  1.549          estimate D2E/DX2                !
 ! R11   R(4,9)                  1.0886         estimate D2E/DX2                !
 ! R12   R(4,11)                 1.5112         estimate D2E/DX2                !
 ! R13   R(4,15)                 1.5171         estimate D2E/DX2                !
 ! R14   R(5,10)                 1.0979         estimate D2E/DX2                !
 ! R15   R(5,14)                 1.4129         estimate D2E/DX2                !
 ! R16   R(12,19)                1.4374         estimate D2E/DX2                !
 ! R17   R(13,23)                1.4316         estimate D2E/DX2                !
 ! R18   R(14,27)                1.4309         estimate D2E/DX2                !
 ! R19   R(15,16)                1.1012         estimate D2E/DX2                !
 ! R20   R(15,17)                1.0994         estimate D2E/DX2                !
 ! R21   R(15,18)                1.4104         estimate D2E/DX2                !
 ! R22   R(18,31)                1.4276         estimate D2E/DX2                !
 ! R23   R(19,20)                1.0903         estimate D2E/DX2                !
 ! R24   R(19,21)                1.0936         estimate D2E/DX2                !
 ! R25   R(19,22)                1.0982         estimate D2E/DX2                !
 ! R26   R(23,24)                1.096          estimate D2E/DX2                !
 ! R27   R(23,25)                1.0959         estimate D2E/DX2                !
 ! R28   R(23,26)                1.0908         estimate D2E/DX2                !
 ! R29   R(27,28)                1.0916         estimate D2E/DX2                !
 ! R30   R(27,29)                1.094          estimate D2E/DX2                !
 ! R31   R(27,30)                1.0985         estimate D2E/DX2                !
 ! R32   R(31,32)                1.0978         estimate D2E/DX2                !
 ! R33   R(31,33)                1.091          estimate D2E/DX2                !
 ! R34   R(31,34)                1.0976         estimate D2E/DX2                !
 ! A1    A(2,1,5)              109.8286         estimate D2E/DX2                !
 ! A2    A(2,1,8)              109.0449         estimate D2E/DX2                !
 ! A3    A(2,1,13)             112.2133         estimate D2E/DX2                !
 ! A4    A(5,1,8)              106.6427         estimate D2E/DX2                !
 ! A5    A(5,1,13)             113.9762         estimate D2E/DX2                !
 ! A6    A(8,1,13)             104.7663         estimate D2E/DX2                !
 ! A7    A(1,2,3)              107.4625         estimate D2E/DX2                !
 ! A8    A(1,2,7)              107.7235         estimate D2E/DX2                !
 ! A9    A(1,2,12)             117.2887         estimate D2E/DX2                !
 ! A10   A(3,2,7)              104.5703         estimate D2E/DX2                !
 ! A11   A(3,2,12)             112.3643         estimate D2E/DX2                !
 ! A12   A(7,2,12)             106.6008         estimate D2E/DX2                !
 ! A13   A(2,3,6)              121.7056         estimate D2E/DX2                !
 ! A14   A(2,3,11)             123.6331         estimate D2E/DX2                !
 ! A15   A(6,3,11)             114.6386         estimate D2E/DX2                !
 ! A16   A(5,4,9)              109.1147         estimate D2E/DX2                !
 ! A17   A(5,4,11)             114.2597         estimate D2E/DX2                !
 ! A18   A(5,4,15)             114.908          estimate D2E/DX2                !
 ! A19   A(9,4,11)             101.8318         estimate D2E/DX2                !
 ! A20   A(9,4,15)             111.1153         estimate D2E/DX2                !
 ! A21   A(11,4,15)            104.8221         estimate D2E/DX2                !
 ! A22   A(1,5,4)              114.4634         estimate D2E/DX2                !
 ! A23   A(1,5,10)             108.3724         estimate D2E/DX2                !
 ! A24   A(1,5,14)             111.3999         estimate D2E/DX2                !
 ! A25   A(4,5,10)             107.3229         estimate D2E/DX2                !
 ! A26   A(4,5,14)             104.8027         estimate D2E/DX2                !
 ! A27   A(10,5,14)            110.3705         estimate D2E/DX2                !
 ! A28   A(3,11,4)             121.8173         estimate D2E/DX2                !
 ! A29   A(2,12,19)            116.7147         estimate D2E/DX2                !
 ! A30   A(1,13,23)            117.966          estimate D2E/DX2                !
 ! A31   A(5,14,27)            115.2408         estimate D2E/DX2                !
 ! A32   A(4,15,16)            107.363          estimate D2E/DX2                !
 ! A33   A(4,15,17)            110.1893         estimate D2E/DX2                !
 ! A34   A(4,15,18)            107.5145         estimate D2E/DX2                !
 ! A35   A(16,15,17)           108.0666         estimate D2E/DX2                !
 ! A36   A(16,15,18)           112.1216         estimate D2E/DX2                !
 ! A37   A(17,15,18)           111.5081         estimate D2E/DX2                !
 ! A38   A(15,18,31)           113.2555         estimate D2E/DX2                !
 ! A39   A(12,19,20)           105.4127         estimate D2E/DX2                !
 ! A40   A(12,19,21)           111.0125         estimate D2E/DX2                !
 ! A41   A(12,19,22)           111.8938         estimate D2E/DX2                !
 ! A42   A(20,19,21)           109.6337         estimate D2E/DX2                !
 ! A43   A(20,19,22)           108.8744         estimate D2E/DX2                !
 ! A44   A(21,19,22)           109.8891         estimate D2E/DX2                !
 ! A45   A(13,23,24)           111.0976         estimate D2E/DX2                !
 ! A46   A(13,23,25)           112.5021         estimate D2E/DX2                !
 ! A47   A(13,23,26)           105.4461         estimate D2E/DX2                !
 ! A48   A(24,23,25)           109.7531         estimate D2E/DX2                !
 ! A49   A(24,23,26)           109.0248         estimate D2E/DX2                !
 ! A50   A(25,23,26)           108.8635         estimate D2E/DX2                !
 ! A51   A(14,27,28)           105.9563         estimate D2E/DX2                !
 ! A52   A(14,27,29)           111.7486         estimate D2E/DX2                !
 ! A53   A(14,27,30)           110.7284         estimate D2E/DX2                !
 ! A54   A(28,27,29)           109.7229         estimate D2E/DX2                !
 ! A55   A(28,27,30)           109.2695         estimate D2E/DX2                !
 ! A56   A(29,27,30)           109.3435         estimate D2E/DX2                !
 ! A57   A(18,31,32)           110.9178         estimate D2E/DX2                !
 ! A58   A(18,31,33)           106.6748         estimate D2E/DX2                !
 ! A59   A(18,31,34)           110.9241         estimate D2E/DX2                !
 ! A60   A(32,31,33)           109.5245         estimate D2E/DX2                !
 ! A61   A(32,31,34)           109.2306         estimate D2E/DX2                !
 ! A62   A(33,31,34)           109.5271         estimate D2E/DX2                !
 ! D1    D(5,1,2,3)            -57.8747         estimate D2E/DX2                !
 ! D2    D(5,1,2,7)             54.298          estimate D2E/DX2                !
 ! D3    D(5,1,2,12)           174.455          estimate D2E/DX2                !
 ! D4    D(8,1,2,3)             58.6485         estimate D2E/DX2                !
 ! D5    D(8,1,2,7)            170.8211         estimate D2E/DX2                !
 ! D6    D(8,1,2,12)           -69.0218         estimate D2E/DX2                !
 ! D7    D(13,1,2,3)           174.2571         estimate D2E/DX2                !
 ! D8    D(13,1,2,7)           -73.5702         estimate D2E/DX2                !
 ! D9    D(13,1,2,12)           46.5868         estimate D2E/DX2                !
 ! D10   D(2,1,5,4)             37.525          estimate D2E/DX2                !
 ! D11   D(2,1,5,10)           -82.1971         estimate D2E/DX2                !
 ! D12   D(2,1,5,14)           156.1952         estimate D2E/DX2                !
 ! D13   D(8,1,5,4)            -80.4983         estimate D2E/DX2                !
 ! D14   D(8,1,5,10)           159.7797         estimate D2E/DX2                !
 ! D15   D(8,1,5,14)            38.1719         estimate D2E/DX2                !
 ! D16   D(13,1,5,4)           164.409          estimate D2E/DX2                !
 ! D17   D(13,1,5,10)           44.687          estimate D2E/DX2                !
 ! D18   D(13,1,5,14)          -76.9207         estimate D2E/DX2                !
 ! D19   D(2,1,13,23)           52.1884         estimate D2E/DX2                !
 ! D20   D(5,1,13,23)          -73.4461         estimate D2E/DX2                !
 ! D21   D(8,1,13,23)          170.362          estimate D2E/DX2                !
 ! D22   D(1,2,3,6)           -139.087          estimate D2E/DX2                !
 ! D23   D(1,2,3,11)            39.0855         estimate D2E/DX2                !
 ! D24   D(7,2,3,6)            106.6137         estimate D2E/DX2                !
 ! D25   D(7,2,3,11)           -75.2138         estimate D2E/DX2                !
 ! D26   D(12,2,3,6)            -8.6097         estimate D2E/DX2                !
 ! D27   D(12,2,3,11)          169.5628         estimate D2E/DX2                !
 ! D28   D(1,2,12,19)           47.0541         estimate D2E/DX2                !
 ! D29   D(3,2,12,19)          -78.2126         estimate D2E/DX2                !
 ! D30   D(7,2,12,19)          167.8009         estimate D2E/DX2                !
 ! D31   D(2,3,11,4)             4.9379         estimate D2E/DX2                !
 ! D32   D(6,3,11,4)          -176.7726         estimate D2E/DX2                !
 ! D33   D(9,4,5,1)            116.6566         estimate D2E/DX2                !
 ! D34   D(9,4,5,10)          -123.0363         estimate D2E/DX2                !
 ! D35   D(9,4,5,14)            -5.677          estimate D2E/DX2                !
 ! D36   D(11,4,5,1)             3.4398         estimate D2E/DX2                !
 ! D37   D(11,4,5,10)          123.7468         estimate D2E/DX2                !
 ! D38   D(11,4,5,14)         -118.8939         estimate D2E/DX2                !
 ! D39   D(15,4,5,1)          -117.8016         estimate D2E/DX2                !
 ! D40   D(15,4,5,10)            2.5055         estimate D2E/DX2                !
 ! D41   D(15,4,5,14)          119.8648         estimate D2E/DX2                !
 ! D42   D(5,4,11,3)           -27.9743         estimate D2E/DX2                !
 ! D43   D(9,4,11,3)          -145.4509         estimate D2E/DX2                !
 ! D44   D(15,4,11,3)           98.6893         estimate D2E/DX2                !
 ! D45   D(5,4,15,16)          -62.5078         estimate D2E/DX2                !
 ! D46   D(5,4,15,17)         -179.9706         estimate D2E/DX2                !
 ! D47   D(5,4,15,18)           58.3163         estimate D2E/DX2                !
 ! D48   D(9,4,15,16)           61.9883         estimate D2E/DX2                !
 ! D49   D(9,4,15,17)          -55.4746         estimate D2E/DX2                !
 ! D50   D(9,4,15,18)         -177.1877         estimate D2E/DX2                !
 ! D51   D(11,4,15,16)         171.23           estimate D2E/DX2                !
 ! D52   D(11,4,15,17)          53.7672         estimate D2E/DX2                !
 ! D53   D(11,4,15,18)         -67.9459         estimate D2E/DX2                !
 ! D54   D(1,5,14,27)           82.889          estimate D2E/DX2                !
 ! D55   D(4,5,14,27)         -152.8055         estimate D2E/DX2                !
 ! D56   D(10,5,14,27)         -37.5505         estimate D2E/DX2                !
 ! D57   D(2,12,19,20)         173.3967         estimate D2E/DX2                !
 ! D58   D(2,12,19,21)         -67.966          estimate D2E/DX2                !
 ! D59   D(2,12,19,22)          55.2042         estimate D2E/DX2                !
 ! D60   D(1,13,23,24)         -66.0774         estimate D2E/DX2                !
 ! D61   D(1,13,23,25)          57.4222         estimate D2E/DX2                !
 ! D62   D(1,13,23,26)         175.9468         estimate D2E/DX2                !
 ! D63   D(5,14,27,28)         172.3204         estimate D2E/DX2                !
 ! D64   D(5,14,27,29)         -68.2104         estimate D2E/DX2                !
 ! D65   D(5,14,27,30)          53.9483         estimate D2E/DX2                !
 ! D66   D(4,15,18,31)         178.936          estimate D2E/DX2                !
 ! D67   D(16,15,18,31)        -63.2839         estimate D2E/DX2                !
 ! D68   D(17,15,18,31)         58.049          estimate D2E/DX2                !
 ! D69   D(15,18,31,32)        -60.4935         estimate D2E/DX2                !
 ! D70   D(15,18,31,33)       -179.7017         estimate D2E/DX2                !
 ! D71   D(15,18,31,34)         61.0835         estimate D2E/DX2                !
 --------------------------------------------------------------------------------
 Trust Radius=3.00D-01 FncErr=1.00D-07 GrdErr=1.00D-06 EigMax=2.50D+02 EigMin=1.00D-04
 Number of steps in this run=    177 maximum allowed number of steps=    204.
 GradGradGradGradGradGradGradGradGradGradGradGradGradGradGradGradGradGrad

 Leave Link  103 at Fri May 24 08:32:17 2019, MaxMem=   402653184 cpu:               0.4 elap:               0.2
 (Enter /n/sw/g16_nehalem/g16/l202.exe)
                          Input orientation:                          
 ---------------------------------------------------------------------
 Center     Atomic      Atomic             Coordinates (Angstroms)
 Number     Number       Type             X           Y           Z
 ---------------------------------------------------------------------
      1          6           0       -1.066709    0.401142   -0.160358
      2          6           0       -0.850809   -1.139510    0.021984
      3          6           0       -0.098058   -1.625934   -1.158522
      4          6           0        1.353767    0.312915   -1.122696
      5          6           0        0.304031    1.110316   -0.309314
      6          1           0       -0.341295   -2.573221   -1.643688
      7          1           0       -0.160131   -1.283840    0.870406
      8          1           0       -1.613744    0.577372   -1.091986
      9          1           0        1.608763    0.872440   -2.020988
     10          1           0        0.721036    1.271478    0.693413
     11          8           0        0.836526   -0.983636   -1.701618
     12          8           0       -1.978579   -1.916254    0.289467
     13          8           0       -1.883918    0.944669    0.842539
     14          8           0        0.176487    2.340459   -0.992457
     15          6           0        2.599514   -0.076909   -0.349582
     16          1           0        3.100195    0.854352   -0.041937
     17          1           0        3.288862   -0.636499   -0.997947
     18          8           0        2.188242   -0.849264    0.756607
     19          6           0       -3.132186   -1.686505   -0.536647
     20          1           0       -3.848665   -2.458580   -0.255034
     21          1           0       -3.561525   -0.699214   -0.344797
     22          1           0       -2.898511   -1.791192   -1.604579
     23          6           0       -1.536652    0.683186    2.206566
     24          1           0       -1.642850   -0.381562    2.443538
     25          1           0       -0.522639    1.018096    2.452822
     26          1           0       -2.250742    1.253037    2.802512
     27          6           0       -0.226085    3.449299   -0.182558
     28          1           0       -0.141855    4.332037   -0.819090
     29          1           0       -1.257421    3.342951    0.166611
     30          1           0        0.441310    3.561310    0.682769
     31          6           0        3.275684   -1.304882    1.561460
     32          1           0        3.956628   -1.938241    0.978080
     33          1           0        2.840687   -1.888855    2.373841
     34          1           0        3.836843   -0.458372    1.977747
 ---------------------------------------------------------------------
                    Distance matrix (angstroms):
                    1          2          3          4          5
     1  C    0.000000
     2  C    1.566356   0.000000
     3  C    2.458384   1.482173   0.000000
     4  C    2.606258   2.877496   2.422440   0.000000
     5  C    1.550498   2.550516   2.893077   1.548995   0.000000
     6  H    3.401960   2.256013   1.091743   3.387396   3.970572
     7  H    2.173367   1.103489   2.058502   2.968833   2.709090
     8  H    1.094639   2.184189   2.675124   2.979430   2.138800
     9  H    3.292752   3.777720   3.146261   1.088586   2.165350
    10  H    2.163895   2.955398   3.534908   2.148824   1.097874
    11  O    2.813431   2.417064   1.257357   1.511203   2.570349
    12  O    2.530647   1.395258   2.391091   4.250639   3.837834
    13  O    1.403230   2.466663   3.715043   3.839774   2.478170
    14  O    2.449260   3.767574   3.979350   2.348166   1.412871
    15  C    3.702098   3.629313   3.214150   1.517087   2.584641
    16  H    4.193151   4.426060   4.198500   2.123960   2.820557
    17  H    4.555135   4.293036   3.532137   2.159060   3.526300
    18  O    3.605419   3.140023   3.081899   2.361946   2.919999
    19  C    2.960753   2.411629   3.097794   4.946201   4.436381
    20  H    3.990771   3.286917   3.946726   5.958131   5.475842
    21  H    2.732930   2.770626   3.676488   5.078349   4.268276
    22  H    3.201187   2.695084   2.840566   4.768789   4.511401
    23  C    2.429552   2.926602   4.327286   4.424433   3.146459
    24  H    2.779359   2.658146   4.112138   4.709569   3.687037
    25  H    2.739590   3.266792   4.495884   4.099086   2.884663
    26  H    3.302462   3.926249   5.349048   5.411430   4.028734
    27  C    3.162025   4.635654   5.169805   3.635477   2.401652
    28  H    4.091603   5.581026   5.967793   4.299117   3.292138
    29  H    2.966061   4.503189   5.271614   4.202587   2.765736
    30  H    3.601617   4.919748   5.530712   3.826794   2.647725
    31  C    4.973083   4.407412   4.345516   3.676374   4.261889
    32  H    5.657090   4.966240   4.593809   4.031854   4.928747
    33  H    5.189797   4.440709   4.602493   4.391411   4.756992
    34  H    5.418033   5.124748   5.165543   4.046393   4.491346
                    6          7          8          9         10
     6  H    0.000000
     7  H    2.831253   0.000000
     8  H    3.442345   3.070518   0.000000
     9  H    3.977142   4.017299   3.366699   0.000000
    10  H    4.623018   2.708769   3.020038   2.883620   0.000000
    11  O    1.979242   2.774663   2.968538   2.035526   3.291664
    12  O    2.617134   2.011017   2.873967   5.097454   4.196752
    13  O    4.575649   2.817529   1.987533   4.517059   2.629606
    14  O    4.983618   4.088901   2.514619   2.294422   2.069157
    15  C    4.068740   3.249722   4.327908   2.162510   2.536664
    16  H    5.114461   4.004243   4.837411   2.478173   2.524902
    17  H    4.164843   3.975594   5.051522   2.479162   3.618675
    18  O    3.889987   2.390954   4.461803   3.318900   2.579580
    19  C    3.130635   3.312861   2.781943   5.588208   5.010991
    20  H    3.774009   4.031366   3.861653   6.633084   5.974534
    21  H    3.945745   3.658960   2.445775   5.657879   4.827197
    22  H    2.674407   3.725813   2.742895   5.252033   5.268950
    23  C    5.182424   2.747603   3.301149   5.272728   2.780805
    24  H    4.816932   2.342500   3.663377   5.663700   3.373935
    25  H    5.450857   2.816800   3.735025   4.957728   2.169435
    26  H    6.168868   3.813061   4.003674   6.189248   3.644188
    27  C    6.198300   4.849298   3.316718   3.658783   2.531258
    28  H    6.957178   5.864538   4.042083   4.059314   3.521259
    29  H    6.254403   4.806929   3.059323   4.370815   2.912527
    30  H    6.607370   4.885941   4.034463   3.987890   2.306879
    31  C    4.996418   3.504686   5.872833   4.511462   3.730598
    32  H    5.074348   4.169837   6.453102   4.733583   4.566441
    33  H    5.170484   3.410465   6.159236   5.334502   4.159863
    34  H    5.919815   4.228877   6.340735   4.767104   3.788159
                   11         12         13         14         15
    11  O    0.000000
    12  O    3.571976   0.000000
    13  O    4.194271   2.915430   0.000000
    14  O    3.462393   4.940369   3.092040   0.000000
    15  C    2.399642   4.974988   4.750362   3.482530   0.000000
    16  H    3.355136   5.794828   5.062789   3.414685   1.101169
    17  H    2.574803   5.571458   5.713592   4.306877   1.099417
    18  O    2.808569   4.326556   4.450625   4.157008   1.410436
    19  C    4.195457   1.437379   3.222329   5.231780   5.956356
    20  H    5.120457   2.021836   4.080074   6.306855   6.874613
    21  H    4.611368   2.095041   2.631821   4.861256   6.192390
    22  H    3.822573   2.109342   3.808244   5.186603   5.894240
    23  C    4.866639   3.260009   1.431620   3.989379   4.921332
    24  H    4.867455   2.666086   2.092893   4.746098   5.088417
    25  H    4.807664   3.925592   2.109854   3.755978   4.335936
    26  H    5.900942   4.053871   2.017708   4.634190   5.935439
    27  C    4.804956   5.664204   3.173705   1.430918   4.521731
    28  H    5.476538   6.606330   4.155726   2.024298   5.212902
    29  H    5.156961   5.309840   2.569267   2.098695   5.180526
    30  H    5.147624   6.001188   3.504144   2.089735   4.354335
    31  C    4.086608   5.440498   5.674400   5.423654   2.370064
    32  H    4.222214   5.975061   6.514716   6.039847   2.658759
    33  H    4.630923   5.250780   5.718010   6.026360   3.279992
    34  H    4.776561   6.228551   5.998694   5.482132   2.663261
                   16         17         18         19         20
    16  H    0.000000
    17  H    1.781063   0.000000
    18  O    2.090846   2.082089   0.000000
    19  C    6.748575   6.522666   5.538992   0.000000
    20  H    7.701142   7.403796   6.329104   1.090297   0.000000
    21  H    6.847175   6.881740   5.856230   1.093564   1.784902
    22  H    6.739824   6.323362   5.686606   1.098199   1.780301
    23  C    5.156105   5.941049   4.280843   3.960604   4.612545
    24  H    5.495593   6.019186   4.212095   3.578058   4.057328
    25  H    4.401768   5.401206   3.703114   4.802242   5.521070
    26  H    6.073085   6.978614   5.320712   4.535177   5.067351
    27  C    4.221097   5.451005   5.018830   5.911623   6.930467
    28  H    4.817587   6.040543   5.895596   6.726418   7.757002
    29  H    5.022493   6.153122   5.458512   5.413386   6.367895
    30  H    3.862964   5.343684   4.744511   6.465014   7.451338
    31  C    2.695175   2.645274   1.427553   6.753406   7.442246
    32  H    3.093944   2.458684   2.088567   7.253210   7.919212
    33  H    3.664493   3.624667   2.030241   6.647338   7.209924
    34  H    2.518932   3.030968   2.088508   7.509850   8.249435
                   21         22         23         24         25
    21  H    0.000000
    22  H    1.794172   0.000000
    23  C    3.538445   4.743631   0.000000
    24  H    3.399563   4.466653   1.095957   0.000000
    25  H    4.473327   5.477168   1.095915   1.792764   0.000000
    26  H    3.928739   5.395311   1.090782   1.780536   1.778713
    27  C    5.325565   6.052004   3.882896   4.855831   3.597766
    28  H    6.101851   6.760923   4.941069   5.925854   4.672538
    29  H    4.680762   5.673598   3.363590   4.382345   3.342397
    30  H    5.935541   6.710860   3.810235   4.794817   3.245030
    31  C    7.123768   6.955644   5.246633   5.081590   4.540706
    32  H    7.733551   7.326983   6.209443   5.993744   5.565845
    33  H    7.056526   6.983964   5.079810   4.730634   4.446185
    34  H    7.758097   7.744318   5.498178   5.499991   4.627174
                   26         27         28         29         30
    26  H    0.000000
    27  C    4.222966   0.000000
    28  H    5.200351   1.091556   0.000000
    29  H    3.507478   1.094021   1.787284   0.000000
    30  H    4.131414   1.098523   1.785968   1.788795   0.000000
    31  C    6.214865   6.156803   7.008669   6.640557   5.699614
    32  H    7.214170   6.918653   7.703491   7.465640   6.533738
    33  H    5.998158   6.666045   7.601964   7.002724   6.190398
    34  H    6.377135   6.036903   6.826445   6.609221   5.418898
                   31         32         33         34
    31  C    0.000000
    32  H    1.097798   0.000000
    33  H    1.090967   1.787711   0.000000
    34  H    1.097622   1.789887   1.787596   0.000000
 Stoichiometry    C10H19O5(1+)
 Framework group  C1[X(C10H19O5)]
 Deg. of freedom    96
 Full point group                 C1      NOp   1
 Largest Abelian subgroup         C1      NOp   1
 Largest concise Abelian subgroup C1      NOp   1
                         Standard orientation:                         
 ---------------------------------------------------------------------
 Center     Atomic      Atomic             Coordinates (Angstroms)
 Number     Number       Type             X           Y           Z
 ---------------------------------------------------------------------
      1          6           0       -1.066709    0.401142   -0.160358
      2          6           0       -0.850809   -1.139510    0.021984
      3          6           0       -0.098058   -1.625934   -1.158522
      4          6           0        1.353767    0.312915   -1.122696
      5          6           0        0.304031    1.110316   -0.309314
      6          1           0       -0.341295   -2.573221   -1.643688
      7          1           0       -0.160131   -1.283840    0.870406
      8          1           0       -1.613744    0.577372   -1.091986
      9          1           0        1.608763    0.872440   -2.020988
     10          1           0        0.721036    1.271478    0.693413
     11          8           0        0.836526   -0.983636   -1.701618
     12          8           0       -1.978579   -1.916254    0.289467
     13          8           0       -1.883918    0.944669    0.842539
     14          8           0        0.176488    2.340459   -0.992457
     15          6           0        2.599514   -0.076909   -0.349582
     16          1           0        3.100195    0.854351   -0.041937
     17          1           0        3.288862   -0.636500   -0.997947
     18          8           0        2.188242   -0.849264    0.756607
     19          6           0       -3.132186   -1.686504   -0.536647
     20          1           0       -3.848665   -2.458579   -0.255034
     21          1           0       -3.561525   -0.699213   -0.344797
     22          1           0       -2.898511   -1.791191   -1.604579
     23          6           0       -1.536652    0.683186    2.206566
     24          1           0       -1.642850   -0.381562    2.443538
     25          1           0       -0.522639    1.018096    2.452822
     26          1           0       -2.250742    1.253037    2.802512
     27          6           0       -0.226084    3.449299   -0.182558
     28          1           0       -0.141854    4.332037   -0.819090
     29          1           0       -1.257420    3.342951    0.166611
     30          1           0        0.441311    3.561310    0.682769
     31          6           0        3.275684   -1.304883    1.561460
     32          1           0        3.956628   -1.938242    0.978080
     33          1           0        2.840687   -1.888856    2.373841
     34          1           0        3.836843   -0.458373    1.977747
 ---------------------------------------------------------------------
 Rotational constants (GHZ):           0.6436172           0.5181871           0.4035076
 Leave Link  202 at Fri May 24 08:32:17 2019, MaxMem=   402653184 cpu:               0.1 elap:               0.0
 (Enter /n/sw/g16_nehalem/g16/l301.exe)
 Standard basis: 6-31G(d) (6D, 7F)
 Ernie: Thresh=  0.10000D-02 Tol=  0.10000D-05 Strict=F.
 There are   263 symmetry adapted cartesian basis functions of A   symmetry.
 There are   263 symmetry adapted basis functions of A   symmetry.
   263 basis functions,   496 primitive gaussians,   263 cartesian basis functions
    59 alpha electrons       59 beta electrons
       nuclear repulsion energy      1178.1368616915 Hartrees.
 IExCor=  402 DFT=T Ex+Corr=B3LYP ExCW=0 ScaHFX=  0.200000
 ScaDFX=  0.800000  0.720000  1.000000  0.810000 ScalE2=  1.000000  1.000000
 IRadAn=      5 IRanWt=     -1 IRanGd=            0 ICorTp=0 IEmpDi=  4
 NAtoms=   34 NActive=   34 NUniq=   34 SFac= 1.00D+00 NAtFMM=   60 NAOKFM=F Big=F
 Integral buffers will be    131072 words long.
 Raffenetti 2 integral format.
 Two-electron integral symmetry is turned on.
 ------------------------------------------------------------------------------
 Polarizable Continuum Model (PCM)
 =================================
 Model                : PCM.
 Atomic radii         : UFF (Universal Force Field).
 Polarization charges : Total charges.
 Charge compensation  : None.
 Solution method      : On-the-fly selection.
 Cavity type          : Scaled VdW (van der Waals Surface) (Alpha=1.100).
 Cavity algorithm     : GePol (No added spheres)
                        Default sphere list used, NSphG=   34.
                        Lebedev-Laikov grids with approx.  5.0 points / Ang**2.
                        Smoothing algorithm: York/Karplus (Gamma=1.0000).
                        Polarization charges: spherical gaussians, with
                                              point-specific exponents (IZeta= 3).
                        Self-potential: point-specific (ISelfS= 7).
                        Self-field    : sphere-specific E.n sum rule (ISelfD= 2).
 1st derivatives      : Analytical E(r).r(x)/FMM algorithm (CHGder, D1EAlg=3).
                        Cavity 1st derivative terms included.
 Solvent              : TetraHydroFuran, Eps=   7.425700 Eps(inf)=   1.974025
 ------------------------------------------------------------------------------
 GePol: Number of generator spheres                  =      34
 GePol: Total number of spheres                      =      34
 GePol: Number of exposed spheres                    =      34 (100.00%)
 GePol: Number of points                             =    2304
 GePol: Average weight of points                     =       0.13
 GePol: Minimum weight of points                     =   0.27D-11
 GePol: Maximum weight of points                     =    0.20577
 GePol: Number of points with low weight             =     149
 GePol: Fraction of low-weight points (<1% of avg)   =       6.47%
 GePol: Cavity surface area                          =    296.888 Ang**2
 GePol: Cavity volume                                =    318.827 Ang**3
 Leave Link  301 at Fri May 24 08:32:18 2019, MaxMem=   402653184 cpu:               1.1 elap:               0.5
 (Enter /n/sw/g16_nehalem/g16/l302.exe)
 NPDir=0 NMtPBC=     1 NCelOv=     1 NCel=       1 NClECP=     1 NCelD=      1
         NCelK=      1 NCelE2=     1 NClLst=     1 CellRange=     0.0.
 One-electron integrals computed using PRISM.
 One-electron integral symmetry used in STVInt
 NBasis=   263 RedAO= T EigKep=  1.55D-03  NBF=   263
 NBsUse=   263 1.00D-06 EigRej= -1.00D+00 NBFU=   263
 Precomputing XC quadrature grid using
 IXCGrd= 4 IRadAn=           5 IRanWt=          -1 IRanGd=           0 AccXCQ= 0.00D+00.
 Generated NRdTot=       0 NPtTot=           0 NUsed=           0 NTot=          32
 NSgBfM=   262   262   262   262   262 MxSgAt=    34 MxSgA2=    34.
 Leave Link  302 at Fri May 24 08:32:19 2019, MaxMem=   402653184 cpu:               7.1 elap:               1.8
 (Enter /n/sw/g16_nehalem/g16/l303.exe)
 DipDrv:  MaxL=1.
 Leave Link  303 at Fri May 24 08:32:20 2019, MaxMem=   402653184 cpu:               1.2 elap:               0.5
 (Enter /n/sw/g16_nehalem/g16/l401.exe)
 ExpMin= 1.61D-01 ExpMax= 5.48D+03 ExpMxC= 8.25D+02 IAcc=3 IRadAn=         5 AccDes= 0.00D+00
 Harris functional with IExCor=  402 and IRadAn=       5 diagonalized for initial guess.
 HarFok:  IExCor=  402 AccDes= 0.00D+00 IRadAn=         5 IDoV= 1 UseB2=F ITyADJ=14
 ICtDFT=  3500011 ScaDFX=  1.000000  1.000000  1.000000  1.000000
 FoFCou: FMM=F IPFlag=           0 FMFlag=      100000 FMFlg1=           0
         NFxFlg=           0 DoJE=T BraDBF=F KetDBF=T FulRan=T
         wScrn=  0.000000 ICntrl=       500 IOpCl=  0 I1Cent=   200000004 NGrid=           0
         NMat0=    1 NMatS0=      1 NMatT0=    0 NMatD0=    1 NMtDS0=    0 NMtDT0=    0
 Petite list used in FoFCou.
 Harris En= -768.258307953789    
 JPrj=0 DoOrth=F DoCkMO=F.
 Leave Link  401 at Fri May 24 08:32:31 2019, MaxMem=   402653184 cpu:              45.6 elap:              11.5
 (Enter /n/sw/g16_nehalem/g16/l502.exe)
 Integral symmetry usage will be decided dynamically.
 Closed shell SCF:
 Using DIIS extrapolation, IDIIS=  1040.
 NGot=   402653184 LenX=   402510103 LenY=   402440493
 Requested convergence on RMS density matrix=1.00D-08 within 128 cycles.
 Requested convergence on MAX density matrix=1.00D-06.
 Requested convergence on             energy=1.00D-06.
 No special actions if energy rises.
 Fock matrices will be formed incrementally for  20 cycles.

 Cycle   1  Pass 1  IDiag  1:
 FoFJK:  IHMeth= 1 ICntrl=       0 DoSepK=F KAlg= 0 I1Cent=           0 FoldK=F
 IRaf= 890000000 NMat=       1 IRICut=       1 DoRegI=T DoRafI=F ISym2E= 0 IDoP0=0 IntGTp=1.
 FoFCou: FMM=F IPFlag=           0 FMFlag=      100000 FMFlg1=           0
         NFxFlg=           0 DoJE=F BraDBF=F KetDBF=F FulRan=T
         wScrn=  0.000000 ICntrl=         0 IOpCl=  0 I1Cent=           0 NGrid=           0
         NMat0=    1 NMatS0=      1 NMatT0=    0 NMatD0=    1 NMtDS0=    0 NMtDT0=    0
 Symmetry not used in FoFCou.
 Inv3:  Mode=1 IEnd=    15925248.
 Iteration    1 A*A^-1 deviation from unit magnitude is 5.33D-15 for   2281.
 Iteration    1 A*A^-1 deviation from orthogonality  is 2.59D-15 for   2198    381.
 Iteration    1 A^-1*A deviation from unit magnitude is 5.33D-15 for   2281.
 Iteration    1 A^-1*A deviation from orthogonality  is 1.67D-15 for   1940    848.
 E= -768.092783847367    
 DIIS: error= 2.02D-02 at cycle   1 NSaved=   1.
 NSaved= 1 IEnMin= 1 EnMin= -768.092783847367     IErMin= 1 ErrMin= 2.02D-02
 ErrMax= 2.02D-02  0.00D+00 EMaxC= 1.00D-01 BMatC= 2.53D-01 BMatP= 2.53D-01
 IDIUse=3 WtCom= 7.98D-01 WtEn= 2.02D-01
 Coeff-Com:  0.100D+01
 Coeff-En:   0.100D+01
 Coeff:      0.100D+01
 Gap=     0.010 Goal=   None    Shift=    0.000
 GapD=    0.010 DampG=0.250 DampE=0.500 DampFc=0.2500 IDamp=-1.
 Damping current iteration by 2.50D-01
 RMSDP=4.85D-03 MaxDP=1.45D-01              OVMax= 4.89D-01

 Cycle   2  Pass 1  IDiag  1:
 RMSU=  1.21D-03    CP:  9.94D-01
 E= -768.163990238482     Delta-E=       -0.071206391115 Rises=F Damp=T
 DIIS: error= 9.74D-03 at cycle   2 NSaved=   2.
 NSaved= 2 IEnMin= 2 EnMin= -768.163990238482     IErMin= 2 ErrMin= 9.74D-03
 ErrMax= 9.74D-03  0.00D+00 EMaxC= 1.00D-01 BMatC= 6.91D-02 BMatP= 2.53D-01
 IDIUse=3 WtCom= 9.03D-01 WtEn= 9.74D-02
 Coeff-Com: -0.672D+00 0.167D+01
 Coeff-En:   0.000D+00 0.100D+01
 Coeff:     -0.606D+00 0.161D+01
 Gap=     0.099 Goal=   None    Shift=    0.000
 RMSDP=1.49D-03 MaxDP=3.49D-02 DE=-7.12D-02 OVMax= 3.55D-01

 Cycle   3  Pass 1  IDiag  1:
 RMSU=  1.47D-03    CP:  9.86D-01  1.14D+00
 E= -768.284344274322     Delta-E=       -0.120354035841 Rises=F Damp=F
 DIIS: error= 7.69D-03 at cycle   3 NSaved=   3.
 NSaved= 3 IEnMin= 3 EnMin= -768.284344274322     IErMin= 3 ErrMin= 7.69D-03
 ErrMax= 7.69D-03  0.00D+00 EMaxC= 1.00D-01 BMatC= 5.07D-02 BMatP= 6.91D-02
 IDIUse=3 WtCom= 9.23D-01 WtEn= 7.69D-02
 Coeff-Com: -0.517D+00 0.105D+01 0.469D+00
 Coeff-En:   0.000D+00 0.000D+00 0.100D+01
 Coeff:     -0.477D+00 0.967D+00 0.510D+00
 Gap=     0.142 Goal=   None    Shift=    0.000
 RMSDP=9.12D-04 MaxDP=3.53D-02 DE=-1.20D-01 OVMax= 5.15D-02

 Cycle   4  Pass 1  IDiag  1:
 RMSU=  6.49D-04    CP:  9.89D-01  1.36D+00  6.06D-01
 E= -768.326241870512     Delta-E=       -0.041897596190 Rises=F Damp=F
 DIIS: error= 1.98D-03 at cycle   4 NSaved=   4.
 NSaved= 4 IEnMin= 4 EnMin= -768.326241870512     IErMin= 4 ErrMin= 1.98D-03
 ErrMax= 1.98D-03  0.00D+00 EMaxC= 1.00D-01 BMatC= 3.21D-03 BMatP= 5.07D-02
 IDIUse=3 WtCom= 9.80D-01 WtEn= 1.98D-02
 Coeff-Com: -0.229D+00 0.388D+00 0.209D+00 0.633D+00
 Coeff-En:   0.000D+00 0.000D+00 0.000D+00 0.100D+01
 Coeff:     -0.225D+00 0.380D+00 0.204D+00 0.640D+00
 Gap=     0.129 Goal=   None    Shift=    0.000
 RMSDP=2.34D-04 MaxDP=1.04D-02 DE=-4.19D-02 OVMax= 1.30D-02

 Cycle   5  Pass 1  IDiag  1:
 RMSU=  2.05D-04    CP:  9.89D-01  1.39D+00  6.61D-01  8.94D-01
 E= -768.328383416092     Delta-E=       -0.002141545579 Rises=F Damp=F
 DIIS: error= 1.32D-03 at cycle   5 NSaved=   5.
 NSaved= 5 IEnMin= 5 EnMin= -768.328383416092     IErMin= 5 ErrMin= 1.32D-03
 ErrMax= 1.32D-03  0.00D+00 EMaxC= 1.00D-01 BMatC= 9.74D-04 BMatP= 3.21D-03
 IDIUse=3 WtCom= 9.87D-01 WtEn= 1.32D-02
 Coeff-Com: -0.947D-01 0.140D+00 0.351D-01 0.354D+00 0.565D+00
 Coeff-En:   0.000D+00 0.000D+00 0.000D+00 0.133D+00 0.867D+00
 Coeff:     -0.934D-01 0.138D+00 0.346D-01 0.351D+00 0.569D+00
 Gap=     0.129 Goal=   None    Shift=    0.000
 RMSDP=9.98D-05 MaxDP=4.66D-03 DE=-2.14D-03 OVMax= 4.39D-03

 Cycle   6  Pass 1  IDiag  1:
 RMSU=  7.05D-05    CP:  9.89D-01  1.41D+00  6.55D-01  9.78D-01  8.08D-01
 E= -768.329026677682     Delta-E=       -0.000643261590 Rises=F Damp=F
 DIIS: error= 4.44D-04 at cycle   6 NSaved=   6.
 NSaved= 6 IEnMin= 6 EnMin= -768.329026677682     IErMin= 6 ErrMin= 4.44D-04
 ErrMax= 4.44D-04  0.00D+00 EMaxC= 1.00D-01 BMatC= 1.24D-04 BMatP= 9.74D-04
 IDIUse=3 WtCom= 9.96D-01 WtEn= 4.44D-03
 Coeff-Com: -0.343D-01 0.436D-01-0.145D-01 0.135D+00 0.341D+00 0.530D+00
 Coeff-En:   0.000D+00 0.000D+00 0.000D+00 0.000D+00 0.000D+00 0.100D+01
 Coeff:     -0.342D-01 0.434D-01-0.144D-01 0.134D+00 0.339D+00 0.532D+00
 Gap=     0.128 Goal=   None    Shift=    0.000
 RMSDP=3.75D-05 MaxDP=1.81D-03 DE=-6.43D-04 OVMax= 2.22D-03

 Cycle   7  Pass 1  IDiag  1:
 RMSU=  2.66D-05    CP:  9.89D-01  1.41D+00  6.52D-01  1.01D+00  8.72D-01
                    CP:  8.41D-01
 E= -768.329123381376     Delta-E=       -0.000096703694 Rises=F Damp=F
 DIIS: error= 1.47D-04 at cycle   7 NSaved=   7.
 NSaved= 7 IEnMin= 7 EnMin= -768.329123381376     IErMin= 7 ErrMin= 1.47D-04
 ErrMax= 1.47D-04  0.00D+00 EMaxC= 1.00D-01 BMatC= 1.34D-05 BMatP= 1.24D-04
 IDIUse=3 WtCom= 9.99D-01 WtEn= 1.47D-03
 Coeff-Com: -0.854D-02 0.856D-02-0.171D-01 0.278D-01 0.120D+00 0.298D+00
 Coeff-Com:  0.571D+00
 Coeff-En:   0.000D+00 0.000D+00 0.000D+00 0.000D+00 0.000D+00 0.000D+00
 Coeff-En:   0.100D+01
 Coeff:     -0.852D-02 0.855D-02-0.170D-01 0.277D-01 0.120D+00 0.298D+00
 Coeff:      0.572D+00
 Gap=     0.127 Goal=   None    Shift=    0.000
 RMSDP=1.54D-05 MaxDP=6.87D-04 DE=-9.67D-05 OVMax= 1.01D-03

 Cycle   8  Pass 1  IDiag  1:
 RMSU=  9.13D-06    CP:  9.89D-01  1.42D+00  6.51D-01  1.02D+00  9.02D-01
                    CP:  9.06D-01  8.15D-01
 E= -768.329135185712     Delta-E=       -0.000011804335 Rises=F Damp=F
 DIIS: error= 4.06D-05 at cycle   8 NSaved=   8.
 NSaved= 8 IEnMin= 8 EnMin= -768.329135185712     IErMin= 8 ErrMin= 4.06D-05
 ErrMax= 4.06D-05  0.00D+00 EMaxC= 1.00D-01 BMatC= 1.05D-06 BMatP= 1.34D-05
 IDIUse=1 WtCom= 1.00D+00 WtEn= 0.00D+00
 Coeff-Com:  0.135D-03-0.741D-03-0.551D-02-0.815D-02-0.146D-02 0.391D-01
 Coeff-Com:  0.247D+00 0.729D+00
 Coeff:      0.135D-03-0.741D-03-0.551D-02-0.815D-02-0.146D-02 0.391D-01
 Coeff:      0.247D+00 0.729D+00
 Gap=     0.127 Goal=   None    Shift=    0.000
 RMSDP=6.07D-06 MaxDP=1.77D-04 DE=-1.18D-05 OVMax= 8.48D-04

 Cycle   9  Pass 1  IDiag  1:
 RMSU=  3.35D-06    CP:  9.89D-01  1.42D+00  6.51D-01  1.02D+00  9.13D-01
                    CP:  9.36D-01  9.04D-01  9.72D-01
 E= -768.329136168820     Delta-E=       -0.000000983108 Rises=F Damp=F
 DIIS: error= 1.11D-05 at cycle   9 NSaved=   9.
 NSaved= 9 IEnMin= 9 EnMin= -768.329136168820     IErMin= 9 ErrMin= 1.11D-05
 ErrMax= 1.11D-05  0.00D+00 EMaxC= 1.00D-01 BMatC= 1.47D-07 BMatP= 1.05D-06
 IDIUse=1 WtCom= 1.00D+00 WtEn= 0.00D+00
 Coeff-Com:  0.435D-03-0.604D-03-0.151D-02-0.585D-02-0.989D-02-0.354D-02
 Coeff-Com:  0.814D-01 0.396D+00 0.543D+00
 Coeff:      0.435D-03-0.604D-03-0.151D-02-0.585D-02-0.989D-02-0.354D-02
 Coeff:      0.814D-01 0.396D+00 0.543D+00
 Gap=     0.127 Goal=   None    Shift=    0.000
 RMSDP=1.81D-06 MaxDP=4.55D-05 DE=-9.83D-07 OVMax= 2.10D-04

 Cycle  10  Pass 1  IDiag  1:
 RMSU=  1.15D-06    CP:  9.89D-01  1.41D+00  6.52D-01  1.02D+00  9.15D-01
                    CP:  9.46D-01  9.24D-01  1.02D+00  7.73D-01
 E= -768.329136304302     Delta-E=       -0.000000135482 Rises=F Damp=F
 DIIS: error= 2.17D-06 at cycle  10 NSaved=  10.
 NSaved=10 IEnMin=10 EnMin= -768.329136304302     IErMin=10 ErrMin= 2.17D-06
 ErrMax= 2.17D-06  0.00D+00 EMaxC= 1.00D-01 BMatC= 5.35D-09 BMatP= 1.47D-07
 IDIUse=1 WtCom= 1.00D+00 WtEn= 0.00D+00
 Coeff-Com:  0.229D-03-0.281D-03-0.332D-05-0.120D-02-0.361D-02-0.539D-02
 Coeff-Com: -0.338D-02 0.423D-01 0.155D+00 0.817D+00
 Coeff:      0.229D-03-0.281D-03-0.332D-05-0.120D-02-0.361D-02-0.539D-02
 Coeff:     -0.338D-02 0.423D-01 0.155D+00 0.817D+00
 Gap=     0.127 Goal=   None    Shift=    0.000
 RMSDP=7.14D-07 MaxDP=1.40D-05 DE=-1.35D-07 OVMax= 1.04D-04

 Cycle  11  Pass 1  IDiag  1:
 RMSU=  2.60D-07    CP:  9.89D-01  1.41D+00  6.52D-01  1.02D+00  9.16D-01
                    CP:  9.49D-01  9.32D-01  1.05D+00  8.31D-01  9.95D-01
 E= -768.329136312578     Delta-E=       -0.000000008277 Rises=F Damp=F
 DIIS: error= 1.05D-06 at cycle  11 NSaved=  11.
 NSaved=11 IEnMin=11 EnMin= -768.329136312578     IErMin=11 ErrMin= 1.05D-06
 ErrMax= 1.05D-06  0.00D+00 EMaxC= 1.00D-01 BMatC= 8.10D-10 BMatP= 5.35D-09
 IDIUse=1 WtCom= 1.00D+00 WtEn= 0.00D+00
 Coeff-Com:  0.601D-04-0.676D-04 0.804D-04-0.144D-03-0.101D-02-0.188D-02
 Coeff-Com: -0.626D-02-0.201D-02 0.388D-01 0.381D+00 0.592D+00
 Coeff:      0.601D-04-0.676D-04 0.804D-04-0.144D-03-0.101D-02-0.188D-02
 Coeff:     -0.626D-02-0.201D-02 0.388D-01 0.381D+00 0.592D+00
 Gap=     0.127 Goal=   None    Shift=    0.000
 RMSDP=1.73D-07 MaxDP=5.63D-06 DE=-8.28D-09 OVMax= 2.18D-05

 Cycle  12  Pass 1  IDiag  1:
 RMSU=  1.08D-07    CP:  9.89D-01  1.41D+00  6.52D-01  1.02D+00  9.16D-01
                    CP:  9.50D-01  9.32D-01  1.06D+00  8.49D-01  1.03D+00
                    CP:  7.68D-01
 E= -768.329136313375     Delta-E=       -0.000000000797 Rises=F Damp=F
 DIIS: error= 4.13D-07 at cycle  12 NSaved=  12.
 NSaved=12 IEnMin=12 EnMin= -768.329136313375     IErMin=12 ErrMin= 4.13D-07
 ErrMax= 4.13D-07  0.00D+00 EMaxC= 1.00D-01 BMatC= 1.11D-10 BMatP= 8.10D-10
 IDIUse=1 WtCom= 1.00D+00 WtEn= 0.00D+00
 Coeff-Com:  0.807D-05-0.934D-05 0.412D-04 0.100D-03 0.253D-04-0.340D-04
 Coeff-Com: -0.303D-02-0.873D-02-0.843D-02 0.465D-01 0.284D+00 0.689D+00
 Coeff:      0.807D-05-0.934D-05 0.412D-04 0.100D-03 0.253D-04-0.340D-04
 Coeff:     -0.303D-02-0.873D-02-0.843D-02 0.465D-01 0.284D+00 0.689D+00
 Gap=     0.127 Goal=   None    Shift=    0.000
 RMSDP=6.77D-08 MaxDP=1.86D-06 DE=-7.97D-10 OVMax= 8.45D-06

 Cycle  13  Pass 1  IDiag  1:
 RMSU=  2.56D-08    CP:  9.89D-01  1.41D+00  6.52D-01  1.02D+00  9.16D-01
                    CP:  9.50D-01  9.33D-01  1.06D+00  8.52D-01  1.05D+00
                    CP:  8.81D-01  8.44D-01
 E= -768.329136313512     Delta-E=       -0.000000000137 Rises=F Damp=F
 DIIS: error= 7.30D-08 at cycle  13 NSaved=  13.
 NSaved=13 IEnMin=13 EnMin= -768.329136313512     IErMin=13 ErrMin= 7.30D-08
 ErrMax= 7.30D-08  0.00D+00 EMaxC= 1.00D-01 BMatC= 3.65D-12 BMatP= 1.11D-10
 IDIUse=1 WtCom= 1.00D+00 WtEn= 0.00D+00
 Coeff-Com: -0.192D-05 0.244D-05 0.101D-04 0.492D-04 0.768D-04 0.130D-03
 Coeff-Com: -0.697D-03-0.282D-02-0.534D-02-0.518D-02 0.669D-01 0.234D+00
 Coeff-Com:  0.713D+00
 Coeff:     -0.192D-05 0.244D-05 0.101D-04 0.492D-04 0.768D-04 0.130D-03
 Coeff:     -0.697D-03-0.282D-02-0.534D-02-0.518D-02 0.669D-01 0.234D+00
 Coeff:      0.713D+00
 Gap=     0.127 Goal=   None    Shift=    0.000
 RMSDP=1.18D-08 MaxDP=5.21D-07 DE=-1.37D-10 OVMax= 1.07D-06

 Cycle  14  Pass 1  IDiag  1:
 RMSU=  9.07D-09    CP:  9.89D-01  1.41D+00  6.52D-01  1.02D+00  9.16D-01
                    CP:  9.50D-01  9.33D-01  1.06D+00  8.53D-01  1.05D+00
                    CP:  8.94D-01  8.85D-01  9.85D-01
 E= -768.329136313496     Delta-E=        0.000000000015 Rises=F Damp=F
 DIIS: error= 2.90D-08 at cycle  14 NSaved=  14.
 NSaved=14 IEnMin=13 EnMin= -768.329136313512     IErMin=14 ErrMin= 2.90D-08
 ErrMax= 2.90D-08  0.00D+00 EMaxC= 1.00D-01 BMatC= 7.65D-13 BMatP= 3.65D-12
 IDIUse=1 WtCom= 1.00D+00 WtEn= 0.00D+00
 Coeff-Com: -0.121D-05 0.141D-05-0.132D-05 0.439D-05 0.216D-04 0.533D-04
 Coeff-Com:  0.112D-03 0.827D-04-0.104D-02-0.731D-02-0.689D-02 0.120D-01
 Coeff-Com:  0.341D+00 0.662D+00
 Coeff:     -0.121D-05 0.141D-05-0.132D-05 0.439D-05 0.216D-04 0.533D-04
 Coeff:      0.112D-03 0.827D-04-0.104D-02-0.731D-02-0.689D-02 0.120D-01
 Coeff:      0.341D+00 0.662D+00
 Gap=     0.127 Goal=   None    Shift=    0.000
 RMSDP=4.48D-09 MaxDP=1.28D-07 DE= 1.55D-11 OVMax= 4.39D-07

 Error on total polarization charges =  0.01209
 SCF Done:  E(RB3LYP) =  -768.329136313     A.U. after   14 cycles
            NFock= 14  Conv=0.45D-08     -V/T= 2.0091
 KE= 7.613940364513D+02 PE=-4.131095841394D+03 EE= 1.423235806937D+03
 Leave Link  502 at Fri May 24 08:38:09 2019, MaxMem=   402653184 cpu:            1350.6 elap:             337.9
 (Enter /n/sw/g16_nehalem/g16/l601.exe)
 Copying SCF densities to generalized density rwf, IOpCl= 0 IROHF=0.

 **********************************************************************

            Population analysis using the SCF density.

 **********************************************************************

 Orbital symmetries:
       Occupied  (A) (A) (A) (A) (A) (A) (A) (A) (A) (A) (A) (A)
                 (A) (A) (A) (A) (A) (A) (A) (A) (A) (A) (A) (A)
                 (A) (A) (A) (A) (A) (A) (A) (A) (A) (A) (A) (A)
                 (A) (A) (A) (A) (A) (A) (A) (A) (A) (A) (A) (A)
                 (A) (A) (A) (A) (A) (A) (A) (A) (A) (A) (A)
       Virtual   (A) (A) (A) (A) (A) (A) (A) (A) (A) (A) (A) (A)
                 (A) (A) (A) (A) (A) (A) (A) (A) (A) (A) (A) (A)
                 (A) (A) (A) (A) (A) (A) (A) (A) (A) (A) (A) (A)
                 (A) (A) (A) (A) (A) (A) (A) (A) (A) (A) (A) (A)
                 (A) (A) (A) (A) (A) (A) (A) (A) (A) (A) (A) (A)
                 (A) (A) (A) (A) (A) (A) (A) (A) (A) (A) (A) (A)
                 (A) (A) (A) (A) (A) (A) (A) (A) (A) (A) (A) (A)
                 (A) (A) (A) (A) (A) (A) (A) (A) (A) (A) (A) (A)
                 (A) (A) (A) (A) (A) (A) (A) (A) (A) (A) (A) (A)
                 (A) (A) (A) (A) (A) (A) (A) (A) (A) (A) (A) (A)
                 (A) (A) (A) (A) (A) (A) (A) (A) (A) (A) (A) (A)
                 (A) (A) (A) (A) (A) (A) (A) (A) (A) (A) (A) (A)
                 (A) (A) (A) (A) (A) (A) (A) (A) (A) (A) (A) (A)
                 (A) (A) (A) (A) (A) (A) (A) (A) (A) (A) (A) (A)
                 (A) (A) (A) (A) (A) (A) (A) (A) (A) (A) (A) (A)
                 (A) (A) (A) (A) (A) (A) (A) (A) (A) (A) (A) (A)
                 (A) (A) (A) (A) (A) (A) (A) (A) (A) (A) (A) (A)
 The electronic state is 1-A.
 Alpha  occ. eigenvalues --  -19.32688 -19.20591 -19.19897 -19.19744 -19.18883
 Alpha  occ. eigenvalues --  -10.39342 -10.32172 -10.31480 -10.29864 -10.29628
 Alpha  occ. eigenvalues --  -10.28468 -10.25804 -10.25419 -10.25362 -10.24682
 Alpha  occ. eigenvalues --   -1.21467  -1.09643  -1.07989  -1.07676  -1.06467
 Alpha  occ. eigenvalues --   -0.87208  -0.85583  -0.77825  -0.74945  -0.74646
 Alpha  occ. eigenvalues --   -0.71289  -0.69643  -0.67809  -0.65766  -0.61917
 Alpha  occ. eigenvalues --   -0.59793  -0.58831  -0.56444  -0.54143  -0.54035
 Alpha  occ. eigenvalues --   -0.52625  -0.52086  -0.51260  -0.50413  -0.48862
 Alpha  occ. eigenvalues --   -0.48293  -0.47722  -0.46945  -0.45764  -0.45367
 Alpha  occ. eigenvalues --   -0.43822  -0.43627  -0.43146  -0.41665  -0.40654
 Alpha  occ. eigenvalues --   -0.40016  -0.37041  -0.36590  -0.35667  -0.34840
 Alpha  occ. eigenvalues --   -0.32747  -0.31259  -0.30146  -0.27624
 Alpha virt. eigenvalues --   -0.14891   0.00198   0.04288   0.05279   0.06045
 Alpha virt. eigenvalues --    0.07225   0.07941   0.08898   0.09252   0.10222
 Alpha virt. eigenvalues --    0.10847   0.12215   0.12320   0.13058   0.13485
 Alpha virt. eigenvalues --    0.13612   0.14049   0.14672   0.14977   0.15547
 Alpha virt. eigenvalues --    0.15720   0.16207   0.16533   0.17097   0.17429
 Alpha virt. eigenvalues --    0.18477   0.19023   0.19574   0.21713   0.22610
 Alpha virt. eigenvalues --    0.23807   0.24811   0.26104   0.27574   0.29661
 Alpha virt. eigenvalues --    0.44693   0.45634   0.45872   0.47166   0.47909
 Alpha virt. eigenvalues --    0.48188   0.49092   0.49600   0.51166   0.52216
 Alpha virt. eigenvalues --    0.53329   0.53446   0.53961   0.54398   0.55100
 Alpha virt. eigenvalues --    0.55537   0.58362   0.60259   0.61582   0.62576
 Alpha virt. eigenvalues --    0.63073   0.65837   0.66927   0.68937   0.70466
 Alpha virt. eigenvalues --    0.73353   0.74363   0.76316   0.77276   0.77979
 Alpha virt. eigenvalues --    0.78927   0.79528   0.80243   0.81089   0.81764
 Alpha virt. eigenvalues --    0.82819   0.83824   0.84077   0.84794   0.85858
 Alpha virt. eigenvalues --    0.86512   0.86681   0.87092   0.87903   0.89379
 Alpha virt. eigenvalues --    0.90646   0.92789   0.93143   0.93896   0.94526
 Alpha virt. eigenvalues --    0.95158   0.95989   0.98326   1.00783   1.01890
 Alpha virt. eigenvalues --    1.04492   1.06423   1.07307   1.10563   1.12225
 Alpha virt. eigenvalues --    1.15023   1.15289   1.17470   1.18480   1.21329
 Alpha virt. eigenvalues --    1.24738   1.26518   1.29092   1.30975   1.32716
 Alpha virt. eigenvalues --    1.34628   1.35306   1.38454   1.38875   1.42049
 Alpha virt. eigenvalues --    1.43023   1.44513   1.46495   1.47410   1.48681
 Alpha virt. eigenvalues --    1.51249   1.53308   1.56422   1.59282   1.61405
 Alpha virt. eigenvalues --    1.62168   1.64713   1.67292   1.69271   1.72147
 Alpha virt. eigenvalues --    1.74419   1.75320   1.75663   1.77473   1.81120
 Alpha virt. eigenvalues --    1.82499   1.83718   1.84357   1.89399   1.91920
 Alpha virt. eigenvalues --    1.92608   1.94191   1.95139   1.96001   2.00930
 Alpha virt. eigenvalues --    2.01361   2.02080   2.02422   2.03252   2.04529
 Alpha virt. eigenvalues --    2.06054   2.07164   2.07583   2.10479   2.11153
 Alpha virt. eigenvalues --    2.11184   2.13166   2.14428   2.16293   2.17236
 Alpha virt. eigenvalues --    2.19172   2.22363   2.22993   2.24003   2.25884
 Alpha virt. eigenvalues --    2.28499   2.29694   2.30644   2.34118   2.35338
 Alpha virt. eigenvalues --    2.36843   2.38908   2.41362   2.43170   2.47076
 Alpha virt. eigenvalues --    2.52080   2.53285   2.55368   2.58413   2.59383
 Alpha virt. eigenvalues --    2.60777   2.66453   2.67372   2.73218   2.75185
 Alpha virt. eigenvalues --    2.78114   2.80193   2.85863   2.90578   2.90833
 Alpha virt. eigenvalues --    2.95741   2.96215   3.00873   3.07284   3.86507
 Alpha virt. eigenvalues --    3.89939   3.91657   4.04602   4.08070   4.14268
 Alpha virt. eigenvalues --    4.21802   4.22442   4.23574   4.26206   4.33278
 Alpha virt. eigenvalues --    4.41341   4.46786   4.50174   4.73045
          Condensed to atoms (all electrons):
               1          2          3          4          5          6
     1  C    5.032842   0.210597  -0.035251  -0.030830   0.283905   0.002834
     2  C    0.210597   5.168360   0.275786  -0.002215  -0.033561  -0.040383
     3  C   -0.035251   0.275786   4.861024  -0.039922  -0.006296   0.360549
     4  C   -0.030830  -0.002215  -0.039922   5.103715   0.287057   0.003187
     5  C    0.283905  -0.033561  -0.006296   0.287057   5.019059  -0.000398
     6  H    0.002834  -0.040383   0.360549   0.003187  -0.000398   0.422952
     7  H   -0.030865   0.354032  -0.042264  -0.000482  -0.005020   0.001922
     8  H    0.377196  -0.042977  -0.003784  -0.000873  -0.049384   0.000100
     9  H    0.000927  -0.000109   0.002263   0.361267  -0.035090  -0.000104
    10  H   -0.046186  -0.001258  -0.000149  -0.052816   0.360562   0.000006
    11  O    0.000332  -0.026528   0.362271   0.135979  -0.028419  -0.033206
    12  O   -0.028752   0.226735  -0.031216   0.000044   0.002381   0.002798
    13  O    0.252871  -0.037890   0.002592   0.002464  -0.034696  -0.000043
    14  O   -0.040199   0.002833   0.000088  -0.037487   0.202269   0.000003
    15  C    0.000571   0.000993  -0.003045   0.338539  -0.024923  -0.000246
    16  H    0.000332  -0.000143   0.000337  -0.035805  -0.005288   0.000007
    17  H   -0.000274   0.000063  -0.000458  -0.028205   0.004936  -0.000049
    18  O   -0.001219  -0.010492   0.011069  -0.051772  -0.001212   0.000095
    19  C   -0.002834  -0.046256  -0.004456   0.000003   0.000125   0.000590
    20  H    0.000026   0.004959  -0.000093   0.000000  -0.000002  -0.000086
    21  H    0.005608  -0.009165  -0.000496  -0.000004   0.000137   0.000123
    22  H   -0.002142  -0.003661   0.005796  -0.000013   0.000014   0.000202
    23  C   -0.041426  -0.004664   0.000263   0.000253  -0.007363  -0.000001
    24  H   -0.010657   0.007125   0.000106   0.000041  -0.000501   0.000007
    25  H   -0.003615  -0.001953   0.000076  -0.000511   0.003692   0.000000
    26  H    0.005189  -0.000005  -0.000006   0.000000   0.000008   0.000000
    27  C   -0.002570   0.000113  -0.000013   0.005182  -0.034944   0.000000
    28  H   -0.000086   0.000007   0.000000  -0.000115   0.004558   0.000000
    29  H    0.002179  -0.000058  -0.000004  -0.000076  -0.003522   0.000000
    30  H   -0.000890   0.000035  -0.000001  -0.000185  -0.008449   0.000000
    31  C    0.000002   0.000308  -0.000284   0.005477   0.000065   0.000000
    32  H   -0.000005  -0.000012  -0.000056   0.000057   0.000037  -0.000001
    33  H    0.000004   0.000064   0.000010  -0.000249  -0.000008   0.000000
    34  H    0.000002  -0.000021   0.000027  -0.000083  -0.000058   0.000000
               7          8          9         10         11         12
     1  C   -0.030865   0.377196   0.000927  -0.046186   0.000332  -0.028752
     2  C    0.354032  -0.042977  -0.000109  -0.001258  -0.026528   0.226735
     3  C   -0.042264  -0.003784   0.002263  -0.000149   0.362271  -0.031216
     4  C   -0.000482  -0.000873   0.361267  -0.052816   0.135979   0.000044
     5  C   -0.005020  -0.049384  -0.035090   0.360562  -0.028419   0.002381
     6  H    0.001922   0.000100  -0.000104   0.000006  -0.033206   0.002798
     7  H    0.463334   0.004096   0.000003   0.003557  -0.000368  -0.031723
     8  H    0.004096   0.547314   0.000214   0.005577   0.001493  -0.003340
     9  H    0.000003   0.000214   0.456531   0.004034  -0.023575   0.000002
    10  H    0.003557   0.005577   0.004034   0.557310   0.002018  -0.000060
    11  O   -0.000368   0.001493  -0.023575   0.002018   7.951860   0.001685
    12  O   -0.031723  -0.003340   0.000002  -0.000060   0.001685   8.195797
    13  O   -0.004406  -0.042699  -0.000044  -0.004292   0.000020   0.003911
    14  O    0.000016   0.004136   0.008759  -0.034215   0.000696  -0.000008
    15  C   -0.001269   0.000134  -0.026713   0.000029  -0.039259  -0.000016
    16  H    0.000074  -0.000006   0.001315  -0.001166   0.002807   0.000000
    17  H    0.000177   0.000005  -0.002033   0.000688  -0.001530   0.000000
    18  O    0.020591  -0.000017   0.002271   0.007605  -0.001641   0.000061
    19  C    0.004504   0.005133   0.000000   0.000000   0.000012   0.230627
    20  H   -0.000115  -0.000027   0.000000   0.000000   0.000001  -0.030076
    21  H   -0.000117  -0.002476   0.000000  -0.000005   0.000026  -0.032760
    22  H   -0.000251   0.000221   0.000000  -0.000001  -0.000389  -0.036252
    23  C    0.005307   0.005644  -0.000004   0.002845   0.000002  -0.004133
    24  H    0.000201  -0.000077   0.000000  -0.000138  -0.000004   0.006459
    25  H   -0.000756  -0.000336   0.000005   0.004880  -0.000005   0.000296
    26  H   -0.000078  -0.000129   0.000000  -0.000074   0.000000   0.000006
    27  C   -0.000008  -0.000064  -0.000119  -0.005903  -0.000049   0.000000
    28  H    0.000000  -0.000046  -0.000100  -0.000034   0.000000   0.000000
    29  H    0.000000  -0.000346   0.000047  -0.001307   0.000004   0.000001
    30  H    0.000002   0.000184   0.000093   0.012162  -0.000002   0.000000
    31  C   -0.000559   0.000001  -0.000134  -0.000175   0.000041  -0.000002
    32  H    0.000087   0.000000   0.000004   0.000038   0.000011   0.000000
    33  H   -0.000243   0.000000   0.000002   0.000004   0.000000  -0.000001
    34  H    0.000068   0.000000   0.000009  -0.000083  -0.000001   0.000000
              13         14         15         16         17         18
     1  C    0.252871  -0.040199   0.000571   0.000332  -0.000274  -0.001219
     2  C   -0.037890   0.002833   0.000993  -0.000143   0.000063  -0.010492
     3  C    0.002592   0.000088  -0.003045   0.000337  -0.000458   0.011069
     4  C    0.002464  -0.037487   0.338539  -0.035805  -0.028205  -0.051772
     5  C   -0.034696   0.202269  -0.024923  -0.005288   0.004936  -0.001212
     6  H   -0.000043   0.000003  -0.000246   0.000007  -0.000049   0.000095
     7  H   -0.004406   0.000016  -0.001269   0.000074   0.000177   0.020591
     8  H   -0.042699   0.004136   0.000134  -0.000006   0.000005  -0.000017
     9  H   -0.000044   0.008759  -0.026713   0.001315  -0.002033   0.002271
    10  H   -0.004292  -0.034215   0.000029  -0.001166   0.000688   0.007605
    11  O    0.000020   0.000696  -0.039259   0.002807  -0.001530  -0.001641
    12  O    0.003911  -0.000008  -0.000016   0.000000   0.000000   0.000061
    13  O    8.188853   0.001237  -0.000019  -0.000001   0.000001   0.000005
    14  O    0.001237   8.252773   0.000757   0.000499  -0.000062   0.000097
    15  C   -0.000019   0.000757   4.892631   0.359927   0.357915   0.230664
    16  H   -0.000001   0.000499   0.359927   0.560124  -0.042614  -0.035989
    17  H    0.000001  -0.000062   0.357915  -0.042614   0.559879  -0.038732
    18  O    0.000005   0.000097   0.230664  -0.035989  -0.038732   8.221882
    19  C   -0.004927  -0.000002   0.000000   0.000000   0.000000  -0.000001
    20  H    0.000029   0.000000   0.000000   0.000000   0.000000   0.000000
    21  H    0.008314   0.000002   0.000000   0.000000   0.000000   0.000000
    22  H    0.000289   0.000000   0.000000   0.000000   0.000000   0.000000
    23  C    0.232399  -0.000049  -0.000004  -0.000001   0.000000  -0.000117
    24  H   -0.034260  -0.000003  -0.000001   0.000001   0.000000  -0.000023
    25  H   -0.035514   0.000026  -0.000017  -0.000004  -0.000001   0.000175
    26  H   -0.030651  -0.000003   0.000000   0.000000   0.000000   0.000001
    27  C   -0.002239   0.234993  -0.000267  -0.000038   0.000006   0.000009
    28  H    0.000173  -0.032397   0.000004  -0.000001   0.000000   0.000000
    29  H    0.008041  -0.034451  -0.000008   0.000006   0.000000   0.000000
    30  H    0.000104  -0.035240   0.000123   0.000026   0.000000  -0.000016
    31  C    0.000000  -0.000001  -0.039530  -0.003424  -0.004027   0.238572
    32  H    0.000000   0.000000  -0.006714  -0.001825   0.010244  -0.035263
    33  H    0.000000   0.000000   0.005316  -0.000125  -0.000109  -0.030794
    34  H    0.000000   0.000000  -0.006711   0.009577  -0.001958  -0.035326
              19         20         21         22         23         24
     1  C   -0.002834   0.000026   0.005608  -0.002142  -0.041426  -0.010657
     2  C   -0.046256   0.004959  -0.009165  -0.003661  -0.004664   0.007125
     3  C   -0.004456  -0.000093  -0.000496   0.005796   0.000263   0.000106
     4  C    0.000003   0.000000  -0.000004  -0.000013   0.000253   0.000041
     5  C    0.000125  -0.000002   0.000137   0.000014  -0.007363  -0.000501
     6  H    0.000590  -0.000086   0.000123   0.000202  -0.000001   0.000007
     7  H    0.004504  -0.000115  -0.000117  -0.000251   0.005307   0.000201
     8  H    0.005133  -0.000027  -0.002476   0.000221   0.005644  -0.000077
     9  H    0.000000   0.000000   0.000000   0.000000  -0.000004   0.000000
    10  H    0.000000   0.000000  -0.000005  -0.000001   0.002845  -0.000138
    11  O    0.000012   0.000001   0.000026  -0.000389   0.000002  -0.000004
    12  O    0.230627  -0.030076  -0.032760  -0.036252  -0.004133   0.006459
    13  O   -0.004927   0.000029   0.008314   0.000289   0.232399  -0.034260
    14  O   -0.000002   0.000000   0.000002   0.000000  -0.000049  -0.000003
    15  C    0.000000   0.000000   0.000000   0.000000  -0.000004  -0.000001
    16  H    0.000000   0.000000   0.000000   0.000000  -0.000001   0.000001
    17  H    0.000000   0.000000   0.000000   0.000000   0.000000   0.000000
    18  O   -0.000001   0.000000   0.000000   0.000000  -0.000117  -0.000023
    19  C    4.943587   0.387066   0.367907   0.362006   0.000535  -0.000410
    20  H    0.387066   0.497975  -0.027657  -0.027945   0.000010  -0.000039
    21  H    0.367907  -0.027657   0.546235  -0.041383  -0.000546  -0.000259
    22  H    0.362006  -0.027945  -0.041383   0.582106  -0.000022   0.000051
    23  C    0.000535   0.000010  -0.000546  -0.000022   4.946791   0.363917
    24  H   -0.000410  -0.000039  -0.000259   0.000051   0.363917   0.561988
    25  H   -0.000026   0.000000   0.000052   0.000001   0.359821  -0.041897
    26  H    0.000017  -0.000001  -0.000065   0.000000   0.386563  -0.027889
    27  C    0.000000   0.000000  -0.000001   0.000000   0.000347   0.000008
    28  H    0.000000   0.000000   0.000000   0.000000  -0.000006   0.000000
    29  H   -0.000001   0.000000   0.000006   0.000000  -0.000357   0.000066
    30  H    0.000000   0.000000   0.000000   0.000000  -0.000060   0.000004
    31  C    0.000000   0.000000   0.000000   0.000000   0.000005  -0.000001
    32  H    0.000000   0.000000   0.000000   0.000000   0.000000   0.000000
    33  H    0.000000   0.000000   0.000000   0.000000   0.000001   0.000002
    34  H    0.000000   0.000000   0.000000   0.000000  -0.000001   0.000000
              25         26         27         28         29         30
     1  C   -0.003615   0.005189  -0.002570  -0.000086   0.002179  -0.000890
     2  C   -0.001953  -0.000005   0.000113   0.000007  -0.000058   0.000035
     3  C    0.000076  -0.000006  -0.000013   0.000000  -0.000004  -0.000001
     4  C   -0.000511   0.000000   0.005182  -0.000115  -0.000076  -0.000185
     5  C    0.003692   0.000008  -0.034944   0.004558  -0.003522  -0.008449
     6  H    0.000000   0.000000   0.000000   0.000000   0.000000   0.000000
     7  H   -0.000756  -0.000078  -0.000008   0.000000   0.000000   0.000002
     8  H   -0.000336  -0.000129  -0.000064  -0.000046  -0.000346   0.000184
     9  H    0.000005   0.000000  -0.000119  -0.000100   0.000047   0.000093
    10  H    0.004880  -0.000074  -0.005903  -0.000034  -0.001307   0.012162
    11  O   -0.000005   0.000000  -0.000049   0.000000   0.000004  -0.000002
    12  O    0.000296   0.000006   0.000000   0.000000   0.000001   0.000000
    13  O   -0.035514  -0.030651  -0.002239   0.000173   0.008041   0.000104
    14  O    0.000026  -0.000003   0.234993  -0.032397  -0.034451  -0.035240
    15  C   -0.000017   0.000000  -0.000267   0.000004  -0.000008   0.000123
    16  H   -0.000004   0.000000  -0.000038  -0.000001   0.000006   0.000026
    17  H   -0.000001   0.000000   0.000006   0.000000   0.000000   0.000000
    18  O    0.000175   0.000001   0.000009   0.000000   0.000000  -0.000016
    19  C   -0.000026   0.000017   0.000000   0.000000  -0.000001   0.000000
    20  H    0.000000  -0.000001   0.000000   0.000000   0.000000   0.000000
    21  H    0.000052  -0.000065  -0.000001   0.000000   0.000006   0.000000
    22  H    0.000001   0.000000   0.000000   0.000000   0.000000   0.000000
    23  C    0.359821   0.386563   0.000347  -0.000006  -0.000357  -0.000060
    24  H   -0.041897  -0.027889   0.000008   0.000000   0.000066   0.000004
    25  H    0.576959  -0.028750  -0.000063  -0.000011   0.000018   0.000197
    26  H   -0.028750   0.503315   0.000037  -0.000001  -0.000158   0.000013
    27  C   -0.000063   0.000037   4.913373   0.381891   0.367351   0.366869
    28  H   -0.000011  -0.000001   0.381891   0.525270  -0.030724  -0.028043
    29  H    0.000018  -0.000158   0.367351  -0.030724   0.562271  -0.042015
    30  H    0.000197   0.000013   0.366869  -0.028043  -0.042015   0.578372
    31  C    0.000012   0.000000   0.000000   0.000000   0.000000   0.000001
    32  H    0.000000   0.000000   0.000000   0.000000   0.000000   0.000000
    33  H    0.000000   0.000000   0.000000   0.000000   0.000000   0.000000
    34  H    0.000000   0.000000   0.000000   0.000000   0.000000   0.000001
              31         32         33         34
     1  C    0.000002  -0.000005   0.000004   0.000002
     2  C    0.000308  -0.000012   0.000064  -0.000021
     3  C   -0.000284  -0.000056   0.000010   0.000027
     4  C    0.005477   0.000057  -0.000249  -0.000083
     5  C    0.000065   0.000037  -0.000008  -0.000058
     6  H    0.000000  -0.000001   0.000000   0.000000
     7  H   -0.000559   0.000087  -0.000243   0.000068
     8  H    0.000001   0.000000   0.000000   0.000000
     9  H   -0.000134   0.000004   0.000002   0.000009
    10  H   -0.000175   0.000038   0.000004  -0.000083
    11  O    0.000041   0.000011   0.000000  -0.000001
    12  O   -0.000002   0.000000  -0.000001   0.000000
    13  O    0.000000   0.000000   0.000000   0.000000
    14  O   -0.000001   0.000000   0.000000   0.000000
    15  C   -0.039530  -0.006714   0.005316  -0.006711
    16  H   -0.003424  -0.001825  -0.000125   0.009577
    17  H   -0.004027   0.010244  -0.000109  -0.001958
    18  O    0.238572  -0.035263  -0.030794  -0.035326
    19  C    0.000000   0.000000   0.000000   0.000000
    20  H    0.000000   0.000000   0.000000   0.000000
    21  H    0.000000   0.000000   0.000000   0.000000
    22  H    0.000000   0.000000   0.000000   0.000000
    23  C    0.000005   0.000000   0.000001  -0.000001
    24  H   -0.000001   0.000000   0.000002   0.000000
    25  H    0.000012   0.000000   0.000000   0.000000
    26  H    0.000000   0.000000   0.000000   0.000000
    27  C    0.000000   0.000000   0.000000   0.000000
    28  H    0.000000   0.000000   0.000000   0.000000
    29  H    0.000000   0.000000   0.000000   0.000000
    30  H    0.000001   0.000000   0.000000   0.000001
    31  C    4.891213   0.369880   0.385203   0.371453
    32  H    0.369880   0.571097  -0.029617  -0.042621
    33  H    0.385203  -0.029617   0.516655  -0.029628
    34  H    0.371453  -0.042621  -0.029628   0.570138
 Mulliken charges:
               1
     1  C    0.102381
     2  C    0.009340
     3  C    0.285537
     4  C    0.038379
     5  C    0.110330
     6  H    0.279140
     7  H    0.260555
     8  H    0.195135
     9  H    0.250279
    10  H    0.186548
    11  O   -0.304281
    12  O   -0.472466
    13  O   -0.469621
    14  O   -0.495067
    15  C   -0.038861
    16  H    0.191399
    17  H    0.186141
    18  O   -0.490482
    19  C   -0.243200
    20  H    0.195975
    21  H    0.186523
    22  H    0.161373
    23  C   -0.245950
    24  H    0.176183
    25  H    0.167250
    26  H    0.192660
    27  C   -0.223898
    28  H    0.179659
    29  H    0.173034
    30  H    0.156715
    31  C   -0.214096
    32  H    0.164660
    33  H    0.183510
    34  H    0.165218
 Sum of Mulliken charges =   1.00000
 Mulliken charges with hydrogens summed into heavy atoms:
               1
     1  C    0.297516
     2  C    0.269895
[...]
 80,-0.00009310,0.00009179,0.00000140,-0.00003330,-0.00003014,-0.000000
 40,0.00001182,0.00000389,-0.00002750,-0.00000088,-0.00001243,0.0000011
 3,0.00000654,0.00000770,-0.00000518,0.00007328,0.00082870,-0.00005260,
 0.00010089,-0.00020679,-0.00004083,-0.00002353,-0.00008071,0.00001044,
 -0.00004671,-0.00003821,-0.03985863,-0.05676840,0.01573842,-0.02468275
 ,-0.00062475,0.00636515,0.03208605,0.06140474,0.00023723,-0.00083085,0
 .00042736,-0.00016346,0.00023973,-0.00005117,0.00013024,0.00010252,-0.
 00006101,0.00014998,-0.00009385,0.00007603,-0.00057714,0.00278116,-0.0
 0108681,-0.00003290,0.00000121,-0.00000821,-0.00001765,0.00003977,-0.0
 0000909,-0.00001759,-0.00005237,-0.00010949,-0.00019833,0.00006036,0.0
 0016221,-0.00022710,-0.00057562,0.00005648,-0.00006122,-0.00043169,0.0
 0002797,-0.00018801,-0.00024554,-0.00000613,0.00005282,0.00050421,-0.0
 0040205,0.02217311,-0.00859712,-0.00947761,-0.00007963,-0.00002893,-0.
 00013994,-0.00000846,0.00000806,0.00000236,0.00005745,-0.00003254,0.00
 003933,0.00014134,-0.00009704,0.00012584,0.00012309,-0.00001579,0.0000
 8525,-0.00001518,-0.00000563,-0.00000509,0.00000444,0.00001378,-0.0000
 0080,-0.00000421,0.00000432,-0.00001315,0.00003558,0.00028915,-0.00019
 576,0.00000176,-0.00002412,-0.00001170,-0.00002974,0.00000983,-0.00002
 302,-0.00001900,0.00004250,0.00001950,0.07090198,0.01182944,-0.0763687
 3,0.01859053,0.00289980,-0.00414754,-0.08571165,-0.00500141,0.08153982
 ,-0.00007319,0.00018750,-0.00034512,0.00002780,-0.00002993,-0.00003080
 ,-0.00003429,-0.00002974,0.00003389,0.00008122,-0.00026102,0.00016765,
 0.00094776,-0.00061482,0.00191595,-0.00000646,0.00000807,-0.00000732,0
 .00000006,-0.00001170,-0.00000163,-0.00002129,0.00004848,-0.00002437,-
 0.00004913,0.00000267,-0.00002630,-0.00034078,-0.00103879,-0.00048385,
 0.00001551,0.00000198,0.00003569,0.00001309,-0.00000334,0.00002680,0.0
 0015407,-0.00014553,0.00035805,0.01114455,0.00284766,0.01097177,0.0000
 8098,0.00004781,-0.00002889,-0.00000846,-0.00000383,-0.00000296,-0.000
 00284,0.00001230,0.00000251,-0.00002664,0.00001607,0.00001756,-0.00001
 866,0.00001393,-0.00001049,0.00000139,-0.00000369,0.00000139,0.0000048
 2,0.00000125,-0.00000487,0.00000054,0.00000143,0.00000489,-0.00021613,
 -0.00007086,-0.00024107,0.00006155,0.00000069,0.00008503,-0.00000613,-
 0.00001785,0.00013884,0.00000058,-0.00001003,0.00001451,-0.15736268,-0
 .01107739,-0.12526456,0.00299959,0.00055247,0.00371790,-0.01731520,-0.
 00080833,-0.02519993,0.15994057,0.00011264,-0.00042747,0.00065168,-0.0
 0007414,-0.00013110,-0.00002554,-0.00010975,0.00001330,0.00008888,0.00
 014172,0.00036814,-0.00007828,-0.00281214,0.00487660,-0.00619315,-0.00
 000653,0.00000526,0.00000370,-0.00002325,0.00001969,0.00000586,0.00026
 638,0.00010989,0.00006629,-0.00012862,0.00009822,0.00015354,0.00065801
 ,0.00007525,0.00167296,0.00005381,0.00009779,0.00005835,-0.00010629,-0
 .00014667,0.00000604,0.00007474,0.00016801,0.00013062,-0.01096743,-0.0
 1689644,-0.02980919,-0.00011605,-0.00005799,-0.00008450,0.00003279,0.0
 0001477,0.00000936,0.00001869,-0.00000568,0.00002073,0.00004482,-0.000
 00204,0.00005893,0.00005699,-0.00000777,0.00003014,-0.00000832,-0.0000
 0212,-0.00000364,-0.00000502,0.00000566,-0.00000551,-0.00000505,0.0000
 0333,-0.00000316,-0.00005154,-0.00001330,0.00006577,-0.00000333,-0.000
 01638,0.00000849,-0.00007922,0.00007200,0.00012781,-0.00001036,-0.0000
 0722,0.00001871,-0.01012593,-0.05314903,-0.00723627,0.01700455,0.00501
 591,0.01915733,-0.00421478,0.00179182,-0.00280703,0.01039181,0.0581312
 7,0.00041018,-0.00040279,-0.00023103,-0.00005947,-0.00001266,-0.000010
 49,-0.00010315,0.00008654,0.00013833,0.00016351,0.00022030,0.00035123,
 0.00037695,0.00463735,0.00051339,-0.00003008,0.00001777,-0.00002033,-0
 .00001776,0.00004743,-0.00000645,0.00020175,0.00012090,-0.00005285,-0.
 00025074,0.00008575,0.00003568,-0.00008733,-0.00144447,0.00073054,0.00
 004965,-0.00001096,0.00004405,-0.00019599,-0.00025758,0.00001379,-0.00
 021916,-0.00007292,0.00031102,-0.00581236,-0.01621384,-0.02189175,-0.0
 0015631,-0.00008992,-0.00013186,0.00002337,0.00002250,0.00002117,0.000
 06910,-0.00002127,0.00004296,0.00020586,-0.00009878,0.00011225,0.00009
 907,-0.00000504,0.00006391,-0.00001528,-0.00001096,-0.00000352,0.00000
 451,0.00001180,-0.00001420,-0.00000639,0.00001027,-0.00000361,-0.00013
 229,0.00012867,-0.00025047,0.00005034,-0.00000083,0.00000133,0.0001252
 7,-0.00015261,-0.00012140,-0.00001304,-0.00000818,0.00003191,-0.121988
 61,-0.01121823,-0.20013852,-0.01236278,-0.00122526,-0.01253246,0.00552
 968,0.00194895,0.00959850,0.13418790,0.02390234,0.22346034,-0.00078444
 ,0.00037279,0.00018397,-0.00055118,-0.00105442,-0.00000587,-0.00215626
 ,-0.00033965,0.00016304,-0.00213112,-0.00343136,0.00338922,-0.00055470
 ,0.00137555,-0.00020253,0.00002773,0.00008577,-0.00022069,-0.00085652,
 -0.00004328,0.00006445,0.00010192,-0.00001199,0.00000830,0.00149938,0.
 00001199,0.00102567,-0.00024621,0.00046475,0.00001188,0.00161410,0.000
 23367,-0.00015014,0.00091236,0.00035901,0.00004929,0.00065741,-0.00031
 350,-0.00071507,0.00044498,-0.00115762,0.00005294,0.00751654,0.0018890
 7,-0.00157648,0.00088702,-0.00309897,0.00457182,0.00082053,-0.00340612
 ,0.00481327,-0.17319848,0.04075502,-0.07315636,-0.00039141,0.00009306,
 -0.00027890,0.00007773,0.00002417,0.00002023,0.00001237,-0.00004258,0.
 00003964,-0.00000491,-0.00002991,0.00004406,0.00004034,-0.00006415,0.0
 0033974,-0.00006237,0.00000376,-0.00003983,-0.00003105,0.00009396,0.00
 003186,0.00005639,-0.00002753,-0.00004861,-0.00016913,0.00061615,0.000
 46478,0.00002165,-0.00013453,-0.00001584,0.00005321,-0.00006051,-0.000
 09882,0.00000485,-0.00002095,-0.00010578,0.51716815,0.00033310,-0.0004
 8724,-0.00015333,-0.00002399,0.00045150,0.00031272,0.00182914,0.000386
 97,0.00119699,-0.00092634,-0.00278201,0.00244331,-0.00004296,-0.000406
 16,0.00049726,0.00005617,-0.00005730,0.00008002,0.00057748,0.00020259,
 -0.00064512,-0.00004622,0.00005698,-0.00000337,0.00051724,0.00015797,0
 .00018620,0.00003515,-0.00010883,-0.00002951,-0.00078165,0.00101485,-0
 .00103853,-0.00076804,-0.00013033,-0.00021945,-0.00022649,0.00019459,0
 .00031339,-0.00007368,0.00033615,-0.00006847,0.01763275,-0.01680544,0.
 02016638,0.00229351,0.00183094,0.00055839,-0.00073795,0.00274728,-0.00
 290285,0.01654104,-0.08018782,0.02872286,0.00019986,-0.00011309,0.0002
 2153,-0.00007293,-0.00000656,-0.00003144,-0.00001338,0.00002530,-0.000
 02871,0.00000765,0.00001931,-0.00003998,0.00001104,0.00002605,-0.00015
 154,0.00001634,-0.00000187,0.00000431,0.00001372,-0.00003171,-0.000021
 01,-0.00002410,0.00001549,0.00002147,0.00008629,-0.00017120,-0.0001222
 2,-0.00000535,0.00004582,0.00000125,-0.00001980,0.00000585,0.00002256,
 -0.00000931,-0.00000360,0.00001218,0.04532183,0.58032012,-0.00087999,0
 .00046815,0.00017692,-0.00021232,-0.00042526,-0.00024832,-0.00139216,-
 0.00061117,-0.00072835,0.00060770,0.00147810,-0.00433712,-0.00047085,0
 .00057658,-0.00035271,-0.00006045,0.00006161,-0.00009437,-0.00119087,-
 0.00052747,0.00072446,0.00014840,-0.00005577,-0.00000646,-0.00065671,0
 .00028075,0.00015324,-0.00027310,0.00091002,0.00035252,0.00114403,0.00
 047973,0.00025599,0.00110492,0.00027456,0.00030550,0.00049082,-0.00024
 793,-0.00065675,0.00051627,-0.00102661,0.00040244,-0.02432568,0.018185
 41,-0.03448575,0.00010850,-0.00284698,0.00445327,-0.00248912,-0.000262
 87,0.00290925,-0.03838660,0.03185021,-0.11376476,-0.00031246,0.0001706
 7,-0.00030667,0.00010190,0.00001448,0.00004453,0.00001881,-0.00004249,
 0.00004123,-0.00000184,-0.00002589,0.00004951,0.00003467,-0.00007280,0
 .00035855,-0.00003828,0.00001466,-0.00001155,-0.00004112,0.00006606,0.
 00005594,0.00005024,-0.00001816,-0.00004145,-0.00016736,0.00055742,0.0
 0047395,0.00002291,-0.00011518,-0.00002706,0.00004145,-0.00004353,-0.0
 0007342,-0.00000956,0.00000241,-0.00010071,-0.07364285,0.00280837,0.56
 650773,0.00025369,-0.00010596,-0.00003854,0.00010037,0.00009003,0.0000
 2948,0.00024917,0.00019249,0.00020250,0.00044176,0.00016541,-0.0000386
 0,0.00031852,-0.00021540,0.00021793,-0.00000080,-0.00001971,0.00002076
 ,0.00033240,0.00020246,-0.00014879,-0.00004321,0.00001167,0.00000193,-
 0.00014614,-0.00005953,-0.00013215,0.00007064,-0.00027985,-0.00009486,
 -0.00018485,-0.00012572,0.00000726,-0.00029736,-0.00009442,-0.00009125
 ,-0.00013190,0.00005294,0.00013801,-0.00015286,0.00028317,-0.00012214,
 -0.00034750,-0.00326130,0.00414218,0.00009542,0.00043738,-0.00052174,0
 .00052916,0.00045579,-0.00132603,-0.02914655,0.02232497,0.00126545,0.0
 0008829,-0.00004369,0.00008977,-0.00002880,-0.00000325,-0.00001078,-0.
 00000417,0.00001021,-0.00001117,0.00000108,0.00000863,-0.00001670,0.00
 000818,0.00002818,-0.00006721,0.00001851,-0.00000274,0.00000256,0.0000
 0489,-0.00002886,-0.00001803,-0.00001894,0.00000642,0.00000938,0.00005
 537,-0.00016113,-0.00012208,-0.00000646,0.00003329,0.00000557,-0.00001
 310,0.00001360,0.00002253,-0.00000116,0.00000027,0.00002822,-0.1384357
 2,0.08326353,0.08517644,0.16019956,-0.00008996,0.00006950,0.00003138,-
 0.00004685,-0.00002893,-0.00003530,-0.00015463,-0.00005643,-0.00014143
 ,-0.00029439,0.00005069,0.00027553,-0.00021154,0.00002886,-0.00016120,
 -0.00000319,0.00000388,-0.00000731,-0.00012038,-0.00008026,0.00007162,
 0.00001973,-0.00000673,-0.00000147,0.00009556,0.00001676,0.00007695,-0
 .00003656,0.00011555,0.00004273,0.00007301,-0.00001845,0.00003361,0.00
 012053,0.00002970,0.00003818,0.00003384,-0.00002092,-0.00003232,0.0000
 6159,-0.00008415,0.00007126,0.00149907,0.00101894,-0.00309490,-0.00012
 926,-0.00037906,-0.00001614,-0.00040591,-0.00028982,0.00063433,0.01339
 746,-0.00560314,0.00350105,-0.00003792,0.00001848,-0.00003853,0.000011
 06,0.00000134,0.00000488,0.00000224,-0.00000452,0.00000467,-0.00000049
 ,-0.00000289,0.00000757,-0.00001767,-0.00001289,0.00001209,-0.00000247
 ,0.00000170,0.00000126,0.00000034,0.00001104,0.00001100,0.00000811,-0.
 00000196,-0.00000248,-0.00002746,0.00005158,0.00002834,0.00000320,-0.0
 0001134,0.00000052,0.00000482,-0.00000378,-0.00000597,0.00000248,0.000
 00264,-0.00000758,0.08367351,-0.13758155,-0.08294081,-0.10120743,0.143
 68115,0.00007373,-0.00006689,-0.00004187,-0.00000777,-0.00002945,0.000
 01946,-0.00005095,0.00003032,0.00007599,-0.00011959,-0.00001945,0.0001
 4534,0.00011301,0.00013002,0.00001260,0.00000627,-0.00000218,-0.000001
 35,0.00009573,0.00007970,-0.00007279,-0.00001475,0.00000410,0.00000441
 ,0.00001383,-0.00005460,-0.00005025,0.00000844,-0.00008101,-0.00010480
 ,0.00003749,-0.00002394,0.00005218,-0.00006412,-0.00000984,-0.00002957
 ,0.00000347,0.00001615,0.00006616,-0.00009215,0.00010340,-0.00005335,-
 0.00309028,0.00052434,0.00511085,0.00015192,-0.00004229,-0.00060691,0.
 00127742,-0.00164768,-0.00004855,-0.01992731,0.01790302,0.00957412,0.0
 0000762,-0.00001480,0.00001437,-0.00000595,0.00000007,-0.00000416,-0.0
 0000178,0.00000217,-0.00000260,-0.00000031,0.00000092,-0.00000148,-0.0
 0002194,0.00000123,-0.00004686,-0.00000415,-0.00000295,-0.00000094,0.0
 0001268,0.00000310,-0.00000799,0.00000046,-0.00000082,0.00000239,0.000
 00447,-0.00004611,-0.00005615,-0.00000252,0.00000768,0.00000627,-0.000
 00254,0.00000628,0.00000560,0.00000501,-0.00000112,0.00001122,0.089895
 68,-0.08477318,-0.13796205,-0.08852339,0.08838272,0.14014399,0.0000525
 1,0.00000464,-0.00002084,0.00002053,0.00011308,0.00004178,0.00023008,-
 0.00000865,-0.00021703,0.00072870,0.00106760,-0.00141696,0.00013296,-0
 .00017554,-0.00003094,-0.00002700,0.00000126,0.00000909,-0.00009565,0.
 00002078,-0.00000942,-0.00000133,-0.00001100,0.00000142,-0.00047077,0.
 00000208,-0.00022026,0.00001077,0.00001002,0.00003034,-0.00010424,-0.0
 0006842,0.00018880,0.00001804,-0.00002294,0.00003693,-0.00004946,0.000
 00049,0.00007402,-0.00003115,0.00006694,0.00003547,-0.00366506,0.00148
 105,-0.00250081,-0.00005140,0.00030443,-0.00008656,0.00008452,-0.00005
 991,-0.00041921,0.00891847,0.02006387,-0.02873028,-0.00000253,0.000008
 67,-0.00001061,0.00000214,-0.00000149,0.00000196,0.00000338,-0.0000009
 1,0.00000116,0.00000004,0.00000039,0.00000566,-0.00000721,0.00001339,-
 0.00004872,-0.00001412,-0.00000620,0.00000674,-0.00000034,0.00001249,-
 0.00000073,0.00000381,-0.00000527,0.00000653,0.00001050,-0.00004099,-0
 .00002429,-0.00000211,0.00000827,0.00000068,-0.00000506,0.00000764,0.0
 0000783,-0.00000142,0.00000570,0.00000778,-0.10374756,-0.06897442,0.09
 604057,-0.00603203,-0.01126007,0.01258150,0.10889278,-0.00009363,0.000
 05947,0.00004223,-0.00000329,-0.00010160,-0.00002571,-0.00021141,-0.00
 004972,0.00011117,-0.00049315,-0.00020751,0.00063141,-0.00007626,0.000
 14508,0.00002585,0.00000051,0.00001348,-0.00003168,-0.00004731,0.00001
 251,0.00007520,0.00000898,-0.00000130,-0.00000302,0.00021700,-0.000011
 13,0.00010562,-0.00002526,0.00001669,0.00000491,0.00025911,0.00009319,
 -0.00004287,0.00008024,0.00002045,-0.00000217,0.00005811,-0.00003323,-
 0.00013488,0.00004845,-0.00010760,-0.00002254,0.00243362,0.00077373,-0
 .00041737,0.00000348,0.00019218,-0.00021910,-0.00016001,-0.00001948,0.
 00034470,-0.00065234,-0.00750573,0.01146930,-0.00002989,0.00001059,-0.
 00002014,0.00000611,0.00000224,0.00000263,0.00000191,-0.00000438,0.000
 00411,-0.00000010,-0.00000224,0.00000075,0.00003523,0.00000678,0.00008
 819,0.00001043,0.00000711,-0.00000525,-0.00001531,-0.00001864,0.000002
 96,-0.00000501,0.00000025,-0.00000920,-0.00001439,0.00005897,0.0000480
 6,0.00000174,-0.00001163,-0.00000376,0.00000783,-0.00000757,-0.0000082
 4,-0.00000249,-0.00000319,-0.00000789,-0.06168957,-0.12915740,0.105370
 72,0.00738570,0.01256133,-0.01476584,0.06388916,0.13491606,0.00013542,
 -0.00001792,-0.00001251,0.00002862,0.00013133,0.00003078,0.00033919,0.
 00009910,-0.00014812,0.00074050,0.00102945,-0.00072628,0.00006452,-0.0
 0024347,-0.00004640,-0.00001867,-0.00001180,0.00002024,0.00003865,0.00
 008318,-0.00005236,-0.00001318,-0.00000827,-0.00000190,-0.00037462,-0.
 00001531,-0.00018870,0.00001301,-0.00002489,-0.00001121,-0.00025070,-0
 .00010909,0.00012853,-0.00010660,-0.00006376,0.00000077,-0.00010647,0.
 00002479,0.00012213,-0.00007947,0.00017544,0.00002170,-0.00404414,-0.0
 0033760,0.00041840,0.00007014,0.00034315,-0.00010061,0.00003185,-0.000
 14560,0.00012994,0.00215992,0.01375728,-0.02004211,0.00003167,-0.00000
 980,0.00002439,-0.00001098,-0.00000247,-0.00000235,0.00000213,0.000002
 60,-0.00000296,0.00000137,0.00000422,-0.00000076,-0.00000408,0.0000183
 2,-0.00006824,0.00000046,-0.00000498,0.00000730,0.00000609,-0.00000766
 ,-0.00000125,-0.00000382,0.00000004,0.00000935,0.00002547,-0.00008755,
 -0.00006579,-0.00000341,0.00001987,0.00000298,-0.00001008,0.00001164,0
 .00001522,-0.00000201,0.00000559,0.00001454,0.08508071,0.10448563,-0.1
 9769076,0.00790628,0.00922093,-0.01106192,-0.08717681,-0.12151902,0.21
 739905,0.00019316,-0.00021559,-0.00005943,0.00007247,0.00018501,0.0001
 0959,0.00068347,0.00017309,0.00035621,0.00021355,0.00010800,0.00003391
 ,0.00011097,-0.00027126,-0.00001114,0.00000812,-0.00001207,0.00002763,
 0.00028477,0.00005369,-0.00025632,-0.00002055,0.00002902,0.00000211,-0
 .00013999,-0.00001898,-0.00008580,0.00001787,-0.00009638,-0.00002245,-
 0.00020718,0.00020588,-0.00005371,-0.00032965,-0.00005559,-0.00008469,
 -0.00011824,0.00010998,0.00020382,-0.00006751,0.00024765,0.00001853,-0
 .00026325,-0.00258343,0.00433379,0.00016104,0.00118099,-0.00092814,0.0
 0013077,0.00040942,-0.00051370,-0.02579857,-0.01401309,-0.02241774,0.0
 0009947,-0.00004944,0.00009614,-0.00002930,-0.00000331,-0.00001279,-0.
 00000890,0.00001320,-0.00001355,0.00000197,0.00000794,-0.00001664,-0.0
 0005375,-0.00001781,-0.00011608,0.00001610,0.00000318,0.00000745,0.000
 01780,-0.00000531,0.00000070,-0.00000449,0.00000947,0.00001296,0.00001
 639,-0.00012294,-0.00011957,-0.00000323,0.00002676,0.00000914,-0.00000
 779,0.00000992,0.00002009,0.00000554,0.00000580,0.00002338,-0.10859559
 ,-0.09598925,-0.04105631,0.01222455,0.01503963,0.00764075,-0.00480078,
 -0.01092819,-0.00447096,0.12619074,0.00002364,-0.00001484,-0.00001446,
 0.00003396,0.00006219,0.00000866,0.00002300,-0.00010300,-0.00002258,0.
 00024270,0.00037744,-0.00016912,0.00001755,-0.00003117,0.00001071,0.00
 000702,-0.00000697,0.00001783,-0.00001255,-0.00001717,0.00003585,-0.00
 000493,0.00000003,-0.00000008,-0.00003674,-0.00003337,-0.00002948,0.00
 002265,-0.00004018,-0.00001154,-0.00000360,-0.00006216,0.00015492,-0.0
 0001150,-0.00000223,0.00000768,-0.00002429,0.00002272,0.00003722,-0.00
 003628,0.00007698,-0.00001852,0.00154920,0.00362685,0.00006055,-0.0007
 9662,-0.00036339,-0.00173031,0.00004628,-0.00056765,0.00001875,0.00862
 414,0.01495550,0.00827059,0.00002379,-0.00000028,0.00000753,0.00000111
 ,-0.00000211,0.00000034,-0.00000173,0.00000329,-0.00000169,-0.00000137
 ,-0.00000002,-0.00000124,-0.00001541,-0.00000730,-0.00001774,0.0000056
 9,0.00000193,0.00000286,0.00000865,-0.00000467,-0.00000181,-0.00000261
 ,0.00000264,0.00000158,0.00000613,-0.00004029,-0.00003120,-0.00000137,
 0.00000651,0.00000115,-0.00000190,0.00000392,0.00000532,0.00000205,0.0
 0000046,0.00000903,-0.10044740,-0.21980564,-0.07430698,-0.00935715,-0.
 01347633,-0.00561309,-0.00644612,-0.01164773,-0.00680335,0.10656400,0.
 22708604,0.00009415,-0.00011492,-0.00002961,0.00003331,0.00007244,0.00
 007038,0.00036478,0.00013981,0.00028980,0.00003917,0.00004738,-0.00005
 236,0.00007175,-0.00012388,0.00007631,0.00000179,0.00000967,-0.0000085
 4,0.00017371,0.00003618,-0.00018638,-0.00001111,0.00001646,0.00000013,
 -0.00010846,0.00001135,-0.00006091,0.00000549,-0.00008006,-0.00000972,
 0.00007205,0.00024334,-0.00005455,-0.00018444,-0.00002798,-0.00005496,
 -0.00005274,0.00004843,0.00007170,-0.00002399,0.00011639,-0.00002313,-
 0.00186694,-0.00435872,0.00270244,0.00050991,0.00076214,-0.00020609,0.
 00019760,0.00002319,-0.00045307,-0.02055728,-0.00800521,-0.01392001,0.
 00004890,-0.00002911,0.00005442,-0.00001698,-0.00000140,-0.00000787,-0
 .00000413,0.00000665,-0.00000655,0.00000146,0.00000391,-0.00000930,-0.
 00000115,0.00000277,-0.00003689,0.00000688,0.00000129,0.00000124,0.000
 00325,-0.00000971,-0.00000255,-0.00000581,0.00000347,0.00000521,0.0000
 1253,-0.00005447,-0.00004844,-0.00000311,0.00001342,0.00000192,-0.0000
 0142,0.00000317,0.00000926,-0.00000161,0.00000186,0.00001349,-0.039992
 79,-0.07182610,-0.08637680,-0.00798277,-0.01596519,-0.00509133,0.01183
 520,0.01891086,0.01187890,0.05734280,0.08012258,0.09146386\\0.00001388
 ,0.00000048,-0.00000428,-0.00000794,0.00000142,-0.00000909,-0.00000557
 ,0.00000599,-0.00000166,-0.00000246,-0.00000760,-0.00001269,-0.0000094
 8,-0.00000181,0.00000140,-0.00000172,0.00000099,-0.00000169,0.00000749
 ,-0.00000219,0.00000304,-0.00000577,0.00000143,0.00000471,-0.00000777,
 0.00000400,-0.00000211,-0.00000468,0.00000006,0.00000091,0.00000174,0.
 00000565,-0.00000024,0.00001029,-0.00000039,0.00000436,-0.00000609,-0.
 00000039,0.00001778,-0.00000746,-0.00000134,0.00000648,0.00000261,0.00
 000935,-0.00001445,-0.00000268,0.00000142,-0.00000597,-0.00000376,0.00
 000362,-0.00000846,0.00000223,-0.00000674,-0.00000048,-0.00000265,0.00
 000051,0.00000345,0.00000123,-0.00000250,0.00000663,-0.00000040,-0.000
 00076,0.00000963,-0.00000210,0.00000138,0.00000633,0.00000437,-0.00000
 141,-0.00000240,0.00000650,-0.00000617,0.00000706,0.00000507,-0.000002
 79,0.00000348,0.00000623,-0.00000644,0.00000862,-0.00000083,0.00000217
 ,0.00000516,-0.00000528,0.00000279,0.00000860,-0.00000370,-0.00000095,
 0.00000800,-0.00000049,-0.00000065,0.00000529,-0.00000072,0.00000250,-
 0.00001431,0.00000453,0.00000030,-0.00001303,0.00000827,-0.00000156,-0
 .00000907,0.00000712,-0.00000035,-0.00001099\\\@


 THE WORLD IS MADE UP OF THE WILLS, THE WON'TS, AND THE CANT'S:
 THE WILLS DO EVERYTHING,
 THE WON'TS DO NOTHING,
 THE CAN'TS CAN'T DO ANYTHING.

                               -- FROM WALT DISNEY'S "BLACK HOLE"
 Job cpu time:       0 days  3 hours 21 minutes 53.5 seconds.
 Elapsed time:       0 days  0 hours 50 minutes 44.4 seconds.
 File lengths (MBytes):  RWF=    378 Int=      0 D2E=      0 Chk=     17 Scr=      1
 Normal termination of Gaussian 16 at Fri May 24 09:29:53 2019.
