 Entering Gaussian System, Link 0=g16
 Input=clay-glucose_cation-074-b3lyp_d3bj-631gd-pcm_thf.gjf
 Output=clay-glucose_cation-074-b3lyp_d3bj-631gd-pcm_thf.out
 Initial command:
 /n/sw/g16_nehalem/g16/l1.exe "/scratch/Gau-7175.inp" -scrdir="/scratch/"
 Entering Link 1 = /n/sw/g16_nehalem/g16/l1.exe PID=      7178.
  
 Copyright (c) 1988,1990,1992,1993,1995,1998,2003,2009,2016,
            Gaussian, Inc.  All Rights Reserved.
  
 This is part of the Gaussian(R) 16 program.  It is based on
 the Gaussian(R) 09 system (copyright 2009, Gaussian, Inc.),
 the Gaussian(R) 03 system (copyright 2003, Gaussian, Inc.),
 the Gaussian(R) 98 system (copyright 1998, Gaussian, Inc.),
 the Gaussian(R) 94 system (copyright 1995, Gaussian, Inc.),
 the Gaussian 92(TM) system (copyright 1992, Gaussian, Inc.),
 the Gaussian 90(TM) system (copyright 1990, Gaussian, Inc.),
 the Gaussian 88(TM) system (copyright 1988, Gaussian, Inc.),
 the Gaussian 86(TM) system (copyright 1986, Carnegie Mellon
 University), and the Gaussian 82(TM) system (copyright 1983,
 Carnegie Mellon University). Gaussian is a federally registered
 trademark of Gaussian, Inc.
  
 This software contains proprietary and confidential information,
 including trade secrets, belonging to Gaussian, Inc.
  
 This software is provided under written license and may be
 used, copied, transmitted, or stored only in accord with that
 written license.
  
 The following legend is applicable only to US Government
 contracts under FAR:
  
                    RESTRICTED RIGHTS LEGEND
  
 Use, reproduction and disclosure by the US Government is
 subject to restrictions as set forth in subparagraphs (a)
 and (c) of the Commercial Computer Software - Restricted
 Rights clause in FAR 52.227-19.
  
 Gaussian, Inc.
 340 Quinnipiac St., Bldg. 40, Wallingford CT 06492
  
  
 ---------------------------------------------------------------
 Warning -- This program may not be used in any manner that
 competes with the business of Gaussian, Inc. or will provide
 assistance to any competitor of Gaussian, Inc.  The licensee
 of this program is prohibited from giving any competitor of
 Gaussian, Inc. access to this program.  By using this program,
 the user acknowledges that Gaussian, Inc. is engaged in the
 business of creating and licensing software in the field of
 computational chemistry and represents and warrants to the
 licensee that it is not a competitor of Gaussian, Inc. and that
 it will not use this program in any manner prohibited above.
 ---------------------------------------------------------------
  

 Cite this work as:
 Gaussian 16, Revision A.03,
 M. J. Frisch, G. W. Trucks, H. B. Schlegel, G. E. Scuseria, 
 M. A. Robb, J. R. Cheeseman, G. Scalmani, V. Barone, 
 G. A. Petersson, H. Nakatsuji, X. Li, M. Caricato, A. V. Marenich, 
 J. Bloino, B. G. Janesko, R. Gomperts, B. Mennucci, H. P. Hratchian, 
 J. V. Ortiz, A. F. Izmaylov, J. L. Sonnenberg, D. Williams-Young, 
 F. Ding, F. Lipparini, F. Egidi, J. Goings, B. Peng, A. Petrone, 
 T. Henderson, D. Ranasinghe, V. G. Zakrzewski, J. Gao, N. Rega, 
 G. Zheng, W. Liang, M. Hada, M. Ehara, K. Toyota, R. Fukuda, 
 J. Hasegawa, M. Ishida, T. Nakajima, Y. Honda, O. Kitao, H. Nakai, 
 T. Vreven, K. Throssell, J. A. Montgomery, Jr., J. E. Peralta, 
 F. Ogliaro, M. J. Bearpark, J. J. Heyd, E. N. Brothers, K. N. Kudin, 
 V. N. Staroverov, T. A. Keith, R. Kobayashi, J. Normand, 
 K. Raghavachari, A. P. Rendell, J. C. Burant, S. S. Iyengar, 
 J. Tomasi, M. Cossi, J. M. Millam, M. Klene, C. Adamo, R. Cammi, 
 J. W. Ochterski, R. L. Martin, K. Morokuma, O. Farkas, 
 J. B. Foresman, and D. J. Fox, Gaussian, Inc., Wallingford CT, 2016.
 
 ******************************************
 Gaussian 16:  ES64L-G16RevA.03 25-Dec-2016
                24-May-2019 
 ******************************************
 %nprocshared=4
 Will use up to    4 processors via shared memory.
 %mem=3GB
 -------------------------------------------------------------------
 #p b3lyp 6-31g* opt freq=noraman scrf=(pcm,solvent=tetrahydrofuran)
 -------------------------------------------------------------------
 1/18=20,19=15,26=3,38=1/1,3;
 2/9=110,12=2,17=6,18=5,40=1/2;
 3/5=1,6=6,7=1,11=2,25=1,30=1,70=2201,71=1,72=20,74=-5/1,2,3;
 4//1;
 5/5=2,38=5,53=20/2;
 6/7=2,8=2,9=2,10=2,28=1/1;
 7//1,2,3,16;
 1/18=20,19=15,26=3/3(2);
 2/9=110/2;
 99//99;
 2/9=110/2;
 3/5=1,6=6,7=1,11=2,25=1,30=1,70=2205,71=1,72=20,74=-5/1,2,3;
 4/5=5,16=3,69=1/1;
 5/5=2,38=5,53=20/2;
 7//1,2,3,16;
 1/18=20,19=15,26=3/3(-5);
 2/9=110/2;
 6/7=2,8=2,9=2,10=2,19=2,28=1/1;
 99/9=1/99;
 Leave Link    1 at Fri May 24 08:30:49 2019, MaxMem=   402653184 cpu:               0.2 elap:               0.1
 (Enter /n/sw/g16_nehalem/g16/l101.exe)
 -----
 title
 -----
 Symbolic Z-matrix:
 Charge =  1 Multiplicity = 1
 6                    -1.19088   0.30702  -0.35277 
 6                    -1.4831   -0.99085   0.4536 
 6                    -0.37434  -1.9701    0.27059 
 6                     1.30487  -0.24595  -0.14695 
 6                     0.21036   0.82084   0.04977 
 1                    -0.56767  -3.04209   0.34663 
 1                    -1.41782  -0.73911   1.52893 
 1                    -1.15777   0.07319  -1.42185 
 1                     1.60635  -0.2639   -1.19532 
 1                     0.20076   1.14043   1.10255 
 8                     0.8227   -1.66553   0.05157 
 8                    -2.73372  -1.59022   0.29318 
 8                    -2.20953   1.26553  -0.22794 
 8                     0.64441   1.87173  -0.78414 
 6                     2.50256  -0.08673   0.7892 
 1                     2.18142  -0.28895   1.81711 
 1                     2.81012   0.96746   0.72711 
 8                     3.55354  -0.96877   0.4943 
 6                    -3.18067  -1.77779  -1.06046 
 1                    -2.45437  -2.34963  -1.65251 
 1                    -4.1051   -2.35042  -0.98309 
 1                    -3.3837   -0.81751  -1.54295 
 6                    -2.68735   1.57288   1.08648 
 1                    -1.88807   1.90896   1.75744 
 1                    -3.3988    2.38905   0.95353 
 1                    -3.20863   0.71585   1.52795 
 6                     0.33377   3.19458  -0.33142 
 1                     0.70946   3.35812   0.68715 
 1                     0.84607   3.87252  -1.01627 
 1                    -0.74286   3.383    -0.36514 
 6                     4.44496  -0.50264  -0.51713 
 1                     3.94452  -0.37625  -1.48688 
 1                     4.90361   0.45204  -0.22692 
 1                     5.22199  -1.26234  -0.61878 
 
 ITRead=  0  0  0  0  0  0  0  0  0  0  0  0  0  0  0  0  0  0  0  0
 ITRead=  0  0  0  0  0  0  0  0  0  0  0  0  0  0
 MicOpt= -1 -1 -1 -1 -1 -1 -1 -1 -1 -1 -1 -1 -1 -1 -1 -1 -1 -1 -1 -1
 MicOpt= -1 -1 -1 -1 -1 -1 -1 -1 -1 -1 -1 -1 -1 -1
 NAtoms=     34 NQM=       34 NQMF=       0 NMMI=      0 NMMIF=      0
                NMic=       0 NMicF=      0.
                    Isotopes and Nuclear Properties:
 (Nuclear quadrupole moments (NQMom) in fm**2, nuclear magnetic moments (NMagM)
  in nuclear magnetons)

  Atom         1           2           3           4           5           6           7           8           9          10
 IAtWgt=          12          12          12          12          12           1           1           1           1           1
 AtmWgt=  12.0000000  12.0000000  12.0000000  12.0000000  12.0000000   1.0078250   1.0078250   1.0078250   1.0078250   1.0078250
 NucSpn=           0           0           0           0           0           1           1           1           1           1
 AtZEff=   0.0000000   0.0000000   0.0000000   0.0000000   0.0000000   0.0000000   0.0000000   0.0000000   0.0000000   0.0000000
 NQMom=    0.0000000   0.0000000   0.0000000   0.0000000   0.0000000   0.0000000   0.0000000   0.0000000   0.0000000   0.0000000
 NMagM=    0.0000000   0.0000000   0.0000000   0.0000000   0.0000000   2.7928460   2.7928460   2.7928460   2.7928460   2.7928460
 AtZNuc=   6.0000000   6.0000000   6.0000000   6.0000000   6.0000000   1.0000000   1.0000000   1.0000000   1.0000000   1.0000000

  Atom        11          12          13          14          15          16          17          18          19          20
 IAtWgt=          16          16          16          16          12           1           1          16          12           1
 AtmWgt=  15.9949146  15.9949146  15.9949146  15.9949146  12.0000000   1.0078250   1.0078250  15.9949146  12.0000000   1.0078250
 NucSpn=           0           0           0           0           0           1           1           0           0           1
 AtZEff=   0.0000000   0.0000000   0.0000000   0.0000000   0.0000000   0.0000000   0.0000000   0.0000000   0.0000000   0.0000000
 NQMom=    0.0000000   0.0000000   0.0000000   0.0000000   0.0000000   0.0000000   0.0000000   0.0000000   0.0000000   0.0000000
 NMagM=    0.0000000   0.0000000   0.0000000   0.0000000   0.0000000   2.7928460   2.7928460   0.0000000   0.0000000   2.7928460
 AtZNuc=   8.0000000   8.0000000   8.0000000   8.0000000   6.0000000   1.0000000   1.0000000   8.0000000   6.0000000   1.0000000

  Atom        21          22          23          24          25          26          27          28          29          30
 IAtWgt=           1           1          12           1           1           1          12           1           1           1
 AtmWgt=   1.0078250   1.0078250  12.0000000   1.0078250   1.0078250   1.0078250  12.0000000   1.0078250   1.0078250   1.0078250
 NucSpn=           1           1           0           1           1           1           0           1           1           1
 AtZEff=   0.0000000   0.0000000   0.0000000   0.0000000   0.0000000   0.0000000   0.0000000   0.0000000   0.0000000   0.0000000
 NQMom=    0.0000000   0.0000000   0.0000000   0.0000000   0.0000000   0.0000000   0.0000000   0.0000000   0.0000000   0.0000000
 NMagM=    2.7928460   2.7928460   0.0000000   2.7928460   2.7928460   2.7928460   0.0000000   2.7928460   2.7928460   2.7928460
 AtZNuc=   1.0000000   1.0000000   6.0000000   1.0000000   1.0000000   1.0000000   6.0000000   1.0000000   1.0000000   1.0000000

  Atom        31          32          33          34
 IAtWgt=          12           1           1           1
 AtmWgt=  12.0000000   1.0078250   1.0078250   1.0078250
 NucSpn=           0           1           1           1
 AtZEff=   0.0000000   0.0000000   0.0000000   0.0000000
 NQMom=    0.0000000   0.0000000   0.0000000   0.0000000
 NMagM=    0.0000000   2.7928460   2.7928460   2.7928460
 AtZNuc=   6.0000000   1.0000000   1.0000000   1.0000000
 Leave Link  101 at Fri May 24 08:30:49 2019, MaxMem=   402653184 cpu:               0.6 elap:               0.2
 (Enter /n/sw/g16_nehalem/g16/l103.exe)

 GradGradGradGradGradGradGradGradGradGradGradGradGradGradGradGradGradGrad
 Berny optimization.
 Initialization pass.
                           ----------------------------
                           !    Initial Parameters    !
                           ! (Angstroms and Degrees)  !
 --------------------------                            --------------------------
 ! Name  Definition              Value          Derivative Info.                !
 --------------------------------------------------------------------------------
 ! R1    R(1,2)                  1.5557         estimate D2E/DX2                !
 ! R2    R(1,5)                  1.5458         estimate D2E/DX2                !
 ! R3    R(1,8)                  1.0949         estimate D2E/DX2                !
 ! R4    R(1,13)                 1.4043         estimate D2E/DX2                !
 ! R5    R(2,3)                  1.4906         estimate D2E/DX2                !
 ! R6    R(2,7)                  1.1063         estimate D2E/DX2                !
 ! R7    R(2,12)                 1.3961         estimate D2E/DX2                !
 ! R8    R(3,6)                  1.0919         estimate D2E/DX2                !
 ! R9    R(3,11)                 1.2544         estimate D2E/DX2                !
 ! R10   R(4,5)                  1.541          estimate D2E/DX2                !
 ! R11   R(4,9)                  1.091          estimate D2E/DX2                !
 ! R12   R(4,11)                 1.5123         estimate D2E/DX2                !
 ! R13   R(4,15)                 1.5285         estimate D2E/DX2                !
 ! R14   R(5,10)                 1.1003         estimate D2E/DX2                !
 ! R15   R(5,14)                 1.41           estimate D2E/DX2                !
 ! R16   R(12,19)                1.4378         estimate D2E/DX2                !
 ! R17   R(13,23)                1.4319         estimate D2E/DX2                !
 ! R18   R(14,27)                1.4323         estimate D2E/DX2                !
 ! R19   R(15,16)                1.0957         estimate D2E/DX2                !
 ! R20   R(15,17)                1.0999         estimate D2E/DX2                !
 ! R21   R(15,18)                1.4034         estimate D2E/DX2                !
 ! R22   R(18,31)                1.4265         estimate D2E/DX2                !
 ! R23   R(19,20)                1.0977         estimate D2E/DX2                !
 ! R24   R(19,21)                1.0902         estimate D2E/DX2                !
 ! R25   R(19,22)                1.0937         estimate D2E/DX2                !
 ! R26   R(23,24)                1.0964         estimate D2E/DX2                !
 ! R27   R(23,25)                1.0909         estimate D2E/DX2                !
 ! R28   R(23,26)                1.096          estimate D2E/DX2                !
 ! R29   R(27,28)                1.0979         estimate D2E/DX2                !
 ! R30   R(27,29)                1.0914         estimate D2E/DX2                !
 ! R31   R(27,30)                1.0935         estimate D2E/DX2                !
 ! R32   R(31,32)                1.0986         estimate D2E/DX2                !
 ! R33   R(31,33)                1.0982         estimate D2E/DX2                !
 ! R34   R(31,34)                1.0914         estimate D2E/DX2                !
 ! A1    A(2,1,5)              108.2165         estimate D2E/DX2                !
 ! A2    A(2,1,8)              109.4897         estimate D2E/DX2                !
 ! A3    A(2,1,13)             112.7755         estimate D2E/DX2                !
 ! A4    A(5,1,8)              107.329          estimate D2E/DX2                !
 ! A5    A(5,1,13)             114.0494         estimate D2E/DX2                !
 ! A6    A(8,1,13)             104.7447         estimate D2E/DX2                !
 ! A7    A(1,2,3)              110.1655         estimate D2E/DX2                !
 ! A8    A(1,2,7)              107.6316         estimate D2E/DX2                !
 ! A9    A(1,2,12)             117.8326         estimate D2E/DX2                !
 ! A10   A(3,2,7)              102.9992         estimate D2E/DX2                !
 ! A11   A(3,2,12)             111.7275         estimate D2E/DX2                !
 ! A12   A(7,2,12)             105.2025         estimate D2E/DX2                !
 ! A13   A(2,3,6)              120.3125         estimate D2E/DX2                !
 ! A14   A(2,3,11)             124.8715         estimate D2E/DX2                !
 ! A15   A(6,3,11)             114.8012         estimate D2E/DX2                !
 ! A16   A(5,4,9)              109.2882         estimate D2E/DX2                !
 ! A17   A(5,4,11)             113.9922         estimate D2E/DX2                !
 ! A18   A(5,4,15)             113.9696         estimate D2E/DX2                !
 ! A19   A(9,4,11)             101.4665         estimate D2E/DX2                !
 ! A20   A(9,4,15)             111.9457         estimate D2E/DX2                !
 ! A21   A(11,4,15)            105.4988         estimate D2E/DX2                !
 ! A22   A(1,5,4)              112.3635         estimate D2E/DX2                !
 ! A23   A(1,5,10)             109.7439         estimate D2E/DX2                !
 ! A24   A(1,5,14)             111.8866         estimate D2E/DX2                !
 ! A25   A(4,5,10)             109.2333         estimate D2E/DX2                !
 ! A26   A(4,5,14)             102.815          estimate D2E/DX2                !
 ! A27   A(10,5,14)            110.6159         estimate D2E/DX2                !
 ! A28   A(3,11,4)             123.7152         estimate D2E/DX2                !
 ! A29   A(2,12,19)            116.2733         estimate D2E/DX2                !
 ! A30   A(1,13,23)            118.0445         estimate D2E/DX2                !
 ! A31   A(5,14,27)            115.7631         estimate D2E/DX2                !
 ! A32   A(4,15,16)            109.0067         estimate D2E/DX2                !
 ! A33   A(4,15,17)            106.5221         estimate D2E/DX2                !
 ! A34   A(4,15,18)            113.119          estimate D2E/DX2                !
 ! A35   A(16,15,17)           108.1675         estimate D2E/DX2                !
 ! A36   A(16,15,18)           107.4952         estimate D2E/DX2                !
 ! A37   A(17,15,18)           112.403          estimate D2E/DX2                !
 ! A38   A(15,18,31)           114.305          estimate D2E/DX2                !
 ! A39   A(12,19,20)           111.7185         estimate D2E/DX2                !
 ! A40   A(12,19,21)           105.3847         estimate D2E/DX2                !
 ! A41   A(12,19,22)           111.0081         estimate D2E/DX2                !
 ! A42   A(20,19,21)           109.0076         estimate D2E/DX2                !
 ! A43   A(20,19,22)           110.0162         estimate D2E/DX2                !
 ! A44   A(21,19,22)           109.5777         estimate D2E/DX2                !
 ! A45   A(13,23,24)           112.5997         estimate D2E/DX2                !
 ! A46   A(13,23,25)           105.4471         estimate D2E/DX2                !
 ! A47   A(13,23,26)           111.1382         estimate D2E/DX2                !
 ! A48   A(24,23,25)           108.706          estimate D2E/DX2                !
 ! A49   A(24,23,26)           109.8735         estimate D2E/DX2                !
 ! A50   A(25,23,26)           108.9029         estimate D2E/DX2                !
 ! A51   A(14,27,28)           110.8924         estimate D2E/DX2                !
 ! A52   A(14,27,29)           105.8768         estimate D2E/DX2                !
 ! A53   A(14,27,30)           111.2805         estimate D2E/DX2                !
 ! A54   A(28,27,29)           109.2094         estimate D2E/DX2                !
 ! A55   A(28,27,30)           109.8674         estimate D2E/DX2                !
 ! A56   A(29,27,30)           109.6203         estimate D2E/DX2                !
 ! A57   A(18,31,32)           112.2604         estimate D2E/DX2                !
 ! A58   A(18,31,33)           110.9581         estimate D2E/DX2                !
 ! A59   A(18,31,34)           106.4677         estimate D2E/DX2                !
 ! A60   A(32,31,33)           108.8756         estimate D2E/DX2                !
 ! A61   A(32,31,34)           108.7949         estimate D2E/DX2                !
 ! A62   A(33,31,34)           109.4132         estimate D2E/DX2                !
 ! D1    D(5,1,2,3)            -53.3937         estimate D2E/DX2                !
 ! D2    D(5,1,2,7)             58.2084         estimate D2E/DX2                !
 ! D3    D(5,1,2,12)           176.8256         estimate D2E/DX2                !
 ! D4    D(8,1,2,3)             63.2928         estimate D2E/DX2                !
 ! D5    D(8,1,2,7)            174.8949         estimate D2E/DX2                !
 ! D6    D(8,1,2,12)           -66.4879         estimate D2E/DX2                !
 ! D7    D(13,1,2,3)           179.4866         estimate D2E/DX2                !
 ! D8    D(13,1,2,7)           -68.9113         estimate D2E/DX2                !
 ! D9    D(13,1,2,12)           49.7059         estimate D2E/DX2                !
 ! D10   D(2,1,5,4)             55.551          estimate D2E/DX2                !
 ! D11   D(2,1,5,10)           -66.1928         estimate D2E/DX2                !
 ! D12   D(2,1,5,14)           170.6227         estimate D2E/DX2                !
 ! D13   D(8,1,5,4)            -62.5241         estimate D2E/DX2                !
 ! D14   D(8,1,5,10)           175.7321         estimate D2E/DX2                !
 ! D15   D(8,1,5,14)            52.5475         estimate D2E/DX2                !
 ! D16   D(13,1,5,4)          -178.068          estimate D2E/DX2                !
 ! D17   D(13,1,5,10)           60.1882         estimate D2E/DX2                !
 ! D18   D(13,1,5,14)          -62.9963         estimate D2E/DX2                !
 ! D19   D(2,1,13,23)           48.2932         estimate D2E/DX2                !
 ! D20   D(5,1,13,23)          -75.6685         estimate D2E/DX2                !
 ! D21   D(8,1,13,23)          167.2842         estimate D2E/DX2                !
 ! D22   D(1,2,3,6)           -151.8346         estimate D2E/DX2                !
 ! D23   D(1,2,3,11)            29.6347         estimate D2E/DX2                !
 ! D24   D(7,2,3,6)             93.5867         estimate D2E/DX2                !
 ! D25   D(7,2,3,11)           -84.9439         estimate D2E/DX2                !
 ! D26   D(12,2,3,6)           -18.8528         estimate D2E/DX2                !
 ! D27   D(12,2,3,11)          162.6166         estimate D2E/DX2                !
 ! D28   D(1,2,12,19)           48.3056         estimate D2E/DX2                !
 ! D29   D(3,2,12,19)          -80.7476         estimate D2E/DX2                !
 ! D30   D(7,2,12,19)          168.2006         estimate D2E/DX2                !
 ! D31   D(2,3,11,4)            -4.0324         estimate D2E/DX2                !
 ! D32   D(6,3,11,4)           177.365          estimate D2E/DX2                !
 ! D33   D(9,4,5,1)             81.3754         estimate D2E/DX2                !
 ! D34   D(9,4,5,10)          -156.5904         estimate D2E/DX2                !
 ! D35   D(9,4,5,14)           -39.0869         estimate D2E/DX2                !
 ! D36   D(11,4,5,1)           -31.3486         estimate D2E/DX2                !
 ! D37   D(11,4,5,10)           90.6856         estimate D2E/DX2                !
 ! D38   D(11,4,5,14)         -151.8109         estimate D2E/DX2                !
 ! D39   D(15,4,5,1)          -152.5446         estimate D2E/DX2                !
 ! D40   D(15,4,5,10)          -30.5104         estimate D2E/DX2                !
 ! D41   D(15,4,5,14)           86.9931         estimate D2E/DX2                !
 ! D42   D(5,4,11,3)             4.4432         estimate D2E/DX2                !
 ! D43   D(9,4,11,3)          -112.8924         estimate D2E/DX2                !
 ! D44   D(15,4,11,3)          130.237          estimate D2E/DX2                !
 ! D45   D(5,4,15,16)           67.3669         estimate D2E/DX2                !
 ! D46   D(5,4,15,17)          -49.1304         estimate D2E/DX2                !
 ! D47   D(5,4,15,18)         -173.1093         estimate D2E/DX2                !
 ! D48   D(9,4,15,16)         -167.9614         estimate D2E/DX2                !
 ! D49   D(9,4,15,17)           75.5414         estimate D2E/DX2                !
 ! D50   D(9,4,15,18)          -48.4375         estimate D2E/DX2                !
 ! D51   D(11,4,15,16)         -58.4408         estimate D2E/DX2                !
 ! D52   D(11,4,15,17)        -174.9381         estimate D2E/DX2                !
 ! D53   D(11,4,15,18)          61.083          estimate D2E/DX2                !
 ! D54   D(1,5,14,27)           92.1045         estimate D2E/DX2                !
 ! D55   D(4,5,14,27)         -147.1058         estimate D2E/DX2                !
 ! D56   D(10,5,14,27)         -30.5854         estimate D2E/DX2                !
 ! D57   D(2,12,19,20)          55.5802         estimate D2E/DX2                !
 ! D58   D(2,12,19,21)         173.8231         estimate D2E/DX2                !
 ! D59   D(2,12,19,22)         -67.6251         estimate D2E/DX2                !
 ! D60   D(1,13,23,24)          56.8232         estimate D2E/DX2                !
 ! D61   D(1,13,23,25)         175.2105         estimate D2E/DX2                !
 ! D62   D(1,13,23,26)         -66.9373         estimate D2E/DX2                !
 ! D63   D(5,14,27,28)          54.6055         estimate D2E/DX2                !
 ! D64   D(5,14,27,29)         172.946          estimate D2E/DX2                !
 ! D65   D(5,14,27,30)         -68.0135         estimate D2E/DX2                !
 ! D66   D(4,15,18,31)          85.061          estimate D2E/DX2                !
 ! D67   D(16,15,18,31)       -154.5503         estimate D2E/DX2                !
 ! D68   D(17,15,18,31)        -35.6331         estimate D2E/DX2                !
 ! D69   D(15,18,31,32)        -62.9262         estimate D2E/DX2                !
 ! D70   D(15,18,31,33)         59.1545         estimate D2E/DX2                !
 ! D71   D(15,18,31,34)        178.1259         estimate D2E/DX2                !
 --------------------------------------------------------------------------------
 Trust Radius=3.00D-01 FncErr=1.00D-07 GrdErr=1.00D-06 EigMax=2.50D+02 EigMin=1.00D-04
 Number of steps in this run=    177 maximum allowed number of steps=    204.
 GradGradGradGradGradGradGradGradGradGradGradGradGradGradGradGradGradGrad

 Leave Link  103 at Fri May 24 08:30:49 2019, MaxMem=   402653184 cpu:               0.1 elap:               0.0
 (Enter /n/sw/g16_nehalem/g16/l202.exe)
                          Input orientation:                          
 ---------------------------------------------------------------------
 Center     Atomic      Atomic             Coordinates (Angstroms)
 Number     Number       Type             X           Y           Z
 ---------------------------------------------------------------------
      1          6           0       -1.190878    0.307024   -0.352768
      2          6           0       -1.483098   -0.990851    0.453601
      3          6           0       -0.374337   -1.970103    0.270594
      4          6           0        1.304871   -0.245953   -0.146945
      5          6           0        0.210355    0.820844    0.049772
      6          1           0       -0.567667   -3.042086    0.346631
      7          1           0       -1.417822   -0.739111    1.528927
      8          1           0       -1.157770    0.073190   -1.421854
      9          1           0        1.606347   -0.263904   -1.195317
     10          1           0        0.200763    1.140427    1.102555
     11          8           0        0.822704   -1.665526    0.051573
     12          8           0       -2.733715   -1.590218    0.293184
     13          8           0       -2.209529    1.265529   -0.227941
     14          8           0        0.644414    1.871728   -0.784143
     15          6           0        2.502564   -0.086728    0.789202
     16          1           0        2.181420   -0.288945    1.817105
     17          1           0        2.810124    0.967460    0.727112
     18          8           0        3.553543   -0.968772    0.494298
     19          6           0       -3.180666   -1.777786   -1.060463
     20          1           0       -2.454371   -2.349630   -1.652506
     21          1           0       -4.105103   -2.350421   -0.983088
     22          1           0       -3.383704   -0.817505   -1.542951
     23          6           0       -2.687351    1.572883    1.086478
     24          1           0       -1.888069    1.908957    1.757442
     25          1           0       -3.398801    2.389050    0.953530
     26          1           0       -3.208630    0.715847    1.527948
     27          6           0        0.333773    3.194582   -0.331420
     28          1           0        0.709459    3.358123    0.687150
     29          1           0        0.846071    3.872518   -1.016268
     30          1           0       -0.742863    3.382999   -0.365136
     31          6           0        4.444962   -0.502639   -0.517128
     32          1           0        3.944518   -0.376246   -1.486876
     33          1           0        4.903610    0.452042   -0.226919
     34          1           0        5.221992   -1.262339   -0.618783
 ---------------------------------------------------------------------
                    Distance matrix (angstroms):
                    1          2          3          4          5
     1  C    0.000000
     2  C    1.555668   0.000000
     3  C    2.498125   1.490563   0.000000
     4  C    2.564549   2.947592   2.442698   0.000000
     5  C    1.545802   2.512588   2.860072   1.541012   0.000000
     6  H    3.477656   2.248782   1.091928   3.401231   3.951667
     7  H    2.164874   1.106327   2.046364   3.234936   2.696724
     8  H    1.094860   2.180677   2.766441   2.791388   2.143930
     9  H    2.976628   3.576598   2.997185   1.091006   2.162341
    10  H    2.179264   2.792647   3.270825   2.168491   1.100262
    11  O    2.847623   2.435885   1.254450   1.512310   2.560666
    12  O    2.529254   1.396072   2.389872   4.279128   3.813137
    13  O    1.404266   2.466466   3.753103   3.826506   2.476027
    14  O    2.450037   3.775272   4.112176   2.307986   1.410028
    15  C    3.885955   4.100679   3.477444   1.528461   2.573843
    16  H    4.054124   3.972469   3.427810   2.151204   2.870574
    17  H    4.196467   4.726684   4.356429   2.121823   2.690555
    18  O    4.985450   5.036854   4.059673   2.447486   3.818015
    19  C    2.967578   2.406947   3.111942   4.827118   4.414128
    20  H    3.216138   2.687999   2.858128   4.563340   4.477770
    21  H    3.993999   3.284420   3.954109   5.864788   5.454072
    22  H    2.736711   2.761987   3.697799   4.925265   4.258898
    23  C    2.431719   2.902325   4.309112   4.557119   3.168126
    24  H    2.739571   3.205135   4.421449   4.297114   2.916078
    25  H    3.303963   3.917088   5.349392   5.502619   4.037580
    26  H    2.788468   2.654148   4.102253   4.909381   3.726324
    27  C    3.265426   4.629809   5.247648   3.579713   2.407316
    28  H    3.741913   4.876005   5.453267   3.746945   2.663295
    29  H    4.159584   5.589088   6.105868   4.234150   3.294433
    30  H    3.108455   4.510969   5.403301   4.172543   2.765034
    31  C    5.696074   6.026820   5.098980   3.172238   4.472681
    32  H    5.303334   5.796741   4.927635   2.963128   4.211684
    33  H    6.097512   6.582939   5.828467   3.666676   4.715847
    34  H    6.607463   6.795730   5.710588   4.074249   5.468375
                    6          7          8          9         10
     6  H    0.000000
     7  H    2.724753   0.000000
     8  H    3.630524   3.071574   0.000000
     9  H    3.849966   4.097917   2.793796   0.000000
    10  H    4.319181   2.516798   3.058962   3.037767   0.000000
    11  O    1.978663   2.839151   3.019337   2.033070   3.060187
    12  O    2.608168   1.995750   2.862147   4.776074   4.089335
    13  O    4.645578   2.780641   1.988290   4.223256   2.755971
    14  O    5.185881   4.052109   2.624744   2.378088   2.071535
    15  C    4.284429   4.042552   4.279298   2.184700   2.627239
    16  H    4.159274   3.638714   4.666068   3.066924   2.544934
    17  H    5.256491   4.629343   4.600213   2.580905   2.641901
    18  O    4.615713   5.083077   5.191704   2.672678   4.007472
    19  C    3.225854   3.300213   2.765651   5.022501   4.962729
    20  H    2.834730   3.713451   2.757613   4.587887   5.178860
    21  H    3.841875   4.015970   3.840987   6.084345   5.922534
    22  H    4.055779   3.647913   2.400580   5.032686   4.866272
    23  C    5.132092   2.674468   3.298549   5.197713   2.920356
    24  H    5.314760   2.699188   3.743167   5.064687   2.320072
    25  H    6.154745   3.747099   4.003483   6.058648   3.812890
    26  H    4.742600   2.307357   3.649708   5.617837   3.461963
    27  C    6.337853   4.690727   3.627235   3.785088   2.508691
    28  H    6.535264   4.692679   4.327266   4.179374   2.312900
    29  H    7.188038   5.733267   4.314484   4.209521   3.517123
    30  H    6.466763   4.586375   3.499091   4.416774   2.841421
    31  C    5.685184   6.214056   5.704447   2.928254   4.830762
    32  H    5.552321   6.162908   5.122457   2.358955   4.798036
    33  H    6.517113   6.668009   6.189647   3.510316   4.935397
    34  H    6.133488   6.998111   6.567338   3.795017   5.826580
                   11         12         13         14         15
    11  O    0.000000
    12  O    3.565412   0.000000
    13  O    4.226541   2.949853   0.000000
    14  O    3.639007   4.955548   2.970156   0.000000
    15  C    2.420461   5.470387   5.006695   3.124690   0.000000
    16  H    2.618814   5.307937   5.087144   3.714483   1.095723
    17  H    3.367314   6.120797   5.118387   2.791396   1.099891
    18  O    2.852885   6.321096   6.223080   4.262145   1.403398
    19  C    4.156465   1.437813   3.301207   5.294010   6.211283
    20  H    3.756475   2.107237   3.893419   5.308143   5.971086
    21  H    5.081622   2.021753   4.151932   6.357990   7.206010
    22  H    4.577719   2.095462   2.728913   4.902397   6.373470
    23  C    4.886595   3.261391   1.431949   3.832648   5.456913
    24  H    4.799501   3.886309   2.111654   3.588107   4.919137
    25  H    5.922349   4.088150   2.018054   4.431108   6.401765
    26  H    4.909407   2.658594   2.093681   4.639803   5.814431
    27  C    4.899631   5.717860   3.193797   1.432270   4.089797
    28  H    5.064961   6.041253   3.706323   2.092440   3.884925
    29  H    5.640103   6.661157   4.093231   2.024280   4.656106
    30  H    5.302099   5.397200   2.579459   2.093811   4.889202
    31  C    3.846619   7.305672   6.891466   4.489218   2.377476
    32  H    3.711441   7.017203   6.492506   4.054369   2.709905
    33  H    4.606023   7.922756   7.159505   4.524020   2.662292
    34  H    4.468296   8.014516   7.859413   5.550130   3.280209
                   16         17         18         19         20
    16  H    0.000000
    17  H    1.778175   0.000000
    18  O    2.023538   2.087072   0.000000
    19  C    6.264903   6.827984   6.958546   0.000000
    20  H    6.146152   6.661875   6.527677   1.097736   0.000000
    21  H    7.184089   7.858338   7.921268   1.090175   1.781302
    22  H    6.522266   6.833944   7.231781   1.093690   1.795291
    23  C    5.263568   5.542374   6.764573   4.009950   4.789825
    24  H    4.625481   4.901124   6.283948   4.816998   5.484889
    25  H    6.249503   6.373612   7.734400   4.633171   5.489851
    26  H    5.490524   6.077010   7.045095   3.594281   4.481221
    27  C    4.490537   3.494693   5.327499   6.132473   6.344864
    28  H    4.092013   3.182713   5.181508   6.675686   6.932695
    29  H    5.208544   3.916151   5.748939   6.938480   7.071976
    30  H    5.176561   4.433007   6.175406   5.749788   6.119609
    31  C    3.258517   2.526266   1.426496   7.750575   7.231961
    32  H    3.745988   2.827391   2.104519   7.274228   6.698318
    33  H    3.483879   2.357650   2.088432   8.427482   8.001347
    34  H    4.015735   3.549725   2.027031   8.430031   7.821594
                   21         22         23         24         25
    21  H    0.000000
    22  H    1.784291   0.000000
    23  C    4.656763   3.621154   0.000000
    24  H    5.528838   4.534657   1.096353   0.000000
    25  H    5.168359   4.063821   1.090855   1.777379   0.000000
    26  H    4.063369   3.436894   1.095965   1.794453   1.779250
    27  C    7.132696   5.602168   3.710463   3.309495   4.028906
    28  H    7.652266   6.258051   3.858091   3.161133   4.229404
    29  H    7.952370   6.337563   4.711150   4.361715   4.909147
    30  H    6.675225   5.099561   3.027332   2.826594   3.127430
    31  C    8.759853   7.901865   7.599292   7.148199   8.488187
    32  H    8.303467   7.341709   7.375835   7.054560   8.217468
    33  H    9.464803   8.486652   7.784856   7.224070   8.606712
    34  H    9.397411   8.666601   8.573454   8.139811   9.493307
                   26         27         28         29         30
    26  H    0.000000
    27  C    4.706378   0.000000
    28  H    4.799998   1.097894   0.000000
    29  H    5.733952   1.091358   1.784628   0.000000
    30  H    4.096031   1.093519   1.793645   1.785585   0.000000
    31  C    8.015268   5.532251   5.505429   5.687104   6.483426
    32  H    7.838964   5.208010   5.397917   5.279568   6.112427
    33  H    8.304071   5.330653   5.183795   5.365291   6.363354
    34  H    8.921719   6.621284   6.589164   6.758212   7.564588
                   31         32         33         34
    31  C    0.000000
    32  H    1.098558   0.000000
    33  H    1.098178   1.787012   0.000000
    34  H    1.091446   1.780642   1.787184   0.000000
 Stoichiometry    C10H19O5(1+)
 Framework group  C1[X(C10H19O5)]
 Deg. of freedom    96
 Full point group                 C1      NOp   1
 Largest Abelian subgroup         C1      NOp   1
 Largest concise Abelian subgroup C1      NOp   1
                         Standard orientation:                         
 ---------------------------------------------------------------------
 Center     Atomic      Atomic             Coordinates (Angstroms)
 Number     Number       Type             X           Y           Z
 ---------------------------------------------------------------------
      1          6           0       -1.190878    0.307024   -0.352768
      2          6           0       -1.483098   -0.990851    0.453601
      3          6           0       -0.374337   -1.970103    0.270594
      4          6           0        1.304871   -0.245953   -0.146945
      5          6           0        0.210355    0.820844    0.049772
      6          1           0       -0.567667   -3.042086    0.346631
      7          1           0       -1.417822   -0.739111    1.528927
      8          1           0       -1.157770    0.073190   -1.421854
      9          1           0        1.606347   -0.263904   -1.195317
     10          1           0        0.200763    1.140427    1.102555
     11          8           0        0.822704   -1.665526    0.051573
     12          8           0       -2.733715   -1.590218    0.293184
     13          8           0       -2.209529    1.265529   -0.227941
     14          8           0        0.644414    1.871728   -0.784143
     15          6           0        2.502564   -0.086728    0.789202
     16          1           0        2.181420   -0.288945    1.817105
     17          1           0        2.810124    0.967460    0.727112
     18          8           0        3.553543   -0.968772    0.494298
     19          6           0       -3.180666   -1.777786   -1.060463
     20          1           0       -2.454371   -2.349630   -1.652506
     21          1           0       -4.105103   -2.350421   -0.983088
     22          1           0       -3.383704   -0.817505   -1.542951
     23          6           0       -2.687351    1.572883    1.086478
     24          1           0       -1.888069    1.908957    1.757442
     25          1           0       -3.398801    2.389050    0.953530
     26          1           0       -3.208630    0.715847    1.527948
     27          6           0        0.333773    3.194582   -0.331420
     28          1           0        0.709459    3.358123    0.687150
     29          1           0        0.846071    3.872518   -1.016268
     30          1           0       -0.742863    3.382999   -0.365136
     31          6           0        4.444962   -0.502639   -0.517128
     32          1           0        3.944518   -0.376246   -1.486876
     33          1           0        4.903610    0.452042   -0.226919
     34          1           0        5.221992   -1.262339   -0.618783
 ---------------------------------------------------------------------
 Rotational constants (GHZ):           0.8348548           0.4070290           0.3025521
 Leave Link  202 at Fri May 24 08:30:49 2019, MaxMem=   402653184 cpu:               0.2 elap:               0.1
 (Enter /n/sw/g16_nehalem/g16/l301.exe)
 Standard basis: 6-31G(d) (6D, 7F)
 Ernie: Thresh=  0.10000D-02 Tol=  0.10000D-05 Strict=F.
 There are   263 symmetry adapted cartesian basis functions of A   symmetry.
 There are   263 symmetry adapted basis functions of A   symmetry.
   263 basis functions,   496 primitive gaussians,   263 cartesian basis functions
    59 alpha electrons       59 beta electrons
       nuclear repulsion energy      1150.5106321673 Hartrees.
 IExCor=  402 DFT=T Ex+Corr=B3LYP ExCW=0 ScaHFX=  0.200000
 ScaDFX=  0.800000  0.720000  1.000000  0.810000 ScalE2=  1.000000  1.000000
 IRadAn=      5 IRanWt=     -1 IRanGd=            0 ICorTp=0 IEmpDi=  4
 NAtoms=   34 NActive=   34 NUniq=   34 SFac= 1.00D+00 NAtFMM=   60 NAOKFM=F Big=F
 Integral buffers will be    131072 words long.
 Raffenetti 2 integral format.
 Two-electron integral symmetry is turned on.
 ------------------------------------------------------------------------------
 Polarizable Continuum Model (PCM)
 =================================
 Model                : PCM.
 Atomic radii         : UFF (Universal Force Field).
 Polarization charges : Total charges.
 Charge compensation  : None.
 Solution method      : On-the-fly selection.
 Cavity type          : Scaled VdW (van der Waals Surface) (Alpha=1.100).
 Cavity algorithm     : GePol (No added spheres)
                        Default sphere list used, NSphG=   34.
                        Lebedev-Laikov grids with approx.  5.0 points / Ang**2.
                        Smoothing algorithm: York/Karplus (Gamma=1.0000).
                        Polarization charges: spherical gaussians, with
                                              point-specific exponents (IZeta= 3).
                        Self-potential: point-specific (ISelfS= 7).
                        Self-field    : sphere-specific E.n sum rule (ISelfD= 2).
 1st derivatives      : Analytical E(r).r(x)/FMM algorithm (CHGder, D1EAlg=3).
                        Cavity 1st derivative terms included.
 Solvent              : TetraHydroFuran, Eps=   7.425700 Eps(inf)=   1.974025
 ------------------------------------------------------------------------------
 GePol: Number of generator spheres                  =      34
 GePol: Total number of spheres                      =      34
 GePol: Number of exposed spheres                    =      34 (100.00%)
 GePol: Number of points                             =    2300
 GePol: Average weight of points                     =       0.13
 GePol: Minimum weight of points                     =   0.38D-10
 GePol: Maximum weight of points                     =    0.20577
 GePol: Number of points with low weight             =     163
 GePol: Fraction of low-weight points (<1% of avg)   =       7.09%
 GePol: Cavity surface area                          =    300.863 Ang**2
 GePol: Cavity volume                                =    321.338 Ang**3
 Leave Link  301 at Fri May 24 08:30:49 2019, MaxMem=   402653184 cpu:               0.3 elap:               0.1
 (Enter /n/sw/g16_nehalem/g16/l302.exe)
 NPDir=0 NMtPBC=     1 NCelOv=     1 NCel=       1 NClECP=     1 NCelD=      1
         NCelK=      1 NCelE2=     1 NClLst=     1 CellRange=     0.0.
 One-electron integrals computed using PRISM.
 One-electron integral symmetry used in STVInt
 NBasis=   263 RedAO= T EigKep=  1.77D-03  NBF=   263
 NBsUse=   263 1.00D-06 EigRej= -1.00D+00 NBFU=   263
 Precomputing XC quadrature grid using
 IXCGrd= 4 IRadAn=           5 IRanWt=          -1 IRanGd=           0 AccXCQ= 0.00D+00.
 Generated NRdTot=       0 NPtTot=           0 NUsed=           0 NTot=          32
 NSgBfM=   262   262   262   262   262 MxSgAt=    34 MxSgA2=    34.
 Leave Link  302 at Fri May 24 08:30:50 2019, MaxMem=   402653184 cpu:               2.8 elap:               0.7
 (Enter /n/sw/g16_nehalem/g16/l303.exe)
 DipDrv:  MaxL=1.
 Leave Link  303 at Fri May 24 08:30:50 2019, MaxMem=   402653184 cpu:               0.1 elap:               0.1
 (Enter /n/sw/g16_nehalem/g16/l401.exe)
 ExpMin= 1.61D-01 ExpMax= 5.48D+03 ExpMxC= 8.25D+02 IAcc=3 IRadAn=         5 AccDes= 0.00D+00
 Harris functional with IExCor=  402 and IRadAn=       5 diagonalized for initial guess.
 HarFok:  IExCor=  402 AccDes= 0.00D+00 IRadAn=         5 IDoV= 1 UseB2=F ITyADJ=14
 ICtDFT=  3500011 ScaDFX=  1.000000  1.000000  1.000000  1.000000
 FoFCou: FMM=F IPFlag=           0 FMFlag=      100000 FMFlg1=           0
         NFxFlg=           0 DoJE=T BraDBF=F KetDBF=T FulRan=T
         wScrn=  0.000000 ICntrl=       500 IOpCl=  0 I1Cent=   200000004 NGrid=           0
         NMat0=    1 NMatS0=      1 NMatT0=    0 NMatD0=    1 NMtDS0=    0 NMtDT0=    0
 Petite list used in FoFCou.
 Harris En= -768.258767581450    
 JPrj=0 DoOrth=F DoCkMO=F.
 Leave Link  401 at Fri May 24 08:30:55 2019, MaxMem=   402653184 cpu:              20.6 elap:               5.2
 (Enter /n/sw/g16_nehalem/g16/l502.exe)
 Integral symmetry usage will be decided dynamically.
 Closed shell SCF:
 Using DIIS extrapolation, IDIIS=  1040.
 NGot=   402653184 LenX=   402510103 LenY=   402440493
 Requested convergence on RMS density matrix=1.00D-08 within 128 cycles.
 Requested convergence on MAX density matrix=1.00D-06.
 Requested convergence on             energy=1.00D-06.
 No special actions if energy rises.
 Fock matrices will be formed incrementally for  20 cycles.

 Cycle   1  Pass 1  IDiag  1:
 FoFJK:  IHMeth= 1 ICntrl=       0 DoSepK=F KAlg= 0 I1Cent=           0 FoldK=F
 IRaf= 870000000 NMat=       1 IRICut=       1 DoRegI=T DoRafI=F ISym2E= 0 IDoP0=0 IntGTp=1.
 FoFCou: FMM=F IPFlag=           0 FMFlag=      100000 FMFlg1=           0
         NFxFlg=           0 DoJE=F BraDBF=F KetDBF=F FulRan=T
         wScrn=  0.000000 ICntrl=         0 IOpCl=  0 I1Cent=           0 NGrid=           0
         NMat0=    1 NMatS0=      1 NMatT0=    0 NMatD0=    1 NMtDS0=    0 NMtDT0=    0
 Symmetry not used in FoFCou.
 Inv3:  Mode=1 IEnd=    15870000.
 Iteration    1 A*A^-1 deviation from unit magnitude is 5.44D-15 for   1138.
 Iteration    1 A*A^-1 deviation from orthogonality  is 2.41D-15 for   2149    570.
 Iteration    1 A^-1*A deviation from unit magnitude is 6.55D-15 for   1138.
 Iteration    1 A^-1*A deviation from orthogonality  is 1.41D-14 for   2072   2048.
 E= -768.083037409626    
 DIIS: error= 2.16D-02 at cycle   1 NSaved=   1.
 NSaved= 1 IEnMin= 1 EnMin= -768.083037409626     IErMin= 1 ErrMin= 2.16D-02
 ErrMax= 2.16D-02  0.00D+00 EMaxC= 1.00D-01 BMatC= 2.56D-01 BMatP= 2.56D-01
 IDIUse=3 WtCom= 7.84D-01 WtEn= 2.16D-01
 Coeff-Com:  0.100D+01
 Coeff-En:   0.100D+01
 Coeff:      0.100D+01
 Gap=     0.006 Goal=   None    Shift=    0.000
 GapD=    0.006 DampG=0.250 DampE=0.500 DampFc=0.2500 IDamp=-1.
 Damping current iteration by 2.50D-01
 RMSDP=4.93D-03 MaxDP=1.36D-01              OVMax= 3.89D-01

 Cycle   2  Pass 1  IDiag  1:
 RMSU=  1.23D-03    CP:  9.94D-01
 E= -768.156009919633     Delta-E=       -0.072972510008 Rises=F Damp=T
 DIIS: error= 1.08D-02 at cycle   2 NSaved=   2.
 NSaved= 2 IEnMin= 2 EnMin= -768.156009919633     IErMin= 2 ErrMin= 1.08D-02
 ErrMax= 1.08D-02  0.00D+00 EMaxC= 1.00D-01 BMatC= 6.94D-02 BMatP= 2.56D-01
 IDIUse=3 WtCom= 8.92D-01 WtEn= 1.08D-01
 Coeff-Com: -0.679D+00 0.168D+01
 Coeff-En:   0.000D+00 0.100D+01
 Coeff:     -0.606D+00 0.161D+01
 Gap=     0.111 Goal=   None    Shift=    0.000
 RMSDP=1.47D-03 MaxDP=4.05D-02 DE=-7.30D-02 OVMax= 4.22D-01

 Cycle   3  Pass 1  IDiag  1:
 RMSU=  1.44D-03    CP:  9.86D-01  1.17D+00
 E= -768.283061817567     Delta-E=       -0.127051897934 Rises=F Damp=F
 DIIS: error= 7.77D-03 at cycle   3 NSaved=   3.
 NSaved= 3 IEnMin= 3 EnMin= -768.283061817567     IErMin= 3 ErrMin= 7.77D-03
 ErrMax= 7.77D-03  0.00D+00 EMaxC= 1.00D-01 BMatC= 4.60D-02 BMatP= 6.94D-02
 IDIUse=3 WtCom= 9.22D-01 WtEn= 7.77D-02
 Coeff-Com: -0.507D+00 0.103D+01 0.479D+00
 Coeff-En:   0.000D+00 0.000D+00 0.100D+01
 Coeff:     -0.468D+00 0.948D+00 0.520D+00
 Gap=     0.141 Goal=   None    Shift=    0.000
 RMSDP=8.72D-04 MaxDP=3.03D-02 DE=-1.27D-01 OVMax= 4.18D-02

 Cycle   4  Pass 1  IDiag  1:
 RMSU=  6.39D-04    CP:  9.89D-01  1.37D+00  6.32D-01
 E= -768.320717814811     Delta-E=       -0.037655997244 Rises=F Damp=F
 DIIS: error= 2.06D-03 at cycle   4 NSaved=   4.
 NSaved= 4 IEnMin= 4 EnMin= -768.320717814811     IErMin= 4 ErrMin= 2.06D-03
 ErrMax= 2.06D-03  0.00D+00 EMaxC= 1.00D-01 BMatC= 3.11D-03 BMatP= 4.60D-02
 IDIUse=3 WtCom= 9.79D-01 WtEn= 2.06D-02
 Coeff-Com: -0.220D+00 0.374D+00 0.215D+00 0.632D+00
 Coeff-En:   0.000D+00 0.000D+00 0.000D+00 0.100D+01
 Coeff:     -0.215D+00 0.366D+00 0.210D+00 0.639D+00
 Gap=     0.127 Goal=   None    Shift=    0.000
 RMSDP=2.25D-04 MaxDP=1.07D-02 DE=-3.77D-02 OVMax= 1.37D-02

 Cycle   5  Pass 1  IDiag  1:
 RMSU=  1.97D-04    CP:  9.89D-01  1.40D+00  6.88D-01  8.97D-01
 E= -768.322812146591     Delta-E=       -0.002094331780 Rises=F Damp=F
 DIIS: error= 9.69D-04 at cycle   5 NSaved=   5.
 NSaved= 5 IEnMin= 5 EnMin= -768.322812146591     IErMin= 5 ErrMin= 9.69D-04
 ErrMax= 9.69D-04  0.00D+00 EMaxC= 1.00D-01 BMatC= 9.05D-04 BMatP= 3.11D-03
 IDIUse=3 WtCom= 9.90D-01 WtEn= 9.69D-03
 Coeff-Com: -0.902D-01 0.134D+00 0.402D-01 0.355D+00 0.561D+00
 Coeff-En:   0.000D+00 0.000D+00 0.000D+00 0.129D+00 0.871D+00
 Coeff:     -0.893D-01 0.132D+00 0.398D-01 0.353D+00 0.564D+00
 Gap=     0.127 Goal=   None    Shift=    0.000
 RMSDP=9.76D-05 MaxDP=5.80D-03 DE=-2.09D-03 OVMax= 4.86D-03

 Cycle   6  Pass 1  IDiag  1:
 RMSU=  6.95D-05    CP:  9.89D-01  1.42D+00  6.85D-01  9.78D-01  7.94D-01
 E= -768.323404809092     Delta-E=       -0.000592662501 Rises=F Damp=F
 DIIS: error= 4.08D-04 at cycle   6 NSaved=   6.
 NSaved= 6 IEnMin= 6 EnMin= -768.323404809092     IErMin= 6 ErrMin= 4.08D-04
 ErrMax= 4.08D-04  0.00D+00 EMaxC= 1.00D-01 BMatC= 1.21D-04 BMatP= 9.05D-04
 IDIUse=3 WtCom= 9.96D-01 WtEn= 4.08D-03
 Coeff-Com: -0.337D-01 0.430D-01-0.107D-01 0.139D+00 0.343D+00 0.520D+00
 Coeff-En:   0.000D+00 0.000D+00 0.000D+00 0.000D+00 0.000D+00 0.100D+01
 Coeff:     -0.336D-01 0.428D-01-0.107D-01 0.139D+00 0.341D+00 0.522D+00
 Gap=     0.126 Goal=   None    Shift=    0.000
 RMSDP=3.64D-05 MaxDP=2.53D-03 DE=-5.93D-04 OVMax= 2.44D-03

 Cycle   7  Pass 1  IDiag  1:
 RMSU=  2.65D-05    CP:  9.89D-01  1.42D+00  6.83D-01  1.01D+00  8.59D-01
                    CP:  8.39D-01
 E= -768.323498179444     Delta-E=       -0.000093370352 Rises=F Damp=F
 DIIS: error= 1.26D-04 at cycle   7 NSaved=   7.
 NSaved= 7 IEnMin= 7 EnMin= -768.323498179444     IErMin= 7 ErrMin= 1.26D-04
 ErrMax= 1.26D-04  0.00D+00 EMaxC= 1.00D-01 BMatC= 1.25D-05 BMatP= 1.21D-04
 IDIUse=3 WtCom= 9.99D-01 WtEn= 1.26D-03
 Coeff-Com: -0.736D-02 0.693D-02-0.161D-01 0.248D-01 0.113D+00 0.289D+00
 Coeff-Com:  0.589D+00
 Coeff-En:   0.000D+00 0.000D+00 0.000D+00 0.000D+00 0.000D+00 0.000D+00
 Coeff-En:   0.100D+01
 Coeff:     -0.735D-02 0.692D-02-0.161D-01 0.247D-01 0.113D+00 0.289D+00
 Coeff:      0.589D+00
 Gap=     0.126 Goal=   None    Shift=    0.000
 RMSDP=1.57D-05 MaxDP=7.60D-04 DE=-9.34D-05 OVMax= 1.19D-03

 Cycle   8  Pass 1  IDiag  1:
 RMSU=  9.07D-06    CP:  9.89D-01  1.42D+00  6.83D-01  1.02D+00  8.92D-01
                    CP:  9.11D-01  8.23D-01
 E= -768.323509601471     Delta-E=       -0.000011422027 Rises=F Damp=F
 DIIS: error= 4.59D-05 at cycle   8 NSaved=   8.
 NSaved= 8 IEnMin= 8 EnMin= -768.323509601471     IErMin= 8 ErrMin= 4.59D-05
 ErrMax= 4.59D-05  0.00D+00 EMaxC= 1.00D-01 BMatC= 8.76D-07 BMatP= 1.25D-05
 IDIUse=1 WtCom= 1.00D+00 WtEn= 0.00D+00
 Coeff-Com:  0.240D-03-0.918D-03-0.543D-02-0.823D-02-0.870D-03 0.422D-01
 Coeff-Com:  0.248D+00 0.725D+00
 Coeff:      0.240D-03-0.918D-03-0.543D-02-0.823D-02-0.870D-03 0.422D-01
 Coeff:      0.248D+00 0.725D+00
 Gap=     0.126 Goal=   None    Shift=    0.000
 RMSDP=5.81D-06 MaxDP=1.52D-04 DE=-1.14D-05 OVMax= 7.99D-04

 Cycle   9  Pass 1  IDiag  1:
 RMSU=  3.18D-06    CP:  9.89D-01  1.42D+00  6.83D-01  1.02D+00  9.03D-01
                    CP:  9.40D-01  9.11D-01  9.69D-01
 E= -768.323510461263     Delta-E=       -0.000000859792 Rises=F Damp=F
 DIIS: error= 1.05D-05 at cycle   9 NSaved=   9.
 NSaved= 9 IEnMin= 9 EnMin= -768.323510461263     IErMin= 9 ErrMin= 1.05D-05
 ErrMax= 1.05D-05  0.00D+00 EMaxC= 1.00D-01 BMatC= 1.32D-07 BMatP= 8.76D-07
 IDIUse=1 WtCom= 1.00D+00 WtEn= 0.00D+00
 Coeff-Com:  0.466D-03-0.640D-03-0.140D-02-0.581D-02-0.979D-02-0.262D-02
 Coeff-Com:  0.773D-01 0.388D+00 0.555D+00
 Coeff:      0.466D-03-0.640D-03-0.140D-02-0.581D-02-0.979D-02-0.262D-02
 Coeff:      0.773D-01 0.388D+00 0.555D+00
 Gap=     0.126 Goal=   None    Shift=    0.000
 RMSDP=1.76D-06 MaxDP=4.79D-05 DE=-8.60D-07 OVMax= 2.13D-04

 Cycle  10  Pass 1  IDiag  1:
 RMSU=  1.09D-06    CP:  9.89D-01  1.42D+00  6.84D-01  1.02D+00  9.05D-01
                    CP:  9.49D-01  9.32D-01  1.03D+00  8.10D-01
 E= -768.323510585715     Delta-E=       -0.000000124452 Rises=F Damp=F
 DIIS: error= 2.19D-06 at cycle  10 NSaved=  10.
 NSaved=10 IEnMin=10 EnMin= -768.323510585715     IErMin=10 ErrMin= 2.19D-06
 ErrMax= 2.19D-06  0.00D+00 EMaxC= 1.00D-01 BMatC= 4.92D-09 BMatP= 1.32D-07
 IDIUse=1 WtCom= 1.00D+00 WtEn= 0.00D+00
 Coeff-Com:  0.247D-03-0.305D-03-0.868D-05-0.131D-02-0.378D-02-0.511D-02
 Coeff-Com: -0.228D-02 0.482D-01 0.168D+00 0.796D+00
 Coeff:      0.247D-03-0.305D-03-0.868D-05-0.131D-02-0.378D-02-0.511D-02
 Coeff:     -0.228D-02 0.482D-01 0.168D+00 0.796D+00
 Gap=     0.126 Goal=   None    Shift=    0.000
 RMSDP=6.98D-07 MaxDP=1.76D-05 DE=-1.24D-07 OVMax= 1.02D-04

 Cycle  11  Pass 1  IDiag  1:
 RMSU=  2.84D-07    CP:  9.89D-01  1.42D+00  6.84D-01  1.02D+00  9.06D-01
                    CP:  9.53D-01  9.40D-01  1.06D+00  8.61D-01  9.89D-01
 E= -768.323510593177     Delta-E=       -0.000000007462 Rises=F Damp=F
 DIIS: error= 8.54D-07 at cycle  11 NSaved=  11.
 NSaved=11 IEnMin=11 EnMin= -768.323510593177     IErMin=11 ErrMin= 8.54D-07
 ErrMax= 8.54D-07  0.00D+00 EMaxC= 1.00D-01 BMatC= 9.31D-10 BMatP= 4.92D-09
 IDIUse=1 WtCom= 1.00D+00 WtEn= 0.00D+00
 Coeff-Com:  0.627D-04-0.699D-04 0.901D-04-0.151D-03-0.104D-02-0.178D-02
 Coeff-Com: -0.614D-02-0.214D-02 0.417D-01 0.388D+00 0.582D+00
 Coeff:      0.627D-04-0.699D-04 0.901D-04-0.151D-03-0.104D-02-0.178D-02
 Coeff:     -0.614D-02-0.214D-02 0.417D-01 0.388D+00 0.582D+00
 Gap=     0.126 Goal=   None    Shift=    0.000
 RMSDP=1.93D-07 MaxDP=5.22D-06 DE=-7.46D-09 OVMax= 2.22D-05

 Cycle  12  Pass 1  IDiag  1:
 RMSU=  1.14D-07    CP:  9.89D-01  1.42D+00  6.84D-01  1.02D+00  9.06D-01
                    CP:  9.53D-01  9.41D-01  1.06D+00  8.83D-01  1.03D+00
                    CP:  7.27D-01
 E= -768.323510594185     Delta-E=       -0.000000001008 Rises=F Damp=F
 DIIS: error= 3.09D-07 at cycle  12 NSaved=  12.
 NSaved=12 IEnMin=12 EnMin= -768.323510594185     IErMin=12 ErrMin= 3.09D-07
 ErrMax= 3.09D-07  0.00D+00 EMaxC= 1.00D-01 BMatC= 9.77D-11 BMatP= 9.31D-10
 IDIUse=1 WtCom= 1.00D+00 WtEn= 0.00D+00
 Coeff-Com:  0.816D-05-0.915D-05 0.442D-04 0.104D-03 0.218D-04-0.344D-04
 Coeff-Com: -0.294D-02-0.917D-02-0.838D-02 0.465D-01 0.259D+00 0.715D+00
 Coeff:      0.816D-05-0.915D-05 0.442D-04 0.104D-03 0.218D-04-0.344D-04
 Coeff:     -0.294D-02-0.917D-02-0.838D-02 0.465D-01 0.259D+00 0.715D+00
 Gap=     0.126 Goal=   None    Shift=    0.000
 RMSDP=7.11D-08 MaxDP=1.99D-06 DE=-1.01D-09 OVMax= 9.45D-06

 Cycle  13  Pass 1  IDiag  1:
 RMSU=  2.55D-08    CP:  9.89D-01  1.42D+00  6.84D-01  1.02D+00  9.06D-01
                    CP:  9.54D-01  9.41D-01  1.07D+00  8.87D-01  1.06D+00
                    CP:  8.46D-01  8.71D-01
 E= -768.323510594338     Delta-E=       -0.000000000153 Rises=F Damp=F
 DIIS: error= 6.44D-08 at cycle  13 NSaved=  13.
 NSaved=13 IEnMin=13 EnMin= -768.323510594338     IErMin=13 ErrMin= 6.44D-08
 ErrMax= 6.44D-08  0.00D+00 EMaxC= 1.00D-01 BMatC= 4.23D-12 BMatP= 9.77D-11
 IDIUse=1 WtCom= 1.00D+00 WtEn= 0.00D+00
 Coeff-Com: -0.175D-05 0.232D-05 0.117D-04 0.533D-04 0.749D-04 0.128D-03
 Coeff-Com: -0.732D-03-0.313D-02-0.531D-02-0.283D-02 0.654D-01 0.262D+00
 Coeff-Com:  0.685D+00
 Coeff:     -0.175D-05 0.232D-05 0.117D-04 0.533D-04 0.749D-04 0.128D-03
 Coeff:     -0.732D-03-0.313D-02-0.531D-02-0.283D-02 0.654D-01 0.262D+00
 Coeff:      0.685D+00
 Gap=     0.126 Goal=   None    Shift=    0.000
 RMSDP=1.20D-08 MaxDP=3.54D-07 DE=-1.53D-10 OVMax= 1.09D-06

 Cycle  14  Pass 1  IDiag  1:
 RMSU=  8.87D-09    CP:  9.89D-01  1.42D+00  6.84D-01  1.02D+00  9.06D-01
                    CP:  9.54D-01  9.41D-01  1.07D+00  8.88D-01  1.06D+00
                    CP:  8.57D-01  9.18D-01  9.68D-01
 E= -768.323510594328     Delta-E=        0.000000000010 Rises=F Damp=F
 DIIS: error= 2.85D-08 at cycle  14 NSaved=  14.
 NSaved=14 IEnMin=13 EnMin= -768.323510594338     IErMin=14 ErrMin= 2.85D-08
 ErrMax= 2.85D-08  0.00D+00 EMaxC= 1.00D-01 BMatC= 7.31D-13 BMatP= 4.23D-12
 IDIUse=1 WtCom= 1.00D+00 WtEn= 0.00D+00
 Coeff-Com: -0.117D-05 0.133D-05-0.113D-05 0.570D-05 0.221D-04 0.552D-04
 Coeff-Com:  0.912D-04 0.989D-06-0.105D-02-0.704D-02-0.781D-02 0.143D-01
 Coeff-Com:  0.318D+00 0.683D+00
 Coeff:     -0.117D-05 0.133D-05-0.113D-05 0.570D-05 0.221D-04 0.552D-04
 Coeff:      0.912D-04 0.989D-06-0.105D-02-0.704D-02-0.781D-02 0.143D-01
 Coeff:      0.318D+00 0.683D+00
 Gap=     0.126 Goal=   None    Shift=    0.000
 RMSDP=4.51D-09 MaxDP=1.33D-07 DE= 1.00D-11 OVMax= 4.45D-07

 Error on total polarization charges =  0.01269
 SCF Done:  E(RB3LYP) =  -768.323510594     A.U. after   14 cycles
            NFock= 14  Conv=0.45D-08     -V/T= 2.0091
 KE= 7.613963202932D+02 PE=-4.075515627889D+03 EE= 1.395285164835D+03
 Leave Link  502 at Fri May 24 08:33:11 2019, MaxMem=   402653184 cpu:             543.4 elap:             136.0
 (Enter /n/sw/g16_nehalem/g16/l601.exe)
 Copying SCF densities to generalized density rwf, IOpCl= 0 IROHF=0.

 **********************************************************************

            Population analysis using the SCF density.

 **********************************************************************

 Orbital symmetries:
       Occupied  (A) (A) (A) (A) (A) (A) (A) (A) (A) (A) (A) (A)
                 (A) (A) (A) (A) (A) (A) (A) (A) (A) (A) (A) (A)
                 (A) (A) (A) (A) (A) (A) (A) (A) (A) (A) (A) (A)
                 (A) (A) (A) (A) (A) (A) (A) (A) (A) (A) (A) (A)
                 (A) (A) (A) (A) (A) (A) (A) (A) (A) (A) (A)
       Virtual   (A) (A) (A) (A) (A) (A) (A) (A) (A) (A) (A) (A)
                 (A) (A) (A) (A) (A) (A) (A) (A) (A) (A) (A) (A)
                 (A) (A) (A) (A) (A) (A) (A) (A) (A) (A) (A) (A)
                 (A) (A) (A) (A) (A) (A) (A) (A) (A) (A) (A) (A)
                 (A) (A) (A) (A) (A) (A) (A) (A) (A) (A) (A) (A)
                 (A) (A) (A) (A) (A) (A) (A) (A) (A) (A) (A) (A)
                 (A) (A) (A) (A) (A) (A) (A) (A) (A) (A) (A) (A)
                 (A) (A) (A) (A) (A) (A) (A) (A) (A) (A) (A) (A)
                 (A) (A) (A) (A) (A) (A) (A) (A) (A) (A) (A) (A)
                 (A) (A) (A) (A) (A) (A) (A) (A) (A) (A) (A) (A)
                 (A) (A) (A) (A) (A) (A) (A) (A) (A) (A) (A) (A)
                 (A) (A) (A) (A) (A) (A) (A) (A) (A) (A) (A) (A)
                 (A) (A) (A) (A) (A) (A) (A) (A) (A) (A) (A) (A)
                 (A) (A) (A) (A) (A) (A) (A) (A) (A) (A) (A) (A)
                 (A) (A) (A) (A) (A) (A) (A) (A) (A) (A) (A) (A)
                 (A) (A) (A) (A) (A) (A) (A) (A) (A) (A) (A) (A)
                 (A) (A) (A) (A) (A) (A) (A) (A) (A) (A) (A) (A)
 The electronic state is 1-A.
 Alpha  occ. eigenvalues --  -19.33160 -19.21014 -19.19881 -19.19556 -19.18476
 Alpha  occ. eigenvalues --  -10.39861 -10.32216 -10.32155 -10.30060 -10.29927
 Alpha  occ. eigenvalues --  -10.28071 -10.26054 -10.25577 -10.25089 -10.24810
 Alpha  occ. eigenvalues --   -1.21840  -1.09971  -1.08365  -1.06862  -1.06663
 Alpha  occ. eigenvalues --   -0.87350  -0.86084  -0.77869  -0.75159  -0.74653
 Alpha  occ. eigenvalues --   -0.71760  -0.69705  -0.68065  -0.65183  -0.62746
 Alpha  occ. eigenvalues --   -0.60665  -0.58836  -0.55790  -0.54933  -0.54301
 Alpha  occ. eigenvalues --   -0.52785  -0.51715  -0.50963  -0.50805  -0.49427
 Alpha  occ. eigenvalues --   -0.48780  -0.47910  -0.46580  -0.45688  -0.45445
 Alpha  occ. eigenvalues --   -0.44296  -0.43538  -0.42489  -0.42132  -0.40763
 Alpha  occ. eigenvalues --   -0.40187  -0.37303  -0.36200  -0.35245  -0.34949
 Alpha  occ. eigenvalues --   -0.32768  -0.31523  -0.29665  -0.27933
 Alpha virt. eigenvalues --   -0.15367  -0.00107   0.04399   0.04673   0.06694
 Alpha virt. eigenvalues --    0.06896   0.07299   0.08327   0.08613   0.09851
 Alpha virt. eigenvalues --    0.11193   0.11378   0.12224   0.12604   0.13200
 Alpha virt. eigenvalues --    0.13548   0.13872   0.14219   0.14581   0.14993
 Alpha virt. eigenvalues --    0.15783   0.16211   0.16701   0.17038   0.17721
 Alpha virt. eigenvalues --    0.18265   0.19063   0.20191   0.20990   0.22037
 Alpha virt. eigenvalues --    0.23516   0.25723   0.25923   0.27580   0.29270
 Alpha virt. eigenvalues --    0.43892   0.45302   0.46273   0.46998   0.47761
 Alpha virt. eigenvalues --    0.48148   0.49476   0.50466   0.50515   0.52328
 Alpha virt. eigenvalues --    0.52834   0.53577   0.54241   0.54558   0.55364
 Alpha virt. eigenvalues --    0.57173   0.58475   0.58717   0.61386   0.62510
 Alpha virt. eigenvalues --    0.63393   0.66729   0.67762   0.69685   0.71662
 Alpha virt. eigenvalues --    0.73607   0.73667   0.75492   0.76954   0.77494
 Alpha virt. eigenvalues --    0.78230   0.79518   0.80766   0.81545   0.82005
 Alpha virt. eigenvalues --    0.83237   0.83443   0.83951   0.84712   0.85249
 Alpha virt. eigenvalues --    0.85442   0.86759   0.87445   0.88515   0.89824
 Alpha virt. eigenvalues --    0.91388   0.92072   0.92875   0.94567   0.95842
 Alpha virt. eigenvalues --    0.96629   0.97221   0.98339   1.00400   1.00541
 Alpha virt. eigenvalues --    1.04257   1.04363   1.08677   1.11126   1.13174
 Alpha virt. eigenvalues --    1.13480   1.14475   1.16255   1.19841   1.23120
 Alpha virt. eigenvalues --    1.24698   1.26695   1.27070   1.30358   1.31840
 Alpha virt. eigenvalues --    1.32944   1.33676   1.38271   1.39233   1.43066
 Alpha virt. eigenvalues --    1.43252   1.44692   1.46082   1.46543   1.49143
 Alpha virt. eigenvalues --    1.52653   1.56314   1.57234   1.58447   1.59844
 Alpha virt. eigenvalues --    1.64544   1.65772   1.67391   1.68348   1.71515
 Alpha virt. eigenvalues --    1.73022   1.75329   1.78502   1.79678   1.80224
 Alpha virt. eigenvalues --    1.82019   1.83263   1.84365   1.85143   1.87238
 Alpha virt. eigenvalues --    1.90227   1.92310   1.94029   1.98443   2.00168
 Alpha virt. eigenvalues --    2.00549   2.01658   2.02225   2.03377   2.04923
 Alpha virt. eigenvalues --    2.05390   2.06350   2.08840   2.09675   2.10294
 Alpha virt. eigenvalues --    2.11325   2.12745   2.14939   2.15310   2.17335
 Alpha virt. eigenvalues --    2.18325   2.19617   2.21992   2.23484   2.24702
 Alpha virt. eigenvalues --    2.26004   2.27514   2.28178   2.34610   2.35916
 Alpha virt. eigenvalues --    2.37478   2.39100   2.42419   2.42685   2.47417
 Alpha virt. eigenvalues --    2.51505   2.52643   2.54066   2.56048   2.59357
 Alpha virt. eigenvalues --    2.62668   2.64518   2.70873   2.72848   2.73808
 Alpha virt. eigenvalues --    2.76616   2.79022   2.84504   2.87475   2.92891
 Alpha virt. eigenvalues --    2.93374   2.98152   3.02047   3.07480   3.83694
 Alpha virt. eigenvalues --    3.91105   3.95565   4.00754   4.06752   4.13878
 Alpha virt. eigenvalues --    4.21800   4.23481   4.23945   4.25286   4.29288
 Alpha virt. eigenvalues --    4.36450   4.44587   4.52659   4.63825
          Condensed to atoms (all electrons):
               1          2          3          4          5          6
     1  C    5.017376   0.215637  -0.033468  -0.035762   0.276732   0.002900
     2  C    0.215637   5.141130   0.268328  -0.001618  -0.039623  -0.042392
     3  C   -0.033468   0.268328   4.857993  -0.039129  -0.000369   0.358197
     4  C   -0.035762  -0.001618  -0.039129   5.169571   0.264059   0.002971
     5  C    0.276732  -0.039623  -0.000369   0.264059   5.076124  -0.000248
     6  H    0.002900  -0.042392   0.358197   0.002971  -0.000248   0.424431
     7  H   -0.033447   0.368362  -0.046337   0.001249  -0.006193   0.001125
     8  H    0.381300  -0.042178  -0.003648  -0.002512  -0.048859  -0.000034
     9  H   -0.005025   0.000743   0.000169   0.364669  -0.035112  -0.000164
    10  H   -0.054715  -0.001672   0.000384  -0.046234   0.356768  -0.000018
    11  O    0.003008  -0.026704   0.376094   0.121524  -0.023610  -0.033402
    12  O   -0.029068   0.238334  -0.032388  -0.000001   0.002435   0.004175
    13  O    0.263079  -0.037918   0.002674   0.002209  -0.037968  -0.000037
    14  O   -0.036923   0.002786  -0.000086  -0.033713   0.193130   0.000003
    15  C    0.001949  -0.000232   0.001572   0.315194  -0.019145  -0.000150
    16  H   -0.000202  -0.000114   0.001311  -0.043461  -0.002679  -0.000021
    17  H    0.000439  -0.000041   0.000033  -0.057249   0.004981   0.000006
    18  O   -0.000042  -0.000014   0.000321  -0.044281   0.002379   0.000024
    19  C   -0.003066  -0.048239  -0.004464  -0.000001   0.000135   0.000126
    20  H   -0.001810  -0.003508   0.006027  -0.000039   0.000031  -0.000031
    21  H    0.000015   0.005075  -0.000067   0.000000  -0.000004  -0.000077
    22  H    0.005652  -0.009058  -0.000466  -0.000005   0.000153   0.000119
    23  C   -0.042214  -0.005095   0.000232   0.000211  -0.005960  -0.000001
    24  H   -0.003383  -0.002300   0.000075  -0.000295   0.004348  -0.000001
    25  H    0.005113   0.000026  -0.000005  -0.000001  -0.000040   0.000000
    26  H   -0.010519   0.006510   0.000127   0.000023  -0.000587   0.000011
    27  C   -0.002616  -0.000023   0.000003   0.003628  -0.028240   0.000000
    28  H   -0.000565   0.000067  -0.000003   0.000010  -0.010643   0.000000
    29  H   -0.000101   0.000004   0.000000  -0.000169   0.004789   0.000000
    30  H    0.001484  -0.000049  -0.000003   0.000042  -0.004246   0.000000
    31  C   -0.000004   0.000000  -0.000005  -0.004143  -0.000004   0.000000
    32  H    0.000013   0.000000  -0.000005   0.004500  -0.000391   0.000000
    33  H    0.000000   0.000000   0.000002  -0.001316   0.000086   0.000000
    34  H    0.000000   0.000000   0.000000  -0.000098   0.000002   0.000000
               7          8          9         10         11         12
     1  C   -0.033447   0.381300  -0.005025  -0.054715   0.003008  -0.029068
     2  C    0.368362  -0.042178   0.000743  -0.001672  -0.026704   0.238334
     3  C   -0.046337  -0.003648   0.000169   0.000384   0.376094  -0.032388
     4  C    0.001249  -0.002512   0.364669  -0.046234   0.121524  -0.000001
     5  C   -0.006193  -0.048859  -0.035112   0.356768  -0.023610   0.002435
     6  H    0.001125  -0.000034  -0.000164  -0.000018  -0.033402   0.004175
     7  H    0.484683   0.004205   0.000001   0.004893  -0.000070  -0.036192
     8  H    0.004205   0.544284   0.002728   0.005630   0.000712  -0.003258
     9  H    0.000001   0.002728   0.473854   0.005374  -0.028260   0.000000
    10  H    0.004893   0.005630   0.005374   0.582561   0.000888  -0.000053
    11  O   -0.000070   0.000712  -0.028260   0.000888   7.941531   0.001638
    12  O   -0.036192  -0.003258   0.000000  -0.000053   0.001638   8.185615
    13  O   -0.005045  -0.042409  -0.000032  -0.002527   0.000013   0.003776
    14  O   -0.000005   0.002335   0.005992  -0.034764   0.001098  -0.000007
    15  C    0.000146  -0.000035  -0.033296  -0.002985  -0.038065   0.000000
    16  H    0.000040   0.000006   0.003936   0.004293  -0.003415   0.000000
    17  H   -0.000016  -0.000013  -0.001808  -0.000608   0.002876   0.000000
    18  O    0.000000   0.000001  -0.002685   0.000087   0.001536   0.000000
    19  C    0.005166   0.005271  -0.000003   0.000002  -0.000003   0.230767
    20  H   -0.000294   0.000206   0.000003  -0.000001  -0.000440  -0.036013
    21  H   -0.000130  -0.000017   0.000000   0.000000   0.000001  -0.029804
    22  H   -0.000120  -0.002407  -0.000002  -0.000009   0.000029  -0.032636
    23  C    0.006924   0.005597  -0.000001   0.002233   0.000001  -0.004332
    24  H   -0.000735  -0.000357  -0.000002   0.002282  -0.000003   0.000327
    25  H   -0.000106  -0.000134   0.000000  -0.000052   0.000000   0.000012
    26  H   -0.000491  -0.000071   0.000000  -0.000158  -0.000004   0.006823
    27  C   -0.000025  -0.000148  -0.000182  -0.006063  -0.000044   0.000000
    28  H    0.000005   0.000056   0.000097   0.011973  -0.000002   0.000000
    29  H    0.000000  -0.000003  -0.000021  -0.000005   0.000000   0.000000
    30  H    0.000000  -0.000062   0.000002  -0.001278   0.000003   0.000001
    31  C    0.000000   0.000000   0.003431   0.000014  -0.000006   0.000000
    32  H    0.000000  -0.000002   0.002933  -0.000014   0.000093   0.000000
    33  H    0.000000   0.000000  -0.000073   0.000005   0.000005   0.000000
    34  H    0.000000   0.000000  -0.000146   0.000000  -0.000003   0.000000
              13         14         15         16         17         18
     1  C    0.263079  -0.036923   0.001949  -0.000202   0.000439  -0.000042
     2  C   -0.037918   0.002786  -0.000232  -0.000114  -0.000041  -0.000014
     3  C    0.002674  -0.000086   0.001572   0.001311   0.000033   0.000321
     4  C    0.002209  -0.033713   0.315194  -0.043461  -0.057249  -0.044281
     5  C   -0.037968   0.193130  -0.019145  -0.002679   0.004981   0.002379
     6  H   -0.000037   0.000003  -0.000150  -0.000021   0.000006   0.000024
     7  H   -0.005045  -0.000005   0.000146   0.000040  -0.000016   0.000000
     8  H   -0.042409   0.002335  -0.000035   0.000006  -0.000013   0.000001
     9  H   -0.000032   0.005992  -0.033296   0.003936  -0.001808  -0.002685
    10  H   -0.002527  -0.034764  -0.002985   0.004293  -0.000608   0.000087
    11  O    0.000013   0.001098  -0.038065  -0.003415   0.002876   0.001536
    12  O    0.003776  -0.000007   0.000000   0.000000   0.000000   0.000000
    13  O    8.189807   0.001259  -0.000022   0.000000   0.000000   0.000000
    14  O    0.001259   8.251686  -0.003457   0.000234   0.005430  -0.000007
    15  C   -0.000022  -0.003457   4.883645   0.376601   0.361294   0.258445
    16  H    0.000000   0.000234   0.376601   0.531456  -0.026338  -0.035486
    17  H    0.000000   0.005430   0.361294  -0.026338   0.549749  -0.028965
    18  O    0.000000  -0.000007   0.258445  -0.035486  -0.028965   8.175629
    19  C   -0.003808  -0.000001   0.000000   0.000000   0.000000   0.000000
    20  H    0.000228   0.000000   0.000000   0.000000   0.000000   0.000000
    21  H    0.000006   0.000000   0.000000   0.000000   0.000000   0.000000
    22  H    0.006589   0.000003   0.000000   0.000000   0.000000   0.000000
    23  C    0.229080  -0.000048  -0.000001  -0.000002  -0.000001   0.000000
    24  H   -0.036203  -0.000001   0.000007  -0.000006   0.000002   0.000000
    25  H   -0.030616  -0.000006   0.000000   0.000000   0.000000   0.000000
    26  H   -0.033343  -0.000001  -0.000001   0.000000   0.000000   0.000000
    27  C   -0.002731   0.230627  -0.000008   0.000005   0.000027   0.000001
    28  H    0.000184  -0.034270   0.000163  -0.000033   0.000049   0.000000
    29  H    0.000120  -0.031814   0.000010   0.000000  -0.000039   0.000000
    30  H    0.008067  -0.033904  -0.000022   0.000001   0.000057   0.000000
    31  C    0.000000  -0.000024  -0.046754   0.005668  -0.007942   0.244309
    32  H    0.000000   0.000020  -0.003384  -0.000355  -0.000896  -0.038160
    33  H    0.000000  -0.000015  -0.009423   0.000235   0.011413  -0.035185
    34  H    0.000000   0.000000   0.005272  -0.000197  -0.000087  -0.031291
              19         20         21         22         23         24
     1  C   -0.003066  -0.001810   0.000015   0.005652  -0.042214  -0.003383
     2  C   -0.048239  -0.003508   0.005075  -0.009058  -0.005095  -0.002300
     3  C   -0.004464   0.006027  -0.000067  -0.000466   0.000232   0.000075
     4  C   -0.000001  -0.000039   0.000000  -0.000005   0.000211  -0.000295
     5  C    0.000135   0.000031  -0.000004   0.000153  -0.005960   0.004348
     6  H    0.000126  -0.000031  -0.000077   0.000119  -0.000001  -0.000001
     7  H    0.005166  -0.000294  -0.000130  -0.000120   0.006924  -0.000735
     8  H    0.005271   0.000206  -0.000017  -0.002407   0.005597  -0.000357
     9  H   -0.000003   0.000003   0.000000  -0.000002  -0.000001  -0.000002
    10  H    0.000002  -0.000001   0.000000  -0.000009   0.002233   0.002282
    11  O   -0.000003  -0.000440   0.000001   0.000029   0.000001  -0.000003
    12  O    0.230767  -0.036013  -0.029804  -0.032636  -0.004332   0.000327
    13  O   -0.003808   0.000228   0.000006   0.006589   0.229080  -0.036203
    14  O   -0.000001   0.000000   0.000000   0.000003  -0.000048  -0.000001
    15  C    0.000000   0.000000   0.000000   0.000000  -0.000001   0.000007
    16  H    0.000000   0.000000   0.000000   0.000000  -0.000002  -0.000006
    17  H    0.000000   0.000000   0.000000   0.000000  -0.000001   0.000002
    18  O    0.000000   0.000000   0.000000   0.000000   0.000000   0.000000
    19  C    4.942929   0.362653   0.387094   0.368890   0.000467  -0.000023
    20  H    0.362653   0.577451  -0.027647  -0.040885  -0.000022   0.000001
    21  H    0.387094  -0.027647   0.494522  -0.027527   0.000011   0.000000
    22  H    0.368890  -0.040885  -0.027527   0.544813  -0.000411   0.000043
    23  C    0.000467  -0.000022   0.000011  -0.000411   4.949877   0.360160
    24  H   -0.000023   0.000001   0.000000   0.000043   0.360160   0.583175
    25  H    0.000010   0.000000  -0.000001  -0.000045   0.387479  -0.028965
    26  H   -0.000413   0.000051  -0.000035  -0.000267   0.365212  -0.042257
    27  C    0.000000   0.000000   0.000000   0.000000   0.000323   0.000570
    28  H    0.000000   0.000000   0.000000   0.000000  -0.000149   0.000161
    29  H    0.000000   0.000000   0.000000   0.000000   0.000008  -0.000016
    30  H    0.000000   0.000000   0.000000   0.000000  -0.000630  -0.000328
    31  C    0.000000   0.000000   0.000000   0.000000   0.000000   0.000000
    32  H    0.000000   0.000000   0.000000   0.000000   0.000000   0.000000
    33  H    0.000000   0.000000   0.000000   0.000000   0.000000   0.000000
    34  H    0.000000   0.000000   0.000000   0.000000   0.000000   0.000000
              25         26         27         28         29         30
     1  C    0.005113  -0.010519  -0.002616  -0.000565  -0.000101   0.001484
     2  C    0.000026   0.006510  -0.000023   0.000067   0.000004  -0.000049
     3  C   -0.000005   0.000127   0.000003  -0.000003   0.000000  -0.000003
     4  C   -0.000001   0.000023   0.003628   0.000010  -0.000169   0.000042
     5  C   -0.000040  -0.000587  -0.028240  -0.010643   0.004789  -0.004246
     6  H    0.000000   0.000011   0.000000   0.000000   0.000000   0.000000
     7  H   -0.000106  -0.000491  -0.000025   0.000005   0.000000   0.000000
     8  H   -0.000134  -0.000071  -0.000148   0.000056  -0.000003  -0.000062
     9  H    0.000000   0.000000  -0.000182   0.000097  -0.000021   0.000002
    10  H   -0.000052  -0.000158  -0.006063   0.011973  -0.000005  -0.001278
    11  O    0.000000  -0.000004  -0.000044  -0.000002   0.000000   0.000003
    12  O    0.000012   0.006823   0.000000   0.000000   0.000000   0.000001
    13  O   -0.030616  -0.033343  -0.002731   0.000184   0.000120   0.008067
    14  O   -0.000006  -0.000001   0.230627  -0.034270  -0.031814  -0.033904
    15  C    0.000000  -0.000001  -0.000008   0.000163   0.000010  -0.000022
    16  H    0.000000   0.000000   0.000005  -0.000033   0.000000   0.000001
    17  H    0.000000   0.000000   0.000027   0.000049  -0.000039   0.000057
    18  O    0.000000   0.000000   0.000001   0.000000   0.000000   0.000000
    19  C    0.000010  -0.000413   0.000000   0.000000   0.000000   0.000000
    20  H    0.000000   0.000051   0.000000   0.000000   0.000000   0.000000
    21  H   -0.000001  -0.000035   0.000000   0.000000   0.000000   0.000000
    22  H   -0.000045  -0.000267   0.000000   0.000000   0.000000   0.000000
    23  C    0.387479   0.365212   0.000323  -0.000149   0.000008  -0.000630
    24  H   -0.028965  -0.042257   0.000570   0.000161  -0.000016  -0.000328
    25  H    0.500287  -0.027474   0.000038   0.000002  -0.000001  -0.000112
    26  H   -0.027474   0.558908   0.000006   0.000005   0.000000   0.000159
    27  C    0.000038   0.000006   4.912925   0.367411   0.383854   0.368249
    28  H    0.000002   0.000005   0.367411   0.573347  -0.027626  -0.041411
    29  H   -0.000001   0.000000   0.383854  -0.027626   0.516333  -0.029613
    30  H   -0.000112   0.000159   0.368249  -0.041411  -0.029613   0.556835
    31  C    0.000000   0.000000   0.000000   0.000000   0.000000   0.000000
    32  H    0.000000   0.000000  -0.000001  -0.000001   0.000000   0.000000
    33  H    0.000000   0.000000   0.000001   0.000001   0.000000   0.000000
    34  H    0.000000   0.000000   0.000000   0.000000   0.000000   0.000000
              31         32         33         34
     1  C   -0.000004   0.000013   0.000000   0.000000
     2  C    0.000000   0.000000   0.000000   0.000000
     3  C   -0.000005  -0.000005   0.000002   0.000000
     4  C   -0.004143   0.004500  -0.001316  -0.000098
     5  C   -0.000004  -0.000391   0.000086   0.000002
     6  H    0.000000   0.000000   0.000000   0.000000
     7  H    0.000000   0.000000   0.000000   0.000000
     8  H    0.000000  -0.000002   0.000000   0.000000
     9  H    0.003431   0.002933  -0.000073  -0.000146
    10  H    0.000014  -0.000014   0.000005   0.000000
    11  O   -0.000006   0.000093   0.000005  -0.000003
    12  O    0.000000   0.000000   0.000000   0.000000
    13  O    0.000000   0.000000   0.000000   0.000000
    14  O   -0.000024   0.000020  -0.000015   0.000000
    15  C   -0.046754  -0.003384  -0.009423   0.005272
    16  H    0.005668  -0.000355   0.000235  -0.000197
    17  H   -0.007942  -0.000896   0.011413  -0.000087
    18  O    0.244309  -0.038160  -0.035185  -0.031291
    19  C    0.000000   0.000000   0.000000   0.000000
    20  H    0.000000   0.000000   0.000000   0.000000
    21  H    0.000000   0.000000   0.000000   0.000000
    22  H    0.000000   0.000000   0.000000   0.000000
    23  C    0.000000   0.000000   0.000000   0.000000
    24  H    0.000000   0.000000   0.000000   0.000000
    25  H    0.000000   0.000000   0.000000   0.000000
    26  H    0.000000   0.000000   0.000000   0.000000
    27  C    0.000000  -0.000001   0.000001   0.000000
    28  H    0.000000  -0.000001   0.000001   0.000000
    29  H    0.000000   0.000000   0.000000   0.000000
    30  H    0.000000   0.000000   0.000000   0.000000
    31  C    4.912034   0.362471   0.369359   0.387184
    32  H    0.362471   0.595111  -0.045235  -0.031748
    33  H    0.369359  -0.045235   0.576909  -0.028682
    34  H    0.387184  -0.031748  -0.028682   0.516910
 Mulliken charges:
               1
     1  C    0.118231
     2  C    0.013777
     3  C    0.286903
     4  C    0.060167
     5  C    0.077770
     6  H    0.282490
     7  H    0.252407
     8  H    0.193817
     9  H    0.242879
    10  H    0.173767
    11  O   -0.297021
    12  O   -0.470152
    13  O   -0.474433
    14  O   -0.485558
    15  C   -0.047320
    16  H    0.188522
    17  H    0.187644
    18  O   -0.466616
    19  C   -0.243489
    20  H    0.164039
    21  H    0.198584
    22  H    0.187547
    23  C   -0.248946
    24  H    0.163722
    25  H    0.194589
    26  H    0.177786
    27  C   -0.227587
    28  H    0.161173
    29  H    0.184290
    30  H    0.176758
    31  C   -0.225589
    32  H    0.155049
    33  H    0.161915
    34  H    0.182883
 Sum of Mulliken charges =   1.00000
 Mulliken charges with hydrogens summed into heavy atoms:
               1
     1  C    0.312048
     2  C    0.266184
[...]
 0006978,-0.00004495,0.00006156,0.00002781,0.00018156,0.00000211,0.0000
 0165,-0.00002346,-0.00001520,-0.00001401,-0.00001864,0.00000924,0.0000
 0616,-0.00002146,0.00001909,-0.00002503,-0.00024492,0.00000409,-0.0000
 4439,0.00011423,-0.00003341,0.00001186,0.00002427,0.00002390,0.0000019
 9,0.00005185,-0.07578578,-0.14228368,0.10088711,0.00258630,0.00488060,
 -0.00187646,0.08387232,0.17115291,-0.00000494,-0.00008159,0.00026021,-
 0.00006395,-0.00005296,0.00004930,0.00000320,0.00006126,0.00000941,-0.
 00031418,-0.00006244,0.00049038,-0.00000331,-0.00276126,0.00021896,-0.
 00001086,-0.00000108,-0.00002056,-0.00001793,0.00001215,-0.00001857,0.
 00005220,0.00001261,0.00001947,-0.00003693,0.00003681,-0.00004261,-0.0
 0002978,-0.00023107,0.00048608,0.00011191,-0.00012354,-0.00003358,-0.0
 0003390,-0.00003553,0.00001341,0.00001585,0.00004792,-0.00005444,-0.00
 599749,-0.01062579,0.00903959,0.00003840,-0.00002284,-0.00003713,-0.00
 000892,-0.00001709,0.00000040,0.00002553,0.00000270,-0.00001126,-0.000
 02315,0.00001078,0.00002019,0.00000538,-0.00000839,0.00000862,-0.00000
 248,-0.00000034,-0.00000117,0.00000045,0.00000065,-0.00000468,-0.00000
 470,-0.00000062,-0.00000378,-0.00009846,-0.00003694,-0.00010531,-0.000
 05406,-0.00002162,0.00013066,0.00001875,0.00000533,0.00001266,0.000035
 90,0.00001686,0.00001895,0.08606364,0.11156906,-0.16840502,0.01512665,
 0.01749617,-0.01642822,-0.09300174,-0.11309511,0.17174445,0.00036019,0
 .00125271,-0.00059504,0.00019321,-0.00044838,0.00019529,-0.00022857,-0
 .00008071,0.00007410,0.00012845,-0.00018421,-0.00010708,-0.00011877,-0
 .00138360,0.00196620,0.00002124,0.00001086,-0.00000283,-0.00000765,0.0
 0002911,-0.00000462,-0.00007683,-0.00003130,-0.00003167,0.00005133,-0.
 00012255,-0.00001163,0.00010294,0.00002214,-0.00031393,0.00011225,0.00
 032327,-0.00008000,0.00017613,0.00022211,-0.00000107,-0.00181072,-0.00
 198838,0.00035378,-0.00040284,0.01023362,0.00230087,0.00014994,-0.0000
 6144,0.00003660,-0.00001492,0.00002181,-0.00001545,0.00006355,0.000017
 71,0.00005489,-0.00015146,0.00008277,0.00002312,-0.00003622,-0.0000100
 6,-0.00011209,-0.00000168,-0.00000440,0.00001500,0.00000795,0.00000531
 ,0.00000868,-0.00000599,-0.00000586,0.00001936,-0.00002294,-0.00027299
 ,0.00018029,0.00005470,0.00013286,-0.00020890,0.00001070,-0.00002710,0
 .00001924,-0.00001188,-0.00000672,-0.00011362,-0.31510138,0.03538622,-
 0.01228962,-0.00858712,-0.00009355,-0.00002242,-0.01218218,0.00112447,
 -0.00180763,0.33729229,0.00153449,-0.00168635,-0.00016966,-0.00028572,
 0.00031520,-0.00008482,0.00084607,0.00002144,-0.00023327,-0.00017342,0
 .00084708,-0.00002154,0.00272982,0.00404472,-0.00215611,-0.00008307,0.
 00002986,0.00009930,0.00001834,-0.00006132,-0.00001163,-0.00001918,0.0
 0006700,0.00002895,-0.00028657,0.00000015,0.00015750,-0.00010567,-0.00
 054526,0.00051692,-0.00053441,-0.00125501,0.00032256,-0.00017472,-0.00
 004560,0.00002622,-0.00093153,0.00149136,-0.00016781,0.03630863,-0.023
 83347,-0.00503471,-0.00015572,0.00019035,0.00007585,0.00004463,-0.0000
 6976,0.00000852,-0.00010721,-0.00005767,-0.00011044,0.00018888,-0.0000
 7243,-0.00005488,0.00002067,-0.00003764,0.00003693,0.00000033,0.000012
 71,-0.00000109,-0.00000401,0.00000850,-0.00000579,-0.00001312,-0.00000
 645,-0.00003572,-0.00076077,0.00001576,0.00085573,0.00001788,-0.000022
 47,0.00000660,-0.00000739,-0.00006008,-0.00000496,0.00012083,0.0000294
 8,-0.00018139,0.02811096,-0.05302371,0.00509936,-0.00290064,0.00305125
 ,0.00132026,-0.01918774,0.00548129,-0.00210565,-0.04414711,0.06518925,
 0.00007312,-0.00004025,0.00025778,-0.00005371,0.00001814,-0.00011196,0
 .00005214,0.00008498,-0.00000761,0.00000181,0.00014758,-0.00007191,-0.
 00014425,0.00124163,-0.00062768,-0.00001360,-0.00000174,-0.00001145,-0
 .00001033,0.00004047,-0.00001825,0.00002912,-0.00005814,-0.00004754,-0
 .00003966,-0.00000356,0.00005906,-0.00037185,-0.00024651,-0.00012398,-
 0.00002798,-0.00030418,0.00009783,-0.00014663,-0.00017022,-0.00003555,
 -0.00021612,-0.00017695,-0.00005191,0.01354261,-0.00796420,0.00234097,
 -0.00009680,-0.00000329,-0.00005090,0.00000584,-0.00002855,0.00001587,
 -0.00004380,-0.00003436,-0.00006267,0.00013808,-0.00001870,0.00000341,
 0.00004021,0.00001415,0.00010938,0.00000110,-0.00000135,-0.00001468,-0
 .00000828,-0.00000711,-0.00000815,0.00000666,0.00000886,-0.00000215,0.
 00056007,0.00039303,-0.00019715,-0.00003316,0.00006937,-0.00025052,0.0
 0007798,-0.00000505,0.00001300,-0.00002687,-0.00010351,-0.00009679,-0.
 01439032,0.00424348,-0.05609775,-0.03089565,0.00429138,0.00028965,0.02
 151885,-0.00314709,0.00265156,0.01050659,0.00177350,0.05202090,-0.0005
 7251,-0.00020939,-0.00039748,-0.00033539,-0.00052710,-0.00008405,-0.00
 139323,0.00007216,0.00018509,0.00017189,-0.00197452,0.00125659,0.00091
 851,0.00177150,0.00024005,0.00011592,-0.00003448,-0.00015088,0.0000812
 6,-0.00000097,0.00009715,-0.00000986,0.00000560,0.00002404,-0.00071684
 ,0.00042898,-0.00039608,-0.00010060,-0.00001834,-0.00014180,0.00123774
 ,0.00019895,0.00029478,0.00049930,0.00017605,0.00022048,0.00089767,-0.
 00041328,-0.00009742,0.00009058,-0.00067820,0.00013495,-0.03790081,-0.
 00316463,0.02724429,-0.00003087,0.00015872,-0.00142975,0.00500437,-0.0
 0284695,-0.00115412,-0.12320549,-0.00880076,0.05755263,-0.00010575,-0.
 00003389,-0.00028461,-0.00001991,-0.00000565,0.00003037,0.00003169,0.0
 0002012,0.00002381,-0.00001348,-0.00001393,0.00003135,-0.00010207,0.00
 011329,0.00032972,-0.00003224,0.00001597,-0.00002821,0.00003373,-0.000
 03317,-0.00002539,0.00000720,-0.00001032,-0.00005771,-0.00007441,0.000
 63698,0.00017606,0.00002131,-0.00003051,-0.00006133,0.00000469,-0.0001
 1546,0.00002504,0.00004772,-0.00008566,-0.00004842,0.54834147,-0.00033
 396,-0.00018388,-0.00016382,-0.00019851,-0.00026828,0.00000403,-0.0006
 8004,0.00009352,0.00006090,0.00086519,-0.00107567,-0.00119009,0.000713
 71,0.00103329,0.00019257,0.00005383,-0.00001238,-0.00010207,0.00001176
 ,0.00000620,0.00003624,0.00002162,0.00002028,0.00002399,-0.00008024,0.
 00022951,0.00006007,-0.00011617,0.00007322,0.00006218,0.00051125,-0.00
 000066,0.00021913,0.00024529,0.00010476,0.00011377,0.00051804,-0.00022
 921,-0.00005482,-0.00005183,-0.00051353,0.00016695,0.01676029,0.003345
 02,-0.02148881,0.00546385,-0.00300535,-0.00217743,0.00447567,0.0017622
 7,-0.00263012,-0.03957271,-0.10308864,0.05884626,-0.00005053,-0.000019
 00,-0.00014891,-0.00001034,-0.00000147,0.00001603,0.00001502,0.0000113
 4,0.00001264,-0.00000736,-0.00000730,0.00001508,-0.00006387,0.00005609
 ,0.00018525,-0.00001762,0.00001259,-0.00001683,0.00002142,-0.00001718,
 -0.00001438,0.00000415,-0.00000302,-0.00003187,-0.00004507,0.00035875,
 0.00012882,0.00002416,-0.00001865,-0.00004664,0.00000957,-0.00007648,0
 .00001852,0.00002082,-0.00004721,-0.00003038,-0.05352976,0.59551320,0.
 00045254,0.00057959,0.00042040,0.00027235,0.00035337,0.00000973,0.0012
 9084,0.00029903,-0.00026163,-0.00350548,0.00388110,0.00439965,-0.00189
 158,-0.00176443,-0.00095705,-0.00009039,-0.00000604,0.00025314,-0.0000
 1651,0.00000686,-0.00004978,-0.00004298,-0.00005728,-0.00007125,-0.001
 14537,0.00012032,0.00010445,0.00025894,-0.00015473,-0.00011851,-0.0012
 7247,-0.00069226,-0.00096696,-0.00042619,-0.00018492,-0.00020293,-0.00
 092143,0.00030989,0.00002454,-0.00007636,0.00060304,-0.00036215,0.0175
 6822,-0.00669531,-0.01549704,0.00037018,-0.00084214,0.00148886,-0.0022
 4099,0.00390328,0.00048840,0.07038835,0.03560509,-0.13903225,0.0000795
 6,0.00004994,0.00027863,0.00002029,-0.00000371,-0.00003310,-0.00002185
 ,-0.00001842,-0.00002368,0.00001002,0.00001215,-0.00002252,0.00011390,
 -0.00007397,-0.00028952,0.00002420,-0.00001855,0.00002151,-0.00003169,
 0.00002701,0.00002566,-0.00000749,-0.00000138,0.00005211,0.00012034,-0
 .00050939,-0.00013255,-0.00000845,-0.00000020,0.00001277,0.00000110,0.
 00011780,-0.00000671,-0.00004750,0.00005251,0.00003055,0.05204004,0.03
 113067,0.51412240,0.00000016,-0.00013147,-0.00003575,0.00000963,0.0000
 3004,0.00001433,-0.00009637,-0.00009384,0.00003659,-0.00047074,-0.0010
 0924,-0.00046270,0.00039734,0.00011731,-0.00020366,0.00001054,0.000013
 91,-0.00000831,-0.00001563,-0.00000030,-0.00000878,0.00000424,0.000010
 55,0.00000609,-0.00088585,-0.00050742,0.00015622,0.00006411,-0.0000128
 0,0.00005560,0.00018366,0.00028142,0.00003738,-0.00000264,0.00001025,-
 0.00000358,0.00006480,0.00001361,0.00001729,-0.00006547,-0.00001354,0.
 00002939,0.00373390,-0.00067497,0.00127332,-0.00026418,0.00039307,-0.0
 0008702,-0.00043737,0.00010843,0.00013589,0.00994857,-0.00535293,0.028
 89637,0.00000224,-0.00000245,-0.00000100,0.00000098,0.00000089,0.00000
 084,-0.00000070,0.00000049,-0.00000028,-0.00000044,0.00000007,-0.00000
 131,-0.00001474,-0.00000592,0.00001874,-0.00000317,0.00000176,0.000000
 22,0.00000162,-0.00000010,-0.00000152,0.00000058,0.00000456,-0.0000017
 8,0.00000219,0.00004119,-0.00000213,0.00000187,-0.00000547,-0.00000435
 ,0.00000027,-0.00000978,-0.00000015,0.00000176,-0.00000551,-0.00000271
 ,-0.11870784,0.01413054,-0.11069071,0.12107787,0.00006478,0.00005271,0
 .00004949,0.00004093,0.00005063,0.00000980,0.00011105,-0.00002345,0.00
 000982,-0.00025954,0.00066449,0.00009612,-0.00008929,-0.00017143,-0.00
 017358,-0.00001751,0.00000113,0.00001869,-0.00000391,0.00000447,-0.000
 00703,-0.00000035,-0.00000356,-0.00000529,-0.00051628,-0.00018979,0.00
 012105,0.00002497,-0.00002443,0.00001620,-0.00016350,-0.00008300,-0.00
 011659,-0.00004721,-0.00003470,-0.00002550,-0.00011511,0.00003202,0.00
 001314,-0.00006901,0.00009814,0.00000617,0.00121537,-0.00092556,-0.000
 99069,-0.00029806,0.00005643,0.00010627,-0.00043040,0.00001027,-0.0002
 4669,0.00175909,-0.00008190,0.01581334,0.00000746,0.00001062,0.0000361
 0,0.00000297,-0.00000015,-0.00000466,-0.00000266,-0.00000260,-0.000003
 20,0.00000219,0.00000073,-0.00000270,0.00001663,-0.00000785,-0.0000376
 8,0.00000222,-0.00000205,0.00000140,-0.00000392,0.00000330,0.00000318,
 -0.00000229,-0.00000103,0.00000710,0.00001490,-0.00009650,-0.00003506,
 -0.00000082,0.00000562,0.00000859,0.00000637,0.00000401,0.00000010,-0.
 00001380,0.00001565,0.00000968,0.01181418,-0.05667705,0.01902878,-0.01
 029271,0.05355917,-0.00004465,-0.00012733,-0.00005029,-0.00002511,-0.0
 0002440,0.00000021,-0.00009428,-0.00009691,-0.00002206,0.00057083,-0.0
 0063826,-0.00038117,0.00039744,0.00026477,0.00029939,-0.00000612,0.000
 00064,-0.00004760,-0.00000310,0.00000074,0.00000202,0.00001419,0.00000
 744,0.00001533,0.00087474,0.00018147,0.00091308,-0.00011325,0.00010565
 ,0.00001053,-0.00003817,0.00005372,0.00030280,0.00003821,0.00001510,0.
 00002846,0.00012157,-0.00003016,0.00000776,-0.00004184,-0.00001665,0.0
 0007970,-0.00505912,0.00345087,0.00099382,0.00076321,-0.00045248,-0.00
 013806,0.00029782,-0.00072367,-0.00011203,0.00557393,0.00810287,-0.030
 17486,-0.00000627,-0.00000743,-0.00003369,-0.00000286,0.00000194,0.000
 00412,0.00000122,0.00000182,0.00000288,-0.00000066,-0.00000187,0.00000
 162,-0.00000910,0.00000792,0.00002507,-0.00000181,0.00000250,-0.000003
 57,0.00000352,-0.00000251,-0.00000287,-0.00000012,-0.00000117,-0.00000
 640,-0.00001354,0.00001461,-0.00001079,0.00000115,0.00000554,0.0000079
 1,0.00000334,-0.00001639,0.00000163,-0.00000062,0.00000385,0.00000251,
 -0.10815572,0.01894562,-0.23588209,0.11181497,-0.02895816,0.26614929,0
 .00007002,0.00004410,0.00005887,0.00004394,0.00005967,0.00002606,0.000
 18307,0.00005772,-0.00004246,-0.00046059,0.00049550,-0.00015224,-0.000
 20497,-0.00031872,-0.00009114,-0.00000818,0.00000392,-0.00000713,-0.00
 001296,0.00000075,-0.00001297,0.00000652,-0.00000049,-0.00000235,0.000
 15645,-0.00005516,0.00002132,-0.00000308,0.00002142,0.00001050,-0.0000
 2475,0.00014961,0.00011199,-0.00006999,-0.00001887,-0.00002922,-0.0001
 2807,0.00006245,0.00001390,0.00004729,0.00012473,-0.00003113,0.0035678
 7,-0.00587355,-0.00171951,0.00007415,0.00014805,0.00000527,0.00019096,
 0.00128035,-0.00025171,-0.01816110,-0.02097256,0.00773490,0.00001483,0
 .00000283,0.00003620,0.00000200,0.00000082,-0.00000381,-0.00000416,-0.
 00000256,-0.00000307,0.00000145,0.00000194,-0.00000421,0.00000996,-0.0
 0001624,-0.00004532,0.00000411,-0.00000229,0.00000511,-0.00000475,0.00
 000448,0.00000408,-0.00000048,0.00000207,0.00000757,-0.00000322,-0.000
 06304,-0.00002546,-0.00000504,0.00000520,0.00001102,-0.00000581,0.0000
 2167,-0.00000501,-0.00000007,0.00000864,0.00000555,-0.09190907,-0.0824
 2695,-0.03267140,-0.00490420,-0.01437805,-0.00697074,0.09925874,0.0001
 1322,-0.00000041,0.00006572,0.00006810,0.00011203,0.00000888,0.0003170
 2,-0.00000169,-0.00006141,-0.00038590,-0.00007678,0.00006523,-0.000097
 23,-0.00029428,-0.00006418,-0.00001498,0.00000637,0.00004619,-0.000015
 55,-0.00000159,-0.00001980,-0.00000031,0.00000015,-0.00000350,0.000012
 79,-0.00001931,0.00001947,0.00003308,0.00000793,0.00000511,-0.00019295
 ,0.00003862,-0.00010507,-0.00010533,-0.00003292,-0.00004274,-0.0001652
 9,0.00009149,0.00002565,-0.00003089,0.00017310,-0.00004490,0.00417613,
 0.00118678,-0.00046701,-0.00015014,0.00045338,0.00012806,-0.00174445,0
 .00083256,0.00041496,-0.01226150,-0.00935775,0.00782084,0.00002371,0.0
 0000363,0.00005548,0.00000333,0.00000155,-0.00000575,-0.00000659,-0.00
 000427,-0.00000463,0.00000245,0.00000324,-0.00000686,0.00001918,-0.000
 02485,-0.00006657,0.00000651,-0.00000302,0.00000621,-0.00000664,0.0000
 0708,0.00000476,-0.00000095,0.00000230,0.00001121,0.00001968,-0.000132
 16,-0.00004555,-0.00000307,0.00000487,0.00001374,0.00000007,0.00002257
 ,-0.00000382,-0.00001052,0.00001673,0.00001018,-0.08500643,-0.24227623
 ,-0.06839125,0.00249592,0.00435805,0.00038865,0.10206914,0.26194915,-0
 .00003537,-0.00008043,-0.00004173,-0.00001791,-0.00001231,-0.00002801,
 -0.00010866,-0.00010585,0.00002772,0.00003514,-0.00058717,-0.00055047,
 0.00021100,0.00012025,0.00018217,0.00000708,0.00000250,0.00000167,0.00
 000323,-0.00000608,0.00000408,0.00000394,0.00000688,0.00000862,0.00013
 748,-0.00005060,0.00005301,-0.00002303,0.00003110,0.00001362,0.0001026
 0,0.00008101,0.00004031,0.00003760,0.00002102,0.00001876,0.00008532,-0
 .00001389,-0.00000154,0.00004436,-0.00001985,0.00001079,-0.00294310,0.
 00455746,0.00183515,-0.00021292,0.00019527,0.00001977,-0.00087779,-0.0
 0102445,0.00059282,0.02221016,0.02757718,0.00084627,-0.00000477,-0.000
 00801,-0.00002617,-0.00000166,0.00000067,0.00000379,0.00000153,0.00000
 168,0.00000254,-0.00000111,-0.00000043,0.00000158,-0.00001177,0.000003
 86,0.00002580,-0.00000143,0.00000096,-0.00000118,0.00000208,-0.0000020
 5,-0.00000236,0.00000124,0.00000130,-0.00000464,-0.00001685,0.00003910
 ,0.00001537,-0.00000096,-0.00000087,0.00000249,-0.00000625,-0.00000068
 ,-0.00000446,0.00000946,-0.00000253,-0.00000287,-0.03343542,-0.0727222
 9,-0.07703664,-0.01096037,-0.02519436,-0.00649786,0.02722329,0.0679516
 9,0.08031441,0.00012283,0.00004400,0.00005336,0.00007008,0.00009321,0.
 00001354,0.00025050,-0.00002250,-0.00004118,0.00020786,0.00051469,0.00
 035084,-0.00014526,-0.00025071,-0.00005459,-0.00003266,0.00000577,0.00
 001872,-0.00000883,0.00000312,-0.00001429,-0.00000222,-0.00000657,-0.0
 0000707,0.00028420,-0.00003060,-0.00001404,0.00000813,0.00000071,-0.00
 002427,-0.00029409,-0.00009912,0.00003116,-0.00009603,-0.00004784,-0.0
 0004284,-0.00017180,0.00007037,0.00002258,-0.00004679,0.00016271,-0.00
 004891,-0.00017457,-0.00298068,0.00249270,-0.00100977,0.00063022,0.000
 22233,-0.00005346,0.00014066,0.00000846,-0.02191702,0.01357645,0.00926
 844,0.00001700,0.00001185,0.00005888,0.00000481,0.00000120,-0.00000679
 ,-0.00000630,-0.00000407,-0.00000492,0.00000356,0.00000129,-0.00000589
 ,0.00002612,-0.00001502,-0.00006043,0.00000403,-0.00000419,0.00000334,
 -0.00000718,0.00000603,0.00000489,-0.00000288,-0.00000028,0.00001098,0
 .00002286,-0.00013121,-0.00004126,-0.00000494,0.00000645,0.00001188,0.
 00000150,0.00002063,-0.00000332,-0.00001315,0.00001900,0.00001040,-0.1
 8227468,0.13331877,0.01209799,-0.00963697,0.01162134,0.00011094,0.0122
 7913,-0.00916158,-0.00145612,0.20259597,-0.00000554,0.00003246,-0.0000
 1566,-0.00000671,-0.00001810,-0.00000801,-0.00006786,0.00001590,0.0000
 1791,-0.00007864,0.00014110,0.00017682,-0.00011514,-0.00003620,-0.0000
 5029,0.00000502,-0.00000087,-0.00000976,0.00000407,-0.00000040,0.00000
 406,-0.00000342,-0.00000338,-0.00000177,0.00002637,-0.00000365,-0.0000
 8500,0.00000688,-0.00001552,-0.00002261,0.00014398,0.00008841,0.000059
 25,0.00001577,0.00000483,0.00000571,-0.00000015,-0.00000455,-0.0000032
 8,0.00005041,-0.00000337,-0.00001432,-0.00246323,0.00045434,0.00179184
 ,-0.00027851,0.00048315,0.00014069,-0.00013053,0.00044421,0.00018660,-
 0.01174188,0.01100375,0.00221226,-0.00000424,0.00000029,-0.00000682,-0
 .00000010,-0.00000052,0.00000086,0.00000118,0.00000061,0.00000054,-0.0
 0000038,-0.00000057,0.00000124,-0.00000281,0.00000189,0.00000507,-0.00
 000066,-0.00000015,0.00000065,0.,-0.00000104,0.00000003,0.00000001,0.0
 0000040,-0.00000080,-0.00000701,0.00002223,0.00000406,-0.00000298,-0.0
 0000109,0.00000229,-0.00000547,0.00000458,-0.00000323,0.00000690,-0.00
 000336,-0.00000127,0.14212089,-0.19509887,-0.01666645,0.00046444,-0.00
 060241,-0.00045832,0.01956342,-0.01704634,-0.00076009,-0.14749408,0.20
 014224,-0.00005226,-0.00006283,-0.00001669,-0.00002840,-0.00003871,0.0
 0000762,-0.00010644,-0.00002365,0.00001452,0.00028349,-0.00039601,-0.0
 0060906,0.00022002,0.00017880,0.00019409,0.00000479,-0.00000028,-0.000
 03223,-0.00000242,0.00000078,0.00000367,0.00001076,0.00000663,0.000007
 33,0.00041955,0.00006685,0.00016305,-0.00007553,0.00006042,0.00001995,
 0.00008424,0.00004669,0.00015553,0.00003789,0.00001894,0.00001639,0.00
 010044,-0.00003725,-0.00000804,-0.00000860,-0.00007781,0.00005714,0.00
 239197,0.00227274,-0.00301687,0.00119024,-0.00058424,-0.00028336,-0.00
 014721,0.00004033,-0.00007273,0.02585166,-0.01831446,-0.00761145,-0.00
 000724,-0.00000316,-0.00002188,-0.00000128,0.,0.00000276,0.00000232,0.
 00000177,0.00000196,-0.00000126,-0.00000096,0.00000196,-0.00001286,0.0
 0000753,0.00003145,-0.00000212,0.00000211,-0.00000342,0.00000385,-0.00
 000259,-0.00000279,0.00000114,0.00000027,-0.00000571,-0.00001624,0.000
 03866,0.00001449,0.00000227,0.00000177,-0.00000073,0.00000242,-0.00001
 451,0.00000157,0.00000226,-0.00000254,-0.00000098,0.00604193,-0.009420
 23,-0.05078646,-0.02001716,0.02044615,0.00451520,0.00679327,-0.0077089
 9,0.00017719,-0.02296551,0.01349779,0.05708654\\0.00000682,0.00000846,
 -0.00000692,0.00000579,-0.00001190,0.00000443,0.00000156,0.00000098,-0
 .00003750,0.00000784,-0.00000110,0.00000394,-0.00000337,-0.00000554,0.
 00001650,0.00000357,-0.00000457,-0.00002730,-0.00000474,-0.00001394,-0
 .00001637,0.00000201,0.00001160,-0.00000318,0.00000093,0.00001340,-0.0
 0000163,-0.00000432,-0.00001026,0.00000748,0.00000227,-0.00000183,-0.0
 0001822,-0.00000247,-0.00000612,-0.00001911,-0.00000257,-0.00000280,0.
 00000575,-0.00000461,0.00001386,0.00000791,-0.00000818,-0.00000489,0.0
 0000097,-0.00000156,-0.00001494,-0.00000297,-0.00000170,-0.00000156,0.
 00001123,0.00000427,0.00000020,-0.00000135,0.00000728,0.00000678,-0.00
 002543,0.00000678,0.00001248,-0.00002710,0.00000432,0.00000507,-0.0000
 3040,0.00000323,0.00001088,-0.00001519,-0.00000367,-0.00001219,0.00001
 006,-0.00000513,-0.00001903,0.00001400,-0.00000354,-0.00001224,0.00001
 507,-0.00000338,-0.00001867,-0.00000074,0.00000061,0.00000208,0.000033
 67,-0.00000513,-0.00000722,0.00003052,-0.00000309,0.00001123,0.0000358
 1,-0.00000548,0.00000262,0.00002932,-0.00000039,0.00001099,-0.00000146
 ,0.00000302,0.00001949,0.00000226,0.00000068,0.00000750,0.00001130,0.0
 0000234,0.00001117,-0.00000535\\\@


       THE DEATH-KNELL OF THE ATOM

 SO THE ATOMS IN TURN, WE NOW CLEARLY DISCERN,
 FLY TO BITS WITH THE UTMOST FACILITY;
 THEY WEND ON THEIR WAY, AND, IN SPLITTING, DISPLAY
 AN ABSOLUTE LACK OF STABILITY.

          SIR WM. RAMSAY, 1905
 Job cpu time:       0 days  1 hours 14 minutes 44.2 seconds.
 Elapsed time:       0 days  0 hours 18 minutes 41.8 seconds.
 File lengths (MBytes):  RWF=    378 Int=      0 D2E=      0 Chk=     16 Scr=      1
 Normal termination of Gaussian 16 at Fri May 24 08:52:17 2019.
