 Entering Gaussian System, Link 0=g16
 Input=clay-glucose_cation-162-b3lyp_d3bj-631gd-pcm_thf.gjf
 Output=clay-glucose_cation-162-b3lyp_d3bj-631gd-pcm_thf.out
 Initial command:
 /n/sw/g16_nehalem/g16/l1.exe "/scratch/Gau-28264.inp" -scrdir="/scratch/"
 Entering Link 1 = /n/sw/g16_nehalem/g16/l1.exe PID=     28268.
  
 Copyright (c) 1988,1990,1992,1993,1995,1998,2003,2009,2016,
            Gaussian, Inc.  All Rights Reserved.
  
 This is part of the Gaussian(R) 16 program.  It is based on
 the Gaussian(R) 09 system (copyright 2009, Gaussian, Inc.),
 the Gaussian(R) 03 system (copyright 2003, Gaussian, Inc.),
 the Gaussian(R) 98 system (copyright 1998, Gaussian, Inc.),
 the Gaussian(R) 94 system (copyright 1995, Gaussian, Inc.),
 the Gaussian 92(TM) system (copyright 1992, Gaussian, Inc.),
 the Gaussian 90(TM) system (copyright 1990, Gaussian, Inc.),
 the Gaussian 88(TM) system (copyright 1988, Gaussian, Inc.),
 the Gaussian 86(TM) system (copyright 1986, Carnegie Mellon
 University), and the Gaussian 82(TM) system (copyright 1983,
 Carnegie Mellon University). Gaussian is a federally registered
 trademark of Gaussian, Inc.
  
 This software contains proprietary and confidential information,
 including trade secrets, belonging to Gaussian, Inc.
  
 This software is provided under written license and may be
 used, copied, transmitted, or stored only in accord with that
 written license.
  
 The following legend is applicable only to US Government
 contracts under FAR:
  
                    RESTRICTED RIGHTS LEGEND
  
 Use, reproduction and disclosure by the US Government is
 subject to restrictions as set forth in subparagraphs (a)
 and (c) of the Commercial Computer Software - Restricted
 Rights clause in FAR 52.227-19.
  
 Gaussian, Inc.
 340 Quinnipiac St., Bldg. 40, Wallingford CT 06492
  
  
 ---------------------------------------------------------------
 Warning -- This program may not be used in any manner that
 competes with the business of Gaussian, Inc. or will provide
 assistance to any competitor of Gaussian, Inc.  The licensee
 of this program is prohibited from giving any competitor of
 Gaussian, Inc. access to this program.  By using this program,
 the user acknowledges that Gaussian, Inc. is engaged in the
 business of creating and licensing software in the field of
 computational chemistry and represents and warrants to the
 licensee that it is not a competitor of Gaussian, Inc. and that
 it will not use this program in any manner prohibited above.
 ---------------------------------------------------------------
  

 Cite this work as:
 Gaussian 16, Revision A.03,
 M. J. Frisch, G. W. Trucks, H. B. Schlegel, G. E. Scuseria, 
 M. A. Robb, J. R. Cheeseman, G. Scalmani, V. Barone, 
 G. A. Petersson, H. Nakatsuji, X. Li, M. Caricato, A. V. Marenich, 
 J. Bloino, B. G. Janesko, R. Gomperts, B. Mennucci, H. P. Hratchian, 
 J. V. Ortiz, A. F. Izmaylov, J. L. Sonnenberg, D. Williams-Young, 
 F. Ding, F. Lipparini, F. Egidi, J. Goings, B. Peng, A. Petrone, 
 T. Henderson, D. Ranasinghe, V. G. Zakrzewski, J. Gao, N. Rega, 
 G. Zheng, W. Liang, M. Hada, M. Ehara, K. Toyota, R. Fukuda, 
 J. Hasegawa, M. Ishida, T. Nakajima, Y. Honda, O. Kitao, H. Nakai, 
 T. Vreven, K. Throssell, J. A. Montgomery, Jr., J. E. Peralta, 
 F. Ogliaro, M. J. Bearpark, J. J. Heyd, E. N. Brothers, K. N. Kudin, 
 V. N. Staroverov, T. A. Keith, R. Kobayashi, J. Normand, 
 K. Raghavachari, A. P. Rendell, J. C. Burant, S. S. Iyengar, 
 J. Tomasi, M. Cossi, J. M. Millam, M. Klene, C. Adamo, R. Cammi, 
 J. W. Ochterski, R. L. Martin, K. Morokuma, O. Farkas, 
 J. B. Foresman, and D. J. Fox, Gaussian, Inc., Wallingford CT, 2016.
 
 ******************************************
 Gaussian 16:  ES64L-G16RevA.03 25-Dec-2016
                24-May-2019 
 ******************************************
 %nprocshared=4
 Will use up to    4 processors via shared memory.
 %mem=3GB
 -------------------------------------------------------------------
 #p b3lyp 6-31g* opt freq=noraman scrf=(pcm,solvent=tetrahydrofuran)
 -------------------------------------------------------------------
 1/18=20,19=15,26=3,38=1/1,3;
 2/9=110,12=2,17=6,18=5,40=1/2;
 3/5=1,6=6,7=1,11=2,25=1,30=1,70=2201,71=1,72=20,74=-5/1,2,3;
 4//1;
 5/5=2,38=5,53=20/2;
 6/7=2,8=2,9=2,10=2,28=1/1;
 7//1,2,3,16;
 1/18=20,19=15,26=3/3(2);
 2/9=110/2;
 99//99;
 2/9=110/2;
 3/5=1,6=6,7=1,11=2,25=1,30=1,70=2205,71=1,72=20,74=-5/1,2,3;
 4/5=5,16=3,69=1/1;
 5/5=2,38=5,53=20/2;
 7//1,2,3,16;
 1/18=20,19=15,26=3/3(-5);
 2/9=110/2;
 6/7=2,8=2,9=2,10=2,19=2,28=1/1;
 99/9=1/99;
 Leave Link    1 at Fri May 24 08:32:10 2019, MaxMem=   402653184 cpu:               0.3 elap:               0.1
 (Enter /n/sw/g16_nehalem/g16/l101.exe)
 -----
 title
 -----
 Symbolic Z-matrix:
 Charge =  1 Multiplicity = 1
 6                    -1.12291   0.63765  -0.50181 
 6                    -1.72275  -0.62994   0.15345 
 6                    -0.88475  -1.84838  -0.07418 
 6                     1.02732  -0.6095   -0.94641 
 6                     0.40736   0.64264  -0.2984 
 1                    -1.30746  -2.83623   0.11394 
 1                    -1.78943  -0.49188   1.24537 
 1                    -1.32403   0.57025  -1.57645 
 1                     0.89421  -0.58414  -2.02983 
 1                     0.66505   0.65134   0.76649 
 8                     0.27597  -1.86891  -0.54996 
 8                    -2.97074  -0.9415   -0.42299 
 8                    -1.78967   1.80382  -0.09477 
 8                     0.96396   1.74612  -0.97741 
 6                     2.47558  -0.88732  -0.60305 
 1                     3.08757  -0.11856  -1.09908 
 1                     2.76572  -1.86247  -1.02187 
 8                     2.61855  -0.85791   0.7972 
 6                    -4.02     -1.25848   0.50324 
 1                    -4.19272  -0.41891   1.18647 
 1                    -4.90964  -1.43197  -0.10289 
 1                    -3.79141  -2.16256   1.07984 
 6                    -1.60518   2.25856   1.2449 
 1                    -0.57785   2.58958   1.43106 
 1                    -2.27618   3.11135   1.3593 
 1                    -1.87644   1.50106   1.99229 
 6                     1.91858   2.51533  -0.23785 
 1                     2.31921   3.25026  -0.93787 
 1                     1.44364   3.03836   0.60063 
 1                     2.73401   1.89087   0.14395 
 6                     3.94389  -1.16021   1.22419 
 1                     4.24145  -2.16893   0.9065 
 1                     4.66527  -0.43323   0.82665 
 1                     3.94161  -1.10936   2.31445 
 
 ITRead=  0  0  0  0  0  0  0  0  0  0  0  0  0  0  0  0  0  0  0  0
 ITRead=  0  0  0  0  0  0  0  0  0  0  0  0  0  0
 MicOpt= -1 -1 -1 -1 -1 -1 -1 -1 -1 -1 -1 -1 -1 -1 -1 -1 -1 -1 -1 -1
 MicOpt= -1 -1 -1 -1 -1 -1 -1 -1 -1 -1 -1 -1 -1 -1
 NAtoms=     34 NQM=       34 NQMF=       0 NMMI=      0 NMMIF=      0
                NMic=       0 NMicF=      0.
                    Isotopes and Nuclear Properties:
 (Nuclear quadrupole moments (NQMom) in fm**2, nuclear magnetic moments (NMagM)
  in nuclear magnetons)

  Atom         1           2           3           4           5           6           7           8           9          10
 IAtWgt=          12          12          12          12          12           1           1           1           1           1
 AtmWgt=  12.0000000  12.0000000  12.0000000  12.0000000  12.0000000   1.0078250   1.0078250   1.0078250   1.0078250   1.0078250
 NucSpn=           0           0           0           0           0           1           1           1           1           1
 AtZEff=   0.0000000   0.0000000   0.0000000   0.0000000   0.0000000   0.0000000   0.0000000   0.0000000   0.0000000   0.0000000
 NQMom=    0.0000000   0.0000000   0.0000000   0.0000000   0.0000000   0.0000000   0.0000000   0.0000000   0.0000000   0.0000000
 NMagM=    0.0000000   0.0000000   0.0000000   0.0000000   0.0000000   2.7928460   2.7928460   2.7928460   2.7928460   2.7928460
 AtZNuc=   6.0000000   6.0000000   6.0000000   6.0000000   6.0000000   1.0000000   1.0000000   1.0000000   1.0000000   1.0000000

  Atom        11          12          13          14          15          16          17          18          19          20
 IAtWgt=          16          16          16          16          12           1           1          16          12           1
 AtmWgt=  15.9949146  15.9949146  15.9949146  15.9949146  12.0000000   1.0078250   1.0078250  15.9949146  12.0000000   1.0078250
 NucSpn=           0           0           0           0           0           1           1           0           0           1
 AtZEff=   0.0000000   0.0000000   0.0000000   0.0000000   0.0000000   0.0000000   0.0000000   0.0000000   0.0000000   0.0000000
 NQMom=    0.0000000   0.0000000   0.0000000   0.0000000   0.0000000   0.0000000   0.0000000   0.0000000   0.0000000   0.0000000
 NMagM=    0.0000000   0.0000000   0.0000000   0.0000000   0.0000000   2.7928460   2.7928460   0.0000000   0.0000000   2.7928460
 AtZNuc=   8.0000000   8.0000000   8.0000000   8.0000000   6.0000000   1.0000000   1.0000000   8.0000000   6.0000000   1.0000000

  Atom        21          22          23          24          25          26          27          28          29          30
 IAtWgt=           1           1          12           1           1           1          12           1           1           1
 AtmWgt=   1.0078250   1.0078250  12.0000000   1.0078250   1.0078250   1.0078250  12.0000000   1.0078250   1.0078250   1.0078250
 NucSpn=           1           1           0           1           1           1           0           1           1           1
 AtZEff=   0.0000000   0.0000000   0.0000000   0.0000000   0.0000000   0.0000000   0.0000000   0.0000000   0.0000000   0.0000000
 NQMom=    0.0000000   0.0000000   0.0000000   0.0000000   0.0000000   0.0000000   0.0000000   0.0000000   0.0000000   0.0000000
 NMagM=    2.7928460   2.7928460   0.0000000   2.7928460   2.7928460   2.7928460   0.0000000   2.7928460   2.7928460   2.7928460
 AtZNuc=   1.0000000   1.0000000   6.0000000   1.0000000   1.0000000   1.0000000   6.0000000   1.0000000   1.0000000   1.0000000

  Atom        31          32          33          34
 IAtWgt=          12           1           1           1
 AtmWgt=  12.0000000   1.0078250   1.0078250   1.0078250
 NucSpn=           0           1           1           1
 AtZEff=   0.0000000   0.0000000   0.0000000   0.0000000
 NQMom=    0.0000000   0.0000000   0.0000000   0.0000000
 NMagM=    0.0000000   2.7928460   2.7928460   2.7928460
 AtZNuc=   6.0000000   1.0000000   1.0000000   1.0000000
 Leave Link  101 at Fri May 24 08:32:10 2019, MaxMem=   402653184 cpu:               0.7 elap:               0.2
 (Enter /n/sw/g16_nehalem/g16/l103.exe)

 GradGradGradGradGradGradGradGradGradGradGradGradGradGradGradGradGradGrad
 Berny optimization.
 Initialization pass.
                           ----------------------------
                           !    Initial Parameters    !
                           ! (Angstroms and Degrees)  !
 --------------------------                            --------------------------
 ! Name  Definition              Value          Derivative Info.                !
 --------------------------------------------------------------------------------
 ! R1    R(1,2)                  1.5479         estimate D2E/DX2                !
 ! R2    R(1,5)                  1.5437         estimate D2E/DX2                !
 ! R3    R(1,8)                  1.0954         estimate D2E/DX2                !
 ! R4    R(1,13)                 1.4036         estimate D2E/DX2                !
 ! R5    R(2,3)                  1.4962         estimate D2E/DX2                !
 ! R6    R(2,7)                  1.1026         estimate D2E/DX2                !
 ! R7    R(2,12)                 1.4095         estimate D2E/DX2                !
 ! R8    R(3,6)                  1.0908         estimate D2E/DX2                !
 ! R9    R(3,11)                 1.2546         estimate D2E/DX2                !
 ! R10   R(4,5)                  1.5402         estimate D2E/DX2                !
 ! R11   R(4,9)                  1.0919         estimate D2E/DX2                !
 ! R12   R(4,11)                 1.5192         estimate D2E/DX2                !
 ! R13   R(4,15)                 1.5141         estimate D2E/DX2                !
 ! R14   R(5,10)                 1.0957         estimate D2E/DX2                !
 ! R15   R(5,14)                 1.4102         estimate D2E/DX2                !
 ! R16   R(12,19)                1.435          estimate D2E/DX2                !
 ! R17   R(13,23)                1.4267         estimate D2E/DX2                !
 ! R18   R(14,27)                1.4317         estimate D2E/DX2                !
 ! R19   R(15,16)                1.1007         estimate D2E/DX2                !
 ! R20   R(15,17)                1.1002         estimate D2E/DX2                !
 ! R21   R(15,18)                1.4078         estimate D2E/DX2                !
 ! R22   R(18,31)                1.4249         estimate D2E/DX2                !
 ! R23   R(19,20)                1.0961         estimate D2E/DX2                !
 ! R24   R(19,21)                1.0904         estimate D2E/DX2                !
 ! R25   R(19,22)                1.0964         estimate D2E/DX2                !
 ! R26   R(23,24)                1.0953         estimate D2E/DX2                !
 ! R27   R(23,25)                1.0911         estimate D2E/DX2                !
 ! R28   R(23,26)                1.0982         estimate D2E/DX2                !
 ! R29   R(27,28)                1.0912         estimate D2E/DX2                !
 ! R30   R(27,29)                1.0964         estimate D2E/DX2                !
 ! R31   R(27,30)                1.0957         estimate D2E/DX2                !
 ! R32   R(31,32)                1.0986         estimate D2E/DX2                !
 ! R33   R(31,33)                1.0986         estimate D2E/DX2                !
 ! R34   R(31,34)                1.0915         estimate D2E/DX2                !
 ! A1    A(2,1,5)              109.3303         estimate D2E/DX2                !
 ! A2    A(2,1,8)              107.0837         estimate D2E/DX2                !
 ! A3    A(2,1,13)             111.933          estimate D2E/DX2                !
 ! A4    A(5,1,8)              108.1489         estimate D2E/DX2                !
 ! A5    A(5,1,13)             115.4664         estimate D2E/DX2                !
 ! A6    A(8,1,13)             104.3828         estimate D2E/DX2                !
 ! A7    A(1,2,3)              112.6705         estimate D2E/DX2                !
 ! A8    A(1,2,7)              109.884          estimate D2E/DX2                !
 ! A9    A(1,2,12)             110.5485         estimate D2E/DX2                !
 ! A10   A(3,2,7)              106.6478         estimate D2E/DX2                !
 ! A11   A(3,2,12)             104.6946         estimate D2E/DX2                !
 ! A12   A(7,2,12)             112.2787         estimate D2E/DX2                !
 ! A13   A(2,3,6)              119.6164         estimate D2E/DX2                !
 ! A14   A(2,3,11)             126.099          estimate D2E/DX2                !
 ! A15   A(6,3,11)             114.1479         estimate D2E/DX2                !
 ! A16   A(5,4,9)              110.4584         estimate D2E/DX2                !
 ! A17   A(5,4,11)             111.4134         estimate D2E/DX2                !
 ! A18   A(5,4,15)             116.0259         estimate D2E/DX2                !
 ! A19   A(9,4,11)             102.5868         estimate D2E/DX2                !
 ! A20   A(9,4,15)             110.2366         estimate D2E/DX2                !
 ! A21   A(11,4,15)            105.176          estimate D2E/DX2                !
 ! A22   A(1,5,4)              109.9345         estimate D2E/DX2                !
 ! A23   A(1,5,10)             111.1761         estimate D2E/DX2                !
 ! A24   A(1,5,14)             109.2901         estimate D2E/DX2                !
 ! A25   A(4,5,10)             108.7056         estimate D2E/DX2                !
 ! A26   A(4,5,14)             105.9444         estimate D2E/DX2                !
 ! A27   A(10,5,14)            111.6508         estimate D2E/DX2                !
 ! A28   A(3,11,4)             122.8866         estimate D2E/DX2                !
 ! A29   A(2,12,19)            115.6098         estimate D2E/DX2                !
 ! A30   A(1,13,23)            118.4033         estimate D2E/DX2                !
 ! A31   A(5,14,27)            115.7764         estimate D2E/DX2                !
 ! A32   A(4,15,16)            107.546          estimate D2E/DX2                !
 ! A33   A(4,15,17)            109.1802         estimate D2E/DX2                !
 ! A34   A(4,15,18)            108.594          estimate D2E/DX2                !
 ! A35   A(16,15,17)           107.509          estimate D2E/DX2                !
 ! A36   A(16,15,18)           112.1579         estimate D2E/DX2                !
 ! A37   A(17,15,18)           111.7367         estimate D2E/DX2                !
 ! A38   A(15,18,31)           112.8354         estimate D2E/DX2                !
 ! A39   A(12,19,20)           110.3858         estimate D2E/DX2                !
 ! A40   A(12,19,21)           105.8378         estimate D2E/DX2                !
 ! A41   A(12,19,22)           111.6626         estimate D2E/DX2                !
 ! A42   A(20,19,21)           109.8639         estimate D2E/DX2                !
 ! A43   A(20,19,22)           109.6724         estimate D2E/DX2                !
 ! A44   A(21,19,22)           109.3441         estimate D2E/DX2                !
 ! A45   A(13,23,24)           112.1608         estimate D2E/DX2                !
 ! A46   A(13,23,25)           105.5474         estimate D2E/DX2                !
 ! A47   A(13,23,26)           112.7838         estimate D2E/DX2                !
 ! A48   A(24,23,25)           108.831          estimate D2E/DX2                !
 ! A49   A(24,23,26)           108.9344         estimate D2E/DX2                !
 ! A50   A(25,23,26)           108.4122         estimate D2E/DX2                !
 ! A51   A(14,27,28)           105.9786         estimate D2E/DX2                !
 ! A52   A(14,27,29)           111.2532         estimate D2E/DX2                !
 ! A53   A(14,27,30)           111.7151         estimate D2E/DX2                !
 ! A54   A(28,27,29)           109.1681         estimate D2E/DX2                !
 ! A55   A(28,27,30)           109.5204         estimate D2E/DX2                !
 ! A56   A(29,27,30)           109.1319         estimate D2E/DX2                !
 ! A57   A(18,31,32)           111.1046         estimate D2E/DX2                !
 ! A58   A(18,31,33)           111.2196         estimate D2E/DX2                !
 ! A59   A(18,31,34)           106.7091         estimate D2E/DX2                !
 ! A60   A(32,31,33)           108.9709         estimate D2E/DX2                !
 ! A61   A(32,31,34)           109.4024         estimate D2E/DX2                !
 ! A62   A(33,31,34)           109.3906         estimate D2E/DX2                !
 ! D1    D(5,1,2,3)            -40.7026         estimate D2E/DX2                !
 ! D2    D(5,1,2,7)             78.0635         estimate D2E/DX2                !
 ! D3    D(5,1,2,12)          -157.4567         estimate D2E/DX2                !
 ! D4    D(8,1,2,3)             76.2428         estimate D2E/DX2                !
 ! D5    D(8,1,2,7)           -164.9912         estimate D2E/DX2                !
 ! D6    D(8,1,2,12)           -40.5114         estimate D2E/DX2                !
 ! D7    D(13,1,2,3)          -169.9355         estimate D2E/DX2                !
 ! D8    D(13,1,2,7)           -51.1694         estimate D2E/DX2                !
 ! D9    D(13,1,2,12)           73.3104         estimate D2E/DX2                !
 ! D10   D(2,1,5,4)             59.927          estimate D2E/DX2                !
 ! D11   D(2,1,5,10)           -60.4939         estimate D2E/DX2                !
 ! D12   D(2,1,5,14)           175.8098         estimate D2E/DX2                !
 ! D13   D(8,1,5,4)            -56.3432         estimate D2E/DX2                !
 ! D14   D(8,1,5,10)          -176.7641         estimate D2E/DX2                !
 ! D15   D(8,1,5,14)            59.5396         estimate D2E/DX2                !
 ! D16   D(13,1,5,4)          -172.8081         estimate D2E/DX2                !
 ! D17   D(13,1,5,10)           66.771          estimate D2E/DX2                !
 ! D18   D(13,1,5,14)          -56.9253         estimate D2E/DX2                !
 ! D19   D(2,1,13,23)           71.1188         estimate D2E/DX2                !
 ! D20   D(5,1,13,23)          -54.8267         estimate D2E/DX2                !
 ! D21   D(8,1,13,23)         -173.4012         estimate D2E/DX2                !
 ! D22   D(1,2,3,6)           -164.8484         estimate D2E/DX2                !
 ! D23   D(1,2,3,11)            10.6412         estimate D2E/DX2                !
 ! D24   D(7,2,3,6)             74.5128         estimate D2E/DX2                !
 ! D25   D(7,2,3,11)          -109.9976         estimate D2E/DX2                !
 ! D26   D(12,2,3,6)           -44.6634         estimate D2E/DX2                !
 ! D27   D(12,2,3,11)          130.8263         estimate D2E/DX2                !
 ! D28   D(1,2,12,19)         -133.9239         estimate D2E/DX2                !
 ! D29   D(3,2,12,19)          104.4858         estimate D2E/DX2                !
 ! D30   D(7,2,12,19)          -10.8238         estimate D2E/DX2                !
 ! D31   D(2,3,11,4)             1.4081         estimate D2E/DX2                !
 ! D32   D(6,3,11,4)           177.1114         estimate D2E/DX2                !
 ! D33   D(9,4,5,1)             65.1106         estimate D2E/DX2                !
 ! D34   D(9,4,5,10)          -172.9861         estimate D2E/DX2                !
 ! D35   D(9,4,5,14)           -52.8641         estimate D2E/DX2                !
 ! D36   D(11,4,5,1)           -48.2261         estimate D2E/DX2                !
 ! D37   D(11,4,5,10)           73.6771         estimate D2E/DX2                !
 ! D38   D(11,4,5,14)         -166.2008         estimate D2E/DX2                !
 ! D39   D(15,4,5,1)          -168.5189         estimate D2E/DX2                !
 ! D40   D(15,4,5,10)          -46.6156         estimate D2E/DX2                !
 ! D41   D(15,4,5,14)           73.5064         estimate D2E/DX2                !
 ! D42   D(5,4,11,3)            18.0048         estimate D2E/DX2                !
 ! D43   D(9,4,11,3)          -100.1759         estimate D2E/DX2                !
 ! D44   D(15,4,11,3)          144.497          estimate D2E/DX2                !
 ! D45   D(5,4,15,16)          -70.4519         estimate D2E/DX2                !
 ! D46   D(5,4,15,17)          173.1846         estimate D2E/DX2                !
 ! D47   D(5,4,15,18)           51.1301         estimate D2E/DX2                !
 ! D48   D(9,4,15,16)           56.03           estimate D2E/DX2                !
 ! D49   D(9,4,15,17)          -60.3334         estimate D2E/DX2                !
 ! D50   D(9,4,15,18)          177.6121         estimate D2E/DX2                !
 ! D51   D(11,4,15,16)         165.946          estimate D2E/DX2                !
 ! D52   D(11,4,15,17)          49.5826         estimate D2E/DX2                !
 ! D53   D(11,4,15,18)         -72.4719         estimate D2E/DX2                !
 ! D54   D(1,5,14,27)          133.6873         estimate D2E/DX2                !
 ! D55   D(4,5,14,27)         -107.9096         estimate D2E/DX2                !
 ! D56   D(10,5,14,27)          10.2716         estimate D2E/DX2                !
 ! D57   D(2,12,19,20)          59.0077         estimate D2E/DX2                !
 ! D58   D(2,12,19,21)         177.8379         estimate D2E/DX2                !
 ! D59   D(2,12,19,22)         -63.2705         estimate D2E/DX2                !
 ! D60   D(1,13,23,24)          66.5179         estimate D2E/DX2                !
 ! D61   D(1,13,23,25)        -175.1177         estimate D2E/DX2                !
 ! D62   D(1,13,23,26)         -56.9242         estimate D2E/DX2                !
 ! D63   D(5,14,27,28)         174.1325         estimate D2E/DX2                !
 ! D64   D(5,14,27,29)         -67.3238         estimate D2E/DX2                !
 ! D65   D(5,14,27,30)          54.9131         estimate D2E/DX2                !
 ! D66   D(4,15,18,31)         177.745          estimate D2E/DX2                !
 ! D67   D(16,15,18,31)        -63.5408         estimate D2E/DX2                !
 ! D68   D(17,15,18,31)         57.2611         estimate D2E/DX2                !
 ! D69   D(15,18,31,32)        -60.8339         estimate D2E/DX2                !
 ! D70   D(15,18,31,33)         60.7442         estimate D2E/DX2                !
 ! D71   D(15,18,31,34)        179.9803         estimate D2E/DX2                !
 --------------------------------------------------------------------------------
 Trust Radius=3.00D-01 FncErr=1.00D-07 GrdErr=1.00D-06 EigMax=2.50D+02 EigMin=1.00D-04
 Number of steps in this run=    177 maximum allowed number of steps=    204.
 GradGradGradGradGradGradGradGradGradGradGradGradGradGradGradGradGradGrad

 Leave Link  103 at Fri May 24 08:32:10 2019, MaxMem=   402653184 cpu:               0.1 elap:               0.1
 (Enter /n/sw/g16_nehalem/g16/l202.exe)
                          Input orientation:                          
 ---------------------------------------------------------------------
 Center     Atomic      Atomic             Coordinates (Angstroms)
 Number     Number       Type             X           Y           Z
 ---------------------------------------------------------------------
      1          6           0       -1.122906    0.637649   -0.501812
      2          6           0       -1.722753   -0.629935    0.153449
      3          6           0       -0.884748   -1.848381   -0.074181
      4          6           0        1.027323   -0.609502   -0.946414
      5          6           0        0.407359    0.642643   -0.298397
      6          1           0       -1.307461   -2.836229    0.113937
      7          1           0       -1.789431   -0.491880    1.245373
      8          1           0       -1.324034    0.570250   -1.576451
      9          1           0        0.894209   -0.584136   -2.029826
     10          1           0        0.665053    0.651338    0.766494
     11          8           0        0.275967   -1.868908   -0.549955
     12          8           0       -2.970739   -0.941498   -0.422985
     13          8           0       -1.789673    1.803823   -0.094769
     14          8           0        0.963964    1.746120   -0.977409
     15          6           0        2.475579   -0.887316   -0.603053
     16          1           0        3.087571   -0.118555   -1.099079
     17          1           0        2.765722   -1.862465   -1.021871
     18          8           0        2.618554   -0.857913    0.797203
     19          6           0       -4.019996   -1.258476    0.503241
     20          1           0       -4.192721   -0.418908    1.186472
     21          1           0       -4.909640   -1.431966   -0.102890
     22          1           0       -3.791413   -2.162562    1.079836
     23          6           0       -1.605181    2.258560    1.244900
     24          1           0       -0.577846    2.589580    1.431055
     25          1           0       -2.276182    3.111352    1.359304
     26          1           0       -1.876442    1.501059    1.992289
     27          6           0        1.918576    2.515325   -0.237854
     28          1           0        2.319207    3.250264   -0.937873
     29          1           0        1.443642    3.038358    0.600627
     30          1           0        2.734011    1.890869    0.143947
     31          6           0        3.943888   -1.160211    1.224186
     32          1           0        4.241447   -2.168927    0.906496
     33          1           0        4.665273   -0.433232    0.826645
     34          1           0        3.941607   -1.109358    2.314452
 ---------------------------------------------------------------------
                    Distance matrix (angstroms):
                    1          2          3          4          5
     1  C    0.000000
     2  C    1.547886   0.000000
     3  C    2.533759   1.496221   0.000000
     4  C    2.525181   2.961931   2.439596   0.000000
     5  C    1.543734   2.522102   2.815140   1.540178   0.000000
     6  H    3.532851   2.245387   1.090834   3.396156   3.900407
     7  H    2.184662   1.102635   2.097563   3.570976   2.914834
     8  H    1.095374   2.142889   2.880896   2.705114   2.153227
     9  H    2.810042   3.408413   2.930452   1.091854   2.177121
    10  H    2.192164   2.778327   3.058956   2.157547   1.095662
    11  O    2.870887   2.454529   1.254608   1.519151   2.527535
    12  O    2.431955   1.409545   2.301187   4.045825   3.733172
    13  O    1.403647   2.447298   3.762699   3.805904   2.493342
    14  O    2.410379   3.760708   4.141738   2.356678   1.410152
    15  C    3.909586   4.273702   3.534848   1.514108   2.590584
    16  H    4.319339   4.996954   4.452194   2.123431   2.898974
    17  H    4.652146   4.800720   3.771504   2.144211   3.515801
    18  O    4.233517   4.394694   3.743456   2.373589   2.888147
    19  C    3.605350   2.407227   3.242096   5.291323   4.884501
    20  H    3.659287   2.685593   3.817764   5.642197   4.948986
    21  H    4.333797   3.296242   4.046478   6.052727   5.710753
    22  H    4.178962   2.736146   3.143114   5.453247   5.234347
    23  C    2.431243   3.090063   4.373324   4.467406   3.007203
    24  H    2.800553   3.648063   4.696320   4.296865   2.784277
    25  H    3.303484   3.969584   5.346954   5.483998   4.005482
    26  H    2.744783   2.818881   4.058633   4.639213   3.346620
    27  C    3.584125   4.827531   5.189156   3.325798   2.407152
    28  H    4.343276   5.708272   6.083377   4.070237   3.296025
    29  H    3.683198   4.866457   5.454996   3.984161   2.760720
    30  H    4.106504   5.120282   5.208165   3.217690   2.677134
    31  C    5.646572   5.791243   5.047282   3.677110   4.251538
    32  H    6.215825   6.205422   5.228992   4.024385   4.904786
    33  H    6.034451   6.426411   5.798005   4.050863   4.533548
    34  H    6.052493   6.081509   5.435570   4.401835   4.731532
                    6          7          8          9         10
     6  H    0.000000
     7  H    2.647341   0.000000
     8  H    3.802865   3.050804   0.000000
     9  H    3.809855   4.235252   2.541409   0.000000
    10  H    4.059528   2.749684   3.074481   3.065667   0.000000
    11  O    1.970712   3.063540   3.092441   2.054965   2.869855
    12  O    2.577748   2.093099   2.515453   4.200889   4.143787
    13  O    4.669708   2.658239   1.983407   4.080443   2.845290
    14  O    5.229563   4.186954   2.641298   2.557839   2.080647
    15  C    4.315522   4.665121   4.184383   2.151355   2.742466
    16  H    5.307868   5.424111   4.490501   2.427734   3.153045
    17  H    4.339251   5.269565   4.790800   2.480455   3.732327
    18  O    4.449065   4.445803   4.818494   3.322712   2.468795
    19  C    3.162073   2.472620   3.864915   5.569612   5.066199
    20  H    3.913885   2.405119   4.103845   6.020692   4.991971
    21  H    3.872294   3.526653   4.363121   6.173861   6.014415
    22  H    2.748964   2.612760   4.540053   5.840931   5.279802
    23  C    5.227293   2.756605   3.299918   5.005167   2.822410
    24  H    5.630856   3.316295   3.698592   4.921089   2.396502
    25  H    6.153298   3.637745   3.997805   5.932471   3.879943
    26  H    4.760674   2.130085   3.729271   5.310551   2.946828
    27  C    6.258610   4.999256   4.011194   3.723862   2.460586
    28  H    7.162711   5.970855   4.567654   4.233864   3.520726
    29  H    6.505091   4.830221   4.300146   4.510390   2.516263
    30  H    6.219313   5.229929   4.601253   3.773037   2.490901
    31  C    5.623020   5.772180   6.212010   4.496776   3.773851
    32  H    5.644805   6.268877   6.681519   4.726262   4.556763
    33  H    6.477337   6.468537   6.530976   4.733194   4.145078
    34  H    5.947862   5.862508   6.759230   5.332471   4.028899
                   11         12         13         14         15
    11  O    0.000000
    12  O    3.378951   0.000000
    13  O    4.238280   3.006564   0.000000
    14  O    3.704657   4.797141   2.892214   0.000000
    15  C    2.409281   5.449563   5.068822   3.059429   0.000000
    16  H    3.357140   6.151216   5.337760   2.828696   1.100713
    17  H    2.534093   5.840705   5.920541   4.033633   1.100230
    18  O    2.885249   5.721542   5.226176   3.559200   1.407843
    19  C    4.465103   1.435030   3.835314   6.004980   6.599556
    20  H    5.008678   2.087269   3.515217   5.996760   6.920118
    21  H    5.223151   2.025428   4.494952   6.735298   7.422147
    22  H    4.391586   2.103087   4.595527   6.490274   6.613135
    23  C    4.878136   3.858362   1.426722   3.435369   5.473944
    24  H    4.952930   4.651012   2.100971   2.981493   5.054682
    25  H    5.912844   4.481580   2.015106   4.221686   6.513020
    26  H    4.738412   3.605152   2.110689   4.116682   5.601805
    27  C    4.692235   5.990768   3.778600   1.431748   3.467216
    28  H    5.525507   6.769011   4.436881   2.025017   4.154049
    29  H    5.173835   6.031069   3.530153   2.095273   4.233752
    30  H    4.545262   6.394364   4.530814   2.100347   2.888444
    31  C    4.135634   7.111475   6.587781   4.708899   2.359916
    32  H    4.235126   7.435706   7.291069   5.442296   2.653216
    33  H    4.818942   7.754263   6.893457   4.658742   2.654240
    34  H    4.713667   7.436549   6.865751   5.277922   3.272671
                   16         17         18         19         20
    16  H    0.000000
    17  H    1.775041   0.000000
    18  O    2.088663   2.083222   0.000000
    19  C    7.374575   6.981170   6.657117   0.000000
    20  H    7.636531   7.441812   6.836499   1.096135   0.000000
    21  H    8.165343   7.742160   7.603513   1.090394   1.789613
    22  H    7.499737   6.892260   6.547493   1.096396   1.792414
    23  C    5.759065   6.420739   5.268090   4.330235   3.723924
    24  H    5.212567   6.084160   4.743833   5.245643   4.709367
    25  H    6.726499   7.471924   6.326884   4.782168   4.020663
    26  H    6.068042   6.476738   5.215167   3.798305   3.114605
    27  C    3.007587   4.527404   3.597228   7.075128   6.927220
    28  H    3.459091   5.132877   4.469588   7.911450   7.770513
    29  H    3.944313   5.329021   4.074308   6.951518   6.638109
    30  H    2.389122   3.930350   2.827698   7.460836   7.375740
    31  C    2.686240   2.631731   1.424854   7.997054   8.170395
    32  H    3.091567   2.447505   2.089135   8.321236   8.618361
    33  H    2.509298   3.011314   2.090521   8.730379   8.865311
    34  H    3.655580   3.616756   2.028728   8.166385   8.241138
                   21         22         23         24         25
    21  H    0.000000
    22  H    1.784108   0.000000
    23  C    5.133807   4.934894   0.000000
    24  H    6.106575   5.747453   1.095283   0.000000
    25  H    5.451133   5.494379   1.091139   1.778128   0.000000
    26  H    4.710913   4.233415   1.098171   1.784997   1.775811
    27  C    7.888210   7.498194   3.831625   3.003813   4.527931
    28  H    8.653133   8.408895   4.598782   3.800163   5.139447
    29  H    7.800187   7.394931   3.212241   2.231015   3.797105
    30  H    8.338319   7.738692   4.491757   3.621221   5.297991
    31  C    8.956558   7.801309   6.517714   5.877908   7.546773
    32  H    9.236036   8.034733   7.341677   6.792948   8.400349
    33  H    9.671632   8.635405   6.836613   6.082187   7.812272
    34  H    9.181078   7.901463   6.576752   5.906605   7.575460
                   26         27         28         29         30
    26  H    0.000000
    27  C    4.517127   0.000000
    28  H    5.408238   1.091177   0.000000
    29  H    3.914456   1.096438   1.782835   0.000000
    30  H    4.982429   1.095742   1.786156   1.786152   0.000000
    31  C    6.445819   4.443986   5.173623   4.926260   3.455403
    32  H    7.216392   5.352334   6.038571   5.919213   4.397248
    33  H    6.920567   4.167912   4.710169   4.741511   3.097950
    34  H    6.384964   4.872910   5.675923   5.136202   3.894964
                   31         32         33         34
    31  C    0.000000
    32  H    1.098625   0.000000
    33  H    1.098605   1.788475   0.000000
    34  H    1.091454   1.787437   1.787291   0.000000
 Stoichiometry    C10H19O5(1+)
 Framework group  C1[X(C10H19O5)]
 Deg. of freedom    96
 Full point group                 C1      NOp   1
 Largest Abelian subgroup         C1      NOp   1
 Largest concise Abelian subgroup C1      NOp   1
                         Standard orientation:                         
 ---------------------------------------------------------------------
 Center     Atomic      Atomic             Coordinates (Angstroms)
 Number     Number       Type             X           Y           Z
 ---------------------------------------------------------------------
      1          6           0       -1.122906    0.637649   -0.501812
      2          6           0       -1.722753   -0.629935    0.153449
      3          6           0       -0.884748   -1.848381   -0.074181
      4          6           0        1.027323   -0.609502   -0.946414
      5          6           0        0.407359    0.642643   -0.298397
      6          1           0       -1.307461   -2.836229    0.113937
      7          1           0       -1.789431   -0.491880    1.245373
      8          1           0       -1.324034    0.570250   -1.576451
      9          1           0        0.894209   -0.584136   -2.029826
     10          1           0        0.665053    0.651338    0.766494
     11          8           0        0.275967   -1.868908   -0.549955
     12          8           0       -2.970739   -0.941498   -0.422985
     13          8           0       -1.789673    1.803823   -0.094769
     14          8           0        0.963964    1.746120   -0.977409
     15          6           0        2.475579   -0.887316   -0.603053
     16          1           0        3.087571   -0.118555   -1.099079
     17          1           0        2.765722   -1.862465   -1.021871
     18          8           0        2.618554   -0.857913    0.797203
     19          6           0       -4.019996   -1.258476    0.503241
     20          1           0       -4.192721   -0.418908    1.186472
     21          1           0       -4.909640   -1.431966   -0.102890
     22          1           0       -3.791413   -2.162562    1.079836
     23          6           0       -1.605181    2.258560    1.244900
     24          1           0       -0.577846    2.589580    1.431055
     25          1           0       -2.276182    3.111352    1.359304
     26          1           0       -1.876442    1.501059    1.992289
     27          6           0        1.918576    2.515325   -0.237854
     28          1           0        2.319207    3.250264   -0.937873
     29          1           0        1.443642    3.038358    0.600627
     30          1           0        2.734011    1.890869    0.143947
     31          6           0        3.943888   -1.160211    1.224186
     32          1           0        4.241447   -2.168927    0.906496
     33          1           0        4.665273   -0.433232    0.826645
     34          1           0        3.941607   -1.109358    2.314452
 ---------------------------------------------------------------------
 Rotational constants (GHZ):           0.8211987           0.4189033           0.3205415
 Leave Link  202 at Fri May 24 08:32:10 2019, MaxMem=   402653184 cpu:               0.1 elap:               0.1
 (Enter /n/sw/g16_nehalem/g16/l301.exe)
 Standard basis: 6-31G(d) (6D, 7F)
 Ernie: Thresh=  0.10000D-02 Tol=  0.10000D-05 Strict=F.
 There are   263 symmetry adapted cartesian basis functions of A   symmetry.
 There are   263 symmetry adapted basis functions of A   symmetry.
   263 basis functions,   496 primitive gaussians,   263 cartesian basis functions
    59 alpha electrons       59 beta electrons
       nuclear repulsion energy      1154.6970418443 Hartrees.
 IExCor=  402 DFT=T Ex+Corr=B3LYP ExCW=0 ScaHFX=  0.200000
 ScaDFX=  0.800000  0.720000  1.000000  0.810000 ScalE2=  1.000000  1.000000
 IRadAn=      5 IRanWt=     -1 IRanGd=            0 ICorTp=0 IEmpDi=  4
 NAtoms=   34 NActive=   34 NUniq=   34 SFac= 1.00D+00 NAtFMM=   60 NAOKFM=F Big=F
 Integral buffers will be    131072 words long.
 Raffenetti 2 integral format.
 Two-electron integral symmetry is turned on.
 ------------------------------------------------------------------------------
 Polarizable Continuum Model (PCM)
 =================================
 Model                : PCM.
 Atomic radii         : UFF (Universal Force Field).
 Polarization charges : Total charges.
 Charge compensation  : None.
 Solution method      : On-the-fly selection.
 Cavity type          : Scaled VdW (van der Waals Surface) (Alpha=1.100).
 Cavity algorithm     : GePol (No added spheres)
                        Default sphere list used, NSphG=   34.
                        Lebedev-Laikov grids with approx.  5.0 points / Ang**2.
                        Smoothing algorithm: York/Karplus (Gamma=1.0000).
                        Polarization charges: spherical gaussians, with
                                              point-specific exponents (IZeta= 3).
                        Self-potential: point-specific (ISelfS= 7).
                        Self-field    : sphere-specific E.n sum rule (ISelfD= 2).
 1st derivatives      : Analytical E(r).r(x)/FMM algorithm (CHGder, D1EAlg=3).
                        Cavity 1st derivative terms included.
 Solvent              : TetraHydroFuran, Eps=   7.425700 Eps(inf)=   1.974025
 ------------------------------------------------------------------------------
 GePol: Number of generator spheres                  =      34
 GePol: Total number of spheres                      =      34
 GePol: Number of exposed spheres                    =      34 (100.00%)
 GePol: Number of points                             =    2318
 GePol: Average weight of points                     =       0.13
 GePol: Minimum weight of points                     =   0.33D-09
 GePol: Maximum weight of points                     =    0.20577
 GePol: Number of points with low weight             =     156
 GePol: Fraction of low-weight points (<1% of avg)   =       6.73%
 GePol: Cavity surface area                          =    303.040 Ang**2
 GePol: Cavity volume                                =    322.495 Ang**3
 Leave Link  301 at Fri May 24 08:32:11 2019, MaxMem=   402653184 cpu:               0.5 elap:               0.2
 (Enter /n/sw/g16_nehalem/g16/l302.exe)
 NPDir=0 NMtPBC=     1 NCelOv=     1 NCel=       1 NClECP=     1 NCelD=      1
         NCelK=      1 NCelE2=     1 NClLst=     1 CellRange=     0.0.
 One-electron integrals computed using PRISM.
 One-electron integral symmetry used in STVInt
 NBasis=   263 RedAO= T EigKep=  1.52D-03  NBF=   263
 NBsUse=   263 1.00D-06 EigRej= -1.00D+00 NBFU=   263
 Precomputing XC quadrature grid using
 IXCGrd= 4 IRadAn=           5 IRanWt=          -1 IRanGd=           0 AccXCQ= 0.00D+00.
 Generated NRdTot=       0 NPtTot=           0 NUsed=           0 NTot=          32
 NSgBfM=   262   262   262   262   262 MxSgAt=    34 MxSgA2=    34.
 Leave Link  302 at Fri May 24 08:32:12 2019, MaxMem=   402653184 cpu:               4.6 elap:               1.7
 (Enter /n/sw/g16_nehalem/g16/l303.exe)
 DipDrv:  MaxL=1.
 Leave Link  303 at Fri May 24 08:32:12 2019, MaxMem=   402653184 cpu:               0.4 elap:               0.1
 (Enter /n/sw/g16_nehalem/g16/l401.exe)
 ExpMin= 1.61D-01 ExpMax= 5.48D+03 ExpMxC= 8.25D+02 IAcc=3 IRadAn=         5 AccDes= 0.00D+00
 Harris functional with IExCor=  402 and IRadAn=       5 diagonalized for initial guess.
 HarFok:  IExCor=  402 AccDes= 0.00D+00 IRadAn=         5 IDoV= 1 UseB2=F ITyADJ=14
 ICtDFT=  3500011 ScaDFX=  1.000000  1.000000  1.000000  1.000000
 FoFCou: FMM=F IPFlag=           0 FMFlag=      100000 FMFlg1=           0
         NFxFlg=           0 DoJE=T BraDBF=F KetDBF=T FulRan=T
         wScrn=  0.000000 ICntrl=       500 IOpCl=  0 I1Cent=   200000004 NGrid=           0
         NMat0=    1 NMatS0=      1 NMatT0=    0 NMatD0=    1 NMtDS0=    0 NMtDT0=    0
 Petite list used in FoFCou.
 Harris En= -768.259770330614    
 JPrj=0 DoOrth=F DoCkMO=F.
 Leave Link  401 at Fri May 24 08:32:18 2019, MaxMem=   402653184 cpu:              20.2 elap:               5.1
 (Enter /n/sw/g16_nehalem/g16/l502.exe)
 Integral symmetry usage will be decided dynamically.
 Closed shell SCF:
 Using DIIS extrapolation, IDIIS=  1040.
 NGot=   402653184 LenX=   402510103 LenY=   402440493
 Requested convergence on RMS density matrix=1.00D-08 within 128 cycles.
 Requested convergence on MAX density matrix=1.00D-06.
 Requested convergence on             energy=1.00D-06.
 No special actions if energy rises.
 Fock matrices will be formed incrementally for  20 cycles.

 Cycle   1  Pass 1  IDiag  1:
 FoFJK:  IHMeth= 1 ICntrl=       0 DoSepK=F KAlg= 0 I1Cent=           0 FoldK=F
 IRaf= 870000000 NMat=       1 IRICut=       1 DoRegI=T DoRafI=F ISym2E= 0 IDoP0=0 IntGTp=1.
 FoFCou: FMM=F IPFlag=           0 FMFlag=      100000 FMFlg1=           0
         NFxFlg=           0 DoJE=F BraDBF=F KetDBF=F FulRan=T
         wScrn=  0.000000 ICntrl=         0 IOpCl=  0 I1Cent=           0 NGrid=           0
         NMat0=    1 NMatS0=      1 NMatT0=    0 NMatD0=    1 NMtDS0=    0 NMtDT0=    0
 Symmetry not used in FoFCou.
 Inv3:  Mode=1 IEnd=    16119372.
 Iteration    1 A*A^-1 deviation from unit magnitude is 5.00D-15 for   2306.
 Iteration    1 A*A^-1 deviation from orthogonality  is 3.01D-15 for   2281   1151.
 Iteration    1 A^-1*A deviation from unit magnitude is 5.00D-15 for   2306.
 Iteration    1 A^-1*A deviation from orthogonality  is 6.77D-14 for   2178   2148.
 E= -768.088146355955    
 DIIS: error= 2.69D-02 at cycle   1 NSaved=   1.
 NSaved= 1 IEnMin= 1 EnMin= -768.088146355955     IErMin= 1 ErrMin= 2.69D-02
 ErrMax= 2.69D-02  0.00D+00 EMaxC= 1.00D-01 BMatC= 2.54D-01 BMatP= 2.54D-01
 IDIUse=3 WtCom= 7.31D-01 WtEn= 2.69D-01
 Coeff-Com:  0.100D+01
 Coeff-En:   0.100D+01
 Coeff:      0.100D+01
 Gap=     0.033 Goal=   None    Shift=    0.000
 GapD=    0.033 DampG=0.250 DampE=0.500 DampFc=0.2500 IDamp=-1.
 Damping current iteration by 2.50D-01
 RMSDP=4.61D-03 MaxDP=1.26D-01              OVMax= 3.07D-01

 Cycle   2  Pass 1  IDiag  1:
 RMSU=  1.15D-03    CP:  9.95D-01
 E= -768.167037089204     Delta-E=       -0.078890733249 Rises=F Damp=T
 DIIS: error= 1.32D-02 at cycle   2 NSaved=   2.
 NSaved= 2 IEnMin= 2 EnMin= -768.167037089204     IErMin= 2 ErrMin= 1.32D-02
 ErrMax= 1.32D-02  0.00D+00 EMaxC= 1.00D-01 BMatC= 6.96D-02 BMatP= 2.54D-01
 IDIUse=3 WtCom= 8.68D-01 WtEn= 1.32D-01
 Coeff-Com: -0.746D+00 0.175D+01
 Coeff-En:   0.000D+00 0.100D+01
 Coeff:     -0.648D+00 0.165D+01
 Gap=     0.142 Goal=   None    Shift=    0.000
 RMSDP=1.32D-03 MaxDP=3.21D-02 DE=-7.89D-02 OVMax= 2.33D-01

 Cycle   3  Pass 1  IDiag  1:
 RMSU=  1.21D-03    CP:  9.86D-01  1.42D+00
 E= -768.302412368045     Delta-E=       -0.135375278841 Rises=F Damp=F
 DIIS: error= 5.44D-03 at cycle   3 NSaved=   3.
 NSaved= 3 IEnMin= 3 EnMin= -768.302412368045     IErMin= 3 ErrMin= 5.44D-03
 ErrMax= 5.44D-03  0.00D+00 EMaxC= 1.00D-01 BMatC= 2.97D-02 BMatP= 6.96D-02
 IDIUse=3 WtCom= 9.46D-01 WtEn= 5.44D-02
 Coeff-Com: -0.482D+00 0.967D+00 0.516D+00
 Coeff-En:   0.000D+00 0.000D+00 0.100D+01
 Coeff:     -0.456D+00 0.914D+00 0.542D+00
 Gap=     0.146 Goal=   None    Shift=    0.000
 RMSDP=6.99D-04 MaxDP=2.83D-02 DE=-1.35D-01 OVMax= 4.32D-02

 Cycle   4  Pass 1  IDiag  1:
 RMSU=  4.86D-04    CP:  9.90D-01  1.60D+00  6.25D-01
 E= -768.324758746531     Delta-E=       -0.022346378486 Rises=F Damp=F
 DIIS: error= 2.10D-03 at cycle   4 NSaved=   4.
 NSaved= 4 IEnMin= 4 EnMin= -768.324758746531     IErMin= 4 ErrMin= 2.10D-03
 ErrMax= 2.10D-03  0.00D+00 EMaxC= 1.00D-01 BMatC= 3.30D-03 BMatP= 2.97D-02
 IDIUse=3 WtCom= 9.79D-01 WtEn= 2.10D-02
 Coeff-Com: -0.185D+00 0.318D+00 0.265D+00 0.601D+00
 Coeff-En:   0.000D+00 0.000D+00 0.000D+00 0.100D+01
 Coeff:     -0.181D+00 0.312D+00 0.260D+00 0.610D+00
 Gap=     0.140 Goal=   None    Shift=    0.000
 RMSDP=2.22D-04 MaxDP=1.14D-02 DE=-2.23D-02 OVMax= 1.37D-02

 Cycle   5  Pass 1  IDiag  1:
 RMSU=  1.65D-04    CP:  9.89D-01  1.62D+00  6.94D-01  7.55D-01
 E= -768.327029515503     Delta-E=       -0.002270768972 Rises=F Damp=F
 DIIS: error= 1.06D-03 at cycle   5 NSaved=   5.
 NSaved= 5 IEnMin= 5 EnMin= -768.327029515503     IErMin= 5 ErrMin= 1.06D-03
 ErrMax= 1.06D-03  0.00D+00 EMaxC= 1.00D-01 BMatC= 6.14D-04 BMatP= 3.30D-03
 IDIUse=3 WtCom= 9.89D-01 WtEn= 1.06D-02
 Coeff-Com: -0.728D-01 0.112D+00 0.856D-01 0.348D+00 0.527D+00
 Coeff-En:   0.000D+00 0.000D+00 0.000D+00 0.106D+00 0.894D+00
 Coeff:     -0.720D-01 0.111D+00 0.847D-01 0.346D+00 0.531D+00
 Gap=     0.142 Goal=   None    Shift=    0.000
 RMSDP=8.47D-05 MaxDP=5.41D-03 DE=-2.27D-03 OVMax= 4.37D-03

 Cycle   6  Pass 1  IDiag  1:
 RMSU=  5.69D-05    CP:  9.89D-01  1.63D+00  6.94D-01  8.28D-01  6.91D-01
 E= -768.327444491206     Delta-E=       -0.000414975703 Rises=F Damp=F
 DIIS: error= 2.83D-04 at cycle   6 NSaved=   6.
 NSaved= 6 IEnMin= 6 EnMin= -768.327444491206     IErMin= 6 ErrMin= 2.83D-04
 ErrMax= 2.83D-04  0.00D+00 EMaxC= 1.00D-01 BMatC= 7.98D-05 BMatP= 6.14D-04
 IDIUse=3 WtCom= 9.97D-01 WtEn= 2.83D-03
 Coeff-Com: -0.247D-01 0.326D-01 0.138D-01 0.140D+00 0.326D+00 0.513D+00
 Coeff-En:   0.000D+00 0.000D+00 0.000D+00 0.000D+00 0.316D-01 0.968D+00
 Coeff:     -0.246D-01 0.325D-01 0.137D-01 0.139D+00 0.325D+00 0.514D+00
 Gap=     0.142 Goal=   None    Shift=    0.000
 RMSDP=2.67D-05 MaxDP=1.97D-03 DE=-4.15D-04 OVMax= 1.52D-03

 Cycle   7  Pass 1  IDiag  1:
 RMSU=  2.11D-05    CP:  9.89D-01  1.63D+00  6.94D-01  8.41D-01  7.43D-01
                    CP:  7.83D-01
 E= -768.327501781625     Delta-E=       -0.000057290419 Rises=F Damp=F
 DIIS: error= 9.66D-05 at cycle   7 NSaved=   7.
 NSaved= 7 IEnMin= 7 EnMin= -768.327501781625     IErMin= 7 ErrMin= 9.66D-05
 ErrMax= 9.66D-05  0.00D+00 EMaxC= 1.00D-01 BMatC= 5.76D-06 BMatP= 7.98D-05
 IDIUse=1 WtCom= 1.00D+00 WtEn= 0.00D+00
 Coeff-Com: -0.666D-02 0.711D-02-0.447D-02 0.383D-01 0.124D+00 0.274D+00
 Coeff-Com:  0.568D+00
 Coeff:     -0.666D-02 0.711D-02-0.447D-02 0.383D-01 0.124D+00 0.274D+00
 Coeff:      0.568D+00
 Gap=     0.141 Goal=   None    Shift=    0.000
 RMSDP=9.70D-06 MaxDP=4.82D-04 DE=-5.73D-05 OVMax= 4.96D-04

 Cycle   8  Pass 1  IDiag  1:
 RMSU=  6.00D-06    CP:  9.89D-01  1.63D+00  6.94D-01  8.49D-01  7.68D-01
                    CP:  8.31D-01  8.27D-01
 E= -768.327506780155     Delta-E=       -0.000004998531 Rises=F Damp=F
 DIIS: error= 2.43D-05 at cycle   8 NSaved=   8.
 NSaved= 8 IEnMin= 8 EnMin= -768.327506780155     IErMin= 8 ErrMin= 2.43D-05
 ErrMax= 2.43D-05  0.00D+00 EMaxC= 1.00D-01 BMatC= 4.63D-07 BMatP= 5.76D-06
 IDIUse=1 WtCom= 1.00D+00 WtEn= 0.00D+00
 Coeff-Com: -0.418D-03-0.476D-04-0.442D-02-0.199D-02 0.941D-02 0.447D-01
 Coeff-Com:  0.229D+00 0.724D+00
 Coeff:     -0.418D-03-0.476D-04-0.442D-02-0.199D-02 0.941D-02 0.447D-01
 Coeff:      0.229D+00 0.724D+00
 Gap=     0.141 Goal=   None    Shift=    0.000
 RMSDP=3.81D-06 MaxDP=1.19D-04 DE=-5.00D-06 OVMax= 4.25D-04

 Cycle   9  Pass 1  IDiag  1:
 RMSU=  2.32D-06    CP:  9.89D-01  1.63D+00  6.94D-01  8.53D-01  7.75D-01
                    CP:  8.54D-01  8.94D-01  9.44D-01
 E= -768.327507173398     Delta-E=       -0.000000393242 Rises=F Damp=F
 DIIS: error= 1.38D-05 at cycle   9 NSaved=   9.
 NSaved= 9 IEnMin= 9 EnMin= -768.327507173398     IErMin= 9 ErrMin= 1.38D-05
 ErrMax= 1.38D-05  0.00D+00 EMaxC= 1.00D-01 BMatC= 1.08D-07 BMatP= 4.63D-07
 IDIUse=1 WtCom= 1.00D+00 WtEn= 0.00D+00
 Coeff-Com:  0.217D-03-0.330D-03-0.176D-02-0.521D-02-0.102D-01-0.113D-01
 Coeff-Com:  0.497D-01 0.417D+00 0.562D+00
 Coeff:      0.217D-03-0.330D-03-0.176D-02-0.521D-02-0.102D-01-0.113D-01
 Coeff:      0.497D-01 0.417D+00 0.562D+00
 Gap=     0.141 Goal=   None    Shift=    0.000
 RMSDP=1.44D-06 MaxDP=4.02D-05 DE=-3.93D-07 OVMax= 1.44D-04

 Cycle  10  Pass 1  IDiag  1:
 RMSU=  7.06D-07    CP:  9.89D-01  1.63D+00  6.95D-01  8.53D-01  7.78D-01
                    CP:  8.64D-01  9.22D-01  1.03D+00  7.19D-01
 E= -768.327507265572     Delta-E=       -0.000000092175 Rises=F Damp=F
 DIIS: error= 1.98D-06 at cycle  10 NSaved=  10.
 NSaved=10 IEnMin=10 EnMin= -768.327507265572     IErMin=10 ErrMin= 1.98D-06
 ErrMax= 1.98D-06  0.00D+00 EMaxC= 1.00D-01 BMatC= 3.85D-09 BMatP= 1.08D-07
 IDIUse=1 WtCom= 1.00D+00 WtEn= 0.00D+00
 Coeff-Com:  0.150D-03-0.180D-03-0.386D-03-0.190D-02-0.510D-02-0.812D-02
 Coeff-Com: -0.310D-02 0.759D-01 0.182D+00 0.761D+00
 Coeff:      0.150D-03-0.180D-03-0.386D-03-0.190D-02-0.510D-02-0.812D-02
 Coeff:     -0.310D-02 0.759D-01 0.182D+00 0.761D+00
 Gap=     0.141 Goal=   None    Shift=    0.000
 RMSDP=4.33D-07 MaxDP=1.20D-05 DE=-9.22D-08 OVMax= 4.40D-05

 Cycle  11  Pass 1  IDiag  1:
 RMSU=  2.02D-07    CP:  9.89D-01  1.63D+00  6.95D-01  8.54D-01  7.78D-01
                    CP:  8.67D-01  9.31D-01  1.05D+00  7.58D-01  9.19D-01
 E= -768.327507269906     Delta-E=       -0.000000004334 Rises=F Damp=F
 DIIS: error= 8.10D-07 at cycle  11 NSaved=  11.
 NSaved=11 IEnMin=11 EnMin= -768.327507269906     IErMin=11 ErrMin= 8.10D-07
 ErrMax= 8.10D-07  0.00D+00 EMaxC= 1.00D-01 BMatC= 4.27D-10 BMatP= 3.85D-09
 IDIUse=1 WtCom= 1.00D+00 WtEn= 0.00D+00
 Coeff-Com:  0.300D-04-0.279D-04-0.511D-04-0.400D-03-0.145D-02-0.234D-02
 Coeff-Com: -0.470D-02 0.380D-02 0.412D-01 0.345D+00 0.619D+00
 Coeff:      0.300D-04-0.279D-04-0.511D-04-0.400D-03-0.145D-02-0.234D-02
 Coeff:     -0.470D-02 0.380D-02 0.412D-01 0.345D+00 0.619D+00
 Gap=     0.141 Goal=   None    Shift=    0.000
 RMSDP=1.15D-07 MaxDP=3.26D-06 DE=-4.33D-09 OVMax= 8.61D-06

 Cycle  12  Pass 1  IDiag  1:
 RMSU=  7.19D-08    CP:  9.89D-01  1.63D+00  6.95D-01  8.54D-01  7.78D-01
                    CP:  8.67D-01  9.32D-01  1.05D+00  7.68D-01  9.71D-01
                    CP:  7.73D-01
 E= -768.327507270346     Delta-E=       -0.000000000441 Rises=F Damp=F
 DIIS: error= 2.24D-07 at cycle  12 NSaved=  12.
 NSaved=12 IEnMin=12 EnMin= -768.327507270346     IErMin=12 ErrMin= 2.24D-07
 ErrMax= 2.24D-07  0.00D+00 EMaxC= 1.00D-01 BMatC= 5.25D-11 BMatP= 4.27D-10
 IDIUse=1 WtCom= 1.00D+00 WtEn= 0.00D+00
 Coeff-Com: -0.480D-06 0.395D-05 0.214D-04 0.356D-04-0.106D-03-0.742D-04
 Coeff-Com: -0.211D-02-0.822D-02-0.321D-02 0.606D-01 0.293D+00 0.660D+00
 Coeff:     -0.480D-06 0.395D-05 0.214D-04 0.356D-04-0.106D-03-0.742D-04
 Coeff:     -0.211D-02-0.822D-02-0.321D-02 0.606D-01 0.293D+00 0.660D+00
 Gap=     0.141 Goal=   None    Shift=    0.000
 RMSDP=3.79D-08 MaxDP=9.08D-07 DE=-4.41D-10 OVMax= 2.54D-06

 Cycle  13  Pass 1  IDiag  1:
 RMSU=  2.00D-08    CP:  9.89D-01  1.63D+00  6.95D-01  8.54D-01  7.79D-01
                    CP:  8.67D-01  9.32D-01  1.06D+00  7.71D-01  9.86D-01
                    CP:  8.45D-01  7.83D-01
 E= -768.327507270370     Delta-E=       -0.000000000023 Rises=F Damp=F
 DIIS: error= 9.99D-08 at cycle  13 NSaved=  13.
 NSaved=13 IEnMin=13 EnMin= -768.327507270370     IErMin=13 ErrMin= 9.99D-08
 ErrMax= 9.99D-08  0.00D+00 EMaxC= 1.00D-01 BMatC= 4.04D-12 BMatP= 5.25D-11
 IDIUse=1 WtCom= 1.00D+00 WtEn= 0.00D+00
 Coeff-Com: -0.233D-05 0.378D-05 0.135D-04 0.471D-04 0.523D-04 0.156D-03
 Coeff-Com: -0.664D-03-0.426D-02-0.452D-02 0.282D-02 0.963D-01 0.310D+00
 Coeff-Com:  0.600D+00
 Coeff:     -0.233D-05 0.378D-05 0.135D-04 0.471D-04 0.523D-04 0.156D-03
 Coeff:     -0.664D-03-0.426D-02-0.452D-02 0.282D-02 0.963D-01 0.310D+00
 Coeff:      0.600D+00
 Gap=     0.141 Goal=   None    Shift=    0.000
 RMSDP=9.98D-09 MaxDP=4.08D-07 DE=-2.32D-11 OVMax= 4.40D-07

 Error on total polarization charges =  0.01313
 SCF Done:  E(RB3LYP) =  -768.327507270     A.U. after   13 cycles
            NFock= 13  Conv=0.10D-07     -V/T= 2.0091
 KE= 7.613990456782D+02 PE=-4.084497530201D+03 EE= 1.400073935408D+03
 Leave Link  502 at Fri May 24 08:34:23 2019, MaxMem=   402653184 cpu:             502.2 elap:             125.6
 (Enter /n/sw/g16_nehalem/g16/l601.exe)
 Copying SCF densities to generalized density rwf, IOpCl= 0 IROHF=0.

 **********************************************************************

            Population analysis using the SCF density.

 **********************************************************************

 Orbital symmetries:
       Occupied  (A) (A) (A) (A) (A) (A) (A) (A) (A) (A) (A) (A)
                 (A) (A) (A) (A) (A) (A) (A) (A) (A) (A) (A) (A)
                 (A) (A) (A) (A) (A) (A) (A) (A) (A) (A) (A) (A)
                 (A) (A) (A) (A) (A) (A) (A) (A) (A) (A) (A) (A)
                 (A) (A) (A) (A) (A) (A) (A) (A) (A) (A) (A)
       Virtual   (A) (A) (A) (A) (A) (A) (A) (A) (A) (A) (A) (A)
                 (A) (A) (A) (A) (A) (A) (A) (A) (A) (A) (A) (A)
                 (A) (A) (A) (A) (A) (A) (A) (A) (A) (A) (A) (A)
                 (A) (A) (A) (A) (A) (A) (A) (A) (A) (A) (A) (A)
                 (A) (A) (A) (A) (A) (A) (A) (A) (A) (A) (A) (A)
                 (A) (A) (A) (A) (A) (A) (A) (A) (A) (A) (A) (A)
                 (A) (A) (A) (A) (A) (A) (A) (A) (A) (A) (A) (A)
                 (A) (A) (A) (A) (A) (A) (A) (A) (A) (A) (A) (A)
                 (A) (A) (A) (A) (A) (A) (A) (A) (A) (A) (A) (A)
                 (A) (A) (A) (A) (A) (A) (A) (A) (A) (A) (A) (A)
                 (A) (A) (A) (A) (A) (A) (A) (A) (A) (A) (A) (A)
                 (A) (A) (A) (A) (A) (A) (A) (A) (A) (A) (A) (A)
                 (A) (A) (A) (A) (A) (A) (A) (A) (A) (A) (A) (A)
                 (A) (A) (A) (A) (A) (A) (A) (A) (A) (A) (A) (A)
                 (A) (A) (A) (A) (A) (A) (A) (A) (A) (A) (A) (A)
                 (A) (A) (A) (A) (A) (A) (A) (A) (A) (A) (A) (A)
                 (A) (A) (A) (A) (A) (A) (A) (A) (A) (A) (A) (A)
 The electronic state is 1-A.
 Alpha  occ. eigenvalues --  -19.32846 -19.21483 -19.19389 -19.19021 -19.18796
 Alpha  occ. eigenvalues --  -10.39542 -10.32031 -10.31709 -10.29427 -10.29234
 Alpha  occ. eigenvalues --  -10.27893 -10.26198 -10.25338 -10.25245 -10.24904
 Alpha  occ. eigenvalues --   -1.21425  -1.09807  -1.08197  -1.07031  -1.06308
 Alpha  occ. eigenvalues --   -0.87204  -0.85688  -0.77642  -0.74957  -0.73797
 Alpha  occ. eigenvalues --   -0.71444  -0.69412  -0.67711  -0.65692  -0.62170
 Alpha  occ. eigenvalues --   -0.60545  -0.58618  -0.55916  -0.55273  -0.53421
 Alpha  occ. eigenvalues --   -0.52700  -0.51524  -0.50939  -0.50210  -0.49344
 Alpha  occ. eigenvalues --   -0.48414  -0.47945  -0.46622  -0.46149  -0.45281
 Alpha  occ. eigenvalues --   -0.43689  -0.43055  -0.42519  -0.42054  -0.40667
 Alpha  occ. eigenvalues --   -0.40121  -0.37677  -0.36672  -0.35466  -0.34300
 Alpha  occ. eigenvalues --   -0.31972  -0.30165  -0.29424  -0.29119
 Alpha virt. eigenvalues --   -0.15010   0.00071   0.04395   0.04915   0.05594
 Alpha virt. eigenvalues --    0.07208   0.07826   0.09160   0.09369   0.09999
 Alpha virt. eigenvalues --    0.10688   0.10992   0.12145   0.12701   0.13325
 Alpha virt. eigenvalues --    0.13682   0.13760   0.14281   0.14734   0.15389
 Alpha virt. eigenvalues --    0.15762   0.16345   0.17325   0.17446   0.17967
 Alpha virt. eigenvalues --    0.18943   0.19309   0.21386   0.22108   0.23450
 Alpha virt. eigenvalues --    0.24009   0.25195   0.27682   0.27889   0.28346
 Alpha virt. eigenvalues --    0.44562   0.45749   0.47294   0.47801   0.48349
 Alpha virt. eigenvalues --    0.48962   0.49881   0.50371   0.51109   0.52001
 Alpha virt. eigenvalues --    0.53170   0.53589   0.53944   0.55303   0.55985
 Alpha virt. eigenvalues --    0.57521   0.58358   0.58824   0.59995   0.61684
 Alpha virt. eigenvalues --    0.62250   0.64193   0.65072   0.67130   0.68864
 Alpha virt. eigenvalues --    0.74039   0.74226   0.74544   0.76552   0.78800
 Alpha virt. eigenvalues --    0.79172   0.80045   0.81650   0.82142   0.83282
 Alpha virt. eigenvalues --    0.83390   0.83689   0.84549   0.85179   0.85373
 Alpha virt. eigenvalues --    0.86158   0.86470   0.87996   0.89416   0.91457
 Alpha virt. eigenvalues --    0.92428   0.93075   0.93572   0.94151   0.94884
 Alpha virt. eigenvalues --    0.95560   0.99087   0.99511   1.00177   1.04303
 Alpha virt. eigenvalues --    1.05302   1.06756   1.08850   1.09874   1.11335
 Alpha virt. eigenvalues --    1.13241   1.14654   1.17356   1.18632   1.21406
 Alpha virt. eigenvalues --    1.22486   1.25927   1.28162   1.30435   1.32457
 Alpha virt. eigenvalues --    1.34347   1.36504   1.37069   1.38728   1.40861
 Alpha virt. eigenvalues --    1.42835   1.44456   1.45206   1.47298   1.50035
 Alpha virt. eigenvalues --    1.53013   1.55142   1.55795   1.59165   1.60500
 Alpha virt. eigenvalues --    1.62767   1.63376   1.66841   1.69642   1.69876
 Alpha virt. eigenvalues --    1.74071   1.75190   1.78377   1.80919   1.81713
 Alpha virt. eigenvalues --    1.84000   1.84499   1.85841   1.88403   1.90170
 Alpha virt. eigenvalues --    1.90960   1.91932   1.92981   1.99517   2.00166
 Alpha virt. eigenvalues --    2.01907   2.02109   2.02716   2.04301   2.04942
 Alpha virt. eigenvalues --    2.05364   2.06607   2.07944   2.09694   2.10764
 Alpha virt. eigenvalues --    2.11819   2.12476   2.13661   2.14988   2.16663
 Alpha virt. eigenvalues --    2.17083   2.19080   2.21857   2.22835   2.24441
 Alpha virt. eigenvalues --    2.27493   2.28100   2.31072   2.32707   2.36625
 Alpha virt. eigenvalues --    2.37277   2.39249   2.42906   2.44767   2.47533
 Alpha virt. eigenvalues --    2.49973   2.50294   2.53757   2.55233   2.61391
 Alpha virt. eigenvalues --    2.62582   2.65074   2.66165   2.76298   2.77157
 Alpha virt. eigenvalues --    2.79840   2.80513   2.84003   2.88753   2.91385
 Alpha virt. eigenvalues --    2.93941   2.99296   3.01686   3.05168   3.85792
 Alpha virt. eigenvalues --    3.89453   3.89837   3.96709   4.10432   4.15116
 Alpha virt. eigenvalues --    4.22234   4.22989   4.25000   4.25827   4.29694
 Alpha virt. eigenvalues --    4.37254   4.41435   4.55150   4.63994
          Condensed to atoms (all electrons):
               1          2          3          4          5          6
     1  C    4.920821   0.263652  -0.037468  -0.043600   0.269560   0.002234
     2  C    0.263652   5.180882   0.274953  -0.002514  -0.055045  -0.039611
     3  C   -0.037468   0.274953   4.778706  -0.036011   0.009297   0.362241
     4  C   -0.043600  -0.002514  -0.036011   5.131061   0.276519   0.003069
     5  C    0.269560  -0.055045   0.009297   0.276519   5.108685  -0.000206
     6  H    0.002234  -0.039611   0.362241   0.003069  -0.000206   0.430313
     7  H   -0.025170   0.337914  -0.040249   0.000796  -0.004262   0.000133
     8  H    0.381675  -0.049613  -0.002247  -0.004634  -0.042192  -0.000169
     9  H   -0.006024   0.001268  -0.001426   0.364189  -0.036260  -0.000158
    10  H   -0.040723  -0.002612   0.001175  -0.048309   0.353970  -0.000037
    11  O    0.002509  -0.029966   0.403078   0.099900  -0.024787  -0.035957
    12  O   -0.031348   0.173118  -0.024887  -0.000115   0.002991   0.001237
    13  O    0.279051  -0.037376   0.002818   0.002213  -0.036950  -0.000037
    14  O   -0.033466   0.003257  -0.000129  -0.038026   0.185692   0.000003
    15  C    0.003414  -0.000229   0.002226   0.345585  -0.028105  -0.000163
    16  H    0.000044  -0.000014  -0.000010  -0.031101  -0.009642   0.000004
    17  H   -0.000040   0.000016   0.000152  -0.028664   0.005295  -0.000014
    18  O    0.000307  -0.000153   0.001216  -0.051303  -0.003910   0.000016
    19  C    0.002039  -0.026422  -0.001296   0.000002  -0.000125   0.001790
    20  H   -0.000047  -0.007449  -0.000035   0.000000  -0.000009   0.000018
    21  H   -0.000162   0.004910  -0.000155   0.000000   0.000001  -0.000067
    22  H    0.000020  -0.004898   0.001304  -0.000002   0.000026   0.000382
    23  C   -0.044547  -0.008542   0.000294   0.000308  -0.004966  -0.000004
    24  H   -0.008156  -0.000720   0.000083  -0.000114   0.006703   0.000000
    25  H    0.005064  -0.000030  -0.000001  -0.000003  -0.000032   0.000000
    26  H   -0.005591   0.004463  -0.000708   0.000043  -0.001720   0.000018
    27  C    0.002455  -0.000146   0.000017  -0.001451  -0.027181   0.000000
    28  H   -0.000177   0.000001   0.000000  -0.000212   0.005258   0.000000
    29  H    0.000672  -0.000024   0.000000  -0.000121  -0.008301   0.000000
    30  H   -0.000258   0.000037  -0.000005  -0.000022  -0.004960   0.000000
    31  C   -0.000007   0.000002  -0.000027   0.005926   0.000222  -0.000001
    32  H    0.000001   0.000000   0.000000   0.000002   0.000044   0.000000
    33  H   -0.000001   0.000000   0.000001   0.000053  -0.000143   0.000000
    34  H    0.000000   0.000000   0.000000  -0.000271   0.000009   0.000000
               7          8          9         10         11         12
     1  C   -0.025170   0.381675  -0.006024  -0.040723   0.002509  -0.031348
     2  C    0.337914  -0.049613   0.001268  -0.002612  -0.029966   0.173118
     3  C   -0.040249  -0.002247  -0.001426   0.001175   0.403078  -0.024887
     4  C    0.000796  -0.004634   0.364189  -0.048309   0.099900  -0.000115
     5  C   -0.004262  -0.042192  -0.036260   0.353970  -0.024787   0.002991
     6  H    0.000133  -0.000169  -0.000158  -0.000037  -0.035957   0.001237
     7  H    0.513558   0.004732  -0.000009   0.002312   0.001182  -0.024793
     8  H    0.004732   0.542382   0.004594   0.005002   0.000938   0.001691
     9  H   -0.000009   0.004594   0.479944   0.005060  -0.024065   0.000011
    10  H    0.002312   0.005002   0.005060   0.555053   0.000727  -0.000011
    11  O    0.001182   0.000938  -0.024065   0.000727   7.947043   0.000851
    12  O   -0.024793   0.001691   0.000011  -0.000011   0.000851   8.237631
    13  O   -0.005866  -0.039216  -0.000013  -0.002545   0.000013   0.001366
    14  O   -0.000039  -0.000255   0.002894  -0.028873   0.001342  -0.000009
    15  C    0.000000  -0.000071  -0.034257  -0.011137  -0.034747  -0.000001
    16  H   -0.000001  -0.000007   0.001702   0.000571   0.003090   0.000000
    17  H    0.000000  -0.000001  -0.001005   0.000341  -0.003166   0.000000
    18  O    0.000006  -0.000002   0.002373   0.015345   0.002022   0.000000
    19  C   -0.005590  -0.000148   0.000000  -0.000001   0.000001   0.220841
    20  H    0.007431   0.000070   0.000000   0.000000   0.000002  -0.033314
    21  H   -0.000030  -0.000010   0.000000   0.000000   0.000001  -0.029568
    22  H    0.000481   0.000006   0.000000   0.000000  -0.000030  -0.032836
    23  C    0.003902   0.005642   0.000005   0.003164  -0.000001   0.000150
    24  H   -0.000371  -0.000187  -0.000008  -0.000437  -0.000002   0.000002
    25  H   -0.000158  -0.000123   0.000000  -0.000024   0.000000  -0.000010
    26  H    0.006205  -0.000287   0.000000  -0.000193   0.000002  -0.000039
    27  C   -0.000005  -0.000185  -0.000302  -0.006631  -0.000024   0.000000
    28  H    0.000000   0.000002   0.000005   0.000026   0.000000   0.000000
    29  H    0.000000   0.000028   0.000015   0.004831   0.000006   0.000000
    30  H    0.000000   0.000002   0.000085   0.002443  -0.000047   0.000000
    31  C    0.000000   0.000000  -0.000148  -0.000423  -0.000020   0.000000
    32  H    0.000000   0.000000   0.000001   0.000038  -0.000029   0.000000
    33  H    0.000000   0.000000   0.000014   0.000038   0.000004   0.000000
    34  H    0.000000   0.000000   0.000003  -0.000027   0.000002   0.000000
              13         14         15         16         17         18
     1  C    0.279051  -0.033466   0.003414   0.000044  -0.000040   0.000307
     2  C   -0.037376   0.003257  -0.000229  -0.000014   0.000016  -0.000153
     3  C    0.002818  -0.000129   0.002226  -0.000010   0.000152   0.001216
     4  C    0.002213  -0.038026   0.345585  -0.031101  -0.028664  -0.051303
     5  C   -0.036950   0.185692  -0.028105  -0.009642   0.005295  -0.003910
     6  H   -0.000037   0.000003  -0.000163   0.000004  -0.000014   0.000016
     7  H   -0.005866  -0.000039   0.000000  -0.000001   0.000000   0.000006
     8  H   -0.039216  -0.000255  -0.000071  -0.000007  -0.000001  -0.000002
     9  H   -0.000013   0.002894  -0.034257   0.001702  -0.001005   0.002373
    10  H   -0.002545  -0.028873  -0.011137   0.000571   0.000341   0.015345
    11  O    0.000013   0.001342  -0.034747   0.003090  -0.003166   0.002022
    12  O    0.001366  -0.000009  -0.000001   0.000000   0.000000   0.000000
    13  O    8.170398   0.002100  -0.000038   0.000000   0.000000   0.000000
    14  O    0.002100   8.249934   0.002191   0.004047  -0.000014  -0.000156
    15  C   -0.000038   0.002191   4.891372   0.354122   0.359173   0.237110
    16  H    0.000000   0.004047   0.354122   0.575379  -0.044958  -0.040193
    17  H    0.000000  -0.000014   0.359173  -0.044958   0.563748  -0.037045
    18  O    0.000000  -0.000156   0.237110  -0.040193  -0.037045   8.215296
    19  C   -0.000170   0.000000   0.000000   0.000000   0.000000   0.000000
    20  H    0.000476   0.000000   0.000000   0.000000   0.000000   0.000000
    21  H    0.000000   0.000000   0.000000   0.000000   0.000000   0.000000
    22  H    0.000014   0.000000   0.000000   0.000000   0.000000   0.000000
    23  C    0.243772   0.000259   0.000002   0.000000   0.000000  -0.000003
    24  H   -0.036583   0.000610   0.000019  -0.000001   0.000000  -0.000005
    25  H   -0.031652  -0.000027   0.000000   0.000000   0.000000   0.000000
    26  H   -0.036874   0.000111  -0.000001   0.000000   0.000000   0.000000
    27  C    0.000335   0.234884   0.001272   0.002033  -0.000052  -0.002472
    28  H   -0.000010  -0.030972  -0.000014  -0.000103   0.000001   0.000032
    29  H    0.000114  -0.036467   0.000041   0.000138  -0.000002  -0.000018
    30  H    0.000013  -0.035379  -0.000632  -0.002953   0.000251   0.006235
    31  C    0.000000  -0.000018  -0.041041  -0.003557  -0.004306   0.242113
    32  H    0.000000   0.000000  -0.007659  -0.002224   0.010969  -0.035249
    33  H    0.000000  -0.000004  -0.007042   0.010492  -0.002156  -0.036176
    34  H    0.000000   0.000000   0.005536  -0.000120  -0.000101  -0.031378
              19         20         21         22         23         24
     1  C    0.002039  -0.000047  -0.000162   0.000020  -0.044547  -0.008156
     2  C   -0.026422  -0.007449   0.004910  -0.004898  -0.008542  -0.000720
     3  C   -0.001296  -0.000035  -0.000155   0.001304   0.000294   0.000083
     4  C    0.000002   0.000000   0.000000  -0.000002   0.000308  -0.000114
     5  C   -0.000125  -0.000009   0.000001   0.000026  -0.004966   0.006703
     6  H    0.001790   0.000018  -0.000067   0.000382  -0.000004   0.000000
     7  H   -0.005590   0.007431  -0.000030   0.000481   0.003902  -0.000371
     8  H   -0.000148   0.000070  -0.000010   0.000006   0.005642  -0.000187
     9  H    0.000000   0.000000   0.000000   0.000000   0.000005  -0.000008
    10  H   -0.000001   0.000000   0.000000   0.000000   0.003164  -0.000437
    11  O    0.000001   0.000002   0.000001  -0.000030  -0.000001  -0.000002
    12  O    0.220841  -0.033314  -0.029568  -0.032836   0.000150   0.000002
    13  O   -0.000170   0.000476   0.000000   0.000014   0.243772  -0.036583
    14  O    0.000000   0.000000   0.000000   0.000000   0.000259   0.000610
    15  C    0.000000   0.000000   0.000000   0.000000   0.000002   0.000019
    16  H    0.000000   0.000000   0.000000   0.000000   0.000000  -0.000001
    17  H    0.000000   0.000000   0.000000   0.000000   0.000000   0.000000
    18  O    0.000000   0.000000   0.000000   0.000000  -0.000003  -0.000005
    19  C    4.917776   0.372219   0.385710   0.366958  -0.000073   0.000001
    20  H    0.372219   0.545190  -0.026156  -0.040519  -0.000011   0.000009
    21  H    0.385710  -0.026156   0.495911  -0.029154   0.000002   0.000000
    22  H    0.366958  -0.040519  -0.029154   0.565297   0.000004   0.000000
    23  C   -0.000073  -0.000011   0.000002   0.000004   4.935615   0.362657
    24  H    0.000001   0.000009   0.000000   0.000000   0.362657   0.583648
    25  H   -0.000005   0.000019   0.000000   0.000000   0.389042  -0.030694
    26  H    0.000243   0.000251  -0.000001  -0.000038   0.356741  -0.045987
    27  C    0.000000   0.000000   0.000000   0.000000  -0.001887   0.000582
    28  H    0.000000   0.000000   0.000000   0.000000   0.000050  -0.000028
    29  H    0.000000   0.000000   0.000000   0.000000  -0.000718   0.003752
    30  H    0.000000   0.000000   0.000000   0.000000   0.000054  -0.000010
    31  C    0.000000   0.000000   0.000000   0.000000   0.000000   0.000000
    32  H    0.000000   0.000000   0.000000   0.000000   0.000000   0.000000
    33  H    0.000000   0.000000   0.000000   0.000000   0.000000   0.000000
    34  H    0.000000   0.000000   0.000000   0.000000   0.000000   0.000000
              25         26         27         28         29         30
     1  C    0.005064  -0.005591   0.002455  -0.000177   0.000672  -0.000258
     2  C   -0.000030   0.004463  -0.000146   0.000001  -0.000024   0.000037
     3  C   -0.000001  -0.000708   0.000017   0.000000   0.000000  -0.000005
     4  C   -0.000003   0.000043  -0.001451  -0.000212  -0.000121  -0.000022
     5  C   -0.000032  -0.001720  -0.027181   0.005258  -0.008301  -0.004960
     6  H    0.000000   0.000018   0.000000   0.000000   0.000000   0.000000
     7  H   -0.000158   0.006205  -0.000005   0.000000   0.000000   0.000000
     8  H   -0.000123  -0.000287  -0.000185   0.000002   0.000028   0.000002
     9  H    0.000000   0.000000  -0.000302   0.000005   0.000015   0.000085
    10  H   -0.000024  -0.000193  -0.006631   0.000026   0.004831   0.002443
    11  O    0.000000   0.000002  -0.000024   0.000000   0.000006  -0.000047
    12  O   -0.000010  -0.000039   0.000000   0.000000   0.000000   0.000000
    13  O   -0.031652  -0.036874   0.000335  -0.000010   0.000114   0.000013
    14  O   -0.000027   0.000111   0.234884  -0.030972  -0.036467  -0.035379
    15  C    0.000000  -0.000001   0.001272  -0.000014   0.000041  -0.000632
    16  H    0.000000   0.000000   0.002033  -0.000103   0.000138  -0.002953
    17  H    0.000000   0.000000  -0.000052   0.000001  -0.000002   0.000251
    18  O    0.000000   0.000000  -0.002472   0.000032  -0.000018   0.006235
    19  C   -0.000005   0.000243   0.000000   0.000000   0.000000   0.000000
    20  H    0.000019   0.000251   0.000000   0.000000   0.000000   0.000000
    21  H    0.000000  -0.000001   0.000000   0.000000   0.000000   0.000000
    22  H    0.000000  -0.000038   0.000000   0.000000   0.000000   0.000000
    23  C    0.389042   0.356741  -0.001887   0.000050  -0.000718   0.000054
    24  H   -0.030694  -0.045987   0.000582  -0.000028   0.003752  -0.000010
    25  H    0.506293  -0.029085   0.000019  -0.000001   0.000050   0.000000
    26  H   -0.029085   0.596444   0.000053   0.000000  -0.000018  -0.000001
    27  C    0.000019   0.000053   4.917608   0.384376   0.368826   0.361483
    28  H   -0.000001   0.000000   0.384376   0.512754  -0.029603  -0.028113
    29  H    0.000050  -0.000018   0.368826  -0.029603   0.572203  -0.044668
    30  H    0.000000  -0.000001   0.361483  -0.028113  -0.044668   0.578935
    31  C    0.000000   0.000000  -0.000008  -0.000002  -0.000002   0.000322
    32  H    0.000000   0.000000  -0.000006   0.000000   0.000000   0.000063
    33  H    0.000000   0.000000   0.000127  -0.000005  -0.000004  -0.000111
    34  H    0.000000   0.000000   0.000005   0.000000   0.000000  -0.000036
              31         32         33         34
     1  C   -0.000007   0.000001  -0.000001   0.000000
     2  C    0.000002   0.000000   0.000000   0.000000
     3  C   -0.000027   0.000000   0.000001   0.000000
     4  C    0.005926   0.000002   0.000053  -0.000271
     5  C    0.000222   0.000044  -0.000143   0.000009
     6  H   -0.000001   0.000000   0.000000   0.000000
     7  H    0.000000   0.000000   0.000000   0.000000
     8  H    0.000000   0.000000   0.000000   0.000000
     9  H   -0.000148   0.000001   0.000014   0.000003
    10  H   -0.000423   0.000038   0.000038  -0.000027
    11  O   -0.000020  -0.000029   0.000004   0.000002
    12  O    0.000000   0.000000   0.000000   0.000000
    13  O    0.000000   0.000000   0.000000   0.000000
    14  O   -0.000018   0.000000  -0.000004   0.000000
    15  C   -0.041041  -0.007659  -0.007042   0.005536
    16  H   -0.003557  -0.002224   0.010492  -0.000120
    17  H   -0.004306   0.010969  -0.002156  -0.000101
    18  O    0.242113  -0.035249  -0.036176  -0.031378
    19  C    0.000000   0.000000   0.000000   0.000000
    20  H    0.000000   0.000000   0.000000   0.000000
    21  H    0.000000   0.000000   0.000000   0.000000
    22  H    0.000000   0.000000   0.000000   0.000000
    23  C    0.000000   0.000000   0.000000   0.000000
    24  H    0.000000   0.000000   0.000000   0.000000
    25  H    0.000000   0.000000   0.000000   0.000000
    26  H    0.000000   0.000000   0.000000   0.000000
    27  C   -0.000008  -0.000006   0.000127   0.000005
    28  H   -0.000002   0.000000  -0.000005   0.000000
    29  H   -0.000002   0.000000  -0.000004   0.000000
    30  H    0.000322   0.000063  -0.000111  -0.000036
    31  C    4.889844   0.368629   0.368947   0.385633
    32  H    0.368629   0.580946  -0.044163  -0.030171
    33  H    0.368947  -0.044163   0.580954  -0.030346
    34  H    0.385633  -0.030171  -0.030346   0.522231
 Mulliken charges:
               1
     1  C    0.143272
     2  C    0.020891
     3  C    0.307094
     4  C    0.056806
     5  C    0.064524
     6  H    0.274964
     7  H    0.227891
     8  H    0.192581
     9  H    0.241510
    10  H    0.191884
    11  O   -0.309871
    12  O   -0.462956
    13  O   -0.475354
    14  O   -0.483488
    15  C   -0.036926
    16  H    0.183263
    17  H    0.181579
    18  O   -0.484007
    19  C   -0.233751
    20  H    0.181857
    21  H    0.198767
    22  H    0.172985
    23  C   -0.240912
    24  H    0.165239
    25  H    0.191358
    26  H    0.155968
    27  C   -0.233723
    28  H    0.186736
    29  H    0.169269
    30  H    0.167272
    31  C   -0.212081
    32  H    0.158808
    33  H    0.159521
    34  H    0.179031
 Sum of Mulliken charges =   1.00000
 Mulliken charges with hydrogens summed into heavy atoms:
               1
     1  C    0.335854
     2  C    0.248782
     3  C    0.582058
     4  C    0.298316
     5  C    0.256408
    11  O   -0.309871
    12  O   -0.462956
    13  O   -0.475354
    14  O   -0.483488
    15  C    0.327915
    18  O   -0.484007
    19  C    0.319859
    23  C    0.271653
    27  C    0.289553
    31  C    0.285279
 Electronic spatial extent (au):  <R**2>=           3646.9856
 Charge=              1.0000 electrons
 Dipole moment (field-independent basis, Debye):
    X=              0.3105    Y=             -4.9075    Z=              2.3315  Tot=              5.4420
 Quadrupole moment (field-independent basis, Debye-Ang):
   XX=            -55.3127   YY=            -71.4850   ZZ=            -81.8107
   XY=              8.1193   XZ=             -8.6013   YZ=              4.4650
 Traceless Quadrupole moment (field-independent basis, Debye-Ang):
   XX=             14.2235   YY=             -1.9489   ZZ=            -12.2746
   XY=              8.1193   XZ=             -8.6013   YZ=              4.4650
 Octapole moment (field-independent basis, Debye-Ang**2):
[...]
 2478,-0.00014797,0.00007994,0.00014845,-0.00001939,-0.00009555,0.00006
 942,0.00009618,-0.00015691,0.00016272,0.00004546,-0.00000050,-0.000046
 71,-0.00001197,0.00000157,0.00000821,-0.00000928,0.00000021,0.00000646
 ,-0.00000251,-0.00000362,0.00000679,-0.00054377,-0.00039528,-0.0006939
 7,-0.00010483,0.00002708,0.00051329,0.00021842,0.00007080,0.00003222,0
 .00021304,0.00008758,0.00002045,0.05793671,-0.10745034,-0.08445271,-0.
 00994087,0.01293203,0.01644336,-0.05665409,0.11424496,0.00064471,-0.00
 084619,0.00027098,-0.00008521,0.00013337,-0.00010760,0.00031496,0.0001
 2450,-0.00013919,-0.00019808,0.00020929,0.00018052,0.00092769,0.003526
 86,-0.00103348,-0.00003483,0.00001062,0.00002656,-0.00001174,-0.000012
 62,-0.00001217,0.00008368,0.00005057,0.00001160,-0.00005809,0.00019883
 ,0.00008554,-0.00032444,-0.00084621,0.00048537,-0.00018395,-0.00076469
 ,0.00012287,-0.00030501,-0.00013028,0.00009700,-0.00023290,0.00054243,
 0.00025176,-0.00549205,-0.01663622,-0.01596950,-0.00017489,-0.00002547
 ,-0.00011740,-0.00000470,-0.00001990,-0.00004672,0.00008681,-0.0000047
 5,0.00002974,0.00018988,-0.00002771,0.00013577,0.00009094,0.00000684,-
 0.00012697,-0.00001156,0.00000434,0.00002229,-0.00002931,-0.00000433,0
 .00001809,-0.00000667,-0.00000729,0.00002004,0.00019917,-0.00016497,-0
 .00054816,0.00040301,0.00014756,0.00035520,0.00008483,0.00002652,0.000
 04038,0.00016953,0.00010334,0.00001090,0.09324805,-0.08593282,-0.19560
 610,0.01092870,-0.00981672,-0.01377886,-0.09578523,0.10419418,0.215162
 29,-0.00013662,-0.00027631,0.00069018,-0.00013589,0.00006062,-0.000044
 75,-0.00010869,0.00022486,0.00000182,-0.00052475,-0.00009475,0.0001196
 8,0.00190578,0.00448484,-0.00288564,-0.00000017,-0.00001414,-0.0000234
 4,-0.00000475,0.00000919,0.00000802,0.00025388,0.00001726,0.00005405,0
 .00000047,0.00011925,0.00005736,-0.00053411,-0.00050401,0.00076697,0.0
 0024131,-0.00033871,-0.00000743,-0.00023999,-0.00018453,0.00009444,-0.
 00014557,-0.00014184,0.00011558,-0.02476609,-0.00130766,-0.01596840,-0
 .00012497,-0.00002090,-0.00066669,0.00039048,0.00004241,-0.00012906,0.
 00011150,0.00011637,0.00003242,-0.00007650,0.00114880,0.00020166,0.000
 06283,0.00000932,-0.00011156,0.00000016,0.00000554,0.00001381,-0.00002
 588,-0.00000466,0.00001602,-0.00000409,-0.00001008,0.00001701,0.000135
 84,-0.00002336,-0.00011747,0.00002822,0.00004197,-0.00012125,-0.000040
 50,0.00001088,0.00001806,-0.00007499,-0.00004943,0.00003340,-0.1868839
 2,0.11321219,-0.05715899,0.01172250,-0.00651290,0.00407690,-0.00922081
 ,0.01129095,-0.00439214,0.20795826,-0.00008768,-0.00027826,0.00025611,
 -0.00012341,-0.00006138,-0.00000772,-0.00027979,0.00007944,0.00009389,
 0.00034212,0.00012839,-0.00065900,-0.00055438,0.00396823,-0.00116079,0
 .00002203,0.00000047,0.00001401,0.00000947,-0.00000099,0.00000096,0.00
 006775,-0.00000431,0.00011350,0.00001354,0.00006411,0.00003671,0.00002
 249,-0.00000296,0.00010882,0.00025467,0.00022934,-0.00004509,-0.000048
 41,-0.00006436,0.00003271,0.00000637,0.00001020,0.00012998,-0.02300014
 ,0.01045255,-0.01202906,-0.00050777,-0.00119677,-0.00090745,0.00004691
 ,-0.00038805,-0.00026261,0.00004497,-0.00000897,0.00019798,0.00017333,
 0.00026173,-0.00008712,-0.00000058,-0.00000474,-0.00003032,0.00000060,
 0.00000211,0.00000505,-0.00000780,-0.00000067,0.00000599,0.00000031,0.
 00000115,0.00000241,-0.00013554,-0.00008290,-0.00017216,0.00001549,-0.
 00002160,0.00008103,0.00002028,0.00001107,0.00001302,0.00007603,0.0000
 3954,0.00001288,0.11833863,-0.15146666,0.05498050,0.01588373,-0.010723
 42,0.00486701,0.01004987,-0.00723309,0.00597479,-0.12139834,0.15715661
 ,0.00014010,-0.00036612,0.00007105,-0.00003534,0.00010424,-0.00004281,
 0.00002166,0.00016680,-0.00002292,-0.00052948,0.00015748,0.00030693,0.
 00192073,0.00186397,-0.00071863,-0.00000334,-0.00000476,-0.00000393,0.
 00000360,-0.00001755,0.00000468,0.00007610,0.00004148,0.00001553,-0.00
 003294,0.00004262,-0.00001300,0.00026432,-0.00029501,0.00041164,0.0001
 1871,-0.00039769,-0.00005429,-0.00020999,-0.00013166,0.00007019,-0.000
 11467,0.00016102,0.00026799,-0.02091995,0.00336160,-0.00928663,-0.0004
 1490,-0.00054907,0.00076442,0.00023938,-0.00016025,-0.00050900,0.00020
 706,0.00012000,-0.00015689,0.00000903,-0.00006621,-0.00055106,0.000061
 78,0.00000309,-0.00008996,-0.00000377,0.00000292,0.00001414,-0.0000214
 0,-0.00000314,0.00001197,-0.00000421,-0.00000603,0.00001612,-0.0001556
 1,-0.00014021,-0.00042577,0.00003554,-0.00006322,0.00012447,0.00002695
 ,0.00002316,0.00002650,0.00010983,0.00004076,0.00003684,-0.05888549,0.
 05010032,-0.08053837,-0.01564246,0.01269536,-0.00513508,0.01881075,-0.
 01494933,0.01016931,0.07506766,-0.05210643,0.08517247,-0.00106860,0.00
 021374,0.00002693,-0.00037360,-0.00026621,-0.00008892,-0.00210620,0.00
 037986,0.00066821,-0.00160967,-0.00114217,0.00229535,0.00048024,0.0014
 2239,-0.00055993,0.00019710,-0.00006002,-0.00009930,0.00007257,-0.0000
 2640,0.00008615,0.00008506,0.00001734,0.00004872,0.00131398,0.00022353
 ,0.00044581,-0.00059004,0.00027966,0.00028083,0.00247654,0.00021937,-0
 .00097450,0.00082310,0.00005149,-0.00008095,0.00076940,-0.00065177,-0.
 00041912,-0.00021488,-0.00099081,-0.00006495,-0.01408500,0.00094488,-0
 .01578062,0.00361345,-0.00042510,0.00674892,0.00238109,0.00044881,0.00
 623911,-0.20676785,0.03250112,-0.05023510,-0.00038209,-0.00010856,0.00
 030346,0.00005047,0.00000519,-0.00005748,0.00007678,0.00000953,-0.0000
 3009,0.00001500,0.00003202,-0.00006606,-0.00005709,0.00011847,0.000411
 90,-0.00003520,0.00005311,-0.00003382,0.00005431,-0.00005039,-0.000037
 30,-0.00002044,0.00001919,-0.00004453,-0.00021646,0.00068826,0.0004453
 7,0.00011390,-0.00025535,0.00010423,0.00006198,-0.00014044,-0.00012236
 ,0.00072709,0.00075549,-0.00022819,0.47044017,0.00014200,-0.00005612,0
 .00024007,0.00005879,0.00003391,0.00004233,0.00074189,-0.00007189,-0.0
 0031573,0.00074117,-0.00016041,-0.00111775,0.00058291,-0.00020906,-0.0
 0005739,-0.00008192,0.00001767,0.00001879,-0.00001512,0.00001317,-0.00
 002128,0.00009497,-0.00001913,-0.00000188,-0.00053719,0.00028686,-0.00
 014368,-0.00008860,0.00008648,0.00028760,-0.00067102,0.00003588,0.0004
 4441,-0.00016983,-0.00001478,0.00001568,-0.00013140,0.00008793,0.00005
 918,-0.00024302,0.00010657,-0.00001331,0.00033024,-0.00460648,0.002156
 37,0.00228232,0.00107926,-0.00027559,-0.00310565,0.00210370,-0.0028896
 7,0.03391064,-0.07053095,0.01118881,0.00008365,0.00003301,-0.00006507,
 -0.00001161,-0.00000375,0.00001036,-0.00001631,-0.00000083,0.00000696,
 -0.00000260,-0.00000908,0.00001549,0.00001659,-0.00000687,-0.00006035,
 0.00000255,-0.00000924,-0.00000462,-0.00000977,0.00000875,0.00000682,-
 0.00000190,-0.00000704,0.00000669,0.00034757,-0.00018676,0.00014586,-0
 .00003937,0.00004260,-0.00003499,-0.00010244,0.00008721,-0.00000602,-0
 .00019204,-0.00037777,0.00005328,0.02360654,0.56956617,-0.00043640,0.0
 0013941,0.00026891,-0.00012011,-0.00007663,0.00001057,-0.00077329,-0.0
 0010237,0.00023635,-0.00101585,-0.00025609,-0.00718747,0.00057481,-0.0
 0020415,-0.00060182,0.00002724,-0.00000399,-0.00000875,-0.00000141,-0.
 00001048,0.00002423,0.00017335,-0.00000658,0.00004641,-0.00138452,0.00
 022867,-0.00000742,-0.00053434,0.00070725,0.00054603,0.00073185,0.0000
 5519,-0.00020913,0.00026966,0.00003878,-0.00005109,0.00020641,-0.00018
 823,-0.00014647,0.00010678,-0.00025133,0.00023107,-0.04480914,0.009281
 52,-0.02829005,-0.00106737,-0.00057111,0.00260940,-0.00063876,0.001089
 78,0.00246578,-0.00846618,0.00068945,-0.09359621,-0.00012221,-0.000034
 96,0.00010720,0.00001639,-0.00000180,-0.00001738,0.00002453,0.00000365
 ,-0.00001301,0.00000648,0.00001376,-0.00001962,-0.00005820,0.00003114,
 0.00014751,-0.00000982,0.00001972,-0.00000568,0.00002049,-0.00001374,-
 0.00000795,0.00000326,0.00001858,-0.00001595,-0.00034153,0.00034544,-0
 .00003609,0.00007700,-0.00010892,0.00005121,0.00009323,-0.00008994,-0.
 00001466,0.00027781,0.00026894,0.00005071,-0.03778572,0.01143453,0.621
 62793,0.00020597,-0.00005076,-0.00016847,0.00006876,0.00004327,-0.0000
 0586,0.00023465,-0.00000294,-0.00006183,0.00023760,-0.00002476,0.00000
 457,-0.00011938,-0.00016650,0.00028131,-0.00002596,0.00000709,0.000014
 63,-0.00000606,0.00000480,-0.00001123,-0.00006872,-0.00000072,-0.00000
 989,-0.00014084,-0.00007868,-0.00003414,0.00023008,-0.00021914,-0.0002
 4194,-0.00022834,0.00000306,0.00010571,-0.00013275,-0.00002697,0.00002
 127,-0.00011315,0.00009802,0.00007848,0.00006182,0.00019258,-0.0000527
 6,0.00136391,0.00145644,0.00673451,-0.00019900,-0.00015890,-0.00084081
 ,0.00056851,-0.00122845,-0.00110372,-0.02637689,0.03649785,0.00103748,
 0.00005716,0.00001915,-0.00005215,-0.00000698,-0.00000069,0.00000888,-
 0.00001239,-0.00000173,0.00000604,-0.00000295,-0.00000615,0.00001089,0
 .00002384,-0.00001297,-0.00006854,0.00000340,-0.00001149,0.00000709,-0
 .00001072,0.00000740,0.00000538,0.00000241,-0.00000628,0.00000817,0.00
 003459,-0.00011833,-0.00008454,-0.00002131,0.00004593,-0.00001881,-0.0
 0000428,0.00001537,0.00002335,-0.00014250,-0.00014363,0.00006612,-0.06
 225028,0.04766864,0.01616240,0.07771218,-0.00011543,0.00006424,0.00005
 078,-0.00004073,-0.00002498,-0.00000963,-0.00017476,0.00001347,0.00006
 158,-0.00025747,0.00023773,0.00039369,-0.00017785,0.00006370,-0.000198
 14,0.00001782,-0.00000645,-0.00000839,0.00000294,-0.00000456,0.0000091
 0,0.00002380,-0.00000016,0.00000466,0.00014427,-0.00000322,0.00002641,
 -0.00011535,0.00007196,0.00007800,0.00017897,0.00000119,-0.00009799,0.
 00008439,0.00001488,-0.00000792,0.00005135,-0.00003883,-0.00002906,0.0
 0006562,-0.00004139,0.00005528,-0.00089015,0.00128837,-0.00230935,-0.0
 0020348,-0.00049367,0.00019030,0.00064067,-0.00031914,0.00161124,0.012
 54288,-0.00158162,0.00313359,-0.00003692,-0.00001354,0.00003108,0.0000
 0445,0.00000164,-0.00000574,0.00000842,0.00000074,-0.00000323,0.000001
 13,0.00000329,-0.00000768,-0.00002129,0.00000017,0.00002100,0.00000205
 ,0.00001070,-0.00000140,0.00000790,-0.00000423,-0.00000133,-0.00000171
 ,0.00000309,-0.00000270,-0.00010266,0.00008784,-0.00003465,0.00001957,
 -0.00003054,0.00001775,0.00001972,-0.00002020,-0.00000526,0.00001325,0
 .00006104,-0.00000404,0.05107394,-0.26918192,-0.07161030,-0.06565881,0
 .28855847,-0.00001810,-0.00000914,-0.00006840,0.00000157,-0.00000078,-
 0.00000224,-0.00005386,0.00000165,0.00002318,-0.00014726,-0.00013468,0
 .00017423,-0.00003995,0.00006121,-0.00002222,0.00001195,-0.00000007,-0
 .00000071,0.00000030,-0.00000129,0.00000103,-0.00001919,0.00000014,-0.
 00000155,0.00000897,-0.00003412,-0.00000348,0.00003359,-0.00006997,-0.
 00007218,0.00010032,0.00004898,-0.00005518,0.00000880,0.00000349,-0.00
 000014,0.00001608,0.00000116,0.00000258,-0.00000366,0.00000468,0.00000
 371,-0.00070147,0.00379769,0.00345020,0.00004594,-0.00015263,-0.000245
 48,0.00080801,-0.00099249,0.00055638,-0.00693423,0.01166274,0.00305649
 ,-0.00000454,-0.00000403,0.00000390,0.00000020,0.00000072,-0.00000043,
 0.00000065,0.00000010,-0.00000022,0.00000015,0.00000094,-0.00000115,-0
 .00000213,-0.00000278,-0.00000015,0.00000119,0.00000367,0.00000008,0.0
 0000135,-0.00000047,0.,-0.00000124,-0.00000071,-0.00000033,0.00001307,
 -0.00001387,0.00000425,-0.00000372,0.00000193,0.00000189,-0.00000658,0
 .00000476,-0.00000344,0.00002486,-0.00000057,-0.00000016,0.01902057,-0
 .07307385,-0.07968514,-0.01690123,0.07681831,0.07488296,0.00016232,-0.
 00005071,-0.00002999,0.00007125,0.00003356,0.00002951,0.00051900,0.000
 00716,-0.00017341,0.00037762,0.00027608,-0.00013699,-0.00003733,-0.000
 34234,0.00017108,-0.00002467,0.00001050,-0.00000138,-0.00000760,0.0000
 0308,-0.00001724,-0.00002189,-0.00000223,-0.00000809,-0.00023601,-0.00
 000152,-0.00004376,0.00013641,-0.00018825,-0.00008447,-0.00015506,0.00
 013250,0.00019715,-0.00013941,0.00000231,0.00000967,-0.00011171,0.0001
 1762,0.00007103,0.00021842,0.00031049,0.00000126,0.00138453,-0.0005877
 2,0.00666293,-0.00010200,0.00054962,-0.00182645,-0.00015213,-0.0001168
 1,-0.00081076,-0.04143943,-0.01597443,0.00204429,0.00006753,0.00001902
 ,-0.00005040,-0.00000963,-0.00000124,0.00001009,-0.00001304,-0.0000015
 0,0.00000497,-0.00000250,-0.00000519,0.00001136,-0.00000226,-0.0000260
 1,-0.00006843,0.00000731,-0.00000716,0.00000994,-0.00000663,0.00000917
 ,0.00000573,0.00000743,-0.00000061,0.00000522,-0.00026448,-0.00005895,
 -0.00022390,0.00002914,0.00000714,0.00000785,0.00004093,-0.00002034,0.
 00004136,-0.00031936,0.00017441,0.00001921,-0.14466088,-0.10522552,0.0
 5817594,0.00778708,0.00406926,-0.00237836,0.17501004,0.00000855,-0.000
 00762,-0.00001015,0.00000631,-0.00000010,0.00000445,0.00002099,0.00000
 096,0.00001687,0.00002505,0.00006684,-0.00030644,0.00000065,-0.0000414
 5,0.00004520,0.00000251,-0.00000044,-0.00000406,0.00000168,-0.00000231
 ,-0.00000333,-0.00000480,0.00000044,-0.00000237,-0.00005076,-0.0000132
 0,-0.00000273,0.00001445,0.00000670,-0.00000463,0.00005603,0.00000213,
 0.00002462,-0.00001300,0.00000263,-0.00000306,-0.00000964,0.00001143,-
 0.00000037,-0.00000104,-0.00003067,0.00001251,0.00065257,0.00131031,-0
 .00100935,-0.00102353,-0.00061033,-0.00068581,0.00005558,-0.00056390,0
 .00024984,0.00719849,0.01232113,-0.00428852,0.00000457,-0.00000160,-0.
 00000237,-0.00000027,0.,0.00000168,-0.00000153,-0.00000024,-0.00000018
 ,0.00000027,0.00000108,0.00000105,0.00000036,-0.00000287,0.00000062,0.
 00000061,-0.00000262,0.00000127,-0.00000190,0.00000129,0.00000005,0.00
 000213,0.00000120,-0.00000060,0.00011632,0.00001388,-0.00001163,-0.000
 02597,0.00002391,-0.00001084,0.00000110,0.00000538,-0.00000260,0.00029
 129,-0.00057716,0.00029588,-0.10837235,-0.17437099,0.06676754,-0.01865
 765,-0.01952011,0.01242832,0.11715567,0.17941001,-0.00002274,-0.000003
 41,-0.00001111,-0.00000908,-0.00000757,-0.00000680,-0.00002330,0.00005
 399,-0.00002537,-0.00012819,-0.00006051,0.00020384,0.00007763,0.000063
 17,0.00002197,0.00001634,-0.00000155,0.00000079,0.00000091,0.00000316,
 0.00000292,-0.00000200,-0.00000074,-0.00000032,-0.00000891,0.00003895,
 -0.00000877,0.00000994,-0.00002855,-0.00000485,0.00017956,0.00005608,-
 0.00010369,0.00001765,-0.00000211,0.00000279,0.00002543,-0.00002584,-0
 .00001362,-0.00002673,-0.00005878,-0.00005861,-0.00193487,-0.00276341,
 0.00348524,0.00118900,0.00065061,0.00013678,0.00000351,0.00007340,-0.0
 0024189,-0.01170825,-0.00757119,0.00457042,-0.00000804,0.00000078,0.00
 000510,0.00000060,0.00000005,-0.00000189,0.00000167,0.00000021,0.00000
 011,-0.00000007,-0.00000058,-0.00000173,0.00000659,0.00000920,0.000012
 98,-0.00000296,0.00000015,-0.00000191,0.00000109,-0.00000203,-0.000001
 18,-0.00000263,-0.00000123,-0.00000088,0.00004356,0.00001490,0.0000463
 0,-0.00000425,-0.00000268,0.00000056,0.00000153,-0.00000739,-0.0000048
 7,-0.00005470,0.00032532,0.00001832,0.06146998,0.06655629,-0.09274702,
 -0.00627053,-0.00791294,0.00486875,-0.06279911,-0.07222504,0.08916007,
 0.00011047,-0.00001300,0.00003821,0.00003899,0.00003670,0.00000491,0.0
 0026563,-0.00008630,-0.00009497,0.00031923,0.00017633,-0.00220043,0.00
 010212,-0.00033103,-0.00005585,-0.00003248,0.00000787,0.00001464,-0.00
 002330,0.00000825,-0.00000720,0.00002018,-0.00000485,0.00000551,-0.000
 65985,0.00002796,-0.00006896,0.00000709,0.00003944,0.00004280,-0.00023
 362,0.00001094,0.00015450,-0.00009065,-0.00000128,0.00001698,-0.000097
 17,0.00008336,0.00006747,0.00003968,0.00014956,0.00004742,-0.00538323,
 0.00146933,-0.00031701,-0.00001516,0.00029420,-0.00035934,-0.00008883,
 -0.00028976,-0.00019351,-0.00830151,0.00020854,-0.04213814,0.00004483,
 0.00001425,-0.00003712,-0.00000698,0.00000031,0.00000554,-0.00000815,-
 0.00000127,0.00000458,-0.00000254,-0.00000580,0.00000606,-0.00000135,-
 0.00001479,-0.00006697,0.00000550,0.00000106,0.00000154,-0.00000302,0.
 00000470,0.00000799,-0.00000344,-0.00000471,0.00000867,-0.00006049,-0.
 00008534,-0.00006950,0.00000250,0.00001950,0.00000107,-0.00000024,0.00
 001764,0.00001649,-0.00002815,-0.00003101,0.00000320,-0.04931396,0.000
 03487,0.02061724,0.00127052,-0.00117576,0.00711796,0.00188700,0.002547
 25,0.01996138,0.06024036,-0.00000978,0.00003835,-0.00000617,-0.0000081
 6,-0.00000792,-0.00000267,-0.00003416,0.00005500,0.00001060,0.00003979
 ,0.00042445,0.00046392,-0.00009420,0.00006488,0.00001425,0.00000432,-0
 .00000525,-0.00001286,0.00000558,0.00000131,0.00000244,-0.00000520,-0.
 00000176,-0.00000297,0.00012196,-0.00002796,0.00001556,0.00000909,-0.0
 0001576,-0.00001580,0.00013014,-0.00003395,0.00001217,0.00001764,-0.00
 000797,0.00000030,0.00000420,-0.00002503,-0.00002041,-0.00001718,-0.00
 004864,-0.00002708,0.00127335,0.00005754,0.00008791,-0.00005046,0.0000
 8569,-0.00031506,0.00011095,0.00023287,0.00045837,0.00192448,0.0002969
 1,0.00974299,-0.00000908,0.,0.00000512,0.00000203,-0.00000015,-0.00000
 136,0.00000160,-0.00000003,-0.00000045,0.00000028,0.00000001,-0.000001
 11,0.00001072,0.00001003,0.00001672,-0.00000394,-0.00000496,0.00000121
 ,-0.00000085,-0.00000114,-0.00000151,0.00000097,0.00000036,-0.00000116
 ,0.00001925,0.00003316,0.00001318,-0.00000261,-0.00000177,-0.00000524,
 0.00001722,-0.00001734,0.,-0.00002533,0.00002811,0.00002674,-0.0005743
 7,-0.05376609,-0.01760270,0.00051595,0.00080204,-0.03034905,-0.0002670
 4,0.00256627,0.02282930,-0.00310717,0.04926875,0.00013115,-0.00001121,
 0.00001358,0.00004429,0.00003949,0.00000149,0.00027804,-0.00007529,-0.
 00010551,0.00047302,0.00012768,-0.00066238,-0.00009599,-0.00021137,0.0
 0000126,-0.00002909,0.00000752,0.00002011,-0.00001691,0.00000565,-0.00
 000892,0.00000126,-0.00000316,-0.00000140,-0.00026935,0.00000332,-0.00
 003564,0.00004731,-0.00002819,-0.00003104,-0.00036885,-0.00003887,0.00
 012617,-0.00009921,-0.00000523,0.00001757,-0.00010550,0.00009338,0.000
 07261,0.00003371,0.00014421,0.00001753,-0.00190383,0.00058390,0.002955
 23,0.00013593,0.00003543,0.00000953,0.00009565,-0.00006072,0.00004514,
 -0.00643287,0.00098849,-0.01078733,0.00004839,0.00001414,-0.00003992,-
 0.00000699,0.00000052,0.00000638,-0.00000867,-0.00000142,0.00000458,-0
 .00000284,-0.00000573,0.00000682,0.00000038,-0.00001975,-0.00007165,0.
 00000745,-0.00000011,0.00000288,-0.00000400,0.00000576,0.00000705,-0.0
 0000187,-0.00000509,0.00000862,-0.00002859,-0.00010380,-0.00004565,0.0
 0000192,0.00001791,-0.00000075,-0.00002023,0.00002818,0.00001291,-0.00
 000617,-0.00005328,-0.00000475,0.00811339,-0.01460833,-0.32576238,0.00
 135015,-0.00025301,-0.00686701,0.00117412,-0.00127582,-0.00930242,-0.0
 0253518,0.01466482,0.35039730\\-0.00000737,0.00001016,-0.00000686,-0.0
 0000816,-0.00000710,0.00000180,-0.00001383,0.00000167,-0.00001601,-0.0
 0000333,-0.00000811,0.00000226,-0.00000253,0.00001410,0.00000642,-0.00
 000160,0.00000288,0.00000662,-0.00000025,0.00001021,0.00000039,0.00000
 539,0.00000218,-0.00000252,-0.00000154,-0.00000506,0.00000105,0.000005
 47,-0.00000314,-0.00000271,0.00000561,0.00000348,0.00000522,0.00000172
 ,0.00001244,0.00000447,0.00000874,-0.00000615,-0.00000521,0.00001447,-
 0.00001314,-0.00000089,0.00000172,0.00000309,-0.00000453,0.00000286,-0
 .00000881,0.00000758,-0.00000427,-0.00000715,0.00000602,-0.00000193,-0
 .00001081,0.00001118,-0.00000169,0.00000676,-0.00000940,-0.00000388,0.
 00000893,-0.00000527,-0.00000420,0.00000750,-0.00000333,-0.00000740,0.
 00000937,-0.00000110,0.00000455,0.00000157,-0.00000453,0.00000571,0.00
 000201,-0.00000411,0.00000367,0.00000674,-0.00000768,0.00000106,0.0000
 0707,-0.00000433,-0.00000233,-0.00000051,0.00000147,0.00000832,-0.0000
 0498,-0.00000106,0.00000466,-0.00000286,-0.00000239,0.00000532,-0.0000
 0868,-0.00000090,-0.00000406,-0.00000207,0.00000709,-0.00000495,-0.000
 00785,0.00000887,-0.00000133,-0.00000864,0.00000559,-0.00000463,-0.000
 00508,0.00000679\\\@


 You don't have to suffer to be a poet.
 Adolescence is enough suffering for anyone.
                             -- John Ciardi
 Job cpu time:       0 days  1 hours 14 minutes 48.6 seconds.
 Elapsed time:       0 days  0 hours 18 minutes 58.8 seconds.
 File lengths (MBytes):  RWF=    379 Int=      0 D2E=      0 Chk=     17 Scr=      1
 Normal termination of Gaussian 16 at Fri May 24 08:54:04 2019.
