 Entering Gaussian System, Link 0=g16
 Input=clay-glucose_cation-047-b3lyp_d3bj-631gd-pcm_thf.gjf
 Output=clay-glucose_cation-047-b3lyp_d3bj-631gd-pcm_thf.out
 Initial command:
 /n/sw/g16_nehalem/g16/l1.exe "/scratch/Gau-14759.inp" -scrdir="/scratch/"
 Entering Link 1 = /n/sw/g16_nehalem/g16/l1.exe PID=     14766.
  
 Copyright (c) 1988,1990,1992,1993,1995,1998,2003,2009,2016,
            Gaussian, Inc.  All Rights Reserved.
  
 This is part of the Gaussian(R) 16 program.  It is based on
 the Gaussian(R) 09 system (copyright 2009, Gaussian, Inc.),
 the Gaussian(R) 03 system (copyright 2003, Gaussian, Inc.),
 the Gaussian(R) 98 system (copyright 1998, Gaussian, Inc.),
 the Gaussian(R) 94 system (copyright 1995, Gaussian, Inc.),
 the Gaussian 92(TM) system (copyright 1992, Gaussian, Inc.),
 the Gaussian 90(TM) system (copyright 1990, Gaussian, Inc.),
 the Gaussian 88(TM) system (copyright 1988, Gaussian, Inc.),
 the Gaussian 86(TM) system (copyright 1986, Carnegie Mellon
 University), and the Gaussian 82(TM) system (copyright 1983,
 Carnegie Mellon University). Gaussian is a federally registered
 trademark of Gaussian, Inc.
  
 This software contains proprietary and confidential information,
 including trade secrets, belonging to Gaussian, Inc.
  
 This software is provided under written license and may be
 used, copied, transmitted, or stored only in accord with that
 written license.
  
 The following legend is applicable only to US Government
 contracts under FAR:
  
                    RESTRICTED RIGHTS LEGEND
  
 Use, reproduction and disclosure by the US Government is
 subject to restrictions as set forth in subparagraphs (a)
 and (c) of the Commercial Computer Software - Restricted
 Rights clause in FAR 52.227-19.
  
 Gaussian, Inc.
 340 Quinnipiac St., Bldg. 40, Wallingford CT 06492
  
  
 ---------------------------------------------------------------
 Warning -- This program may not be used in any manner that
 competes with the business of Gaussian, Inc. or will provide
 assistance to any competitor of Gaussian, Inc.  The licensee
 of this program is prohibited from giving any competitor of
 Gaussian, Inc. access to this program.  By using this program,
 the user acknowledges that Gaussian, Inc. is engaged in the
 business of creating and licensing software in the field of
 computational chemistry and represents and warrants to the
 licensee that it is not a competitor of Gaussian, Inc. and that
 it will not use this program in any manner prohibited above.
 ---------------------------------------------------------------
  

 Cite this work as:
 Gaussian 16, Revision A.03,
 M. J. Frisch, G. W. Trucks, H. B. Schlegel, G. E. Scuseria, 
 M. A. Robb, J. R. Cheeseman, G. Scalmani, V. Barone, 
 G. A. Petersson, H. Nakatsuji, X. Li, M. Caricato, A. V. Marenich, 
 J. Bloino, B. G. Janesko, R. Gomperts, B. Mennucci, H. P. Hratchian, 
 J. V. Ortiz, A. F. Izmaylov, J. L. Sonnenberg, D. Williams-Young, 
 F. Ding, F. Lipparini, F. Egidi, J. Goings, B. Peng, A. Petrone, 
 T. Henderson, D. Ranasinghe, V. G. Zakrzewski, J. Gao, N. Rega, 
 G. Zheng, W. Liang, M. Hada, M. Ehara, K. Toyota, R. Fukuda, 
 J. Hasegawa, M. Ishida, T. Nakajima, Y. Honda, O. Kitao, H. Nakai, 
 T. Vreven, K. Throssell, J. A. Montgomery, Jr., J. E. Peralta, 
 F. Ogliaro, M. J. Bearpark, J. J. Heyd, E. N. Brothers, K. N. Kudin, 
 V. N. Staroverov, T. A. Keith, R. Kobayashi, J. Normand, 
 K. Raghavachari, A. P. Rendell, J. C. Burant, S. S. Iyengar, 
 J. Tomasi, M. Cossi, J. M. Millam, M. Klene, C. Adamo, R. Cammi, 
 J. W. Ochterski, R. L. Martin, K. Morokuma, O. Farkas, 
 J. B. Foresman, and D. J. Fox, Gaussian, Inc., Wallingford CT, 2016.
 
 ******************************************
 Gaussian 16:  ES64L-G16RevA.03 25-Dec-2016
                24-May-2019 
 ******************************************
 %nprocshared=4
 Will use up to    4 processors via shared memory.
 %mem=3GB
 -------------------------------------------------------------------
 #p b3lyp 6-31g* opt freq=noraman scrf=(pcm,solvent=tetrahydrofuran)
 -------------------------------------------------------------------
 1/18=20,19=15,26=3,38=1/1,3;
 2/9=110,12=2,17=6,18=5,40=1/2;
 3/5=1,6=6,7=1,11=2,25=1,30=1,70=2201,71=1,72=20,74=-5/1,2,3;
 4//1;
 5/5=2,38=5,53=20/2;
 6/7=2,8=2,9=2,10=2,28=1/1;
 7//1,2,3,16;
 1/18=20,19=15,26=3/3(2);
 2/9=110/2;
 99//99;
 2/9=110/2;
 3/5=1,6=6,7=1,11=2,25=1,30=1,70=2205,71=1,72=20,74=-5/1,2,3;
 4/5=5,16=3,69=1/1;
 5/5=2,38=5,53=20/2;
 7//1,2,3,16;
 1/18=20,19=15,26=3/3(-5);
 2/9=110/2;
 6/7=2,8=2,9=2,10=2,19=2,28=1/1;
 99/9=1/99;
 Leave Link    1 at Fri May 24 08:30:12 2019, MaxMem=   402653184 cpu:               0.6 elap:               0.2
 (Enter /n/sw/g16_nehalem/g16/l101.exe)
 -----
 title
 -----
 Symbolic Z-matrix:
 Charge =  1 Multiplicity = 1
 6                    -1.08072   0.65372  -0.25784 
 6                    -1.44559  -0.8402   -0.0365 
 6                    -0.51448  -1.72441  -0.80365 
 6                     1.2669   -0.05947  -0.9654 
 6                     0.43153   0.80665   0.0012 
 1                    -0.84136  -2.71977  -1.10886 
 1                    -1.33034  -1.09154   1.03209 
 1                    -1.31759   0.88254  -1.30269 
 1                     1.31581   0.37671  -1.9642 
 1                     0.65833   0.46708   1.01589 
 8                     0.61756  -1.40047  -1.23828 
 8                    -2.73557  -1.1081   -0.51813 
 8                    -1.89387   1.51653   0.48927 
 8                     0.91794   2.12977  -0.05058 
 6                     2.65822  -0.39209  -0.46244 
 1                     3.19861   0.56138  -0.3598 
 1                     3.18695  -1.0067   -1.20582 
 8                     2.52541  -1.0636    0.76768 
 6                    -3.53374  -1.96724   0.30796 
 1                    -4.50549  -2.03483  -0.18182 
 1                    -3.09683  -2.97015   0.38868 
 1                    -3.65084  -1.5371    1.30971 
 6                    -1.64721   1.62036   1.89484 
 1                    -1.6942    0.64653   2.39991 
 1                    -0.68147   2.09401   2.0981 
 1                    -2.44745   2.25135   2.28433 
 6                     0.47461   2.96366  -1.12979 
 1                     1.0367    3.89285  -1.02538 
 1                     0.69439   2.53033  -2.11361 
 1                    -0.59585   3.17574  -1.05059 
 6                     3.77878  -1.35869   1.37625 
 1                     3.55949  -1.87182   2.31431 
 1                     4.386    -2.01342   0.73625 
 1                     4.34353  -0.43996   1.58601 
 
 ITRead=  0  0  0  0  0  0  0  0  0  0  0  0  0  0  0  0  0  0  0  0
 ITRead=  0  0  0  0  0  0  0  0  0  0  0  0  0  0
 MicOpt= -1 -1 -1 -1 -1 -1 -1 -1 -1 -1 -1 -1 -1 -1 -1 -1 -1 -1 -1 -1
 MicOpt= -1 -1 -1 -1 -1 -1 -1 -1 -1 -1 -1 -1 -1 -1
 NAtoms=     34 NQM=       34 NQMF=       0 NMMI=      0 NMMIF=      0
                NMic=       0 NMicF=      0.
                    Isotopes and Nuclear Properties:
 (Nuclear quadrupole moments (NQMom) in fm**2, nuclear magnetic moments (NMagM)
  in nuclear magnetons)

  Atom         1           2           3           4           5           6           7           8           9          10
 IAtWgt=          12          12          12          12          12           1           1           1           1           1
 AtmWgt=  12.0000000  12.0000000  12.0000000  12.0000000  12.0000000   1.0078250   1.0078250   1.0078250   1.0078250   1.0078250
 NucSpn=           0           0           0           0           0           1           1           1           1           1
 AtZEff=   0.0000000   0.0000000   0.0000000   0.0000000   0.0000000   0.0000000   0.0000000   0.0000000   0.0000000   0.0000000
 NQMom=    0.0000000   0.0000000   0.0000000   0.0000000   0.0000000   0.0000000   0.0000000   0.0000000   0.0000000   0.0000000
 NMagM=    0.0000000   0.0000000   0.0000000   0.0000000   0.0000000   2.7928460   2.7928460   2.7928460   2.7928460   2.7928460
 AtZNuc=   6.0000000   6.0000000   6.0000000   6.0000000   6.0000000   1.0000000   1.0000000   1.0000000   1.0000000   1.0000000

  Atom        11          12          13          14          15          16          17          18          19          20
 IAtWgt=          16          16          16          16          12           1           1          16          12           1
 AtmWgt=  15.9949146  15.9949146  15.9949146  15.9949146  12.0000000   1.0078250   1.0078250  15.9949146  12.0000000   1.0078250
 NucSpn=           0           0           0           0           0           1           1           0           0           1
 AtZEff=   0.0000000   0.0000000   0.0000000   0.0000000   0.0000000   0.0000000   0.0000000   0.0000000   0.0000000   0.0000000
 NQMom=    0.0000000   0.0000000   0.0000000   0.0000000   0.0000000   0.0000000   0.0000000   0.0000000   0.0000000   0.0000000
 NMagM=    0.0000000   0.0000000   0.0000000   0.0000000   0.0000000   2.7928460   2.7928460   0.0000000   0.0000000   2.7928460
 AtZNuc=   8.0000000   8.0000000   8.0000000   8.0000000   6.0000000   1.0000000   1.0000000   8.0000000   6.0000000   1.0000000

  Atom        21          22          23          24          25          26          27          28          29          30
 IAtWgt=           1           1          12           1           1           1          12           1           1           1
 AtmWgt=   1.0078250   1.0078250  12.0000000   1.0078250   1.0078250   1.0078250  12.0000000   1.0078250   1.0078250   1.0078250
 NucSpn=           1           1           0           1           1           1           0           1           1           1
 AtZEff=   0.0000000   0.0000000   0.0000000   0.0000000   0.0000000   0.0000000   0.0000000   0.0000000   0.0000000   0.0000000
 NQMom=    0.0000000   0.0000000   0.0000000   0.0000000   0.0000000   0.0000000   0.0000000   0.0000000   0.0000000   0.0000000
 NMagM=    2.7928460   2.7928460   0.0000000   2.7928460   2.7928460   2.7928460   0.0000000   2.7928460   2.7928460   2.7928460
 AtZNuc=   1.0000000   1.0000000   6.0000000   1.0000000   1.0000000   1.0000000   6.0000000   1.0000000   1.0000000   1.0000000

  Atom        31          32          33          34
 IAtWgt=          12           1           1           1
 AtmWgt=  12.0000000   1.0078250   1.0078250   1.0078250
 NucSpn=           0           1           1           1
 AtZEff=   0.0000000   0.0000000   0.0000000   0.0000000
 NQMom=    0.0000000   0.0000000   0.0000000   0.0000000
 NMagM=    0.0000000   2.7928460   2.7928460   2.7928460
 AtZNuc=   6.0000000   1.0000000   1.0000000   1.0000000
 Leave Link  101 at Fri May 24 08:30:13 2019, MaxMem=   402653184 cpu:               2.4 elap:               0.8
 (Enter /n/sw/g16_nehalem/g16/l103.exe)

 GradGradGradGradGradGradGradGradGradGradGradGradGradGradGradGradGradGrad
 Berny optimization.
 Initialization pass.
                           ----------------------------
                           !    Initial Parameters    !
                           ! (Angstroms and Degrees)  !
 --------------------------                            --------------------------
 ! Name  Definition              Value          Derivative Info.                !
 --------------------------------------------------------------------------------
 ! R1    R(1,2)                  1.5537         estimate D2E/DX2                !
 ! R2    R(1,5)                  1.5419         estimate D2E/DX2                !
 ! R3    R(1,8)                  1.0955         estimate D2E/DX2                !
 ! R4    R(1,13)                 1.4014         estimate D2E/DX2                !
 ! R5    R(2,3)                  1.4958         estimate D2E/DX2                !
 ! R6    R(2,7)                  1.1038         estimate D2E/DX2                !
 ! R7    R(2,12)                 1.4028         estimate D2E/DX2                !
 ! R8    R(3,6)                  1.0912         estimate D2E/DX2                !
 ! R9    R(3,11)                 1.2551         estimate D2E/DX2                !
 ! R10   R(4,5)                  1.5435         estimate D2E/DX2                !
 ! R11   R(4,9)                  1.091          estimate D2E/DX2                !
 ! R12   R(4,11)                 1.5147         estimate D2E/DX2                !
 ! R13   R(4,15)                 1.5164         estimate D2E/DX2                !
 ! R14   R(5,10)                 1.0938         estimate D2E/DX2                !
 ! R15   R(5,14)                 1.4106         estimate D2E/DX2                !
 ! R16   R(12,19)                1.4344         estimate D2E/DX2                !
 ! R17   R(13,23)                1.4308         estimate D2E/DX2                !
 ! R18   R(14,27)                1.4341         estimate D2E/DX2                !
 ! R19   R(15,16)                1.1008         estimate D2E/DX2                !
 ! R20   R(15,17)                1.1            estimate D2E/DX2                !
 ! R21   R(15,18)                1.4077         estimate D2E/DX2                !
 ! R22   R(18,31)                1.4242         estimate D2E/DX2                !
 ! R23   R(19,20)                1.0903         estimate D2E/DX2                !
 ! R24   R(19,21)                1.0969         estimate D2E/DX2                !
 ! R25   R(19,22)                1.0965         estimate D2E/DX2                !
 ! R26   R(23,24)                1.098          estimate D2E/DX2                !
 ! R27   R(23,25)                1.0947         estimate D2E/DX2                !
 ! R28   R(23,26)                1.091          estimate D2E/DX2                !
 ! R29   R(27,28)                1.091          estimate D2E/DX2                !
 ! R30   R(27,29)                1.0973         estimate D2E/DX2                !
 ! R31   R(27,30)                1.0941         estimate D2E/DX2                !
 ! R32   R(31,32)                1.0915         estimate D2E/DX2                !
 ! R33   R(31,33)                1.0986         estimate D2E/DX2                !
 ! R34   R(31,34)                1.0986         estimate D2E/DX2                !
 ! A1    A(2,1,5)              107.5639         estimate D2E/DX2                !
 ! A2    A(2,1,8)              106.6147         estimate D2E/DX2                !
 ! A3    A(2,1,13)             112.3206         estimate D2E/DX2                !
 ! A4    A(5,1,8)              110.5838         estimate D2E/DX2                !
 ! A5    A(5,1,13)             114.7378         estimate D2E/DX2                !
 ! A6    A(8,1,13)             104.7385         estimate D2E/DX2                !
 ! A7    A(1,2,3)              110.435          estimate D2E/DX2                !
 ! A8    A(1,2,7)              109.4115         estimate D2E/DX2                !
 ! A9    A(1,2,12)             110.5286         estimate D2E/DX2                !
 ! A10   A(3,2,7)              107.2729         estimate D2E/DX2                !
 ! A11   A(3,2,12)             106.4665         estimate D2E/DX2                !
 ! A12   A(7,2,12)             112.6393         estimate D2E/DX2                !
 ! A13   A(2,3,6)              119.7482         estimate D2E/DX2                !
 ! A14   A(2,3,11)             125.9081         estimate D2E/DX2                !
 ! A15   A(6,3,11)             114.1261         estimate D2E/DX2                !
 ! A16   A(5,4,9)              111.916          estimate D2E/DX2                !
 ! A17   A(5,4,11)             112.185          estimate D2E/DX2                !
 ! A18   A(5,4,15)             114.3285         estimate D2E/DX2                !
 ! A19   A(9,4,11)             102.0191         estimate D2E/DX2                !
 ! A20   A(9,4,15)             110.5008         estimate D2E/DX2                !
 ! A21   A(11,4,15)            105.0042         estimate D2E/DX2                !
 ! A22   A(1,5,4)              111.7129         estimate D2E/DX2                !
 ! A23   A(1,5,10)             109.1737         estimate D2E/DX2                !
 ! A24   A(1,5,14)             115.1541         estimate D2E/DX2                !
 ! A25   A(4,5,10)             107.1291         estimate D2E/DX2                !
 ! A26   A(4,5,14)             108.4651         estimate D2E/DX2                !
 ! A27   A(10,5,14)            104.6992         estimate D2E/DX2                !
 ! A28   A(3,11,4)             123.5558         estimate D2E/DX2                !
 ! A29   A(2,12,19)            115.362          estimate D2E/DX2                !
 ! A30   A(1,13,23)            117.9287         estimate D2E/DX2                !
 ! A31   A(5,14,27)            117.8029         estimate D2E/DX2                !
 ! A32   A(4,15,16)            106.9397         estimate D2E/DX2                !
 ! A33   A(4,15,17)            109.8434         estimate D2E/DX2                !
 ! A34   A(4,15,18)            107.9333         estimate D2E/DX2                !
 ! A35   A(16,15,17)           108.1212         estimate D2E/DX2                !
 ! A36   A(16,15,18)           112.211          estimate D2E/DX2                !
 ! A37   A(17,15,18)           111.6763         estimate D2E/DX2                !
 ! A38   A(15,18,31)           112.9047         estimate D2E/DX2                !
 ! A39   A(12,19,20)           105.9236         estimate D2E/DX2                !
 ! A40   A(12,19,21)           111.6141         estimate D2E/DX2                !
 ! A41   A(12,19,22)           110.525          estimate D2E/DX2                !
 ! A42   A(20,19,21)           109.3521         estimate D2E/DX2                !
 ! A43   A(20,19,22)           109.8488         estimate D2E/DX2                !
 ! A44   A(21,19,22)           109.5115         estimate D2E/DX2                !
 ! A45   A(13,23,24)           112.3414         estimate D2E/DX2                !
 ! A46   A(13,23,25)           111.4626         estimate D2E/DX2                !
 ! A47   A(13,23,26)           105.4402         estimate D2E/DX2                !
 ! A48   A(24,23,25)           109.6386         estimate D2E/DX2                !
 ! A49   A(24,23,26)           108.5023         estimate D2E/DX2                !
 ! A50   A(25,23,26)           109.3035         estimate D2E/DX2                !
 ! A51   A(14,27,28)           105.3047         estimate D2E/DX2                !
 ! A52   A(14,27,29)           112.5308         estimate D2E/DX2                !
 ! A53   A(14,27,30)           111.1421         estimate D2E/DX2                !
 ! A54   A(28,27,29)           108.6007         estimate D2E/DX2                !
 ! A55   A(28,27,30)           109.3936         estimate D2E/DX2                !
 ! A56   A(29,27,30)           109.7192         estimate D2E/DX2                !
 ! A57   A(18,31,32)           106.7284         estimate D2E/DX2                !
 ! A58   A(18,31,33)           111.159          estimate D2E/DX2                !
 ! A59   A(18,31,34)           111.1429         estimate D2E/DX2                !
 ! A60   A(32,31,33)           109.3623         estimate D2E/DX2                !
 ! A61   A(32,31,34)           109.4099         estimate D2E/DX2                !
 ! A62   A(33,31,34)           108.994          estimate D2E/DX2                !
 ! D1    D(5,1,2,3)            -50.2638         estimate D2E/DX2                !
 ! D2    D(5,1,2,7)             67.5926         estimate D2E/DX2                !
 ! D3    D(5,1,2,12)          -167.8137         estimate D2E/DX2                !
 ! D4    D(8,1,2,3)             68.375          estimate D2E/DX2                !
 ! D5    D(8,1,2,7)           -173.7687         estimate D2E/DX2                !
 ! D6    D(8,1,2,12)           -49.175          estimate D2E/DX2                !
 ! D7    D(13,1,2,3)          -177.4515         estimate D2E/DX2                !
 ! D8    D(13,1,2,7)           -59.5952         estimate D2E/DX2                !
 ! D9    D(13,1,2,12)           64.9985         estimate D2E/DX2                !
 ! D10   D(2,1,5,4)             60.5944         estimate D2E/DX2                !
 ! D11   D(2,1,5,10)           -57.7066         estimate D2E/DX2                !
 ! D12   D(2,1,5,14)          -175.0988         estimate D2E/DX2                !
 ! D13   D(8,1,5,4)            -55.4611         estimate D2E/DX2                !
 ! D14   D(8,1,5,10)          -173.7621         estimate D2E/DX2                !
 ! D15   D(8,1,5,14)            68.8457         estimate D2E/DX2                !
 ! D16   D(13,1,5,4)          -173.6416         estimate D2E/DX2                !
 ! D17   D(13,1,5,10)           68.0574         estimate D2E/DX2                !
 ! D18   D(13,1,5,14)          -49.3348         estimate D2E/DX2                !
 ! D19   D(2,1,13,23)           75.2879         estimate D2E/DX2                !
 ! D20   D(5,1,13,23)          -47.9647         estimate D2E/DX2                !
 ! D21   D(8,1,13,23)         -169.3961         estimate D2E/DX2                !
 ! D22   D(1,2,3,6)           -154.5017         estimate D2E/DX2                !
 ! D23   D(1,2,3,11)            19.8086         estimate D2E/DX2                !
 ! D24   D(7,2,3,6)             86.3366         estimate D2E/DX2                !
 ! D25   D(7,2,3,11)           -99.3532         estimate D2E/DX2                !
 ! D26   D(12,2,3,6)           -34.4777         estimate D2E/DX2                !
 ! D27   D(12,2,3,11)          139.8325         estimate D2E/DX2                !
 ! D28   D(1,2,12,19)         -138.9741         estimate D2E/DX2                !
 ! D29   D(3,2,12,19)          101.0626         estimate D2E/DX2                !
 ! D30   D(7,2,12,19)          -16.2437         estimate D2E/DX2                !
 ! D31   D(2,3,11,4)             4.3168         estimate D2E/DX2                !
 ! D32   D(6,3,11,4)           178.9049         estimate D2E/DX2                !
 ! D33   D(9,4,5,1)             76.0173         estimate D2E/DX2                !
 ! D34   D(9,4,5,10)          -164.4678         estimate D2E/DX2                !
 ! D35   D(9,4,5,14)           -51.9576         estimate D2E/DX2                !
 ! D36   D(11,4,5,1)           -37.9656         estimate D2E/DX2                !
 ! D37   D(11,4,5,10)           81.5493         estimate D2E/DX2                !
 ! D38   D(11,4,5,14)         -165.9406         estimate D2E/DX2                !
 ! D39   D(15,4,5,1)          -157.3853         estimate D2E/DX2                !
 ! D40   D(15,4,5,10)          -37.8704         estimate D2E/DX2                !
 ! D41   D(15,4,5,14)           74.6398         estimate D2E/DX2                !
 ! D42   D(5,4,11,3)             4.8462         estimate D2E/DX2                !
 ! D43   D(9,4,11,3)          -115.0838         estimate D2E/DX2                !
 ! D44   D(15,4,11,3)          129.5898         estimate D2E/DX2                !
 ! D45   D(5,4,15,16)          -62.7737         estimate D2E/DX2                !
 ! D46   D(5,4,15,17)         -179.8756         estimate D2E/DX2                !
 ! D47   D(5,4,15,18)           58.1512         estimate D2E/DX2                !
 ! D48   D(9,4,15,16)           64.5535         estimate D2E/DX2                !
 ! D49   D(9,4,15,17)          -52.5485         estimate D2E/DX2                !
 ! D50   D(9,4,15,18)         -174.5216         estimate D2E/DX2                !
 ! D51   D(11,4,15,16)         173.8453         estimate D2E/DX2                !
 ! D52   D(11,4,15,17)          56.7434         estimate D2E/DX2                !
 ! D53   D(11,4,15,18)         -65.2298         estimate D2E/DX2                !
 ! D54   D(1,5,14,27)          -44.5893         estimate D2E/DX2                !
 ! D55   D(4,5,14,27)           81.4048         estimate D2E/DX2                !
 ! D56   D(10,5,14,27)        -164.4774         estimate D2E/DX2                !
 ! D57   D(2,12,19,20)         177.5629         estimate D2E/DX2                !
 ! D58   D(2,12,19,21)         -63.51           estimate D2E/DX2                !
 ! D59   D(2,12,19,22)          58.6268         estimate D2E/DX2                !
 ! D60   D(1,13,23,24)         -56.2487         estimate D2E/DX2                !
 ! D61   D(1,13,23,25)          67.2566         estimate D2E/DX2                !
 ! D62   D(1,13,23,26)        -174.2477         estimate D2E/DX2                !
 ! D63   D(5,14,27,28)        -174.9528         estimate D2E/DX2                !
 ! D64   D(5,14,27,29)         -56.8178         estimate D2E/DX2                !
 ! D65   D(5,14,27,30)          66.692          estimate D2E/DX2                !
 ! D66   D(4,15,18,31)        -176.5525         estimate D2E/DX2                !
 ! D67   D(16,15,18,31)        -58.976          estimate D2E/DX2                !
 ! D68   D(17,15,18,31)         62.6125         estimate D2E/DX2                !
 ! D69   D(15,18,31,32)        179.8908         estimate D2E/DX2                !
 ! D70   D(15,18,31,33)        -60.9296         estimate D2E/DX2                !
 ! D71   D(15,18,31,34)         60.6626         estimate D2E/DX2                !
 --------------------------------------------------------------------------------
 Trust Radius=3.00D-01 FncErr=1.00D-07 GrdErr=1.00D-06 EigMax=2.50D+02 EigMin=1.00D-04
 Number of steps in this run=    177 maximum allowed number of steps=    204.
 GradGradGradGradGradGradGradGradGradGradGradGradGradGradGradGradGradGrad

 Leave Link  103 at Fri May 24 08:30:13 2019, MaxMem=   402653184 cpu:               0.2 elap:               0.1
 (Enter /n/sw/g16_nehalem/g16/l202.exe)
                          Input orientation:                          
 ---------------------------------------------------------------------
 Center     Atomic      Atomic             Coordinates (Angstroms)
 Number     Number       Type             X           Y           Z
 ---------------------------------------------------------------------
      1          6           0       -1.080717    0.653718   -0.257843
      2          6           0       -1.445588   -0.840203   -0.036497
      3          6           0       -0.514478   -1.724406   -0.803645
      4          6           0        1.266897   -0.059470   -0.965398
      5          6           0        0.431529    0.806654    0.001195
      6          1           0       -0.841364   -2.719766   -1.108859
      7          1           0       -1.330336   -1.091541    1.032088
      8          1           0       -1.317592    0.882542   -1.302694
      9          1           0        1.315811    0.376706   -1.964197
     10          1           0        0.658332    0.467084    1.015892
     11          8           0        0.617558   -1.400468   -1.238280
     12          8           0       -2.735572   -1.108102   -0.518133
     13          8           0       -1.893868    1.516531    0.489274
     14          8           0        0.917936    2.129770   -0.050584
     15          6           0        2.658218   -0.392094   -0.462439
     16          1           0        3.198609    0.561376   -0.359801
     17          1           0        3.186952   -1.006705   -1.205815
     18          8           0        2.525412   -1.063601    0.767682
     19          6           0       -3.533735   -1.967241    0.307963
     20          1           0       -4.505494   -2.034834   -0.181820
     21          1           0       -3.096826   -2.970147    0.388677
     22          1           0       -3.650841   -1.537096    1.309705
     23          6           0       -1.647208    1.620363    1.894839
     24          1           0       -1.694198    0.646531    2.399908
     25          1           0       -0.681469    2.094007    2.098103
     26          1           0       -2.447452    2.251352    2.284334
     27          6           0        0.474610    2.963662   -1.129789
     28          1           0        1.036703    3.892852   -1.025376
     29          1           0        0.694387    2.530328   -2.113614
     30          1           0       -0.595851    3.175739   -1.050590
     31          6           0        3.778783   -1.358694    1.376252
     32          1           0        3.559493   -1.871820    2.314310
     33          1           0        4.385996   -2.013417    0.736248
     34          1           0        4.343530   -0.439961    1.586008
 ---------------------------------------------------------------------
                    Distance matrix (angstroms):
                    1          2          3          4          5
     1  C    0.000000
     2  C    1.553681   0.000000
     3  C    2.504795   1.495760   0.000000
     4  C    2.553539   2.971528   2.443660   0.000000
     5  C    1.541875   2.497424   2.819390   1.543474   0.000000
     6  H    3.487393   2.246732   1.091216   3.397428   3.910002
     7  H    2.184528   1.103779   2.106195   3.435221   2.787481
     8  H    1.095529   2.141842   2.773125   2.771415   2.182959
     9  H    2.954949   3.580813   3.018528   1.090982   2.197630
    10  H    2.163683   2.691282   3.080394   2.138486   1.093781
    11  O    2.839908   2.452499   1.255129   1.514722   2.538167
    12  O    2.431112   1.402784   2.322629   4.161662   3.737181
    13  O    1.401372   2.455929   3.752070   3.819723   2.479842
    14  O    2.493251   3.795680   4.180142   2.398214   1.410641
    15  C    3.887829   4.150115   3.457958   1.516371   2.571011
    16  H    4.281536   4.861843   4.382786   2.117477   2.801287
    17  H    4.676393   4.780738   3.791757   2.154453   3.512478
    18  O    4.123718   4.057764   3.485206   2.365524   2.910275
    19  C    3.634124   2.397754   3.226539   5.320442   4.848909
    20  H    4.354674   3.288052   4.051079   6.151143   5.699276
    21  H    4.197032   2.728373   3.105161   5.417346   5.183016
    22  H    3.723226   2.676016   3.786569   5.616371   4.885807
    23  C    2.426799   3.134501   4.444364   4.415292   2.927312
    24  H    2.727646   2.865005   4.156421   4.537819   3.209078
    25  H    2.790038   3.708097   4.798782   4.221212   2.700568
    26  H    3.298949   3.993457   5.392463   5.449500   3.948216
    27  C    2.918077   4.399072   4.802358   3.129548   2.435911
    28  H    3.945195   5.435206   5.831716   3.959474   3.308278
    29  H    3.180652   4.500487   4.613040   2.890194   2.740906
    30  H    2.687775   4.228265   4.907038   3.734122   2.788248
    31  C    5.507704   5.436795   4.828849   3.671632   4.217063
    32  H    5.875871   5.625066   5.132311   4.392846   4.723228
    33  H    6.163341   5.998411   5.144846   4.054909   4.912323
    34  H    5.832527   6.025496   5.564214   4.014986   4.401072
                    6          7          8          9         10
     6  H    0.000000
     7  H    2.733837   0.000000
     8  H    3.638817   3.057511   0.000000
     9  H    3.869515   4.258587   2.761932   0.000000
    10  H    4.113352   2.526732   3.074528   3.053093   0.000000
    11  O    1.971231   3.007374   2.993508   2.042758   2.927577
    12  O    2.556255   2.092402   2.566879   4.550765   4.043888
    13  O    4.648441   2.722913   1.986249   4.197709   2.809340
    14  O    5.266221   4.074770   2.849727   2.625539   1.992308
    15  C    4.252410   4.316411   4.258849   2.156012   2.631196
    16  H    5.258171   5.018051   4.624745   2.480548   2.890403
    17  H    4.378505   5.041954   4.885648   2.447476   3.674501
    18  O    4.195172   3.864904   4.779394   3.316743   2.427054
    19  C    3.134093   2.479148   3.953071   5.845930   4.899033
    20  H    3.841143   3.527748   4.464321   6.548281   5.861673
    21  H    2.718899   2.657748   4.568328   6.017375   5.129246
    22  H    3.891185   2.379146   4.257150   6.248896   4.761516
    23  C    5.339317   2.863419   3.298067   5.021785   2.723622
    24  H    4.936672   2.241478   3.729182   5.308330   2.735343
    25  H    5.786414   3.421276   3.665750   4.841542   2.369204
    26  H    6.229389   3.740455   4.002124   5.977162   3.799796
    27  C    5.833831   4.937227   2.751898   2.845382   3.297060
    28  H    6.874651   5.888990   3.831655   3.650009   4.005724
    29  H    5.561614   5.207003   2.724124   2.246460   3.748611
    30  H    5.900903   4.804862   2.417275   3.510515   3.630446
    31  C    5.419783   5.127662   6.178424   4.498493   3.633255
    32  H    5.639560   5.115013   6.667472   5.328752   3.946276
    33  H    5.588259   5.797743   6.713775   4.736151   4.486264
    34  H    6.272395   5.737956   6.491681   4.736875   3.837766
                   11         12         13         14         15
    11  O    0.000000
    12  O    3.442030   0.000000
    13  O    4.219074   2.934627   0.000000
    14  O    3.736767   4.904135   2.928097   0.000000
    15  C    2.404795   5.441391   5.026937   3.091602   0.000000
    16  H    3.358926   6.166582   5.250388   2.785129   1.100755
    17  H    2.599594   5.963177   5.920708   4.039860   1.099961
    18  O    2.788776   5.416018   5.124903   3.667582   1.407749
    19  C    4.466020   1.434440   3.854699   6.060646   6.435440
    20  H    5.269174   2.025972   4.459053   6.839206   7.355006
    21  H    4.348279   2.102384   4.646236   6.505414   6.363276
    22  H    4.972939   2.088718   3.617278   6.014151   6.652499
    23  C    4.906223   3.801512   1.430816   3.259468   5.305039
    24  H    4.771879   3.560640   2.108860   3.876616   5.311807
    25  H    5.003027   4.617091   2.095643   2.678849   4.887799
    26  H    5.927806   4.384377   2.017091   4.097860   6.371847
    27  C    4.367818   5.220982   3.213291   1.434084   4.058891
    28  H    5.314155   6.284656   4.065626   2.018114   4.615947
    29  H    4.027812   5.248652   3.808133   2.113413   3.888902
    30  H    4.738065   4.818009   2.609406   2.094186   4.864599
    31  C    4.102544   6.788837   6.421263   4.731774   2.360247
    32  H    4.636599   6.945059   6.674640   5.346332   3.272953
    33  H    4.298324   7.287647   7.208205   5.460086   2.655326
    34  H    4.773054   7.415356   6.628410   4.584391   2.653055
                   16         17         18         19         20
    16  H    0.000000
    17  H    1.781784   0.000000
    18  O    2.089249   2.082201   0.000000
    19  C    7.222484   6.955702   6.143384   0.000000
    20  H    8.131739   7.828112   7.160900   1.090308   0.000000
    21  H    7.257023   6.773727   5.948792   1.096916   1.784551
    22  H    7.355665   7.305106   6.218045   1.096460   1.789643
    23  C    5.448559   6.315429   5.087721   4.352937   5.083579
    24  H    5.618078   6.289678   4.836716   3.819939   4.664592
    25  H    4.842030   5.957766   4.693037   5.275771   6.071947
    26  H    6.459526   7.385295   6.165916   4.783574   5.356197
    27  C    3.712685   4.808991   4.901534   6.515195   7.119343
    28  H    4.026855   5.353670   5.477019   7.550324   8.158737
    29  H    3.636449   4.421265   4.956899   6.630926   7.184100
    30  H    4.659400   5.641501   5.569596   6.076765   6.571921
    31  C    2.652763   2.672308   1.424211   7.415153   8.456595
    32  H    3.633394   3.643966   2.028448   7.372138   8.444007
    33  H    3.039864   2.494551   2.089237   7.931437   8.938786
    34  H    2.469756   3.074597   2.089052   8.125102   9.163736
                   21         22         23         24         25
    21  H    0.000000
    22  H    1.791329   0.000000
    23  C    5.044076   3.785033   0.000000
    24  H    4.369528   3.128134   1.098022   0.000000
    25  H    5.865300   4.756433   1.094672   1.792176   0.000000
    26  H    5.592786   4.092723   1.090983   1.776570   1.782733
    27  C    7.090203   6.574747   3.931277   4.746745   3.537245
    28  H    8.135500   7.543872   4.571131   5.452430   3.993004
    29  H    7.133721   6.866153   4.730624   5.442969   4.452181
    30  H    6.789571   6.092189   3.492864   4.416922   3.330427
    31  C    7.130644   7.432064   6.211690   5.917966   5.686481
    32  H    7.015766   7.287674   6.283393   5.826722   5.810360
    33  H    7.551739   8.071337   7.137664   6.841918   6.663691
    34  H    7.949487   8.074033   6.342653   6.188462   5.651004
                   26         27         28         29         30
    26  H    0.000000
    27  C    4.549952   0.000000
    28  H    5.078192   1.090983   0.000000
    29  H    5.412109   1.097266   1.777052   0.000000
    30  H    3.924874   1.094137   1.783289   1.792007   0.000000
    31  C    7.254174   5.990039   6.392617   6.067714   6.751894
    32  H    7.285934   6.690307   7.123862   6.869807   7.353046
    33  H    8.202490   6.599420   7.014634   6.511168   7.412080
    34  H    7.338137   5.824839   6.043815   5.985488   6.665015
                   31         32         33         34
    31  C    0.000000
    32  H    1.091485   0.000000
    33  H    1.098624   1.787019   0.000000
    34  H    1.098639   1.787556   1.788759   0.000000
 Stoichiometry    C10H19O5(1+)
 Framework group  C1[X(C10H19O5)]
 Deg. of freedom    96
 Full point group                 C1      NOp   1
 Largest Abelian subgroup         C1      NOp   1
 Largest concise Abelian subgroup C1      NOp   1
                         Standard orientation:                         
 ---------------------------------------------------------------------
 Center     Atomic      Atomic             Coordinates (Angstroms)
 Number     Number       Type             X           Y           Z
 ---------------------------------------------------------------------
      1          6           0       -1.080717    0.653718   -0.257843
      2          6           0       -1.445588   -0.840203   -0.036497
      3          6           0       -0.514478   -1.724406   -0.803645
      4          6           0        1.266897   -0.059470   -0.965398
      5          6           0        0.431529    0.806654    0.001195
      6          1           0       -0.841364   -2.719766   -1.108859
      7          1           0       -1.330336   -1.091541    1.032088
      8          1           0       -1.317592    0.882542   -1.302694
      9          1           0        1.315811    0.376706   -1.964197
     10          1           0        0.658332    0.467084    1.015892
     11          8           0        0.617558   -1.400468   -1.238280
     12          8           0       -2.735572   -1.108102   -0.518133
     13          8           0       -1.893868    1.516531    0.489274
     14          8           0        0.917936    2.129770   -0.050584
     15          6           0        2.658218   -0.392094   -0.462439
     16          1           0        3.198609    0.561376   -0.359801
     17          1           0        3.186952   -1.006705   -1.205815
     18          8           0        2.525412   -1.063601    0.767682
     19          6           0       -3.533735   -1.967241    0.307963
     20          1           0       -4.505494   -2.034834   -0.181820
     21          1           0       -3.096826   -2.970147    0.388677
     22          1           0       -3.650841   -1.537096    1.309705
     23          6           0       -1.647208    1.620363    1.894839
     24          1           0       -1.694198    0.646531    2.399908
     25          1           0       -0.681469    2.094007    2.098103
     26          1           0       -2.447452    2.251352    2.284334
     27          6           0        0.474610    2.963662   -1.129789
     28          1           0        1.036703    3.892852   -1.025376
     29          1           0        0.694387    2.530328   -2.113614
     30          1           0       -0.595851    3.175739   -1.050590
     31          6           0        3.778783   -1.358694    1.376252
     32          1           0        3.559493   -1.871820    2.314310
     33          1           0        4.385996   -2.013417    0.736248
     34          1           0        4.343530   -0.439961    1.586008
 ---------------------------------------------------------------------
 Rotational constants (GHZ):           0.7130288           0.4487610           0.3470699
 Leave Link  202 at Fri May 24 08:30:13 2019, MaxMem=   402653184 cpu:               0.1 elap:               0.0
 (Enter /n/sw/g16_nehalem/g16/l301.exe)
 Standard basis: 6-31G(d) (6D, 7F)
 Ernie: Thresh=  0.10000D-02 Tol=  0.10000D-05 Strict=F.
 There are   263 symmetry adapted cartesian basis functions of A   symmetry.
 There are   263 symmetry adapted basis functions of A   symmetry.
   263 basis functions,   496 primitive gaussians,   263 cartesian basis functions
    59 alpha electrons       59 beta electrons
       nuclear repulsion energy      1159.9181107652 Hartrees.
 IExCor=  402 DFT=T Ex+Corr=B3LYP ExCW=0 ScaHFX=  0.200000
 ScaDFX=  0.800000  0.720000  1.000000  0.810000 ScalE2=  1.000000  1.000000
 IRadAn=      5 IRanWt=     -1 IRanGd=            0 ICorTp=0 IEmpDi=  4
 NAtoms=   34 NActive=   34 NUniq=   34 SFac= 1.00D+00 NAtFMM=   60 NAOKFM=F Big=F
 Integral buffers will be    131072 words long.
 Raffenetti 2 integral format.
 Two-electron integral symmetry is turned on.
 ------------------------------------------------------------------------------
 Polarizable Continuum Model (PCM)
 =================================
 Model                : PCM.
 Atomic radii         : UFF (Universal Force Field).
 Polarization charges : Total charges.
 Charge compensation  : None.
 Solution method      : On-the-fly selection.
 Cavity type          : Scaled VdW (van der Waals Surface) (Alpha=1.100).
 Cavity algorithm     : GePol (No added spheres)
                        Default sphere list used, NSphG=   34.
                        Lebedev-Laikov grids with approx.  5.0 points / Ang**2.
                        Smoothing algorithm: York/Karplus (Gamma=1.0000).
                        Polarization charges: spherical gaussians, with
                                              point-specific exponents (IZeta= 3).
                        Self-potential: point-specific (ISelfS= 7).
                        Self-field    : sphere-specific E.n sum rule (ISelfD= 2).
 1st derivatives      : Analytical E(r).r(x)/FMM algorithm (CHGder, D1EAlg=3).
                        Cavity 1st derivative terms included.
 Solvent              : TetraHydroFuran, Eps=   7.425700 Eps(inf)=   1.974025
 ------------------------------------------------------------------------------
 GePol: Number of generator spheres                  =      34
 GePol: Total number of spheres                      =      34
 GePol: Number of exposed spheres                    =      34 (100.00%)
 GePol: Number of points                             =    2315
 GePol: Average weight of points                     =       0.13
 GePol: Minimum weight of points                     =   0.78D-10
 GePol: Maximum weight of points                     =    0.20577
 GePol: Number of points with low weight             =     160
 GePol: Fraction of low-weight points (<1% of avg)   =       6.91%
 GePol: Cavity surface area                          =    303.819 Ang**2
 GePol: Cavity volume                                =    321.797 Ang**3
 Leave Link  301 at Fri May 24 08:30:13 2019, MaxMem=   402653184 cpu:               0.4 elap:               0.1
 (Enter /n/sw/g16_nehalem/g16/l302.exe)
 NPDir=0 NMtPBC=     1 NCelOv=     1 NCel=       1 NClECP=     1 NCelD=      1
         NCelK=      1 NCelE2=     1 NClLst=     1 CellRange=     0.0.
 One-electron integrals computed using PRISM.
 One-electron integral symmetry used in STVInt
 NBasis=   263 RedAO= T EigKep=  1.65D-03  NBF=   263
 NBsUse=   263 1.00D-06 EigRej= -1.00D+00 NBFU=   263
 Precomputing XC quadrature grid using
 IXCGrd= 4 IRadAn=           5 IRanWt=          -1 IRanGd=           0 AccXCQ= 0.00D+00.
 Generated NRdTot=       0 NPtTot=           0 NUsed=           0 NTot=          32
 NSgBfM=   262   262   262   262   262 MxSgAt=    34 MxSgA2=    34.
 Leave Link  302 at Fri May 24 08:30:15 2019, MaxMem=   402653184 cpu:               7.0 elap:               1.8
 (Enter /n/sw/g16_nehalem/g16/l303.exe)
 DipDrv:  MaxL=1.
 Leave Link  303 at Fri May 24 08:30:16 2019, MaxMem=   402653184 cpu:               0.5 elap:               0.2
 (Enter /n/sw/g16_nehalem/g16/l401.exe)
 ExpMin= 1.61D-01 ExpMax= 5.48D+03 ExpMxC= 8.25D+02 IAcc=3 IRadAn=         5 AccDes= 0.00D+00
 Harris functional with IExCor=  402 and IRadAn=       5 diagonalized for initial guess.
 HarFok:  IExCor=  402 AccDes= 0.00D+00 IRadAn=         5 IDoV= 1 UseB2=F ITyADJ=14
 ICtDFT=  3500011 ScaDFX=  1.000000  1.000000  1.000000  1.000000
 FoFCou: FMM=F IPFlag=           0 FMFlag=      100000 FMFlg1=           0
         NFxFlg=           0 DoJE=T BraDBF=F KetDBF=T FulRan=T
         wScrn=  0.000000 ICntrl=       500 IOpCl=  0 I1Cent=   200000004 NGrid=           0
         NMat0=    1 NMatS0=      1 NMatT0=    0 NMatD0=    1 NMtDS0=    0 NMtDT0=    0
 Petite list used in FoFCou.
 Harris En= -768.260140323689    
 JPrj=0 DoOrth=F DoCkMO=F.
 Leave Link  401 at Fri May 24 08:30:28 2019, MaxMem=   402653184 cpu:              46.0 elap:              12.2
 (Enter /n/sw/g16_nehalem/g16/l502.exe)
 Integral symmetry usage will be decided dynamically.
 Closed shell SCF:
 Using DIIS extrapolation, IDIIS=  1040.
 NGot=   402653184 LenX=   402510103 LenY=   402440493
 Requested convergence on RMS density matrix=1.00D-08 within 128 cycles.
 Requested convergence on MAX density matrix=1.00D-06.
 Requested convergence on             energy=1.00D-06.
 No special actions if energy rises.
 Fock matrices will be formed incrementally for  20 cycles.

 Cycle   1  Pass 1  IDiag  1:
 FoFJK:  IHMeth= 1 ICntrl=       0 DoSepK=F KAlg= 0 I1Cent=           0 FoldK=F
 IRaf= 880000000 NMat=       1 IRICut=       1 DoRegI=T DoRafI=F ISym2E= 0 IDoP0=0 IntGTp=1.
 FoFCou: FMM=F IPFlag=           0 FMFlag=      100000 FMFlg1=           0
         NFxFlg=           0 DoJE=F BraDBF=F KetDBF=F FulRan=T
         wScrn=  0.000000 ICntrl=         0 IOpCl=  0 I1Cent=           0 NGrid=           0
         NMat0=    1 NMatS0=      1 NMatT0=    0 NMatD0=    1 NMtDS0=    0 NMtDT0=    0
 Symmetry not used in FoFCou.
 Inv3:  Mode=1 IEnd=    16077675.
 Iteration    1 A*A^-1 deviation from unit magnitude is 9.66D-15 for   2312.
 Iteration    1 A*A^-1 deviation from orthogonality  is 3.51D-15 for   2283   1142.
 Iteration    1 A^-1*A deviation from unit magnitude is 9.66D-15 for   2312.
 Iteration    1 A^-1*A deviation from orthogonality  is 1.98D-15 for   1312    567.
 E= -768.087845399029    
 DIIS: error= 1.88D-02 at cycle   1 NSaved=   1.
 NSaved= 1 IEnMin= 1 EnMin= -768.087845399029     IErMin= 1 ErrMin= 1.88D-02
 ErrMax= 1.88D-02  0.00D+00 EMaxC= 1.00D-01 BMatC= 2.54D-01 BMatP= 2.54D-01
 IDIUse=3 WtCom= 8.12D-01 WtEn= 1.88D-01
 Coeff-Com:  0.100D+01
 Coeff-En:   0.100D+01
 Coeff:      0.100D+01
 Gap=     0.023 Goal=   None    Shift=    0.000
 GapD=    0.023 DampG=0.250 DampE=0.500 DampFc=0.2500 IDamp=-1.
 Damping current iteration by 2.50D-01
 RMSDP=4.63D-03 MaxDP=1.11D-01              OVMax= 3.40D-01

 Cycle   2  Pass 1  IDiag  1:
 RMSU=  1.15D-03    CP:  9.94D-01
 E= -768.165218694972     Delta-E=       -0.077373295944 Rises=F Damp=T
 DIIS: error= 9.74D-03 at cycle   2 NSaved=   2.
 NSaved= 2 IEnMin= 2 EnMin= -768.165218694972     IErMin= 2 ErrMin= 9.74D-03
 ErrMax= 9.74D-03  0.00D+00 EMaxC= 1.00D-01 BMatC= 6.92D-02 BMatP= 2.54D-01
 IDIUse=3 WtCom= 9.03D-01 WtEn= 9.74D-02
 Coeff-Com: -0.725D+00 0.173D+01
 Coeff-En:   0.000D+00 0.100D+01
 Coeff:     -0.655D+00 0.165D+01
 Gap=     0.137 Goal=   None    Shift=    0.000
 RMSDP=1.34D-03 MaxDP=3.25D-02 DE=-7.74D-02 OVMax= 3.36D-01

 Cycle   3  Pass 1  IDiag  1:
 RMSU=  1.27D-03    CP:  9.86D-01  1.32D+00
 E= -768.297575410237     Delta-E=       -0.132356715265 Rises=F Damp=F
 DIIS: error= 5.56D-03 at cycle   3 NSaved=   3.
 NSaved= 3 IEnMin= 3 EnMin= -768.297575410237     IErMin= 3 ErrMin= 5.56D-03
 ErrMax= 5.56D-03  0.00D+00 EMaxC= 1.00D-01 BMatC= 3.44D-02 BMatP= 6.92D-02
 IDIUse=3 WtCom= 9.44D-01 WtEn= 5.56D-02
 Coeff-Com: -0.503D+00 0.997D+00 0.506D+00
 Coeff-En:   0.000D+00 0.000D+00 0.100D+01
 Coeff:     -0.475D+00 0.941D+00 0.534D+00
 Gap=     0.146 Goal=   None    Shift=    0.000
 RMSDP=7.54D-04 MaxDP=2.28D-02 DE=-1.32D-01 OVMax= 3.77D-02

 Cycle   4  Pass 1  IDiag  1:
 RMSU=  5.24D-04    CP:  9.89D-01  1.54D+00  6.27D-01
 E= -768.324677462616     Delta-E=       -0.027102052379 Rises=F Damp=F
 DIIS: error= 1.80D-03 at cycle   4 NSaved=   4.
 NSaved= 4 IEnMin= 4 EnMin= -768.324677462616     IErMin= 4 ErrMin= 1.80D-03
 ErrMax= 1.80D-03  0.00D+00 EMaxC= 1.00D-01 BMatC= 2.96D-03 BMatP= 3.44D-02
 IDIUse=3 WtCom= 9.82D-01 WtEn= 1.80D-02
 Coeff-Com: -0.203D+00 0.343D+00 0.245D+00 0.615D+00
 Coeff-En:   0.000D+00 0.000D+00 0.000D+00 0.100D+01
 Coeff:     -0.199D+00 0.337D+00 0.241D+00 0.622D+00
 Gap=     0.137 Goal=   None    Shift=    0.000
 RMSDP=2.11D-04 MaxDP=1.04D-02 DE=-2.71D-02 OVMax= 8.13D-03

 Cycle   5  Pass 1  IDiag  1:
 RMSU=  1.70D-04    CP:  9.88D-01  1.56D+00  6.87D-01  8.23D-01
 E= -768.326727115817     Delta-E=       -0.002049653200 Rises=F Damp=F
 DIIS: error= 7.23D-04 at cycle   5 NSaved=   5.
 NSaved= 5 IEnMin= 5 EnMin= -768.326727115817     IErMin= 5 ErrMin= 7.23D-04
 ErrMax= 7.23D-04  0.00D+00 EMaxC= 1.00D-01 BMatC= 6.54D-04 BMatP= 2.96D-03
 IDIUse=3 WtCom= 9.93D-01 WtEn= 7.23D-03
 Coeff-Com: -0.813D-01 0.123D+00 0.702D-01 0.351D+00 0.537D+00
 Coeff-En:   0.000D+00 0.000D+00 0.000D+00 0.114D+00 0.886D+00
 Coeff:     -0.807D-01 0.122D+00 0.697D-01 0.350D+00 0.539D+00
 Gap=     0.139 Goal=   None    Shift=    0.000
 RMSDP=8.54D-05 MaxDP=5.39D-03 DE=-2.05D-03 OVMax= 4.59D-03

 Cycle   6  Pass 1  IDiag  1:
 RMSU=  6.07D-05    CP:  9.88D-01  1.57D+00  6.88D-01  8.90D-01  7.26D-01
 E= -768.327158162098     Delta-E=       -0.000431046281 Rises=F Damp=F
 DIIS: error= 2.97D-04 at cycle   6 NSaved=   6.
 NSaved= 6 IEnMin= 6 EnMin= -768.327158162098     IErMin= 6 ErrMin= 2.97D-04
 ErrMax= 2.97D-04  0.00D+00 EMaxC= 1.00D-01 BMatC= 9.32D-05 BMatP= 6.54D-04
 IDIUse=3 WtCom= 9.97D-01 WtEn= 2.97D-03
 Coeff-Com: -0.283D-01 0.369D-01 0.559D-02 0.140D+00 0.337D+00 0.509D+00
 Coeff-En:   0.000D+00 0.000D+00 0.000D+00 0.000D+00 0.350D-01 0.965D+00
 Coeff:     -0.282D-01 0.367D-01 0.557D-02 0.140D+00 0.336D+00 0.510D+00
 Gap=     0.138 Goal=   None    Shift=    0.000
 RMSDP=2.92D-05 MaxDP=1.92D-03 DE=-4.31D-04 OVMax= 1.70D-03

 Cycle   7  Pass 1  IDiag  1:
 RMSU=  2.21D-05    CP:  9.88D-01  1.57D+00  6.87D-01  9.09D-01  7.87D-01
                    CP:  7.94D-01
 E= -768.327226949388     Delta-E=       -0.000068787290 Rises=F Damp=F
 DIIS: error= 1.02D-04 at cycle   7 NSaved=   7.
 NSaved= 7 IEnMin= 7 EnMin= -768.327226949388     IErMin= 7 ErrMin= 1.02D-04
 ErrMax= 1.02D-04  0.00D+00 EMaxC= 1.00D-01 BMatC= 6.76D-06 BMatP= 9.32D-05
 IDIUse=3 WtCom= 9.99D-01 WtEn= 1.02D-03
 Coeff-Com: -0.684D-02 0.693D-02-0.863D-02 0.341D-01 0.125D+00 0.269D+00
 Coeff-Com:  0.581D+00
 Coeff-En:   0.000D+00 0.000D+00 0.000D+00 0.000D+00 0.000D+00 0.000D+00
 Coeff-En:   0.100D+01
 Coeff:     -0.683D-02 0.692D-02-0.862D-02 0.341D-01 0.125D+00 0.269D+00
 Coeff:      0.581D+00
 Gap=     0.138 Goal=   None    Shift=    0.000
 RMSDP=1.07D-05 MaxDP=4.98D-04 DE=-6.88D-05 OVMax= 6.09D-04

 Cycle   8  Pass 1  IDiag  1:
 RMSU=  6.31D-06    CP:  9.88D-01  1.57D+00  6.87D-01  9.20D-01  8.12D-01
                    CP:  8.46D-01  8.29D-01
 E= -768.327233108947     Delta-E=       -0.000006159559 Rises=F Damp=F
 DIIS: error= 2.10D-05 at cycle   8 NSaved=   8.
 NSaved= 8 IEnMin= 8 EnMin= -768.327233108947     IErMin= 8 ErrMin= 2.10D-05
 ErrMax= 2.10D-05  0.00D+00 EMaxC= 1.00D-01 BMatC= 4.49D-07 BMatP= 6.76D-06
 IDIUse=1 WtCom= 1.00D+00 WtEn= 0.00D+00
 Coeff-Com:  0.171D-05-0.474D-03-0.433D-02-0.539D-02 0.202D-02 0.258D-01
 Coeff-Com:  0.203D+00 0.779D+00
 Coeff:      0.171D-05-0.474D-03-0.433D-02-0.539D-02 0.202D-02 0.258D-01
 Coeff:      0.203D+00 0.779D+00
 Gap=     0.138 Goal=   None    Shift=    0.000
 RMSDP=4.30D-06 MaxDP=9.29D-05 DE=-6.16D-06 OVMax= 5.61D-04

 Cycle   9  Pass 1  IDiag  1:
 RMSU=  2.37D-06    CP:  9.88D-01  1.57D+00  6.87D-01  9.24D-01  8.20D-01
                    CP:  8.71D-01  9.10D-01  1.01D+00
 E= -768.327233532113     Delta-E=       -0.000000423166 Rises=F Damp=F
 DIIS: error= 1.62D-05 at cycle   9 NSaved=   9.
 NSaved= 9 IEnMin= 9 EnMin= -768.327233532113     IErMin= 9 ErrMin= 1.62D-05
 ErrMax= 1.62D-05  0.00D+00 EMaxC= 1.00D-01 BMatC= 1.02D-07 BMatP= 4.49D-07
 IDIUse=1 WtCom= 1.00D+00 WtEn= 0.00D+00
 Coeff-Com:  0.364D-03-0.510D-03-0.158D-02-0.565D-02-0.100D-01-0.110D-01
 Coeff-Com:  0.552D-01 0.446D+00 0.527D+00
 Coeff:      0.364D-03-0.510D-03-0.158D-02-0.565D-02-0.100D-01-0.110D-01
 Coeff:      0.552D-01 0.446D+00 0.527D+00
 Gap=     0.138 Goal=   None    Shift=    0.000
 RMSDP=1.35D-06 MaxDP=4.93D-05 DE=-4.23D-07 OVMax= 1.33D-04

 Cycle  10  Pass 1  IDiag  1:
 RMSU=  7.51D-07    CP:  9.88D-01  1.57D+00  6.87D-01  9.24D-01  8.22D-01
                    CP:  8.79D-01  9.30D-01  1.07D+00  7.10D-01
 E= -768.327233618815     Delta-E=       -0.000000086703 Rises=F Damp=F
 DIIS: error= 1.85D-06 at cycle  10 NSaved=  10.
 NSaved=10 IEnMin=10 EnMin= -768.327233618815     IErMin=10 ErrMin= 1.85D-06
 ErrMax= 1.85D-06  0.00D+00 EMaxC= 1.00D-01 BMatC= 3.44D-09 BMatP= 1.02D-07
 IDIUse=1 WtCom= 1.00D+00 WtEn= 0.00D+00
 Coeff-Com:  0.189D-03-0.232D-03-0.262D-03-0.174D-02-0.445D-02-0.671D-02
 Coeff-Com: -0.197D-02 0.758D-01 0.165D+00 0.774D+00
 Coeff:      0.189D-03-0.232D-03-0.262D-03-0.174D-02-0.445D-02-0.671D-02
 Coeff:     -0.197D-02 0.758D-01 0.165D+00 0.774D+00
 Gap=     0.138 Goal=   None    Shift=    0.000
 RMSDP=4.56D-07 MaxDP=1.20D-05 DE=-8.67D-08 OVMax= 5.05D-05

 Cycle  11  Pass 1  IDiag  1:
 RMSU=  2.15D-07    CP:  9.88D-01  1.57D+00  6.87D-01  9.25D-01  8.23D-01
                    CP:  8.82D-01  9.37D-01  1.08D+00  7.49D-01  9.51D-01
 E= -768.327233622819     Delta-E=       -0.000000004004 Rises=F Damp=F
 DIIS: error= 6.98D-07 at cycle  11 NSaved=  11.
 NSaved=11 IEnMin=11 EnMin= -768.327233622819     IErMin=11 ErrMin= 6.98D-07
 ErrMax= 6.98D-07  0.00D+00 EMaxC= 1.00D-01 BMatC= 5.80D-10 BMatP= 3.44D-09
 IDIUse=1 WtCom= 1.00D+00 WtEn= 0.00D+00
 Coeff-Com:  0.379D-04-0.384D-04-0.791D-05-0.316D-03-0.124D-02-0.193D-02
 Coeff-Com: -0.499D-02 0.301D-02 0.379D-01 0.382D+00 0.585D+00
 Coeff:      0.379D-04-0.384D-04-0.791D-05-0.316D-03-0.124D-02-0.193D-02
 Coeff:     -0.499D-02 0.301D-02 0.379D-01 0.382D+00 0.585D+00
 Gap=     0.138 Goal=   None    Shift=    0.000
 RMSDP=1.29D-07 MaxDP=3.87D-06 DE=-4.00D-09 OVMax= 1.12D-05

 Cycle  12  Pass 1  IDiag  1:
 RMSU=  7.76D-08    CP:  9.88D-01  1.57D+00  6.87D-01  9.25D-01  8.23D-01
                    CP:  8.82D-01  9.38D-01  1.09D+00  7.65D-01  9.99D-01
                    CP:  6.93D-01
 E= -768.327233623364     Delta-E=       -0.000000000545 Rises=F Damp=F
 DIIS: error= 2.14D-07 at cycle  12 NSaved=  12.
 NSaved=12 IEnMin=12 EnMin= -768.327233623364     IErMin=12 ErrMin= 2.14D-07
 ErrMax= 2.14D-07  0.00D+00 EMaxC= 1.00D-01 BMatC= 5.09D-11 BMatP= 5.80D-10
 IDIUse=1 WtCom= 1.00D+00 WtEn= 0.00D+00
 Coeff-Com:  0.626D-06 0.203D-05 0.253D-04 0.492D-04-0.752D-04-0.398D-04
 Coeff-Com: -0.229D-02-0.803D-02-0.378D-02 0.680D-01 0.260D+00 0.686D+00
 Coeff:      0.626D-06 0.203D-05 0.253D-04 0.492D-04-0.752D-04-0.398D-04
 Coeff:     -0.229D-02-0.803D-02-0.378D-02 0.680D-01 0.260D+00 0.686D+00
 Gap=     0.138 Goal=   None    Shift=    0.000
 RMSDP=3.87D-08 MaxDP=9.06D-07 DE=-5.45D-10 OVMax= 3.41D-06

 Cycle  13  Pass 1  IDiag  1:
 RMSU=  1.83D-08    CP:  9.88D-01  1.57D+00  6.87D-01  9.25D-01  8.23D-01
                    CP:  8.83D-01  9.38D-01  1.09D+00  7.66D-01  1.02D+00
                    CP:  7.77D-01  8.33D-01
 E= -768.327233623412     Delta-E=       -0.000000000048 Rises=F Damp=F
 DIIS: error= 7.32D-08 at cycle  13 NSaved=  13.
 NSaved=13 IEnMin=13 EnMin= -768.327233623412     IErMin=13 ErrMin= 7.32D-08
 ErrMax= 7.32D-08  0.00D+00 EMaxC= 1.00D-01 BMatC= 4.11D-12 BMatP= 5.09D-11
 IDIUse=1 WtCom= 1.00D+00 WtEn= 0.00D+00
 Coeff-Com: -0.252D-05 0.384D-05 0.117D-04 0.458D-04 0.484D-04 0.136D-03
 Coeff-Com: -0.728D-03-0.390D-02-0.435D-02 0.511D-02 0.856D-01 0.318D+00
 Coeff-Com:  0.600D+00
 Coeff:     -0.252D-05 0.384D-05 0.117D-04 0.458D-04 0.484D-04 0.136D-03
 Coeff:     -0.728D-03-0.390D-02-0.435D-02 0.511D-02 0.856D-01 0.318D+00
 Coeff:      0.600D+00
 Gap=     0.138 Goal=   None    Shift=    0.000
 RMSDP=9.74D-09 MaxDP=3.15D-07 DE=-4.77D-11 OVMax= 6.65D-07

 Error on total polarization charges =  0.01318
 SCF Done:  E(RB3LYP) =  -768.327233623     A.U. after   13 cycles
            NFock= 13  Conv=0.97D-08     -V/T= 2.0091
 KE= 7.613929656611D+02 PE=-4.094834863664D+03 EE= 1.405196553614D+03
 Leave Link  502 at Fri May 24 08:35:14 2019, MaxMem=   402653184 cpu:            1144.6 elap:             286.4
 (Enter /n/sw/g16_nehalem/g16/l601.exe)
 Copying SCF densities to generalized density rwf, IOpCl= 0 IROHF=0.

 **********************************************************************

            Population analysis using the SCF density.

 **********************************************************************

 Orbital symmetries:
       Occupied  (A) (A) (A) (A) (A) (A) (A) (A) (A) (A) (A) (A)
                 (A) (A) (A) (A) (A) (A) (A) (A) (A) (A) (A) (A)
                 (A) (A) (A) (A) (A) (A) (A) (A) (A) (A) (A) (A)
                 (A) (A) (A) (A) (A) (A) (A) (A) (A) (A) (A) (A)
                 (A) (A) (A) (A) (A) (A) (A) (A) (A) (A) (A)
       Virtual   (A) (A) (A) (A) (A) (A) (A) (A) (A) (A) (A) (A)
                 (A) (A) (A) (A) (A) (A) (A) (A) (A) (A) (A) (A)
                 (A) (A) (A) (A) (A) (A) (A) (A) (A) (A) (A) (A)
                 (A) (A) (A) (A) (A) (A) (A) (A) (A) (A) (A) (A)
                 (A) (A) (A) (A) (A) (A) (A) (A) (A) (A) (A) (A)
                 (A) (A) (A) (A) (A) (A) (A) (A) (A) (A) (A) (A)
                 (A) (A) (A) (A) (A) (A) (A) (A) (A) (A) (A) (A)
                 (A) (A) (A) (A) (A) (A) (A) (A) (A) (A) (A) (A)
                 (A) (A) (A) (A) (A) (A) (A) (A) (A) (A) (A) (A)
                 (A) (A) (A) (A) (A) (A) (A) (A) (A) (A) (A) (A)
                 (A) (A) (A) (A) (A) (A) (A) (A) (A) (A) (A) (A)
                 (A) (A) (A) (A) (A) (A) (A) (A) (A) (A) (A) (A)
                 (A) (A) (A) (A) (A) (A) (A) (A) (A) (A) (A) (A)
                 (A) (A) (A) (A) (A) (A) (A) (A) (A) (A) (A) (A)
                 (A) (A) (A) (A) (A) (A) (A) (A) (A) (A) (A) (A)
                 (A) (A) (A) (A) (A) (A) (A) (A) (A) (A) (A) (A)
                 (A) (A) (A) (A) (A) (A) (A) (A) (A) (A) (A) (A)
 The electronic state is 1-A.
 Alpha  occ. eigenvalues --  -19.32983 -19.21256 -19.19592 -19.19334 -19.18713
 Alpha  occ. eigenvalues --  -10.39572 -10.32165 -10.31848 -10.29688 -10.29432
 Alpha  occ. eigenvalues --  -10.27809 -10.26180 -10.25177 -10.25173 -10.24854
 Alpha  occ. eigenvalues --   -1.21547  -1.09914  -1.08270  -1.07004  -1.06354
 Alpha  occ. eigenvalues --   -0.87242  -0.85862  -0.77224  -0.75738  -0.73854
 Alpha  occ. eigenvalues --   -0.71715  -0.69348  -0.67908  -0.65579  -0.61907
 Alpha  occ. eigenvalues --   -0.60473  -0.58706  -0.55957  -0.55292  -0.53628
 Alpha  occ. eigenvalues --   -0.52707  -0.51676  -0.51047  -0.50230  -0.49168
 Alpha  occ. eigenvalues --   -0.48447  -0.47835  -0.46619  -0.46004  -0.45100
 Alpha  occ. eigenvalues --   -0.43662  -0.43391  -0.42519  -0.41944  -0.41053
 Alpha  occ. eigenvalues --   -0.40371  -0.37579  -0.36051  -0.35737  -0.34353
 Alpha  occ. eigenvalues --   -0.31941  -0.30962  -0.29217  -0.28834
 Alpha virt. eigenvalues --   -0.15052  -0.00246   0.04672   0.05310   0.05526
 Alpha virt. eigenvalues --    0.06987   0.07709   0.08993   0.09341   0.10430
 Alpha virt. eigenvalues --    0.11150   0.11593   0.12395   0.12896   0.13368
 Alpha virt. eigenvalues --    0.13538   0.14287   0.14692   0.14798   0.15094
 Alpha virt. eigenvalues --    0.15959   0.16282   0.16657   0.17596   0.17993
 Alpha virt. eigenvalues --    0.18348   0.19228   0.20201   0.21301   0.22906
 Alpha virt. eigenvalues --    0.23378   0.25041   0.25746   0.27566   0.28961
 Alpha virt. eigenvalues --    0.44295   0.45505   0.46944   0.47526   0.48626
 Alpha virt. eigenvalues --    0.48810   0.49675   0.49859   0.50662   0.52464
 Alpha virt. eigenvalues --    0.53052   0.53317   0.54702   0.55276   0.55387
 Alpha virt. eigenvalues --    0.57021   0.58085   0.58980   0.59810   0.61131
 Alpha virt. eigenvalues --    0.62867   0.63812   0.66599   0.68053   0.71715
 Alpha virt. eigenvalues --    0.74545   0.74941   0.76208   0.78568   0.79122
 Alpha virt. eigenvalues --    0.79258   0.79814   0.80880   0.81247   0.82563
 Alpha virt. eigenvalues --    0.83318   0.83813   0.84418   0.85105   0.85456
 Alpha virt. eigenvalues --    0.86425   0.86670   0.87822   0.88542   0.89529
 Alpha virt. eigenvalues --    0.90932   0.92240   0.93122   0.93624   0.94115
 Alpha virt. eigenvalues --    0.95795   0.96723   0.97718   0.99736   1.01411
 Alpha virt. eigenvalues --    1.03147   1.06913   1.09425   1.12223   1.12863
 Alpha virt. eigenvalues --    1.13547   1.15436   1.16813   1.20075   1.20649
 Alpha virt. eigenvalues --    1.22427   1.26948   1.28020   1.31196   1.32214
 Alpha virt. eigenvalues --    1.34530   1.36694   1.37355   1.38669   1.40500
 Alpha virt. eigenvalues --    1.42590   1.43848   1.45683   1.47849   1.48640
 Alpha virt. eigenvalues --    1.50885   1.54598   1.57113   1.59432   1.61181
 Alpha virt. eigenvalues --    1.62653   1.64859   1.66608   1.68581   1.71791
 Alpha virt. eigenvalues --    1.73249   1.75363   1.77124   1.80642   1.81765
 Alpha virt. eigenvalues --    1.82916   1.83179   1.86052   1.90567   1.90708
 Alpha virt. eigenvalues --    1.91029   1.92651   1.94733   1.97815   2.00423
 Alpha virt. eigenvalues --    2.00775   2.02090   2.02711   2.04247   2.05072
 Alpha virt. eigenvalues --    2.05613   2.06956   2.07699   2.07982   2.10384
 Alpha virt. eigenvalues --    2.10860   2.12704   2.14623   2.15190   2.16648
 Alpha virt. eigenvalues --    2.18180   2.20083   2.22086   2.23794   2.24793
 Alpha virt. eigenvalues --    2.26795   2.29326   2.30126   2.32706   2.35287
 Alpha virt. eigenvalues --    2.36673   2.38960   2.41969   2.44822   2.47455
 Alpha virt. eigenvalues --    2.49516   2.50781   2.54583   2.58210   2.61647
 Alpha virt. eigenvalues --    2.63294   2.64550   2.67312   2.72038   2.75283
 Alpha virt. eigenvalues --    2.78113   2.80970   2.84934   2.89790   2.92076
 Alpha virt. eigenvalues --    2.95320   2.98854   3.02313   3.05793   3.86195
 Alpha virt. eigenvalues --    3.89176   3.94151   3.97100   4.10239   4.14231
 Alpha virt. eigenvalues --    4.22165   4.23013   4.23154   4.27026   4.30178
 Alpha virt. eigenvalues --    4.36490   4.43897   4.53861   4.64932
          Condensed to atoms (all electrons):
               1          2          3          4          5          6
     1  C    4.953365   0.280663  -0.036773  -0.040020   0.258857   0.002179
     2  C    0.280663   5.150881   0.272105  -0.006046  -0.047131  -0.040033
     3  C   -0.036773   0.272105   4.802797  -0.037346   0.005574   0.362436
     4  C   -0.040020  -0.006046  -0.037346   5.144939   0.269072   0.003119
     5  C    0.258857  -0.047131   0.005574   0.269072   5.055409  -0.000180
     6  H    0.002179  -0.040033   0.362436   0.003119  -0.000180   0.427608
     7  H   -0.026755   0.340710  -0.042778   0.001088  -0.005252   0.001047
     8  H    0.386444  -0.052359  -0.003505  -0.002598  -0.043854  -0.000146
     9  H   -0.004815   0.000787   0.000034   0.365464  -0.032939  -0.000144
    10  H   -0.041696  -0.005448   0.000914  -0.057046   0.377646  -0.000017
    11  O    0.000736  -0.029100   0.395378   0.107395  -0.023040  -0.035124
    12  O   -0.034552   0.182626  -0.027471  -0.000020   0.002626   0.001469
    13  O    0.263862  -0.038615   0.002661   0.002598  -0.034928  -0.000037
    14  O   -0.028136   0.002528  -0.000122  -0.036850   0.231465   0.000002
    15  C    0.003442  -0.000197   0.000938   0.348036  -0.028325  -0.000203
    16  H    0.000215  -0.000033   0.000083  -0.031388  -0.010047   0.000004
    17  H   -0.000062   0.000015   0.000139  -0.029136   0.005096  -0.000004
    18  O    0.000198  -0.000473   0.003777  -0.052888  -0.007590   0.000044
    19  C    0.002700  -0.027896  -0.001688  -0.000001  -0.000104   0.001887
    20  H   -0.000162   0.004845  -0.000136   0.000000   0.000000  -0.000078
    21  H   -0.000066  -0.004332   0.002163  -0.000002   0.000023   0.000325
    22  H    0.000073  -0.008542  -0.000225   0.000000   0.000000   0.000041
    23  C   -0.042949  -0.006818   0.000268   0.000164  -0.004784  -0.000003
    24  H   -0.005549   0.004755  -0.000520   0.000064  -0.002068   0.000010
    25  H   -0.008480  -0.000769   0.000062   0.000118   0.005160   0.000000
    26  H    0.005115  -0.000046  -0.000002  -0.000003   0.000077   0.000000
    27  C   -0.004775   0.000108  -0.000014  -0.005242  -0.042317   0.000000
    28  H    0.000061  -0.000004   0.000000  -0.000014   0.005068   0.000000
    29  H   -0.001756   0.000056   0.000014   0.002592  -0.003322   0.000000
    30  H    0.005645   0.000244  -0.000012  -0.000400  -0.010161   0.000000
    31  C   -0.000003   0.000005  -0.000082   0.005696   0.000354  -0.000001
    32  H    0.000000   0.000001  -0.000001  -0.000277   0.000012   0.000000
    33  H    0.000000   0.000000   0.000003   0.000049   0.000019   0.000000
    34  H   -0.000001  -0.000001   0.000004   0.000062  -0.000147   0.000000
               7          8          9         10         11         12
     1  C   -0.026755   0.386444  -0.004815  -0.041696   0.000736  -0.034552
     2  C    0.340710  -0.052359   0.000787  -0.005448  -0.029100   0.182626
     3  C   -0.042778  -0.003505   0.000034   0.000914   0.395378  -0.027471
     4  C    0.001088  -0.002598   0.365464  -0.057046   0.107395  -0.000020
     5  C   -0.005252  -0.043854  -0.032939   0.377646  -0.023040   0.002626
     6  H    0.001047  -0.000146  -0.000144  -0.000017  -0.035124   0.001469
     7  H    0.511792   0.004886  -0.000003   0.004145   0.001035  -0.026415
     8  H    0.004886   0.546150   0.002247   0.004434   0.001295   0.001699
     9  H   -0.000003   0.002247   0.477334   0.004364  -0.023919   0.000005
    10  H    0.004145   0.004434   0.004364   0.536920   0.001108  -0.000009
    11  O    0.001035   0.001295  -0.023919   0.001108   7.943463   0.001245
    12  O   -0.026415   0.001699   0.000005  -0.000009   0.001245   8.236052
    13  O   -0.005034  -0.042217  -0.000018  -0.003527   0.000015   0.001661
    14  O   -0.000002  -0.003071  -0.002799  -0.038115   0.001161  -0.000008
    15  C   -0.000013  -0.000001  -0.032460  -0.010803  -0.036779  -0.000001
    16  H   -0.000002  -0.000007   0.001359  -0.000236   0.003070   0.000000
    17  H    0.000000   0.000000  -0.001174   0.000626  -0.003056   0.000000
    18  O    0.000163  -0.000003   0.002379   0.019882   0.001110   0.000000
    19  C   -0.005102  -0.000194   0.000000  -0.000004   0.000000   0.223281
    20  H   -0.000039   0.000000   0.000000   0.000000   0.000001  -0.029509
    21  H   -0.000365   0.000002   0.000000  -0.000001  -0.000051  -0.033828
    22  H    0.008861   0.000050   0.000000   0.000000   0.000004  -0.033199
    23  C    0.002910   0.005668   0.000002   0.005801   0.000001   0.000239
    24  H    0.004710  -0.000352  -0.000001  -0.000325   0.000001  -0.000052
    25  H   -0.000367  -0.000138  -0.000009  -0.002182  -0.000005   0.000004
    26  H   -0.000110  -0.000132   0.000000  -0.000049   0.000000  -0.000014
    27  C    0.000003   0.005571   0.004009   0.005191   0.000065  -0.000001
    28  H    0.000000  -0.000025  -0.000131  -0.000129   0.000000   0.000000
    29  H   -0.000002  -0.000271   0.004037  -0.000348  -0.000235   0.000000
    30  H   -0.000010  -0.002477  -0.000187  -0.000054   0.000014   0.000003
    31  C   -0.000001   0.000000  -0.000150  -0.000586   0.000035   0.000000
    32  H   -0.000001   0.000000   0.000003  -0.000036   0.000003   0.000000
    33  H    0.000000   0.000000   0.000008   0.000072  -0.000029   0.000000
    34  H    0.000000   0.000000   0.000009  -0.000015   0.000005   0.000000
              13         14         15         16         17         18
     1  C    0.263862  -0.028136   0.003442   0.000215  -0.000062   0.000198
     2  C   -0.038615   0.002528  -0.000197  -0.000033   0.000015  -0.000473
     3  C    0.002661  -0.000122   0.000938   0.000083   0.000139   0.003777
     4  C    0.002598  -0.036850   0.348036  -0.031388  -0.029136  -0.052888
     5  C   -0.034928   0.231465  -0.028325  -0.010047   0.005096  -0.007590
     6  H   -0.000037   0.000002  -0.000203   0.000004  -0.000004   0.000044
     7  H   -0.005034  -0.000002  -0.000013  -0.000002   0.000000   0.000163
     8  H   -0.042217  -0.003071  -0.000001  -0.000007   0.000000  -0.000003
     9  H   -0.000018  -0.002799  -0.032460   0.001359  -0.001174   0.002379
    10  H   -0.003527  -0.038115  -0.010803  -0.000236   0.000626   0.019882
    11  O    0.000015   0.001161  -0.036779   0.003070  -0.003056   0.001110
    12  O    0.001661  -0.000008  -0.000001   0.000000   0.000000   0.000000
    13  O    8.185799   0.002839  -0.000037  -0.000001   0.000000   0.000000
    14  O    0.002839   8.213694  -0.000621   0.007318   0.000016  -0.000022
    15  C   -0.000037  -0.000621   4.879234   0.354504   0.356654   0.241959
    16  H   -0.000001   0.007318   0.354504   0.564800  -0.043850  -0.035897
    17  H    0.000000   0.000016   0.356654  -0.043850   0.571280  -0.039320
    18  O    0.000000  -0.000022   0.241959  -0.035897  -0.039320   8.211170
    19  C   -0.000078   0.000000   0.000000   0.000000   0.000000   0.000000
    20  H    0.000001   0.000000   0.000000   0.000000   0.000000   0.000000
    21  H    0.000010   0.000000   0.000000   0.000000   0.000000   0.000000
    22  H    0.000232   0.000000   0.000000   0.000000   0.000000   0.000000
    23  C    0.236349  -0.004222   0.000001   0.000000   0.000000  -0.000009
    24  H   -0.036176   0.000311  -0.000003   0.000000   0.000000  -0.000001
    25  H   -0.034025   0.007504   0.000026  -0.000002   0.000000  -0.000004
    26  H   -0.031343   0.000009   0.000000   0.000000   0.000000   0.000000
    27  C   -0.005278   0.231606  -0.000134   0.000156  -0.000030  -0.000014
    28  H    0.000029  -0.031261  -0.000003  -0.000042   0.000000   0.000000
    29  H    0.000365  -0.036343   0.000138  -0.000138   0.000006  -0.000001
    30  H    0.008832  -0.033155   0.000006   0.000032   0.000000   0.000000
    31  C    0.000000  -0.000007  -0.041312  -0.004060  -0.003687   0.244951
    32  H    0.000000   0.000000   0.005546  -0.000093  -0.000138  -0.031440
    33  H    0.000000   0.000000  -0.007506  -0.002117   0.010295  -0.035513
    34  H    0.000000  -0.000003  -0.007040   0.010728  -0.002025  -0.036224
              19         20         21         22         23         24
     1  C    0.002700  -0.000162  -0.000066   0.000073  -0.042949  -0.005549
     2  C   -0.027896   0.004845  -0.004332  -0.008542  -0.006818   0.004755
     3  C   -0.001688  -0.000136   0.002163  -0.000225   0.000268  -0.000520
     4  C   -0.000001   0.000000  -0.000002   0.000000   0.000164   0.000064
     5  C   -0.000104   0.000000   0.000023   0.000000  -0.004784  -0.002068
     6  H    0.001887  -0.000078   0.000325   0.000041  -0.000003   0.000010
     7  H   -0.005102  -0.000039  -0.000365   0.008861   0.002910   0.004710
     8  H   -0.000194   0.000000   0.000002   0.000050   0.005668  -0.000352
     9  H    0.000000   0.000000   0.000000   0.000000   0.000002  -0.000001
    10  H   -0.000004   0.000000  -0.000001   0.000000   0.005801  -0.000325
    11  O    0.000000   0.000001  -0.000051   0.000004   0.000001   0.000001
    12  O    0.223281  -0.029509  -0.033828  -0.033199   0.000239  -0.000052
    13  O   -0.000078   0.000001   0.000010   0.000232   0.236349  -0.036176
    14  O    0.000000   0.000000   0.000000   0.000000  -0.004222   0.000311
    15  C    0.000000   0.000000   0.000000   0.000000   0.000001  -0.000003
    16  H    0.000000   0.000000   0.000000   0.000000   0.000000   0.000000
    17  H    0.000000   0.000000   0.000000   0.000000   0.000000   0.000000
    18  O    0.000000   0.000000   0.000000   0.000000  -0.000009  -0.000001
    19  C    4.916064   0.386127   0.366767   0.372206  -0.000078   0.000167
    20  H    0.386127   0.496162  -0.029393  -0.026034   0.000002  -0.000002
    21  H    0.366767  -0.029393   0.568798  -0.041231   0.000005  -0.000021
    22  H    0.372206  -0.026034  -0.041231   0.546936  -0.000031   0.000341
    23  C   -0.000078   0.000002   0.000005  -0.000031   4.938461   0.357864
    24  H    0.000167  -0.000002  -0.000021   0.000341   0.357864   0.591040
    25  H    0.000001   0.000000   0.000000   0.000004   0.365681  -0.042756
    26  H   -0.000002   0.000000   0.000000   0.000014   0.387166  -0.028836
    27  C    0.000000   0.000000   0.000000   0.000000   0.000589  -0.000032
    28  H    0.000000   0.000000   0.000000   0.000000   0.000014   0.000000
    29  H    0.000000   0.000000   0.000000   0.000000  -0.000028   0.000001
    30  H    0.000000   0.000000   0.000000   0.000000  -0.000560   0.000068
    31  C    0.000000   0.000000   0.000000   0.000000   0.000000   0.000000
    32  H    0.000000   0.000000   0.000000   0.000000   0.000000   0.000000
    33  H    0.000000   0.000000   0.000000   0.000000   0.000000   0.000000
    34  H    0.000000   0.000000   0.000000   0.000000   0.000000   0.000000
              25         26         27         28         29         30
     1  C   -0.008480   0.005115  -0.004775   0.000061  -0.001756   0.005645
     2  C   -0.000769  -0.000046   0.000108  -0.000004   0.000056   0.000244
     3  C    0.000062  -0.000002  -0.000014   0.000000   0.000014  -0.000012
     4  C    0.000118  -0.000003  -0.005242  -0.000014   0.002592  -0.000400
     5  C    0.005160   0.000077  -0.042317   0.005068  -0.003322  -0.010161
     6  H    0.000000   0.000000   0.000000   0.000000   0.000000   0.000000
     7  H   -0.000367  -0.000110   0.000003   0.000000  -0.000002  -0.000010
     8  H   -0.000138  -0.000132   0.005571  -0.000025  -0.000271  -0.002477
     9  H   -0.000009   0.000000   0.004009  -0.000131   0.004037  -0.000187
    10  H   -0.002182  -0.000049   0.005191  -0.000129  -0.000348  -0.000054
    11  O   -0.000005   0.000000   0.000065   0.000000  -0.000235   0.000014
    12  O    0.000004  -0.000014  -0.000001   0.000000   0.000000   0.000003
    13  O   -0.034025  -0.031343  -0.005278   0.000029   0.000365   0.008832
    14  O    0.007504   0.000009   0.231606  -0.031261  -0.036343  -0.033155
    15  C    0.000026   0.000000  -0.000134  -0.000003   0.000138   0.000006
    16  H   -0.000002   0.000000   0.000156  -0.000042  -0.000138   0.000032
    17  H    0.000000   0.000000  -0.000030   0.000000   0.000006   0.000000
    18  O   -0.000004   0.000000  -0.000014   0.000000  -0.000001   0.000000
    19  C    0.000001  -0.000002   0.000000   0.000000   0.000000   0.000000
    20  H    0.000000   0.000000   0.000000   0.000000   0.000000   0.000000
    21  H    0.000000   0.000000   0.000000   0.000000   0.000000   0.000000
    22  H    0.000004   0.000014   0.000000   0.000000   0.000000   0.000000
    23  C    0.365681   0.387166   0.000589   0.000014  -0.000028  -0.000560
    24  H   -0.042756  -0.028836  -0.000032   0.000000   0.000001   0.000068
    25  H    0.563339  -0.029378  -0.000493  -0.000052   0.000057  -0.000405
    26  H   -0.029378   0.508154   0.000019  -0.000001   0.000000  -0.000063
    27  C   -0.000493   0.000019   4.940734   0.386553   0.359008   0.366515
    28  H   -0.000052  -0.000001   0.386553   0.508573  -0.029161  -0.028458
    29  H    0.000057   0.000000   0.359008  -0.029161   0.587956  -0.042197
    30  H   -0.000405  -0.000063   0.366515  -0.028458  -0.042197   0.557027
    31  C    0.000000   0.000000   0.000000   0.000000   0.000000   0.000000
    32  H    0.000000   0.000000   0.000000   0.000000   0.000000   0.000000
    33  H    0.000000   0.000000   0.000000   0.000000   0.000000   0.000000
    34  H    0.000000   0.000000   0.000001   0.000000   0.000000   0.000000
              31         32         33         34
     1  C   -0.000003   0.000000   0.000000  -0.000001
     2  C    0.000005   0.000001   0.000000  -0.000001
     3  C   -0.000082  -0.000001   0.000003   0.000004
     4  C    0.005696  -0.000277   0.000049   0.000062
     5  C    0.000354   0.000012   0.000019  -0.000147
     6  H   -0.000001   0.000000   0.000000   0.000000
     7  H   -0.000001  -0.000001   0.000000   0.000000
     8  H    0.000000   0.000000   0.000000   0.000000
     9  H   -0.000150   0.000003   0.000008   0.000009
    10  H   -0.000586  -0.000036   0.000072  -0.000015
    11  O    0.000035   0.000003  -0.000029   0.000005
    12  O    0.000000   0.000000   0.000000   0.000000
    13  O    0.000000   0.000000   0.000000   0.000000
    14  O   -0.000007   0.000000   0.000000  -0.000003
    15  C   -0.041312   0.005546  -0.007506  -0.007040
    16  H   -0.004060  -0.000093  -0.002117   0.010728
    17  H   -0.003687  -0.000138   0.010295  -0.002025
    18  O    0.244951  -0.031440  -0.035513  -0.036224
    19  C    0.000000   0.000000   0.000000   0.000000
    20  H    0.000000   0.000000   0.000000   0.000000
    21  H    0.000000   0.000000   0.000000   0.000000
    22  H    0.000000   0.000000   0.000000   0.000000
    23  C    0.000000   0.000000   0.000000   0.000000
    24  H    0.000000   0.000000   0.000000   0.000000
    25  H    0.000000   0.000000   0.000000   0.000000
    26  H    0.000000   0.000000   0.000000   0.000000
    27  C    0.000000   0.000000   0.000000   0.000001
    28  H    0.000000   0.000000   0.000000   0.000000
    29  H    0.000000   0.000000   0.000000   0.000000
    30  H    0.000000   0.000000   0.000000   0.000000
    31  C    4.886252   0.385478   0.368018   0.370171
    32  H    0.385478   0.523291  -0.030597  -0.029995
    33  H    0.368018  -0.030597   0.583358  -0.044267
    34  H    0.370171  -0.029995  -0.044267   0.578302
 Mulliken charges:
               1
     1  C    0.112993
     2  C    0.027514
     3  C    0.301323
     4  C    0.048820
     5  C    0.079731
     6  H    0.275799
     7  H    0.230900
     8  H    0.192903
     9  H    0.236707
    10  H    0.199521
    11  O   -0.305804
    12  O   -0.465831
    13  O   -0.473940
    14  O   -0.483717
    15  C   -0.025049
    16  H    0.185643
    17  H    0.178354
    18  O   -0.486236
    19  C   -0.234052
    20  H    0.198214
    21  H    0.171196
    22  H    0.180499
    23  C   -0.241702
    24  H    0.157361
    25  H    0.177110
    26  H    0.189424
    27  C   -0.241799
    28  H    0.188983
    29  H    0.159571
    30  H    0.179750
    31  C   -0.211073
    32  H    0.178244
    33  H    0.158207
    34  H    0.160435
 Sum of Mulliken charges =   1.00000
 Mulliken charges with hydrogens summed into heavy atoms:
               1
     1  C    0.305896
     2  C    0.258413
     3  C    0.577123
     4  C    0.285527
     5  C    0.279251
    11  O   -0.305804
    12  O   -0.465831
    13  O   -0.473940
    14  O   -0.483717
    15  C    0.338949
    18  O   -0.486236
    19  C    0.315856
    23  C    0.282194
    27  C    0.286505
    31  C    0.285814
 Electronic spatial extent (au):  <R**2>=           3539.1473
 Charge=              1.0000 electrons
 Dipole moment (field-independent basis, Debye):
    X=              0.6235    Y=             -4.5779    Z=             -1.3397  Tot=              4.8105
 Quadrupole moment (field-independent basis, Debye-Ang):
   XX=            -64.9148   YY=            -70.2582   ZZ=            -75.7526
   XY=              6.9626   XZ=             -6.1928   YZ=             -1.7365
 Traceless Quadrupole moment (field-independent basis, Debye-Ang):
   XX=              5.3937   YY=              0.0503   ZZ=             -5.4441
   XY=              6.9626   XZ=             -6.1928   YZ=             -1.7365
[...]
 00000345,-0.00000781,-0.00002241,0.00000177,0.00000149,-0.00001060,-0.
 00000183,0.00000661,-0.00002411,-0.00000720,0.00000204,-0.00000032,-0.
 00000065,0.00000351,0.00000016,0.00000408,-0.00000192,0.00000041,0.000
 00034,0.00000116,-0.00000634,0.00002167,0.00015932,-0.00001186,-0.0000
 0203,-0.00001701,0.00005692,-0.00002371,-0.00012214,-0.00003039,-0.000
 01978,-0.00000362,0.02394781,-0.10376697,-0.09960415,0.00779757,-0.009
 58614,-0.02415359,-0.02922861,0.10634018,-0.00032976,0.00047601,-0.000
 44704,0.00014182,-0.00018433,0.00015380,-0.00006681,-0.00023497,-0.000
 12229,0.00081421,-0.00028017,-0.00052211,-0.00140336,-0.00526155,0.000
 36939,0.00000793,0.00001791,0.00000289,-0.00001642,-0.00008121,0.00000
 449,0.00093308,-0.00000383,-0.00019566,-0.00033882,0.00089060,0.000323
 40,0.00023832,0.00066409,0.00006438,-0.00006173,0.00103568,0.00066720,
 0.00018685,0.00024426,-0.00000708,0.00006150,0.00014033,0.00006750,-0.
 00155365,0.00465800,-0.03191936,-0.00031737,-0.00007628,0.00007981,0.0
 0010875,-0.00000794,-0.00002992,-0.00003169,0.00005102,-0.00001400,0.0
 0004647,0.00001595,0.00013152,-0.00002556,-0.00004645,0.00008235,0.000
 01907,0.00001455,-0.00001275,0.00000107,0.00001348,-0.00001125,-0.0000
 0449,0.00000039,-0.00000983,-0.00023553,-0.00009830,0.00000067,0.00004
 796,0.00004454,-0.00001456,-0.00002186,0.00005580,0.00021417,0.0000763
 5,0.00001905,0.00000637,0.04993391,-0.09611761,-0.24391929,0.00118810,
 -0.00258736,-0.00106664,-0.05064922,0.09976437,0.27649686,-0.00040900,
 0.00010981,-0.00021068,0.00019084,0.00010661,0.00027749,-0.00021690,-0
 .00007488,0.00006894,0.00000624,-0.00032205,-0.00013756,-0.00039015,-0
 .00251485,0.00007090,0.00002449,0.00000807,-0.00002738,-0.00003213,-0.
 00014969,0.00002207,0.00005310,-0.00034278,0.00043497,-0.00002149,0.00
 003369,-0.00000032,0.00010774,0.00023905,-0.00004376,0.00020434,0.0004
 3479,0.00008269,0.00016315,0.00013998,-0.00004621,-0.00050795,-0.00151
 670,0.00089657,-0.00555600,0.00916586,-0.00948637,0.00004012,-0.000138
 17,0.00010844,0.00011308,0.00000170,-0.00002083,-0.00003201,0.00004892
 ,-0.00001519,-0.00010883,0.00011839,-0.00010919,-0.00002007,-0.0000194
 6,0.00006312,0.00001423,0.00001102,-0.00001180,0.00000189,0.00000613,-
 0.00000580,0.00000104,0.00000035,-0.00001042,-0.00008912,0.00016975,-0
 .00024243,-0.00002092,-0.00004589,-0.00001107,-0.00000733,0.00007401,0
 .00006328,0.00005177,-0.00000006,0.00001339,-0.30721467,0.04426486,0.0
 2852564,-0.01365858,0.00266897,0.00306378,-0.00401063,-0.00050401,0.00
 122535,0.33126099,0.00004146,-0.00232894,-0.00036832,-0.00005824,0.000
 40458,-0.00015957,0.00051575,0.00004514,-0.00030862,-0.00019496,0.0000
 9198,0.00020271,0.00340677,0.00325067,-0.00050707,-0.00002881,-0.00001
 754,0.00009087,0.00000294,0.00001903,-0.00001310,-0.00067752,-0.001373
 82,0.00010985,0.00000462,0.00015867,-0.00001740,-0.00017625,0.00001699
 ,0.00004092,-0.00035616,-0.00053094,-0.00011753,-0.00000096,0.00009882
 ,0.00002264,-0.00019652,0.00035906,-0.00038528,0.02299736,-0.01039200,
 0.00916760,-0.00004799,0.00012390,0.00002498,-0.00011959,-0.00002271,0
 .00001739,-0.00001544,-0.00004142,-0.00000371,0.00007632,-0.00007751,0
 .00007873,-0.00003814,-0.00004698,0.00004200,0.00000782,0.00000455,-0.
 00000219,-0.00000166,0.00000821,-0.00000577,-0.00000489,-0.00000361,-0
 .00000362,0.00021380,0.00042876,0.00078568,-0.00005911,0.00003012,-0.0
 0024183,-0.00009075,-0.00004619,-0.00009628,0.00000326,-0.00002388,-0.
 00006371,0.03926423,-0.06108330,-0.00816913,-0.02701506,0.00788268,0.0
 0329080,0.01454058,-0.00111364,-0.00310440,-0.05195807,0.06417358,-0.0
 0017655,0.00166240,0.00159106,0.00017727,-0.00037346,-0.00002305,-0.00
 024269,-0.00020514,0.00008882,0.00039844,-0.00020928,-0.00082042,-0.00
 181326,-0.00413188,0.00090512,0.00002778,0.00000306,-0.00005012,-0.000
 01553,0.00005666,-0.00000964,0.00001437,0.00000817,-0.00035085,0.00004
 761,0.00019704,0.00012147,0.00005843,0.00000809,-0.00003255,0.00015644
 ,0.00065770,0.00033268,0.00018191,0.00014776,-0.00006155,0.00042618,-0
 .00048388,-0.00050408,-0.03232602,0.01591208,-0.00712134,-0.00015889,-
 0.00014130,0.00007646,0.00016065,0.00002659,-0.00004716,-0.00000116,0.
 00007140,-0.00000511,-0.00005320,0.00006943,-0.00002679,-0.00001473,-0
 .00001480,0.00006118,0.00001142,0.00000873,-0.00000898,0.00000296,0.00
 000839,-0.00000917,0.00000258,0.00000554,-0.00001446,-0.00005666,-0.00
 021448,-0.00061460,0.00001671,-0.00003857,0.00017080,0.00000284,0.0000
 3457,0.00003645,0.00000287,0.00003033,0.00000421,0.03412294,-0.0081896
 0,-0.05469263,-0.00479184,0.00013557,0.00158076,0.02837456,-0.00473930
 ,-0.00044187,-0.02458122,-0.00028957,0.05981618,-0.00098066,0.00016200
 ,-0.00003301,-0.00045039,-0.00039707,-0.00023470,-0.00233158,-0.000108
 12,0.00072849,-0.00192416,-0.00306557,0.00253245,0.00022036,0.00174712
 ,0.00019177,0.00016200,0.00001006,-0.00014624,0.00011026,-0.00003495,0
 .00010083,0.00006797,-0.00000801,0.00002965,0.00150084,0.00006558,0.00
 078358,-0.00074811,0.00032328,0.00023321,0.00241020,0.00061898,-0.0005
 8930,0.00077619,0.00020018,-0.00008854,0.00079043,-0.00040963,-0.00058
 816,0.00042342,-0.00126676,0.00030403,-0.00258445,0.00530947,-0.010197
 03,0.00185308,-0.00305966,0.00574029,0.00175106,-0.00300228,0.00603220
 ,-0.19972214,0.03171429,-0.06498883,-0.00029622,-0.00025764,0.00026208
 ,0.00006532,0.00003273,-0.00002535,0.00000424,0.00004782,-0.00004267,0
 .00002957,0.00003018,-0.00004851,-0.00001164,0.00003887,0.00043055,-0.
 00005056,0.00001097,-0.00004083,-0.00003182,0.00004523,-0.00001544,0.0
 0005242,-0.00003458,-0.00004618,-0.00032490,0.00055065,-0.00051169,0.0
 0000705,-0.00014236,0.00005383,0.00004446,0.00000694,0.00003103,0.0001
 1091,-0.00006650,0.00007923,0.48643322,0.00015981,-0.00010718,0.000044
 74,0.00010912,0.00003291,0.00001248,0.00109178,0.00027495,-0.00020523,
 0.00037884,-0.00203060,0.00303335,0.00013405,-0.00019381,0.00041778,-0
 .00003903,-0.00000521,0.00004237,0.00002551,0.00001584,-0.00003166,0.0
 0000701,-0.00000255,-0.00002471,0.00052866,0.00015715,0.00017423,0.000
 08423,-0.00010278,-0.00001305,-0.00106893,-0.00002717,-0.00003607,-0.0
 0018701,-0.00005349,0.00002269,-0.00010841,0.00005163,0.00006131,-0.00
 017785,0.00014367,-0.00009633,0.01947917,-0.01198155,0.01465325,0.0029
 5543,0.00173513,0.00076622,-0.00152471,0.00222703,-0.00237001,0.009930
 71,-0.07179303,0.01814007,0.00007156,0.00007827,-0.00006315,-0.0000150
 1,-0.00000842,0.00000852,0.00000118,-0.00001743,0.00000936,-0.00000902
 ,-0.00000720,0.00000982,0.00003187,0.00001449,-0.00004723,0.00000480,-
 0.00000621,0.00000346,0.00000223,-0.00000851,0.00000035,-0.00001223,0.
 00000617,0.00000525,0.00005202,-0.00014720,0.00014237,0.00001138,0.000
 00267,-0.00000564,-0.00000569,0.00000906,-0.00003059,-0.00003025,0.000
 01459,-0.00002447,0.02915285,0.58227709,-0.00057930,0.00004953,0.00025
 366,-0.00024830,-0.00019286,-0.00007198,-0.00136939,-0.00027635,0.0000
 1040,0.00018039,0.00171848,-0.00556317,0.00071149,0.00033630,-0.000263
 56,0.00003598,0.00000591,-0.00003742,0.00001867,-0.00001588,0.00008262
 ,0.00019295,-0.00000534,0.00003389,-0.00099621,0.00031823,0.00004090,-
 0.00085195,0.00078354,0.00083337,0.00116736,0.00028232,0.00003298,0.00
 041261,0.00011169,-0.00005529,0.00035393,-0.00020000,-0.00031991,0.000
 27330,-0.00079485,0.00046478,-0.03570541,0.01397148,-0.03208314,0.0003
 2893,-0.00194267,0.00373979,-0.00175594,0.00020444,0.00267286,-0.02757
 084,0.02002522,-0.09935805,-0.00015768,-0.00014504,0.00015445,0.000032
 53,0.00002003,-0.00001722,0.00000173,0.00002986,-0.00001952,0.00001713
 ,0.00000990,-0.00002916,-0.00002714,0.00000982,0.00024458,-0.00002290,
 0.00001663,-0.00001706,-0.00001816,0.00003029,-0.00000719,0.00002909,-
 0.00001619,-0.00001990,-0.00020553,0.00020008,-0.00037498,0.00000993,-
 0.00008783,0.00007187,0.00001573,0.00000612,0.00006689,0.00005623,-0.0
 0002524,0.00005717,-0.05816889,-0.01294899,0.59369401,0.00009058,-0.00
 001641,0.00002888,0.00002884,0.00004951,0.00001721,0.00021656,-0.00002
 268,-0.00011809,0.00052437,0.00105831,-0.00176182,0.00013482,-0.000265
 13,-0.00014872,-0.00002619,-0.00000043,0.00001052,-0.00002239,0.000009
 03,-0.00000005,0.00001164,-0.00000072,0.00000476,-0.00058423,0.0000160
 4,-0.00016396,0.00001468,0.00000843,0.00005322,-0.00013393,-0.00002257
 ,0.00016069,-0.00006737,-0.00002039,0.00002404,-0.00008664,0.00003666,
 0.00007059,-0.00003864,0.00011104,0.00000874,-0.00491123,0.00087389,-0
 .00171228,-0.00004338,0.00032942,-0.00004418,0.00000094,-0.00008089,-0
 .00045514,0.00071951,0.01953813,-0.03602329,0.00002719,0.00002820,-0.0
 0002991,-0.00000497,-0.00000432,0.00000421,-0.00000053,-0.00000785,0.0
 0000216,-0.00000457,-0.00000028,0.00000440,-0.00000162,0.00000536,-0.0
 0005795,-0.00000094,-0.00000474,0.00000589,0.00000394,-0.00000175,0.00
 000072,-0.00000300,0.00000087,0.00000705,0.00003060,-0.00005395,0.0000
 2564,-0.00000255,0.00001440,0.00000169,-0.00000645,-0.00000170,0.00000
 976,-0.00001062,0.00000941,-0.00000464,-0.06591432,-0.03552647,0.06493
 319,0.07366019,-0.00006501,0.00004021,0.00000156,-0.00002994,-0.000040
 15,-0.00001092,-0.00016907,0.00002424,0.00009621,-0.00026627,0.0000651
 9,0.00051378,-0.00004098,0.00011695,0.00005126,0.00001024,0.00000431,-
 0.00002421,0.00001124,0.00000217,0.00000558,0.00000004,-0.00000155,-0.
 00000152,0.00015701,-0.00002217,0.00004744,-0.00002397,0.00001762,0.00
 001180,0.00026491,0.00002746,-0.00002316,0.00005465,0.00000747,-0.0000
 1468,0.00005384,-0.00003831,-0.00006696,0.00003473,-0.00008225,0.00000
 707,0.00152445,0.00082837,-0.00085262,-0.00002141,0.00024822,-0.000251
 40,-0.00004231,-0.00000580,0.00041772,0.00201317,-0.00388999,0.0078567
 9,-0.00002297,-0.00001441,0.00002174,0.00000437,0.00000218,-0.00000232
 ,0.00000086,0.00000269,-0.00000239,0.00000325,0.00000050,-0.00000431,0
 .00000637,0.00000150,0.00005150,0.00000253,0.00000520,-0.00000346,-0.0
 0000500,-0.00000233,0.00000085,0.00000122,-0.00000129,-0.00000511,-0.0
 0002011,0.00003206,-0.00002811,-0.00000061,-0.00000736,0.00000295,0.00
 000236,-0.00000048,-0.00000285,0.00000845,-0.00000479,0.00000505,-0.02
 943006,-0.11231619,0.10842939,0.02859938,0.11459328,0.00013094,0.00000
 365,0.00002751,0.00004743,0.00006139,0.00001651,0.00033752,0.00002369,
 -0.00013414,0.00057698,0.00076048,-0.00065735,-0.00005917,-0.00023614,
 -0.00010983,-0.00002929,-0.00000445,0.00001800,-0.00001749,0.00000839,
 -0.00000596,0.00000004,-0.00000126,-0.00000091,-0.00033629,-0.00000075
 ,-0.00010411,0.00006029,-0.00003916,-0.00002918,-0.00032176,-0.0001053
 1,0.00010920,-0.00009845,-0.00003423,0.00002622,-0.00012179,0.00004950
 ,0.00009430,-0.00005644,0.00015079,-0.00002597,-0.00315983,-0.00075029
 ,0.00182114,0.00010006,0.00020692,-0.00006976,0.00011231,-0.00009546,0
 .00011293,-0.00383917,0.00862712,-0.01573826,0.00003840,0.00004133,-0.
 00004099,-0.00000728,-0.00000582,0.00000517,-0.00000035,-0.00001066,0.
 00000398,-0.00000535,-0.00000153,0.00000644,0.00000231,0.00000394,-0.0
 0007465,0.00000138,-0.00000646,0.00000724,0.00000515,-0.00000337,0.000
 00157,-0.00000509,0.00000262,0.00000837,0.00004247,-0.00006578,0.00005
 343,-0.00000079,0.00001620,-0.00000460,-0.00000570,-0.00000033,0.00000
 265,-0.00001498,0.00000935,-0.00000801,0.05371041,0.10817795,-0.250385
 16,-0.05164758,-0.12241008,0.27151513,0.00022381,-0.00001340,-0.000128
 94,0.00010604,0.00007111,0.00003546,0.00040549,0.00008156,-0.00003240,
 0.00036324,0.00008123,-0.00004633,-0.00003471,-0.00025411,0.00016681,-
 0.00002975,0.00000057,0.00002000,-0.00001398,0.00001056,-0.00002785,-0
 .00006641,-0.00000082,-0.00000889,-0.00017236,-0.00005718,-0.00010745,
 0.00033272,-0.00025777,-0.00030085,-0.00030149,-0.00006005,0.00010466,
 -0.00016302,-0.00005642,0.00001378,-0.00013043,0.00006791,0.00011289,-
 0.00010501,0.00031981,-0.00017280,0.00036249,-0.00277669,0.00589197,0.
 00001424,0.00036999,-0.00070834,0.00022659,0.00020820,-0.00155031,-0.0
 3408261,0.02426563,0.00669166,0.00005784,0.00006155,-0.00005637,-0.000
 01358,-0.00000777,0.00000650,-0.00000049,-0.00001248,0.00000962,-0.000
 00556,-0.00000681,0.00000981,0.00001483,-0.00000348,-0.00007733,0.0000
 1300,-0.00000397,0.00000633,0.00000405,-0.00001449,0.00000273,-0.00001
 291,0.00000708,0.00000691,0.00008552,-0.00008596,0.00013533,-0.0000058
 7,0.00003627,-0.00002290,-0.00001013,-0.00000114,-0.00001719,-0.000023
 84,0.00001403,-0.00001990,-0.11557883,0.07484510,0.07827835,-0.0018966
 6,0.00375948,0.00502107,0.13923955,-0.00005772,0.00002680,0.00005771,-
 0.00003976,-0.00002045,-0.00001936,-0.00012669,-0.00002634,0.00002004,
 -0.00020750,0.00006510,0.00028505,-0.00011496,0.00005914,-0.00011713,0
 .00000388,-0.00000199,-0.00000613,0.00000521,-0.00000493,0.00000906,0.
 00002065,0.00000028,0.00000488,0.00010172,0.00000291,0.00004548,-0.000
 10954,0.00008465,0.00009173,0.00006800,-0.00000618,-0.00006074,0.00005
 466,0.00001620,-0.00000214,0.00002500,-0.00001577,-0.00001776,0.000053
 39,-0.00009193,0.00006908,0.00035948,0.00091734,-0.00250174,-0.0001278
 1,-0.00043745,-0.00010070,0.00017198,-0.00031224,0.00078889,0.01053796
 ,-0.00119020,0.00298200,-0.00002013,-0.00001873,0.00001685,0.00000506,
 0.00000219,-0.00000180,0.00000004,0.00000313,-0.00000314,0.00000189,0.
 00000278,-0.00000313,-0.00001236,-0.00000215,0.00000818,-0.00000414,0.
 00000029,-0.00000068,-0.00000007,0.00000622,-0.00000061,0.00000561,-0.
 00000215,-0.00000085,-0.00002561,0.00003797,-0.00005590,0.00000170,-0.
 00001005,0.00000453,0.00000487,0.00000120,0.00001113,0.00000884,-0.000
 00605,0.00000959,0.07591549,-0.14482132,-0.09212622,-0.00914082,0.0113
 9070,0.00901306,-0.09135174,0.15002204,-0.00001284,0.00001895,-0.00008
 343,-0.00000391,0.00000126,-0.00000579,-0.00003765,-0.00000223,0.00004
 628,-0.00010931,-0.00014772,0.00021151,-0.00010252,0.00013452,-0.00000
 850,0.00000547,0.00000178,-0.00000578,-0.00000009,-0.00000303,-0.00000
 212,-0.00002329,-0.00000319,-0.00000114,0.00001883,-0.00004588,-0.0000
 3006,0.00005069,-0.00006639,-0.00012499,0.00010961,0.00005120,-0.00000
 446,0.00000876,0.00000358,0.00000458,0.00001614,0.00000215,0.00001759,
 -0.00000410,0.00002519,-0.00000947,-0.00208955,0.00149834,0.00481455,-
 0.00001100,-0.00012564,-0.00048705,0.00127213,-0.00146407,0.00065326,-
 0.01364348,0.01336659,0.01056616,-0.00000260,-0.00000426,-0.00000156,0
 .00000108,-0.00000004,0.00000065,-0.00000031,0.00000040,-0.00000108,-0
 .00000035,0.00000207,0.00000054,-0.00000450,0.00000048,-0.00001375,-0.
 00000343,-0.00000355,-0.00000046,0.00000148,0.00000295,0.00000003,0.00
 000205,-0.00000108,0.00000073,0.00000061,0.00002503,-0.00000025,-0.000
 00187,0.00000321,-0.00000538,0.00000117,-0.00000086,0.00000083,0.00000
 198,-0.00000121,-0.00000012,0.08255138,-0.09329382,-0.15161446,0.01316
 292,-0.01764190,-0.01435099,-0.08445115,0.10002827,0.15274333,0.000149
 18,-0.00006733,-0.00000155,0.00009464,0.00005163,0.00004568,0.00066451
 ,0.00013456,-0.00012173,0.00031616,0.00020869,0.00014960,0.00000994,-0
 .00030159,-0.00004579,-0.00002321,0.00000795,0.00001013,-0.00001111,0.
 00000064,-0.00002796,-0.00001195,0.00000402,-0.00000543,-0.00018563,-0
 .00000612,-0.00005802,0.00012869,-0.00016894,-0.00009411,-0.00032619,0
 .00003196,0.00018254,-0.00014393,-0.00002012,0.00001598,-0.00011776,0.
 00008516,0.00011578,-0.00004716,0.00023171,-0.00005251,0.00043956,-0.0
 0331708,0.00557510,0.00061826,0.00131896,-0.00081374,0.00002223,0.0004
 0192,-0.00073472,-0.03312954,-0.02070673,-0.01755358,0.00005653,0.0000
 4619,-0.00004801,-0.00001165,-0.00000578,0.00000485,-0.00000082,-0.000
 00817,0.00000764,-0.00000623,-0.00000536,0.00000944,-0.00001261,-0.000
 01746,-0.00008608,0.00000794,-0.00000143,0.00000587,0.00000737,-0.0000
 0308,0.00000269,-0.00000518,0.00000674,0.00000861,0.00005305,-0.000060
 60,0.00006915,-0.00000327,0.00002600,-0.00001294,-0.00000716,-0.000000
 84,0.00000196,-0.00001371,0.00000826,-0.00000889,-0.10586324,-0.100352
 74,-0.01937188,-0.00170364,-0.00637488,-0.00045993,0.01119824,0.013993
 43,0.00329766,0.12785770,0.00004564,-0.00000500,-0.00001574,0.00001776
 ,0.00001794,0.00001881,0.00010196,-0.00002908,0.00003910,0.00022334,0.
 00042969,-0.00024261,-0.00006404,-0.00011412,-0.00001413,-0.00000564,0
 .00000197,-0.00000678,-0.00000576,-0.00000471,-0.00000967,-0.00000920,
 0.00000159,0.00000002,-0.00007135,-0.00003268,-0.00003719,0.00005470,-
 0.00001483,-0.00002375,0.00002566,-0.00003349,0.00010732,-0.00002830,0
 .00000195,-0.00000189,-0.00003380,0.00002889,0.00003663,0.00000409,0.0
 0007087,-0.00000312,0.00146696,0.00306457,0.00014915,-0.00103035,-0.00
 023181,-0.00165432,0.00006656,-0.00053610,-0.00004132,0.00382019,0.013
 75704,0.00274306,0.00001160,0.,-0.00000787,-0.00000273,-0.00000039,-0.
 00000033,-0.00000079,0.00000195,0.00000198,-0.00000010,-0.00000116,0.0
 0000272,-0.00000852,-0.00001007,-0.00002640,0.00000344,0.00000067,0.00
 000171,0.00000303,-0.00000081,0.00000102,-0.00000184,0.00000215,0.0000
 0251,0.00001596,-0.00002094,0.00001948,-0.00000207,0.00001117,-0.00000
 460,-0.00000214,-0.00000216,0.00000068,-0.00000238,0.00000199,-0.00000
 243,-0.10469952,-0.24341081,-0.03778181,-0.00551697,-0.01098321,-0.003
 38531,-0.00923579,-0.01567100,-0.00236110,0.11486041,0.25370990,0.0000
 2789,-0.00001289,-0.00001753,0.00002774,0.00000527,0.00001164,0.000197
 08,0.00009865,-0.00002761,-0.00007232,0.00002427,0.00004408,0.00001041
 ,-0.00011281,0.00006193,0.00000686,0.00000468,-0.00000371,0.00000160,0
 .00000370,-0.00000677,-0.00000881,-0.00000009,-0.00000501,-0.00008406,
 0.00002438,-0.00001687,0.00006585,-0.00006170,-0.00004013,0.00007317,0
 .00011030,0.00003143,-0.00003578,-0.00000523,0.00000361,-0.00001810,0.
 00001486,0.00000997,0.00003489,0.00003898,-0.00004040,-0.00133733,-0.0
 0408931,0.00273052,0.00086264,0.00074635,0.00030113,0.00013894,0.00005
 300,-0.00036340,-0.01671816,-0.00821087,-0.00605355,0.00001410,0.00001
 442,-0.00001124,-0.00000285,-0.00000175,0.00000142,0.00000006,-0.00000
 290,0.00000147,-0.00000183,-0.00000146,0.00000206,0.00000332,-0.000001
 69,-0.00000659,0.00000314,0.00000153,0.00000053,0.00000047,-0.00000345
 ,0.00000225,-0.00000229,0.00000152,0.00000084,0.00001048,-0.00000407,0
 .00000653,-0.00000324,0.00000758,-0.00000205,-0.00000523,-0.00000064,-
 0.00000154,0.00000038,0.00000002,0.00000016,-0.01802964,-0.03653462,-0
 .06221705,0.01363130,0.02382530,0.00791011,-0.00878489,-0.01842749,-0.
 00230920,0.02999421,0.04249617,0.06000297\\-0.00000784,-0.00000921,0.0
 0000446,0.00002148,0.00001872,-0.00000093,0.00000675,0.00000349,-0.000
 01271,0.00000216,-0.00000841,-0.00000348,0.00000638,0.00000217,-0.0000
 0831,-0.00000041,-0.00000139,0.00000054,-0.00000940,-0.00000094,0.0000
 0106,0.00000341,0.00000222,-0.00000337,0.00000624,-0.00000469,0.000002
 40,0.00000166,-0.00000601,0.00000357,-0.00000332,-0.00000244,-0.000005
 42,-0.00001213,0.00000515,-0.00001357,-0.00000575,0.00000309,0.0000046
 2,0.00000117,-0.00000024,0.00000693,-0.00000244,0.00000365,0.00001390,
 0.00000483,-0.00000524,0.00000197,0.00000297,-0.00000161,-0.00000321,0
 .00000049,-0.00000341,0.00000042,-0.00000390,-0.00000482,-0.00000020,-
 0.00000096,0.00000560,-0.00000690,-0.00000607,0.00000235,-0.00000374,-
 0.00000013,0.00000345,-0.00000451,0.00000197,0.00000757,0.00000211,-0.
 00000604,-0.00000174,0.00000088,-0.00000373,-0.00000040,0.00000425,0.0
 0000081,0.00000102,-0.00000014,0.00000301,0.00000102,0.00000342,0.0000
 0343,0.00000057,0.00000274,0.00000371,0.00000363,0.00000253,0.00000399
 ,0.00000384,0.00000003,-0.00000618,-0.00000354,0.00000314,-0.00000471,
 -0.00000349,0.00000085,-0.00000152,-0.00000443,0.00000192,0.00000006,-
 0.00000555,0.00000476\\\@


 CHEMISTRY BEGAN BY SAYING IT WOULD CHANGE THE BASER
 METALS INTO GOLD.  BY NOT DOING THAT IT HAS DONE MUCH
 GREATER THINGS.  --  RALPH WALDO EMERSON
 Job cpu time:       0 days  2 hours 55 minutes 21.6 seconds.
 Elapsed time:       0 days  0 hours 47 minutes 13.2 seconds.
 File lengths (MBytes):  RWF=    379 Int=      0 D2E=      0 Chk=     17 Scr=      1
 Normal termination of Gaussian 16 at Fri May 24 09:23:38 2019.
