 Entering Gaussian System, Link 0=g16
 Input=clay-glucose_cation-163-b3lyp_d3bj-631gd-pcm_thf.gjf
 Output=clay-glucose_cation-163-b3lyp_d3bj-631gd-pcm_thf.out
 Initial command:
 /n/sw/g16_nehalem/g16/l1.exe "/scratch/Gau-28265.inp" -scrdir="/scratch/"
 Entering Link 1 = /n/sw/g16_nehalem/g16/l1.exe PID=     28270.
  
 Copyright (c) 1988,1990,1992,1993,1995,1998,2003,2009,2016,
            Gaussian, Inc.  All Rights Reserved.
  
 This is part of the Gaussian(R) 16 program.  It is based on
 the Gaussian(R) 09 system (copyright 2009, Gaussian, Inc.),
 the Gaussian(R) 03 system (copyright 2003, Gaussian, Inc.),
 the Gaussian(R) 98 system (copyright 1998, Gaussian, Inc.),
 the Gaussian(R) 94 system (copyright 1995, Gaussian, Inc.),
 the Gaussian 92(TM) system (copyright 1992, Gaussian, Inc.),
 the Gaussian 90(TM) system (copyright 1990, Gaussian, Inc.),
 the Gaussian 88(TM) system (copyright 1988, Gaussian, Inc.),
 the Gaussian 86(TM) system (copyright 1986, Carnegie Mellon
 University), and the Gaussian 82(TM) system (copyright 1983,
 Carnegie Mellon University). Gaussian is a federally registered
 trademark of Gaussian, Inc.
  
 This software contains proprietary and confidential information,
 including trade secrets, belonging to Gaussian, Inc.
  
 This software is provided under written license and may be
 used, copied, transmitted, or stored only in accord with that
 written license.
  
 The following legend is applicable only to US Government
 contracts under FAR:
  
                    RESTRICTED RIGHTS LEGEND
  
 Use, reproduction and disclosure by the US Government is
 subject to restrictions as set forth in subparagraphs (a)
 and (c) of the Commercial Computer Software - Restricted
 Rights clause in FAR 52.227-19.
  
 Gaussian, Inc.
 340 Quinnipiac St., Bldg. 40, Wallingford CT 06492
  
  
 ---------------------------------------------------------------
 Warning -- This program may not be used in any manner that
 competes with the business of Gaussian, Inc. or will provide
 assistance to any competitor of Gaussian, Inc.  The licensee
 of this program is prohibited from giving any competitor of
 Gaussian, Inc. access to this program.  By using this program,
 the user acknowledges that Gaussian, Inc. is engaged in the
 business of creating and licensing software in the field of
 computational chemistry and represents and warrants to the
 licensee that it is not a competitor of Gaussian, Inc. and that
 it will not use this program in any manner prohibited above.
 ---------------------------------------------------------------
  

 Cite this work as:
 Gaussian 16, Revision A.03,
 M. J. Frisch, G. W. Trucks, H. B. Schlegel, G. E. Scuseria, 
 M. A. Robb, J. R. Cheeseman, G. Scalmani, V. Barone, 
 G. A. Petersson, H. Nakatsuji, X. Li, M. Caricato, A. V. Marenich, 
 J. Bloino, B. G. Janesko, R. Gomperts, B. Mennucci, H. P. Hratchian, 
 J. V. Ortiz, A. F. Izmaylov, J. L. Sonnenberg, D. Williams-Young, 
 F. Ding, F. Lipparini, F. Egidi, J. Goings, B. Peng, A. Petrone, 
 T. Henderson, D. Ranasinghe, V. G. Zakrzewski, J. Gao, N. Rega, 
 G. Zheng, W. Liang, M. Hada, M. Ehara, K. Toyota, R. Fukuda, 
 J. Hasegawa, M. Ishida, T. Nakajima, Y. Honda, O. Kitao, H. Nakai, 
 T. Vreven, K. Throssell, J. A. Montgomery, Jr., J. E. Peralta, 
 F. Ogliaro, M. J. Bearpark, J. J. Heyd, E. N. Brothers, K. N. Kudin, 
 V. N. Staroverov, T. A. Keith, R. Kobayashi, J. Normand, 
 K. Raghavachari, A. P. Rendell, J. C. Burant, S. S. Iyengar, 
 J. Tomasi, M. Cossi, J. M. Millam, M. Klene, C. Adamo, R. Cammi, 
 J. W. Ochterski, R. L. Martin, K. Morokuma, O. Farkas, 
 J. B. Foresman, and D. J. Fox, Gaussian, Inc., Wallingford CT, 2016.
 
 ******************************************
 Gaussian 16:  ES64L-G16RevA.03 25-Dec-2016
                24-May-2019 
 ******************************************
 %nprocshared=4
 Will use up to    4 processors via shared memory.
 %mem=3GB
 -------------------------------------------------------------------
 #p b3lyp 6-31g* opt freq=noraman scrf=(pcm,solvent=tetrahydrofuran)
 -------------------------------------------------------------------
 1/18=20,19=15,26=3,38=1/1,3;
 2/9=110,12=2,17=6,18=5,40=1/2;
 3/5=1,6=6,7=1,11=2,25=1,30=1,70=2201,71=1,72=20,74=-5/1,2,3;
 4//1;
 5/5=2,38=5,53=20/2;
 6/7=2,8=2,9=2,10=2,28=1/1;
 7//1,2,3,16;
 1/18=20,19=15,26=3/3(2);
 2/9=110/2;
 99//99;
 2/9=110/2;
 3/5=1,6=6,7=1,11=2,25=1,30=1,70=2205,71=1,72=20,74=-5/1,2,3;
 4/5=5,16=3,69=1/1;
 5/5=2,38=5,53=20/2;
 7//1,2,3,16;
 1/18=20,19=15,26=3/3(-5);
 2/9=110/2;
 6/7=2,8=2,9=2,10=2,19=2,28=1/1;
 99/9=1/99;
 Leave Link    1 at Fri May 24 08:32:10 2019, MaxMem=   402653184 cpu:               0.4 elap:               0.2
 (Enter /n/sw/g16_nehalem/g16/l101.exe)
 -----
 title
 -----
 Symbolic Z-matrix:
 Charge =  1 Multiplicity = 1
 6                     1.28979   0.66274  -0.06647 
 6                     1.92214  -0.72034  -0.3215 
 6                     1.04479  -1.74449  -0.95965 
 6                    -0.92197  -0.61467  -0.1788 
 6                    -0.18299   0.69103  -0.54296 
 1                     1.45977  -2.62551  -1.44709 
 1                     2.86046  -0.59792  -0.86708 
 1                     1.34163   0.82982   1.0181 
 1                    -0.85275  -0.86705   0.88247 
 1                    -0.1602    0.75668  -1.63834 
 8                    -0.21289  -1.75058  -0.85642 
 8                     2.07402  -1.48133   0.88566 
 8                     2.07993   1.5981   -0.76675 
 8                    -0.90355   1.83023  -0.13675 
 6                    -2.38325  -0.68987  -0.62209 
 1                    -2.55124  -1.63461  -1.16089 
 1                    -2.61731   0.13956  -1.30388 
 8                    -3.16765  -0.62285   0.55019 
 6                     3.39514  -2.0105    1.13219 
 1                     4.1092   -1.18644   1.22511 
 1                     3.3185   -2.5552    2.07319 
 1                     3.70918  -2.6917    0.33602 
 6                     2.0604    2.93098  -0.2477 
 1                     2.32742   2.93795   0.81795 
 1                     2.81557   3.48404  -0.80949 
 1                     1.08274   3.4029   -0.38241 
 6                    -1.19211   1.98377   1.26196 
 1                    -0.28705   1.96254   1.87946 
 1                    -1.65425   2.96786   1.35312 
 1                    -1.89735   1.22098   1.60604 
 6                    -4.56204  -0.56744   0.27241 
 1                    -4.81645   0.32324  -0.31889 
 1                    -4.89411  -1.46304  -0.27141 
 1                    -5.07212  -0.52007   1.2363 
 
 ITRead=  0  0  0  0  0  0  0  0  0  0  0  0  0  0  0  0  0  0  0  0
 ITRead=  0  0  0  0  0  0  0  0  0  0  0  0  0  0
 MicOpt= -1 -1 -1 -1 -1 -1 -1 -1 -1 -1 -1 -1 -1 -1 -1 -1 -1 -1 -1 -1
 MicOpt= -1 -1 -1 -1 -1 -1 -1 -1 -1 -1 -1 -1 -1 -1
 NAtoms=     34 NQM=       34 NQMF=       0 NMMI=      0 NMMIF=      0
                NMic=       0 NMicF=      0.
                    Isotopes and Nuclear Properties:
 (Nuclear quadrupole moments (NQMom) in fm**2, nuclear magnetic moments (NMagM)
  in nuclear magnetons)

  Atom         1           2           3           4           5           6           7           8           9          10
 IAtWgt=          12          12          12          12          12           1           1           1           1           1
 AtmWgt=  12.0000000  12.0000000  12.0000000  12.0000000  12.0000000   1.0078250   1.0078250   1.0078250   1.0078250   1.0078250
 NucSpn=           0           0           0           0           0           1           1           1           1           1
 AtZEff=   0.0000000   0.0000000   0.0000000   0.0000000   0.0000000   0.0000000   0.0000000   0.0000000   0.0000000   0.0000000
 NQMom=    0.0000000   0.0000000   0.0000000   0.0000000   0.0000000   0.0000000   0.0000000   0.0000000   0.0000000   0.0000000
 NMagM=    0.0000000   0.0000000   0.0000000   0.0000000   0.0000000   2.7928460   2.7928460   2.7928460   2.7928460   2.7928460
 AtZNuc=   6.0000000   6.0000000   6.0000000   6.0000000   6.0000000   1.0000000   1.0000000   1.0000000   1.0000000   1.0000000

  Atom        11          12          13          14          15          16          17          18          19          20
 IAtWgt=          16          16          16          16          12           1           1          16          12           1
 AtmWgt=  15.9949146  15.9949146  15.9949146  15.9949146  12.0000000   1.0078250   1.0078250  15.9949146  12.0000000   1.0078250
 NucSpn=           0           0           0           0           0           1           1           0           0           1
 AtZEff=   0.0000000   0.0000000   0.0000000   0.0000000   0.0000000   0.0000000   0.0000000   0.0000000   0.0000000   0.0000000
 NQMom=    0.0000000   0.0000000   0.0000000   0.0000000   0.0000000   0.0000000   0.0000000   0.0000000   0.0000000   0.0000000
 NMagM=    0.0000000   0.0000000   0.0000000   0.0000000   0.0000000   2.7928460   2.7928460   0.0000000   0.0000000   2.7928460
 AtZNuc=   8.0000000   8.0000000   8.0000000   8.0000000   6.0000000   1.0000000   1.0000000   8.0000000   6.0000000   1.0000000

  Atom        21          22          23          24          25          26          27          28          29          30
 IAtWgt=           1           1          12           1           1           1          12           1           1           1
 AtmWgt=   1.0078250   1.0078250  12.0000000   1.0078250   1.0078250   1.0078250  12.0000000   1.0078250   1.0078250   1.0078250
 NucSpn=           1           1           0           1           1           1           0           1           1           1
 AtZEff=   0.0000000   0.0000000   0.0000000   0.0000000   0.0000000   0.0000000   0.0000000   0.0000000   0.0000000   0.0000000
 NQMom=    0.0000000   0.0000000   0.0000000   0.0000000   0.0000000   0.0000000   0.0000000   0.0000000   0.0000000   0.0000000
 NMagM=    2.7928460   2.7928460   0.0000000   2.7928460   2.7928460   2.7928460   0.0000000   2.7928460   2.7928460   2.7928460
 AtZNuc=   1.0000000   1.0000000   6.0000000   1.0000000   1.0000000   1.0000000   6.0000000   1.0000000   1.0000000   1.0000000

  Atom        31          32          33          34
 IAtWgt=          12           1           1           1
 AtmWgt=  12.0000000   1.0078250   1.0078250   1.0078250
 NucSpn=           0           1           1           1
 AtZEff=   0.0000000   0.0000000   0.0000000   0.0000000
 NQMom=    0.0000000   0.0000000   0.0000000   0.0000000
 NMagM=    0.0000000   2.7928460   2.7928460   2.7928460
 AtZNuc=   6.0000000   1.0000000   1.0000000   1.0000000
 Leave Link  101 at Fri May 24 08:32:10 2019, MaxMem=   402653184 cpu:               0.6 elap:               0.2
 (Enter /n/sw/g16_nehalem/g16/l103.exe)

 GradGradGradGradGradGradGradGradGradGradGradGradGradGradGradGradGradGrad
 Berny optimization.
 Initialization pass.
                           ----------------------------
                           !    Initial Parameters    !
                           ! (Angstroms and Degrees)  !
 --------------------------                            --------------------------
 ! Name  Definition              Value          Derivative Info.                !
 --------------------------------------------------------------------------------
 ! R1    R(1,2)                  1.542          estimate D2E/DX2                !
 ! R2    R(1,5)                  1.5482         estimate D2E/DX2                !
 ! R3    R(1,8)                  1.0986         estimate D2E/DX2                !
 ! R4    R(1,13)                 1.4105         estimate D2E/DX2                !
 ! R5    R(2,3)                  1.4919         estimate D2E/DX2                !
 ! R6    R(2,7)                  1.0923         estimate D2E/DX2                !
 ! R7    R(2,12)                 1.4351         estimate D2E/DX2                !
 ! R8    R(3,6)                  1.089          estimate D2E/DX2                !
 ! R9    R(3,11)                 1.2619         estimate D2E/DX2                !
 ! R10   R(4,5)                  1.5439         estimate D2E/DX2                !
 ! R11   R(4,9)                  1.0931         estimate D2E/DX2                !
 ! R12   R(4,11)                 1.5008         estimate D2E/DX2                !
 ! R13   R(4,15)                 1.5289         estimate D2E/DX2                !
 ! R14   R(5,10)                 1.0976         estimate D2E/DX2                !
 ! R15   R(5,14)                 1.4078         estimate D2E/DX2                !
 ! R16   R(12,19)                1.4444         estimate D2E/DX2                !
 ! R17   R(13,23)                1.4305         estimate D2E/DX2                !
 ! R18   R(14,27)                1.4364         estimate D2E/DX2                !
 ! R19   R(15,16)                1.1005         estimate D2E/DX2                !
 ! R20   R(15,17)                1.0989         estimate D2E/DX2                !
 ! R21   R(15,18)                1.4121         estimate D2E/DX2                !
 ! R22   R(18,31)                1.4229         estimate D2E/DX2                !
 ! R23   R(19,20)                1.0943         estimate D2E/DX2                !
 ! R24   R(19,21)                1.09           estimate D2E/DX2                !
 ! R25   R(19,22)                1.0939         estimate D2E/DX2                !
 ! R26   R(23,24)                1.0986         estimate D2E/DX2                !
 ! R27   R(23,25)                1.0917         estimate D2E/DX2                !
 ! R28   R(23,26)                1.0939         estimate D2E/DX2                !
 ! R29   R(27,28)                1.0959         estimate D2E/DX2                !
 ! R30   R(27,29)                1.091          estimate D2E/DX2                !
 ! R31   R(27,30)                1.0944         estimate D2E/DX2                !
 ! R32   R(31,32)                1.0989         estimate D2E/DX2                !
 ! R33   R(31,33)                1.0991         estimate D2E/DX2                !
 ! R34   R(31,34)                1.0916         estimate D2E/DX2                !
 ! A1    A(2,1,5)              110.8298         estimate D2E/DX2                !
 ! A2    A(2,1,8)              106.2808         estimate D2E/DX2                !
 ! A3    A(2,1,13)             106.4364         estimate D2E/DX2                !
 ! A4    A(5,1,8)              110.2396         estimate D2E/DX2                !
 ! A5    A(5,1,13)             111.5899         estimate D2E/DX2                !
 ! A6    A(8,1,13)             111.2751         estimate D2E/DX2                !
 ! A7    A(1,2,3)              116.4421         estimate D2E/DX2                !
 ! A8    A(1,2,7)              109.534          estimate D2E/DX2                !
 ! A9    A(1,2,12)             112.3274         estimate D2E/DX2                !
 ! A10   A(3,2,7)              111.621          estimate D2E/DX2                !
 ! A11   A(3,2,12)              93.3262         estimate D2E/DX2                !
 ! A12   A(7,2,12)             112.8721         estimate D2E/DX2                !
 ! A13   A(2,3,6)              121.5134         estimate D2E/DX2                !
 ! A14   A(2,3,11)             123.6705         estimate D2E/DX2                !
 ! A15   A(6,3,11)             114.3607         estimate D2E/DX2                !
 ! A16   A(5,4,9)              113.2017         estimate D2E/DX2                !
 ! A17   A(5,4,11)             107.9066         estimate D2E/DX2                !
 ! A18   A(5,4,15)             115.5113         estimate D2E/DX2                !
 ! A19   A(9,4,11)             103.5156         estimate D2E/DX2                !
 ! A20   A(9,4,15)             109.3105         estimate D2E/DX2                !
 ! A21   A(11,4,15)            106.4662         estimate D2E/DX2                !
 ! A22   A(1,5,4)              111.5479         estimate D2E/DX2                !
 ! A23   A(1,5,10)             106.7675         estimate D2E/DX2                !
 ! A24   A(1,5,14)             114.3853         estimate D2E/DX2                !
 ! A25   A(4,5,10)             107.213          estimate D2E/DX2                !
 ! A26   A(4,5,14)             111.7968         estimate D2E/DX2                !
 ! A27   A(10,5,14)            104.489          estimate D2E/DX2                !
 ! A28   A(3,11,4)             120.2767         estimate D2E/DX2                !
 ! A29   A(2,12,19)            115.7636         estimate D2E/DX2                !
 ! A30   A(1,13,23)            115.4726         estimate D2E/DX2                !
 ! A31   A(5,14,27)            118.0525         estimate D2E/DX2                !
 ! A32   A(4,15,16)            109.2739         estimate D2E/DX2                !
 ! A33   A(4,15,17)            110.2643         estimate D2E/DX2                !
 ! A34   A(4,15,18)            106.7317         estimate D2E/DX2                !
 ! A35   A(16,15,17)           108.1604         estimate D2E/DX2                !
 ! A36   A(16,15,18)           111.2475         estimate D2E/DX2                !
 ! A37   A(17,15,18)           111.1568         estimate D2E/DX2                !
 ! A38   A(15,18,31)           112.591          estimate D2E/DX2                !
 ! A39   A(12,19,20)           109.5991         estimate D2E/DX2                !
 ! A40   A(12,19,21)           105.4338         estimate D2E/DX2                !
 ! A41   A(12,19,22)           111.5014         estimate D2E/DX2                !
 ! A42   A(20,19,21)           110.4193         estimate D2E/DX2                !
 ! A43   A(20,19,22)           110.0851         estimate D2E/DX2                !
 ! A44   A(21,19,22)           109.7149         estimate D2E/DX2                !
 ! A45   A(13,23,24)           110.7658         estimate D2E/DX2                !
 ! A46   A(13,23,25)           106.0138         estimate D2E/DX2                !
 ! A47   A(13,23,26)           111.6837         estimate D2E/DX2                !
 ! A48   A(24,23,25)           109.1366         estimate D2E/DX2                !
 ! A49   A(24,23,26)           109.5075         estimate D2E/DX2                !
 ! A50   A(25,23,26)           109.6517         estimate D2E/DX2                !
 ! A51   A(14,27,28)           112.3782         estimate D2E/DX2                !
 ! A52   A(14,27,29)           105.2405         estimate D2E/DX2                !
 ! A53   A(14,27,30)           111.1697         estimate D2E/DX2                !
 ! A54   A(28,27,29)           108.6769         estimate D2E/DX2                !
 ! A55   A(28,27,30)           109.9723         estimate D2E/DX2                !
 ! A56   A(29,27,30)           109.2359         estimate D2E/DX2                !
 ! A57   A(18,31,32)           111.314          estimate D2E/DX2                !
 ! A58   A(18,31,33)           111.1572         estimate D2E/DX2                !
 ! A59   A(18,31,34)           106.6924         estimate D2E/DX2                !
 ! A60   A(32,31,33)           108.9199         estimate D2E/DX2                !
 ! A61   A(32,31,34)           109.3769         estimate D2E/DX2                !
 ! A62   A(33,31,34)           109.3345         estimate D2E/DX2                !
 ! D1    D(5,1,2,3)              0.2048         estimate D2E/DX2                !
 ! D2    D(5,1,2,7)            128.0181         estimate D2E/DX2                !
 ! D3    D(5,1,2,12)          -105.7152         estimate D2E/DX2                !
 ! D4    D(8,1,2,3)            119.9879         estimate D2E/DX2                !
 ! D5    D(8,1,2,7)           -112.1988         estimate D2E/DX2                !
 ! D6    D(8,1,2,12)            14.0679         estimate D2E/DX2                !
 ! D7    D(13,1,2,3)          -121.3091         estimate D2E/DX2                !
 ! D8    D(13,1,2,7)             6.5042         estimate D2E/DX2                !
 ! D9    D(13,1,2,12)          132.7709         estimate D2E/DX2                !
 ! D10   D(2,1,5,4)             41.2226         estimate D2E/DX2                !
 ! D11   D(2,1,5,10)           -75.6022         estimate D2E/DX2                !
 ! D12   D(2,1,5,14)           169.3433         estimate D2E/DX2                !
 ! D13   D(8,1,5,4)            -76.1626         estimate D2E/DX2                !
 ! D14   D(8,1,5,10)           167.0126         estimate D2E/DX2                !
 ! D15   D(8,1,5,14)            51.9581         estimate D2E/DX2                !
 ! D16   D(13,1,5,4)           159.6561         estimate D2E/DX2                !
 ! D17   D(13,1,5,10)           42.8313         estimate D2E/DX2                !
 ! D18   D(13,1,5,14)          -72.2232         estimate D2E/DX2                !
 ! D19   D(2,1,13,23)         -154.2073         estimate D2E/DX2                !
 ! D20   D(5,1,13,23)           84.7645         estimate D2E/DX2                !
 ! D21   D(8,1,13,23)          -38.8325         estimate D2E/DX2                !
 ! D22   D(1,2,3,6)            161.3246         estimate D2E/DX2                !
 ! D23   D(1,2,3,11)           -26.8606         estimate D2E/DX2                !
 ! D24   D(7,2,3,6)             34.5399         estimate D2E/DX2                !
 ! D25   D(7,2,3,11)          -153.6453         estimate D2E/DX2                !
 ! D26   D(12,2,3,6)           -81.6809         estimate D2E/DX2                !
 ! D27   D(12,2,3,11)           90.1338         estimate D2E/DX2                !
 ! D28   D(1,2,12,19)         -127.778          estimate D2E/DX2                !
 ! D29   D(3,2,12,19)          111.82           estimate D2E/DX2                !
 ! D30   D(7,2,12,19)           -3.337          estimate D2E/DX2                !
 ! D31   D(2,3,11,4)             6.306          estimate D2E/DX2                !
 ! D32   D(6,3,11,4)           178.6492         estimate D2E/DX2                !
 ! D33   D(9,4,5,1)             53.5434         estimate D2E/DX2                !
 ! D34   D(9,4,5,10)           170.0975         estimate D2E/DX2                !
 ! D35   D(9,4,5,14)           -75.9497         estimate D2E/DX2                !
 ! D36   D(11,4,5,1)           -60.3928         estimate D2E/DX2                !
 ! D37   D(11,4,5,10)           56.1613         estimate D2E/DX2                !
 ! D38   D(11,4,5,14)          170.1141         estimate D2E/DX2                !
 ! D39   D(15,4,5,1)          -179.3567         estimate D2E/DX2                !
 ! D40   D(15,4,5,10)          -62.8026         estimate D2E/DX2                !
 ! D41   D(15,4,5,14)           51.1501         estimate D2E/DX2                !
 ! D42   D(5,4,11,3)            37.0992         estimate D2E/DX2                !
 ! D43   D(9,4,11,3)           -83.1316         estimate D2E/DX2                !
 ! D44   D(15,4,11,3)          161.6736         estimate D2E/DX2                !
 ! D45   D(5,4,15,16)          129.4628         estimate D2E/DX2                !
 ! D46   D(5,4,15,17)           10.7072         estimate D2E/DX2                !
 ! D47   D(5,4,15,18)         -110.1388         estimate D2E/DX2                !
 ! D48   D(9,4,15,16)         -101.504          estimate D2E/DX2                !
 ! D49   D(9,4,15,17)          139.7404         estimate D2E/DX2                !
 ! D50   D(9,4,15,18)           18.8944         estimate D2E/DX2                !
 ! D51   D(11,4,15,16)           9.7069         estimate D2E/DX2                !
 ! D52   D(11,4,15,17)        -109.0487         estimate D2E/DX2                !
 ! D53   D(11,4,15,18)         130.1053         estimate D2E/DX2                !
 ! D54   D(1,5,14,27)          -68.0232         estimate D2E/DX2                !
 ! D55   D(4,5,14,27)           59.9711         estimate D2E/DX2                !
 ! D56   D(10,5,14,27)         175.5987         estimate D2E/DX2                !
 ! D57   D(2,12,19,20)          61.5154         estimate D2E/DX2                !
 ! D58   D(2,12,19,21)        -179.6357         estimate D2E/DX2                !
 ! D59   D(2,12,19,22)         -60.6301         estimate D2E/DX2                !
 ! D60   D(1,13,23,24)          54.2079         estimate D2E/DX2                !
 ! D61   D(1,13,23,25)         172.4748         estimate D2E/DX2                !
 ! D62   D(1,13,23,26)         -68.1425         estimate D2E/DX2                !
 ! D63   D(5,14,27,28)          56.1263         estimate D2E/DX2                !
 ! D64   D(5,14,27,29)         174.2327         estimate D2E/DX2                !
 ! D65   D(5,14,27,30)         -67.6232         estimate D2E/DX2                !
 ! D66   D(4,15,18,31)         174.9461         estimate D2E/DX2                !
 ! D67   D(16,15,18,31)        -65.9297         estimate D2E/DX2                !
 ! D68   D(17,15,18,31)         54.6716         estimate D2E/DX2                !
 ! D69   D(15,18,31,32)        -60.8283         estimate D2E/DX2                !
 ! D70   D(15,18,31,33)         60.7866         estimate D2E/DX2                !
 ! D71   D(15,18,31,34)        179.9096         estimate D2E/DX2                !
 --------------------------------------------------------------------------------
 Trust Radius=3.00D-01 FncErr=1.00D-07 GrdErr=1.00D-06 EigMax=2.50D+02 EigMin=1.00D-04
 Number of steps in this run=    177 maximum allowed number of steps=    204.
 GradGradGradGradGradGradGradGradGradGradGradGradGradGradGradGradGradGrad

 Leave Link  103 at Fri May 24 08:32:10 2019, MaxMem=   402653184 cpu:               0.2 elap:               0.1
 (Enter /n/sw/g16_nehalem/g16/l202.exe)
                          Input orientation:                          
 ---------------------------------------------------------------------
 Center     Atomic      Atomic             Coordinates (Angstroms)
 Number     Number       Type             X           Y           Z
 ---------------------------------------------------------------------
      1          6           0        1.289793    0.662736   -0.066467
      2          6           0        1.922141   -0.720336   -0.321503
      3          6           0        1.044786   -1.744486   -0.959645
      4          6           0       -0.921972   -0.614671   -0.178799
      5          6           0       -0.182994    0.691033   -0.542962
      6          1           0        1.459773   -2.625513   -1.447091
      7          1           0        2.860463   -0.597921   -0.867081
      8          1           0        1.341625    0.829817    1.018097
      9          1           0       -0.852745   -0.867045    0.882474
     10          1           0       -0.160197    0.756676   -1.638341
     11          8           0       -0.212887   -1.750579   -0.856423
     12          8           0        2.074018   -1.481327    0.885664
     13          8           0        2.079933    1.598103   -0.766750
     14          8           0       -0.903545    1.830234   -0.136751
     15          6           0       -2.383246   -0.689867   -0.622087
     16          1           0       -2.551242   -1.634614   -1.160891
     17          1           0       -2.617314    0.139560   -1.303882
     18          8           0       -3.167648   -0.622849    0.550186
     19          6           0        3.395142   -2.010498    1.132189
     20          1           0        4.109197   -1.186443    1.225110
     21          1           0        3.318499   -2.555200    2.073185
     22          1           0        3.709181   -2.691702    0.336020
     23          6           0        2.060399    2.930978   -0.247700
     24          1           0        2.327419    2.937949    0.817952
     25          1           0        2.815570    3.484039   -0.809489
     26          1           0        1.082740    3.402902   -0.382411
     27          6           0       -1.192106    1.983766    1.261955
     28          1           0       -0.287045    1.962537    1.879456
     29          1           0       -1.654252    2.967863    1.353116
     30          1           0       -1.897353    1.220978    1.606042
     31          6           0       -4.562043   -0.567436    0.272406
     32          1           0       -4.816454    0.323244   -0.318892
     33          1           0       -4.894111   -1.463036   -0.271413
     34          1           0       -5.072117   -0.520069    1.236302
 ---------------------------------------------------------------------
                    Distance matrix (angstroms):
                    1          2          3          4          5
     1  C    0.000000
     2  C    1.542010   0.000000
     3  C    2.579247   1.491932   0.000000
     4  C    2.556617   2.849651   2.398820   0.000000
     5  C    1.548209   2.544130   2.759134   1.543880   0.000000
     6  H    3.570378   2.260626   1.089048   3.365228   3.809936
     7  H    2.167312   1.092286   2.149387   3.844584   3.321007
     8  H    1.098582   2.129437   3.259849   2.939894   2.186465
     9  H    2.798426   3.028379   2.786383   1.093062   2.215410
    10  H    2.140580   2.872587   2.858045   2.142698   1.097581
    11  O    2.950621   2.430203   1.261917   1.500754   2.461833
    12  O    2.473574   1.435070   2.129257   3.295471   3.442996
    13  O    1.410542   2.366073   3.504517   3.775379   2.448203
    14  O    2.485704   3.811042   4.153525   2.445336   1.407828
    15  C    3.953412   4.315975   3.602439   1.528882   2.598895
    16  H    4.607508   4.642374   3.603330   2.158543   3.376251
    17  H    4.131633   4.723467   4.132687   2.169991   2.609413
    18  O    4.679933   5.164813   4.613270   2.361048   3.439392
    19  C    3.607693   2.438744   3.157642   4.722764   4.786174
    20  H    3.610633   2.718912   3.804626   5.254574   5.007384
    21  H    4.364501   3.324315   3.876221   5.178675   5.444512
    22  H    4.155441   2.740827   3.110461   5.101634   5.231112
    23  C    2.402416   3.654676   4.837179   4.633671   3.183920
    24  H    2.652444   3.853006   5.170125   4.916621   3.633578
    25  H    3.292389   4.325866   5.522291   5.582689   4.106495
    26  H    2.766080   4.208253   5.179792   4.494577   2.997014
    27  C    3.109606   4.417923   4.882526   2.983391   2.438686
    28  H    2.821793   4.113700   4.855542   3.358801   2.737820
    29  H    3.999528   5.403494   5.902534   3.964536   3.308121
    30  H    3.642365   4.698155   4.902337   2.739823   2.799658
    31  C    5.989336   6.513121   5.860028   3.668233   4.628676
    32  H    6.120884   6.818924   6.248216   4.008279   4.653432
    33  H    6.542292   6.856778   5.985263   4.062781   5.187328
    34  H    6.600768   7.168438   6.613462   4.385791   5.341917
                    6          7          8          9         10
     6  H    0.000000
     7  H    2.531694   0.000000
     8  H    4.246224   2.810552   0.000000
     9  H    3.723818   4.113549   2.777228   0.000000
    10  H    3.755008   3.399141   3.052455   3.077434   0.000000
    11  O    1.977926   3.282410   3.548067   2.052758   2.626880
    12  O    2.669870   2.114478   2.428029   2.990534   4.046106
    13  O    4.322776   2.332770   2.078711   4.171030   2.546734
    14  O    5.211137   4.538400   2.715750   2.883871   1.989941
    15  C    4.381341   5.250234   4.344457   2.153492   2.840283
    16  H    4.141501   5.517935   5.096648   2.765754   3.415161
    17  H    4.928364   5.544431   4.641254   2.984478   2.555410
    18  O    5.423357   6.192527   4.760538   2.351345   3.967052
    19  C    3.282770   2.505661   3.506756   4.406176   5.289000
    20  H    4.028775   2.506583   3.430396   4.984003   5.495706
    21  H    3.981476   3.561727   4.059505   4.654776   6.070031
    22  H    2.871185   2.559628   4.297865   4.943597   5.546305
    23  C    5.716107   3.671085   2.556121   4.918199   3.404779
    24  H    6.069212   3.952954   2.335823   4.959394   4.120626
    25  H    6.290576   4.082613   3.543653   5.937273   4.120764
    26  H    6.133309   4.404746   2.940954   4.855768   3.181944
    27  C    5.967985   5.255589   2.794791   2.895910   3.313956
    28  H    5.930218   4.899614   2.162767   3.052953   3.720899
    29  H    6.987429   6.166583   3.695776   3.945939   4.008786
    30  H    5.948732   5.662291   3.315066   2.444299   3.709354
    31  C    6.592012   7.509524   6.112419   3.771053   4.977999
    32  H    7.025598   7.751394   6.321874   4.309415   4.858965
    33  H    6.565471   7.825386   6.767896   4.244915   5.404216
    34  H    7.368791   8.207077   6.557888   4.248375   5.832719
                   11         12         13         14         15
    11  O    0.000000
    12  O    2.887438   0.000000
    13  O    4.059401   3.494767   0.000000
    14  O    3.717144   4.569207   3.058092   0.000000
    15  C    2.427031   4.771470   5.017539   2.962427   0.000000
    16  H    2.360943   5.060130   5.661589   3.971012   1.100490
    17  H    3.090973   5.424941   4.947726   2.675365   1.098900
    18  O    3.461349   5.322085   5.848423   3.408176   1.412091
    19  C    4.127955   1.444356   4.284594   5.902554   6.181530
    20  H    4.830263   2.084259   3.979839   6.006878   6.768348
    21  H    4.658402   2.027842   5.181622   6.476226   6.576766
    22  H    4.205978   2.107338   4.719426   6.476778   6.484056
    23  C    5.239785   4.555561   1.430507   3.163686   5.744272
    24  H    5.589184   4.427053   2.089908   3.546494   6.117608
    25  H    6.047725   5.298896   2.024782   4.125465   6.669655
    26  H    5.334951   5.142600   2.097477   2.545380   5.368544
    27  C    4.403604   4.776613   3.869188   1.436391   3.480911
    28  H    4.612783   4.292137   3.569006   2.112503   4.205594
    29  H    5.405857   5.823556   4.507129   2.019273   4.220408
    30  H    4.210856   4.857282   4.646630   2.096706   2.975228
    31  C    4.646422   6.726707   7.062949   4.393272   2.358445
    32  H    5.077648   7.223990   7.027517   4.197029   2.653078
    33  H    4.726391   7.063567   7.632380   5.175749   2.650510
    34  H    5.431921   7.219017   7.723386   4.978573   3.272991
                   16         17         18         19         20
    16  H    0.000000
    17  H    1.781153   0.000000
    18  O    2.081204   2.078871   0.000000
    19  C    6.384277   6.834239   6.733091   0.000000
    20  H    7.089098   7.307533   7.329777   1.094338   0.000000
    21  H    6.764657   7.341675   6.937118   1.089976   1.793859
    22  H    6.523118   7.122490   7.184483   1.093867   1.793404
    23  C    6.553303   5.548742   6.371717   5.301303   4.829068
    24  H    6.973198   6.064944   6.553376   5.072071   4.511222
    25  H    7.424740   6.398921   7.383369   5.856275   5.256088
    26  H    6.260066   5.018855   5.928086   6.078332   5.727622
    27  C    4.561810   3.466386   3.347211   6.083899   6.177005
    28  H    5.225877   4.345922   4.092561   5.468264   5.447127
    29  H    5.320490   3.998303   3.978477   7.094312   7.105771
    30  H    4.029627   3.186764   2.475516   6.219122   6.482239
    31  C    2.690080   2.601249   1.422874   8.132555   8.745354
    32  H    3.110202   2.416643   2.090203   8.659232   9.183155
    33  H    2.511901   2.969530   2.088448   8.425054   9.131026
    34  H    3.652883   3.593564   2.026899   8.598063   9.205472
                   21         22         23         24         25
    21  H    0.000000
    22  H    1.785779   0.000000
    23  C    6.088306   5.888441   0.000000
    24  H    5.721235   5.816743   1.098618   0.000000
    25  H    6.710824   6.344329   1.091681   1.784676   0.000000
    26  H    6.821111   6.675218   1.093927   1.790608   1.786527
    27  C    6.450261   6.836664   3.708781   3.673508   4.754279
    28  H    5.783375   6.325659   3.312577   2.985572   4.378540
    29  H    7.466658   7.863306   4.045072   4.017586   4.992255
    30  H    6.456226   6.953794   4.693001   4.627934   5.759156
    31  C    8.324479   8.539889   7.507739   7.749196   8.486113
    32  H    8.954604   9.066712   7.355029   7.691815   8.275210
    33  H    8.610280   8.711787   8.226368   8.526774   9.176179
    34  H    8.674363   9.090528   8.061313   8.178388   9.079303
                   26         27         28         29         30
    26  H    0.000000
    27  C    3.145284   0.000000
    28  H    3.011147   1.095853   0.000000
    29  H    3.269929   1.091025   1.776786   0.000000
    30  H    4.194722   1.094356   1.793811   1.781762   0.000000
    31  C    6.932239   4.341004   5.221013   4.703352   3.475282
    32  H    6.654984   4.288626   5.294862   4.448499   3.610048
    33  H    7.707945   5.285499   6.130730   5.724391   4.439519
    34  H    7.476108   4.617828   5.428986   4.884784   3.639654
                   31         32         33         34
    31  C    0.000000
    32  H    1.098940   0.000000
    33  H    1.099139   1.788598   0.000000
    34  H    1.091565   1.787504   1.787198   0.000000
 Stoichiometry    C10H19O5(1+)
 Framework group  C1[X(C10H19O5)]
 Deg. of freedom    96
 Full point group                 C1      NOp   1
 Largest Abelian subgroup         C1      NOp   1
 Largest concise Abelian subgroup C1      NOp   1
                         Standard orientation:                         
 ---------------------------------------------------------------------
 Center     Atomic      Atomic             Coordinates (Angstroms)
 Number     Number       Type             X           Y           Z
 ---------------------------------------------------------------------
      1          6           0        1.289793    0.662736   -0.066467
      2          6           0        1.922141   -0.720336   -0.321503
      3          6           0        1.044786   -1.744486   -0.959645
      4          6           0       -0.921972   -0.614671   -0.178799
      5          6           0       -0.182994    0.691033   -0.542962
      6          1           0        1.459773   -2.625513   -1.447091
      7          1           0        2.860463   -0.597921   -0.867081
      8          1           0        1.341625    0.829817    1.018097
      9          1           0       -0.852745   -0.867045    0.882474
     10          1           0       -0.160197    0.756676   -1.638341
     11          8           0       -0.212887   -1.750579   -0.856423
     12          8           0        2.074018   -1.481327    0.885664
     13          8           0        2.079933    1.598103   -0.766750
     14          8           0       -0.903545    1.830234   -0.136751
     15          6           0       -2.383246   -0.689867   -0.622087
     16          1           0       -2.551242   -1.634614   -1.160891
     17          1           0       -2.617314    0.139560   -1.303882
     18          8           0       -3.167648   -0.622849    0.550186
     19          6           0        3.395142   -2.010498    1.132189
     20          1           0        4.109197   -1.186443    1.225110
     21          1           0        3.318499   -2.555200    2.073185
     22          1           0        3.709181   -2.691702    0.336020
     23          6           0        2.060399    2.930978   -0.247700
     24          1           0        2.327419    2.937949    0.817952
     25          1           0        2.815570    3.484039   -0.809489
     26          1           0        1.082740    3.402902   -0.382411
     27          6           0       -1.192106    1.983766    1.261955
     28          1           0       -0.287045    1.962537    1.879456
     29          1           0       -1.654252    2.967863    1.353116
     30          1           0       -1.897353    1.220978    1.606042
     31          6           0       -4.562043   -0.567436    0.272406
     32          1           0       -4.816454    0.323244   -0.318892
     33          1           0       -4.894111   -1.463036   -0.271413
     34          1           0       -5.072117   -0.520069    1.236302
 ---------------------------------------------------------------------
 Rotational constants (GHZ):           0.7757592           0.4173904           0.3128047
 Leave Link  202 at Fri May 24 08:32:10 2019, MaxMem=   402653184 cpu:               0.2 elap:               0.1
 (Enter /n/sw/g16_nehalem/g16/l301.exe)
 Standard basis: 6-31G(d) (6D, 7F)
 Ernie: Thresh=  0.10000D-02 Tol=  0.10000D-05 Strict=F.
 There are   263 symmetry adapted cartesian basis functions of A   symmetry.
 There are   263 symmetry adapted basis functions of A   symmetry.
   263 basis functions,   496 primitive gaussians,   263 cartesian basis functions
    59 alpha electrons       59 beta electrons
       nuclear repulsion energy      1150.1123036383 Hartrees.
 IExCor=  402 DFT=T Ex+Corr=B3LYP ExCW=0 ScaHFX=  0.200000
 ScaDFX=  0.800000  0.720000  1.000000  0.810000 ScalE2=  1.000000  1.000000
 IRadAn=      5 IRanWt=     -1 IRanGd=            0 ICorTp=0 IEmpDi=  4
 NAtoms=   34 NActive=   34 NUniq=   34 SFac= 1.00D+00 NAtFMM=   60 NAOKFM=F Big=F
 Integral buffers will be    131072 words long.
 Raffenetti 2 integral format.
 Two-electron integral symmetry is turned on.
 ------------------------------------------------------------------------------
 Polarizable Continuum Model (PCM)
 =================================
 Model                : PCM.
 Atomic radii         : UFF (Universal Force Field).
 Polarization charges : Total charges.
 Charge compensation  : None.
 Solution method      : On-the-fly selection.
 Cavity type          : Scaled VdW (van der Waals Surface) (Alpha=1.100).
 Cavity algorithm     : GePol (No added spheres)
                        Default sphere list used, NSphG=   34.
                        Lebedev-Laikov grids with approx.  5.0 points / Ang**2.
                        Smoothing algorithm: York/Karplus (Gamma=1.0000).
                        Polarization charges: spherical gaussians, with
                                              point-specific exponents (IZeta= 3).
                        Self-potential: point-specific (ISelfS= 7).
                        Self-field    : sphere-specific E.n sum rule (ISelfD= 2).
 1st derivatives      : Analytical E(r).r(x)/FMM algorithm (CHGder, D1EAlg=3).
                        Cavity 1st derivative terms included.
 Solvent              : TetraHydroFuran, Eps=   7.425700 Eps(inf)=   1.974025
 ------------------------------------------------------------------------------
 GePol: Number of generator spheres                  =      34
 GePol: Total number of spheres                      =      34
 GePol: Number of exposed spheres                    =      34 (100.00%)
 GePol: Number of points                             =    2325
 GePol: Average weight of points                     =       0.13
 GePol: Minimum weight of points                     =   0.59D-10
 GePol: Maximum weight of points                     =    0.20577
 GePol: Number of points with low weight             =     145
 GePol: Fraction of low-weight points (<1% of avg)   =       6.24%
 GePol: Cavity surface area                          =    304.293 Ang**2
 GePol: Cavity volume                                =    322.026 Ang**3
 Leave Link  301 at Fri May 24 08:32:11 2019, MaxMem=   402653184 cpu:               0.5 elap:               0.2
 (Enter /n/sw/g16_nehalem/g16/l302.exe)
 NPDir=0 NMtPBC=     1 NCelOv=     1 NCel=       1 NClECP=     1 NCelD=      1
         NCelK=      1 NCelE2=     1 NClLst=     1 CellRange=     0.0.
 One-electron integrals computed using PRISM.
 One-electron integral symmetry used in STVInt
 NBasis=   263 RedAO= T EigKep=  1.13D-03  NBF=   263
 NBsUse=   263 1.00D-06 EigRej= -1.00D+00 NBFU=   263
 Precomputing XC quadrature grid using
 IXCGrd= 4 IRadAn=           5 IRanWt=          -1 IRanGd=           0 AccXCQ= 0.00D+00.
 Generated NRdTot=       0 NPtTot=           0 NUsed=           0 NTot=          32
 NSgBfM=   262   262   262   262   262 MxSgAt=    34 MxSgA2=    34.
 Leave Link  302 at Fri May 24 08:32:12 2019, MaxMem=   402653184 cpu:               4.6 elap:               1.7
 (Enter /n/sw/g16_nehalem/g16/l303.exe)
 DipDrv:  MaxL=1.
 Leave Link  303 at Fri May 24 08:32:12 2019, MaxMem=   402653184 cpu:               0.2 elap:               0.1
 (Enter /n/sw/g16_nehalem/g16/l401.exe)
 ExpMin= 1.61D-01 ExpMax= 5.48D+03 ExpMxC= 8.25D+02 IAcc=3 IRadAn=         5 AccDes= 0.00D+00
 Harris functional with IExCor=  402 and IRadAn=       5 diagonalized for initial guess.
 HarFok:  IExCor=  402 AccDes= 0.00D+00 IRadAn=         5 IDoV= 1 UseB2=F ITyADJ=14
 ICtDFT=  3500011 ScaDFX=  1.000000  1.000000  1.000000  1.000000
 FoFCou: FMM=F IPFlag=           0 FMFlag=      100000 FMFlg1=           0
         NFxFlg=           0 DoJE=T BraDBF=F KetDBF=T FulRan=T
         wScrn=  0.000000 ICntrl=       500 IOpCl=  0 I1Cent=   200000004 NGrid=           0
         NMat0=    1 NMatS0=      1 NMatT0=    0 NMatD0=    1 NMtDS0=    0 NMtDT0=    0
 Petite list used in FoFCou.
 Harris En= -768.251524076852    
 JPrj=0 DoOrth=F DoCkMO=F.
 Leave Link  401 at Fri May 24 08:32:18 2019, MaxMem=   402653184 cpu:              20.3 elap:               5.1
 (Enter /n/sw/g16_nehalem/g16/l502.exe)
 Integral symmetry usage will be decided dynamically.
 Closed shell SCF:
 Using DIIS extrapolation, IDIIS=  1040.
 NGot=   402653184 LenX=   402510103 LenY=   402440493
 Requested convergence on RMS density matrix=1.00D-08 within 128 cycles.
 Requested convergence on MAX density matrix=1.00D-06.
 Requested convergence on             energy=1.00D-06.
 No special actions if energy rises.
 Fock matrices will be formed incrementally for  20 cycles.

 Cycle   1  Pass 1  IDiag  1:
 FoFJK:  IHMeth= 1 ICntrl=       0 DoSepK=F KAlg= 0 I1Cent=           0 FoldK=F
 IRaf= 870000000 NMat=       1 IRICut=       1 DoRegI=T DoRafI=F ISym2E= 0 IDoP0=0 IntGTp=1.
 FoFCou: FMM=F IPFlag=           0 FMFlag=      100000 FMFlg1=           0
         NFxFlg=           0 DoJE=F BraDBF=F KetDBF=F FulRan=T
         wScrn=  0.000000 ICntrl=         0 IOpCl=  0 I1Cent=           0 NGrid=           0
         NMat0=    1 NMatS0=      1 NMatT0=    0 NMatD0=    1 NMtDS0=    0 NMtDT0=    0
 Symmetry not used in FoFCou.
 Inv3:  Mode=1 IEnd=    16216875.
 Iteration    1 A*A^-1 deviation from unit magnitude is 6.11D-15 for   2319.
 Iteration    1 A*A^-1 deviation from orthogonality  is 2.74D-15 for   2281   1965.
 Iteration    1 A^-1*A deviation from unit magnitude is 6.33D-15 for   2319.
 Iteration    1 A^-1*A deviation from orthogonality  is 3.01D-15 for   2318   2289.
 E= -768.087620169789    
 DIIS: error= 2.08D-02 at cycle   1 NSaved=   1.
 NSaved= 1 IEnMin= 1 EnMin= -768.087620169789     IErMin= 1 ErrMin= 2.08D-02
 ErrMax= 2.08D-02  0.00D+00 EMaxC= 1.00D-01 BMatC= 2.48D-01 BMatP= 2.48D-01
 IDIUse=3 WtCom= 7.92D-01 WtEn= 2.08D-01
 Coeff-Com:  0.100D+01
 Coeff-En:   0.100D+01
 Coeff:      0.100D+01
 Gap=     0.020 Goal=   None    Shift=    0.000
 GapD=    0.020 DampG=0.250 DampE=0.500 DampFc=0.2500 IDamp=-1.
 Damping current iteration by 2.50D-01
 RMSDP=4.33D-03 MaxDP=9.92D-02              OVMax= 2.33D-01

 Cycle   2  Pass 1  IDiag  1:
 RMSU=  1.08D-03    CP:  9.95D-01
 E= -768.166580830872     Delta-E=       -0.078960661083 Rises=F Damp=T
 DIIS: error= 9.82D-03 at cycle   2 NSaved=   2.
 NSaved= 2 IEnMin= 2 EnMin= -768.166580830872     IErMin= 2 ErrMin= 9.82D-03
 ErrMax= 9.82D-03  0.00D+00 EMaxC= 1.00D-01 BMatC= 7.00D-02 BMatP= 2.48D-01
 IDIUse=3 WtCom= 9.02D-01 WtEn= 9.82D-02
 Coeff-Com: -0.805D+00 0.181D+01
 Coeff-En:   0.000D+00 0.100D+01
 Coeff:     -0.726D+00 0.173D+01
 Gap=     0.141 Goal=   None    Shift=    0.000
 RMSDP=1.29D-03 MaxDP=3.08D-02 DE=-7.90D-02 OVMax= 2.27D-01

 Cycle   3  Pass 1  IDiag  1:
 RMSU=  1.13D-03    CP:  9.86D-01  1.55D+00
 E= -768.298587104633     Delta-E=       -0.132006273762 Rises=F Damp=F
 DIIS: error= 6.13D-03 at cycle   3 NSaved=   3.
 NSaved= 3 IEnMin= 3 EnMin= -768.298587104633     IErMin= 3 ErrMin= 6.13D-03
 ErrMax= 6.13D-03  0.00D+00 EMaxC= 1.00D-01 BMatC= 2.68D-02 BMatP= 7.00D-02
 IDIUse=3 WtCom= 9.39D-01 WtEn= 6.13D-02
 Coeff-Com: -0.511D+00 0.993D+00 0.518D+00
 Coeff-En:   0.000D+00 0.000D+00 0.100D+01
 Coeff:     -0.480D+00 0.932D+00 0.548D+00
 Gap=     0.135 Goal=   None    Shift=    0.000
 RMSDP=6.91D-04 MaxDP=3.56D-02 DE=-1.32D-01 OVMax= 4.97D-02

 Cycle   4  Pass 1  IDiag  1:
 RMSU=  4.69D-04    CP:  9.89D-01  1.72D+00  5.87D-01
 E= -768.317007127261     Delta-E=       -0.018420022628 Rises=F Damp=F
 DIIS: error= 2.94D-03 at cycle   4 NSaved=   4.
 NSaved= 4 IEnMin= 4 EnMin= -768.317007127261     IErMin= 4 ErrMin= 2.94D-03
 ErrMax= 2.94D-03  0.00D+00 EMaxC= 1.00D-01 BMatC= 4.98D-03 BMatP= 2.68D-02
 IDIUse=3 WtCom= 9.71D-01 WtEn= 2.94D-02
 Coeff-Com: -0.187D+00 0.322D+00 0.316D+00 0.549D+00
 Coeff-En:   0.000D+00 0.000D+00 0.134D+00 0.866D+00
 Coeff:     -0.182D+00 0.313D+00 0.311D+00 0.558D+00
 Gap=     0.129 Goal=   None    Shift=    0.000
 RMSDP=2.55D-04 MaxDP=1.45D-02 DE=-1.84D-02 OVMax= 2.23D-02

 Cycle   5  Pass 1  IDiag  1:
 RMSU=  1.63D-04    CP:  9.88D-01  1.74D+00  6.82D-01  6.52D-01
 E= -768.320476161641     Delta-E=       -0.003469034380 Rises=F Damp=F
 DIIS: error= 1.02D-03 at cycle   5 NSaved=   5.
 NSaved= 5 IEnMin= 5 EnMin= -768.320476161641     IErMin= 5 ErrMin= 1.02D-03
 ErrMax= 1.02D-03  0.00D+00 EMaxC= 1.00D-01 BMatC= 6.09D-04 BMatP= 4.98D-03
 IDIUse=3 WtCom= 9.90D-01 WtEn= 1.02D-02
 Coeff-Com: -0.679D-01 0.108D+00 0.122D+00 0.326D+00 0.513D+00
 Coeff-En:   0.000D+00 0.000D+00 0.000D+00 0.699D-01 0.930D+00
 Coeff:     -0.672D-01 0.106D+00 0.120D+00 0.323D+00 0.517D+00
 Gap=     0.134 Goal=   None    Shift=    0.000
 RMSDP=8.86D-05 MaxDP=4.13D-03 DE=-3.47D-03 OVMax= 5.16D-03

 Cycle   6  Pass 1  IDiag  1:
 RMSU=  5.58D-05    CP:  9.88D-01  1.73D+00  6.85D-01  7.28D-01  6.42D-01
 E= -768.320908107915     Delta-E=       -0.000431946274 Rises=F Damp=F
 DIIS: error= 2.50D-04 at cycle   6 NSaved=   6.
 NSaved= 6 IEnMin= 6 EnMin= -768.320908107915     IErMin= 6 ErrMin= 2.50D-04
 ErrMax= 2.50D-04  0.00D+00 EMaxC= 1.00D-01 BMatC= 5.93D-05 BMatP= 6.09D-04
 IDIUse=3 WtCom= 9.98D-01 WtEn= 2.50D-03
 Coeff-Com: -0.180D-01 0.241D-01 0.274D-01 0.122D+00 0.300D+00 0.544D+00
 Coeff-En:   0.000D+00 0.000D+00 0.000D+00 0.000D+00 0.102D-01 0.990D+00
 Coeff:     -0.180D-01 0.240D-01 0.274D-01 0.122D+00 0.300D+00 0.546D+00
 Gap=     0.134 Goal=   None    Shift=    0.000
 RMSDP=2.39D-05 MaxDP=1.51D-03 DE=-4.32D-04 OVMax= 1.47D-03

 Cycle   7  Pass 1  IDiag  1:
 RMSU=  1.81D-05    CP:  9.88D-01  1.73D+00  6.85D-01  7.34D-01  7.01D-01
                    CP:  7.88D-01
 E= -768.320950435238     Delta-E=       -0.000042327324 Rises=F Damp=F
 DIIS: error= 8.07D-05 at cycle   7 NSaved=   7.
 NSaved= 7 IEnMin= 7 EnMin= -768.320950435238     IErMin= 7 ErrMin= 8.07D-05
 ErrMax= 8.07D-05  0.00D+00 EMaxC= 1.00D-01 BMatC= 3.92D-06 BMatP= 5.93D-05
 IDIUse=1 WtCom= 1.00D+00 WtEn= 0.00D+00
 Coeff-Com: -0.463D-02 0.487D-02 0.304D-02 0.393D-01 0.122D+00 0.289D+00
 Coeff-Com:  0.546D+00
 Coeff:     -0.463D-02 0.487D-02 0.304D-02 0.393D-01 0.122D+00 0.289D+00
 Coeff:      0.546D+00
 Gap=     0.134 Goal=   None    Shift=    0.000
 RMSDP=7.84D-06 MaxDP=4.48D-04 DE=-4.23D-05 OVMax= 5.42D-04

 Cycle   8  Pass 1  IDiag  1:
 RMSU=  5.14D-06    CP:  9.88D-01  1.73D+00  6.86D-01  7.41D-01  7.21D-01
                    CP:  8.24D-01  8.29D-01
 E= -768.320953710334     Delta-E=       -0.000003275096 Rises=F Damp=F
 DIIS: error= 1.99D-05 at cycle   8 NSaved=   8.
 NSaved= 8 IEnMin= 8 EnMin= -768.320953710334     IErMin= 8 ErrMin= 1.99D-05
 ErrMax= 1.99D-05  0.00D+00 EMaxC= 1.00D-01 BMatC= 3.39D-07 BMatP= 3.92D-06
 IDIUse=1 WtCom= 1.00D+00 WtEn= 0.00D+00
 Coeff-Com: -0.399D-03-0.607D-04-0.248D-02 0.353D-02 0.200D-01 0.653D-01
 Coeff-Com:  0.249D+00 0.666D+00
 Coeff:     -0.399D-03-0.607D-04-0.248D-02 0.353D-02 0.200D-01 0.653D-01
 Coeff:      0.249D+00 0.666D+00
 Gap=     0.134 Goal=   None    Shift=    0.000
 RMSDP=3.10D-06 MaxDP=1.04D-04 DE=-3.28D-06 OVMax= 3.76D-04

 Cycle   9  Pass 1  IDiag  1:
 RMSU=  2.05D-06    CP:  9.88D-01  1.73D+00  6.86D-01  7.44D-01  7.26D-01
                    CP:  8.45D-01  8.80D-01  9.25D-01
 E= -768.320953983102     Delta-E=       -0.000000272768 Rises=F Damp=F
 DIIS: error= 1.02D-05 at cycle   9 NSaved=   9.
 NSaved= 9 IEnMin= 9 EnMin= -768.320953983102     IErMin= 9 ErrMin= 1.02D-05
 ErrMax= 1.02D-05  0.00D+00 EMaxC= 1.00D-01 BMatC= 8.44D-08 BMatP= 3.39D-07
 IDIUse=1 WtCom= 1.00D+00 WtEn= 0.00D+00
 Coeff-Com:  0.184D-03-0.313D-03-0.171D-02-0.356D-02-0.728D-02-0.103D-01
 Coeff-Com:  0.491D-01 0.392D+00 0.582D+00
 Coeff:      0.184D-03-0.313D-03-0.171D-02-0.356D-02-0.728D-02-0.103D-01
 Coeff:      0.491D-01 0.392D+00 0.582D+00
 Gap=     0.134 Goal=   None    Shift=    0.000
 RMSDP=1.36D-06 MaxDP=4.82D-05 DE=-2.73D-07 OVMax= 1.82D-04

 Cycle  10  Pass 1  IDiag  1:
 RMSU=  6.16D-07    CP:  9.88D-01  1.73D+00  6.86D-01  7.44D-01  7.28D-01
                    CP:  8.54D-01  9.16D-01  1.02D+00  7.37D-01
 E= -768.320954059395     Delta-E=       -0.000000076293 Rises=F Damp=F
 DIIS: error= 2.25D-06 at cycle  10 NSaved=  10.
 NSaved=10 IEnMin=10 EnMin= -768.320954059395     IErMin=10 ErrMin= 2.25D-06
 ErrMax= 2.25D-06  0.00D+00 EMaxC= 1.00D-01 BMatC= 3.72D-09 BMatP= 8.44D-08
 IDIUse=1 WtCom= 1.00D+00 WtEn= 0.00D+00
 Coeff-Com:  0.106D-03-0.130D-03-0.608D-03-0.185D-02-0.489D-02-0.995D-02
 Coeff-Com:  0.850D-03 0.104D+00 0.238D+00 0.675D+00
 Coeff:      0.106D-03-0.130D-03-0.608D-03-0.185D-02-0.489D-02-0.995D-02
 Coeff:      0.850D-03 0.104D+00 0.238D+00 0.675D+00
 Gap=     0.134 Goal=   None    Shift=    0.000
 RMSDP=3.78D-07 MaxDP=8.74D-06 DE=-7.63D-08 OVMax= 4.97D-05

 Cycle  11  Pass 1  IDiag  1:
 RMSU=  2.07D-07    CP:  9.88D-01  1.73D+00  6.86D-01  7.45D-01  7.29D-01
                    CP:  8.57D-01  9.25D-01  1.04D+00  7.86D-01  8.43D-01
 E= -768.320954063163     Delta-E=       -0.000000003768 Rises=F Damp=F
 DIIS: error= 7.35D-07 at cycle  11 NSaved=  11.
 NSaved=11 IEnMin=11 EnMin= -768.320954063163     IErMin=11 ErrMin= 7.35D-07
 ErrMax= 7.35D-07  0.00D+00 EMaxC= 1.00D-01 BMatC= 5.95D-10 BMatP= 3.72D-09
 IDIUse=1 WtCom= 1.00D+00 WtEn= 0.00D+00
 Coeff-Com:  0.303D-04-0.287D-04-0.151D-03-0.571D-03-0.180D-02-0.402D-02
 Coeff-Com: -0.493D-02 0.113D-01 0.634D-01 0.355D+00 0.581D+00
 Coeff:      0.303D-04-0.287D-04-0.151D-03-0.571D-03-0.180D-02-0.402D-02
 Coeff:     -0.493D-02 0.113D-01 0.634D-01 0.355D+00 0.581D+00
 Gap=     0.134 Goal=   None    Shift=    0.000
 RMSDP=1.28D-07 MaxDP=3.77D-06 DE=-3.77D-09 OVMax= 1.43D-05

 Cycle  12  Pass 1  IDiag  1:
 RMSU=  6.10D-08    CP:  9.88D-01  1.73D+00  6.86D-01  7.45D-01  7.29D-01
                    CP:  8.57D-01  9.27D-01  1.05D+00  7.95D-01  8.97D-01
                    CP:  7.06D-01
 E= -768.320954063748     Delta-E=       -0.000000000585 Rises=F Damp=F
 DIIS: error= 3.28D-07 at cycle  12 NSaved=  12.
 NSaved=12 IEnMin=12 EnMin= -768.320954063748     IErMin=12 ErrMin= 3.28D-07
 ErrMax= 3.28D-07  0.00D+00 EMaxC= 1.00D-01 BMatC= 3.68D-11 BMatP= 5.95D-10
 IDIUse=1 WtCom= 1.00D+00 WtEn= 0.00D+00
 Coeff-Com:  0.244D-06 0.385D-05-0.247D-05-0.480D-04-0.282D-03-0.658D-03
 Coeff-Com: -0.244D-02-0.614D-02 0.331D-02 0.817D-01 0.247D+00 0.677D+00
 Coeff:      0.244D-06 0.385D-05-0.247D-05-0.480D-04-0.282D-03-0.658D-03
 Coeff:     -0.244D-02-0.614D-02 0.331D-02 0.817D-01 0.247D+00 0.677D+00
 Gap=     0.134 Goal=   None    Shift=    0.000
 RMSDP=3.69D-08 MaxDP=1.01D-06 DE=-5.85D-10 OVMax= 4.68D-06

 Cycle  13  Pass 1  IDiag  1:
 RMSU=  1.82D-08    CP:  9.88D-01  1.73D+00  6.86D-01  7.45D-01  7.29D-01
                    CP:  8.57D-01  9.27D-01  1.05D+00  7.99D-01  9.15D-01
                    CP:  7.60D-01  8.16D-01
 E= -768.320954063783     Delta-E=       -0.000000000036 Rises=F Damp=F
 DIIS: error= 1.34D-07 at cycle  13 NSaved=  13.
 NSaved=13 IEnMin=13 EnMin= -768.320954063783     IErMin=13 ErrMin= 1.34D-07
 ErrMax= 1.34D-07  0.00D+00 EMaxC= 1.00D-01 BMatC= 5.69D-12 BMatP= 3.68D-11
 IDIUse=1 WtCom= 1.00D+00 WtEn= 0.00D+00
 Coeff-Com: -0.180D-05 0.357D-05 0.117D-04 0.244D-04 0.709D-05 0.235D-04
 Coeff-Com: -0.901D-03-0.436D-02-0.407D-02 0.978D-02 0.769D-01 0.362D+00
 Coeff-Com:  0.561D+00
 Coeff:     -0.180D-05 0.357D-05 0.117D-04 0.244D-04 0.709D-05 0.235D-04
 Coeff:     -0.901D-03-0.436D-02-0.407D-02 0.978D-02 0.769D-01 0.362D+00
 Coeff:      0.561D+00
 Gap=     0.134 Goal=   None    Shift=    0.000
 RMSDP=1.03D-08 MaxDP=3.55D-07 DE=-3.57D-11 OVMax= 8.53D-07

 Cycle  14  Pass 1  IDiag  1:
 RMSU=  5.97D-09    CP:  9.88D-01  1.73D+00  6.86D-01  7.45D-01  7.29D-01
                    CP:  8.57D-01  9.27D-01  1.05D+00  8.00D-01  9.17D-01
                    CP:  7.67D-01  8.50D-01  6.75D-01
 E= -768.320954063783     Delta-E=        0.000000000000 Rises=F Damp=F
 DIIS: error= 1.59D-08 at cycle  14 NSaved=  14.
 NSaved=14 IEnMin=13 EnMin= -768.320954063783     IErMin=14 ErrMin= 1.59D-08
 ErrMax= 1.59D-08  0.00D+00 EMaxC= 1.00D-01 BMatC= 2.09D-13 BMatP= 5.69D-12
 IDIUse=1 WtCom= 1.00D+00 WtEn= 0.00D+00
 Coeff-Com: -0.688D-06 0.988D-06 0.449D-05 0.127D-04 0.251D-04 0.646D-04
 Coeff-Com: -0.132D-03-0.970D-03-0.159D-02-0.289D-02 0.687D-02 0.734D-01
 Coeff-Com:  0.210D+00 0.715D+00
 Coeff:     -0.688D-06 0.988D-06 0.449D-05 0.127D-04 0.251D-04 0.646D-04
 Coeff:     -0.132D-03-0.970D-03-0.159D-02-0.289D-02 0.687D-02 0.734D-01
 Coeff:      0.210D+00 0.715D+00
 Gap=     0.134 Goal=   None    Shift=    0.000
 RMSDP=2.44D-09 MaxDP=6.39D-08 DE= 2.27D-13 OVMax= 1.88D-07

 Error on total polarization charges =  0.01230
 SCF Done:  E(RB3LYP) =  -768.320954064     A.U. after   14 cycles
            NFock= 14  Conv=0.24D-08     -V/T= 2.0091
 KE= 7.613973504317D+02 PE=-4.075489166389D+03 EE= 1.395658558255D+03
 Leave Link  502 at Fri May 24 08:34:31 2019, MaxMem=   402653184 cpu:             534.7 elap:             133.8
 (Enter /n/sw/g16_nehalem/g16/l601.exe)
 Copying SCF densities to generalized density rwf, IOpCl= 0 IROHF=0.

 **********************************************************************

            Population analysis using the SCF density.

 **********************************************************************

 Orbital symmetries:
       Occupied  (A) (A) (A) (A) (A) (A) (A) (A) (A) (A) (A) (A)
                 (A) (A) (A) (A) (A) (A) (A) (A) (A) (A) (A) (A)
                 (A) (A) (A) (A) (A) (A) (A) (A) (A) (A) (A) (A)
                 (A) (A) (A) (A) (A) (A) (A) (A) (A) (A) (A) (A)
                 (A) (A) (A) (A) (A) (A) (A) (A) (A) (A) (A)
       Virtual   (A) (A) (A) (A) (A) (A) (A) (A) (A) (A) (A) (A)
                 (A) (A) (A) (A) (A) (A) (A) (A) (A) (A) (A) (A)
                 (A) (A) (A) (A) (A) (A) (A) (A) (A) (A) (A) (A)
                 (A) (A) (A) (A) (A) (A) (A) (A) (A) (A) (A) (A)
                 (A) (A) (A) (A) (A) (A) (A) (A) (A) (A) (A) (A)
                 (A) (A) (A) (A) (A) (A) (A) (A) (A) (A) (A) (A)
                 (A) (A) (A) (A) (A) (A) (A) (A) (A) (A) (A) (A)
                 (A) (A) (A) (A) (A) (A) (A) (A) (A) (A) (A) (A)
                 (A) (A) (A) (A) (A) (A) (A) (A) (A) (A) (A) (A)
                 (A) (A) (A) (A) (A) (A) (A) (A) (A) (A) (A) (A)
                 (A) (A) (A) (A) (A) (A) (A) (A) (A) (A) (A) (A)
                 (A) (A) (A) (A) (A) (A) (A) (A) (A) (A) (A) (A)
                 (A) (A) (A) (A) (A) (A) (A) (A) (A) (A) (A) (A)
                 (A) (A) (A) (A) (A) (A) (A) (A) (A) (A) (A) (A)
                 (A) (A) (A) (A) (A) (A) (A) (A) (A) (A) (A) (A)
                 (A) (A) (A) (A) (A) (A) (A) (A) (A) (A) (A) (A)
                 (A) (A) (A) (A) (A) (A) (A) (A) (A) (A) (A) (A)
 The electronic state is 1-A.
 Alpha  occ. eigenvalues --  -19.32316 -19.23754 -19.19472 -19.18647 -19.18324
 Alpha  occ. eigenvalues --  -10.39460 -10.31864 -10.31647 -10.29359 -10.29124
 Alpha  occ. eigenvalues --  -10.27398 -10.27051 -10.24948 -10.24607 -10.24502
 Alpha  occ. eigenvalues --   -1.21279  -1.10709  -1.08037  -1.06560  -1.06128
 Alpha  occ. eigenvalues --   -0.86768  -0.85683  -0.77420  -0.74925  -0.73685
 Alpha  occ. eigenvalues --   -0.71152  -0.69112  -0.67522  -0.65887  -0.61864
 Alpha  occ. eigenvalues --   -0.60546  -0.59007  -0.56499  -0.54566  -0.52483
 Alpha  occ. eigenvalues --   -0.52123  -0.51328  -0.51073  -0.49995  -0.49308
 Alpha  occ. eigenvalues --   -0.48581  -0.48040  -0.46349  -0.45774  -0.45454
 Alpha  occ. eigenvalues --   -0.44214  -0.42865  -0.41999  -0.41440  -0.41174
 Alpha  occ. eigenvalues --   -0.39441  -0.38727  -0.35836  -0.35131  -0.34769
 Alpha  occ. eigenvalues --   -0.33264  -0.31636  -0.28643  -0.27755
 Alpha virt. eigenvalues --   -0.14386   0.00256   0.03508   0.05318   0.07012
 Alpha virt. eigenvalues --    0.07512   0.07651   0.08773   0.09487   0.10440
 Alpha virt. eigenvalues --    0.10729   0.11793   0.12069   0.12877   0.13158
 Alpha virt. eigenvalues --    0.13339   0.14284   0.14385   0.14942   0.15318
 Alpha virt. eigenvalues --    0.15511   0.15787   0.16264   0.16583   0.16921
 Alpha virt. eigenvalues --    0.18079   0.19336   0.20306   0.21637   0.22966
 Alpha virt. eigenvalues --    0.24058   0.24292   0.27935   0.28650   0.29779
 Alpha virt. eigenvalues --    0.45042   0.45968   0.46371   0.46889   0.47165
 Alpha virt. eigenvalues --    0.48360   0.48980   0.50108   0.50237   0.51114
 Alpha virt. eigenvalues --    0.51557   0.52854   0.54092   0.55522   0.55764
 Alpha virt. eigenvalues --    0.57139   0.59349   0.59913   0.60759   0.62789
 Alpha virt. eigenvalues --    0.63630   0.64413   0.68758   0.69739   0.70942
 Alpha virt. eigenvalues --    0.72545   0.75143   0.76100   0.77312   0.77341
 Alpha virt. eigenvalues --    0.78456   0.80204   0.81020   0.81455   0.81942
 Alpha virt. eigenvalues --    0.82992   0.83478   0.83517   0.83985   0.84880
 Alpha virt. eigenvalues --    0.85462   0.86981   0.87669   0.88365   0.88771
 Alpha virt. eigenvalues --    0.90219   0.92237   0.92728   0.93806   0.93956
 Alpha virt. eigenvalues --    0.94573   0.95623   0.96706   0.98329   0.99887
 Alpha virt. eigenvalues --    1.02312   1.06865   1.08839   1.10948   1.12257
 Alpha virt. eigenvalues --    1.13125   1.15050   1.16749   1.17747   1.21684
 Alpha virt. eigenvalues --    1.23307   1.24712   1.26610   1.28667   1.32219
 Alpha virt. eigenvalues --    1.33668   1.37192   1.39373   1.41728   1.44183
 Alpha virt. eigenvalues --    1.45570   1.46478   1.47012   1.48215   1.49025
 Alpha virt. eigenvalues --    1.50228   1.52207   1.53961   1.58933   1.59289
 Alpha virt. eigenvalues --    1.62288   1.64212   1.64778   1.66465   1.68625
 Alpha virt. eigenvalues --    1.69870   1.74123   1.77202   1.78838   1.80963
 Alpha virt. eigenvalues --    1.83091   1.86270   1.87218   1.89899   1.91226
 Alpha virt. eigenvalues --    1.92150   1.92857   1.95303   1.97084   1.99048
 Alpha virt. eigenvalues --    2.01066   2.01986   2.03457   2.03992   2.05503
 Alpha virt. eigenvalues --    2.07298   2.07987   2.08325   2.10032   2.11532
 Alpha virt. eigenvalues --    2.11921   2.14105   2.15141   2.16456   2.18885
 Alpha virt. eigenvalues --    2.20944   2.22131   2.23061   2.24774   2.26144
 Alpha virt. eigenvalues --    2.28332   2.28548   2.29445   2.33269   2.36520
 Alpha virt. eigenvalues --    2.37068   2.38661   2.43974   2.44551   2.46323
 Alpha virt. eigenvalues --    2.49842   2.52845   2.54072   2.59473   2.60626
 Alpha virt. eigenvalues --    2.61597   2.68410   2.70885   2.73036   2.74654
 Alpha virt. eigenvalues --    2.76824   2.82674   2.84394   2.88057   2.90091
 Alpha virt. eigenvalues --    2.92231   2.98726   3.01257   3.05655   3.83461
 Alpha virt. eigenvalues --    3.87412   3.91793   4.00150   4.12480   4.18807
 Alpha virt. eigenvalues --    4.21553   4.21654   4.23157   4.26328   4.27510
 Alpha virt. eigenvalues --    4.33842   4.44482   4.51350   4.73051
          Condensed to atoms (all electrons):
               1          2          3          4          5          6
     1  C    4.989307   0.295225  -0.045096  -0.045912   0.300710   0.002606
     2  C    0.295225   5.128542   0.296673  -0.006624  -0.031519  -0.038646
     3  C   -0.045096   0.296673   4.743971  -0.039910   0.004259   0.365990
     4  C   -0.045912  -0.006624  -0.039910   5.190988   0.243419   0.003288
     5  C    0.300710  -0.031519   0.004259   0.243419   4.972534   0.000010
     6  H    0.002606  -0.038646   0.365990   0.003288   0.000010   0.424633
     7  H   -0.030565   0.344226  -0.023755   0.000376   0.001787  -0.001604
     8  H    0.352683  -0.049412   0.003352  -0.000238  -0.044800  -0.000133
     9  H   -0.004112  -0.001706  -0.002363   0.364096  -0.034569  -0.000183
    10  H   -0.045359  -0.004019   0.004485  -0.044590   0.369225  -0.000171
    11  O   -0.005976  -0.021734   0.386993   0.112525  -0.015373  -0.037101
    12  O   -0.032752   0.133615  -0.008072   0.002061  -0.000355   0.000874
    13  O    0.204757  -0.035339   0.002110   0.003669  -0.041403  -0.000048
    14  O   -0.035881   0.002939  -0.000043  -0.048393   0.263774   0.000002
    15  C    0.004457  -0.000188   0.003168   0.319582  -0.021731  -0.000090
    16  H   -0.000149   0.000043   0.000811  -0.044379   0.001847  -0.000046
    17  H    0.000619  -0.000021  -0.000179  -0.044699   0.000568   0.000006
    18  O   -0.000100   0.000008  -0.000068  -0.029302  -0.000591   0.000001
    19  C    0.002444  -0.025967   0.000379  -0.000047  -0.000078   0.000647
    20  H    0.000479  -0.005129   0.000356   0.000004  -0.000023   0.000006
    21  H   -0.000136   0.004862  -0.000321   0.000002   0.000005  -0.000012
    22  H   -0.000164  -0.005078  -0.000836   0.000005  -0.000002   0.000356
    23  C   -0.031063   0.005268  -0.000189   0.000046  -0.002637   0.000002
    24  H   -0.009267  -0.000157  -0.000017   0.000054  -0.000752   0.000000
    25  H    0.004339  -0.000119   0.000002   0.000007  -0.000089   0.000000
    26  H   -0.003566  -0.000131   0.000024  -0.000068   0.002223   0.000000
    27  C   -0.007057   0.000202   0.000038  -0.004025  -0.045057   0.000000
    28  H    0.004132  -0.000518   0.000002  -0.001772  -0.004661   0.000000
    29  H    0.000004   0.000000   0.000000  -0.000112   0.005037   0.000000
    30  H   -0.000767   0.000053   0.000009   0.006896  -0.007528   0.000000
    31  C    0.000002   0.000000   0.000003   0.005104  -0.000123   0.000000
    32  H    0.000000   0.000000   0.000000   0.000005   0.000055   0.000000
    33  H    0.000000   0.000000   0.000000  -0.000097  -0.000015   0.000000
    34  H    0.000000   0.000000   0.000000  -0.000234   0.000003   0.000000
               7          8          9         10         11         12
     1  C   -0.030565   0.352683  -0.004112  -0.045359  -0.005976  -0.032752
     2  C    0.344226  -0.049412  -0.001706  -0.004019  -0.021734   0.133615
     3  C   -0.023755   0.003352  -0.002363   0.004485   0.386993  -0.008072
     4  C    0.000376  -0.000238   0.364096  -0.044590   0.112525   0.002061
     5  C    0.001787  -0.044800  -0.034569   0.369225  -0.015373  -0.000355
     6  H   -0.001604  -0.000133  -0.000183  -0.000171  -0.037101   0.000874
     7  H    0.477054   0.002891   0.000027  -0.000104   0.001653  -0.018268
     8  H    0.002891   0.562579   0.003128   0.005457   0.000175   0.006971
     9  H    0.000027   0.003128   0.482871   0.004634  -0.024938   0.003450
    10  H   -0.000104   0.005457   0.004634   0.554671  -0.000737   0.000058
    11  O    0.001653   0.000175  -0.024938  -0.000737   7.962724  -0.007669
    12  O   -0.018268   0.006971   0.003450   0.000058  -0.007669   8.262814
    13  O    0.008658  -0.030707   0.000003   0.003074   0.000010   0.001088
    14  O   -0.000049  -0.004512  -0.000939  -0.037956   0.001106  -0.000012
    15  C    0.000014  -0.000149  -0.044685  -0.007494  -0.026216   0.000030
    16  H    0.000000   0.000003   0.000886   0.000172   0.002182  -0.000002
    17  H    0.000000  -0.000003   0.004533   0.001630   0.001774   0.000000
    18  O    0.000000  -0.000003   0.006895   0.000070   0.000690   0.000000
    19  C   -0.005651   0.000463  -0.000051   0.000002   0.000150   0.208321
    20  H    0.003550  -0.000012   0.000008   0.000001  -0.000014  -0.032180
    21  H    0.000058  -0.000087  -0.000007   0.000000   0.000002  -0.028587
    22  H    0.002197   0.000073   0.000001   0.000000   0.000056  -0.029493
    23  C   -0.000019  -0.007315  -0.000004   0.000027  -0.000002  -0.000101
    24  H    0.000038   0.011487   0.000002   0.000131   0.000000  -0.000011
    25  H   -0.000102   0.000025   0.000000  -0.000042   0.000000   0.000001
    26  H    0.000052  -0.001186  -0.000004  -0.000302  -0.000001   0.000002
    27  C   -0.000007   0.002386   0.002415   0.005783   0.000018  -0.000011
    28  H    0.000007   0.004337  -0.000194  -0.000231   0.000006  -0.000012
    29  H    0.000000  -0.000074  -0.000017  -0.000114   0.000000   0.000000
    30  H    0.000000  -0.000165   0.000752  -0.000148  -0.000033  -0.000003
    31  C    0.000000   0.000000  -0.000015  -0.000001  -0.000049   0.000000
    32  H    0.000000   0.000000   0.000082  -0.000002  -0.000001   0.000000
    33  H    0.000000   0.000000  -0.000005   0.000000   0.000005   0.000000
    34  H    0.000000   0.000000  -0.000033   0.000000   0.000001   0.000000
              13         14         15         16         17         18
     1  C    0.204757  -0.035881   0.004457  -0.000149   0.000619  -0.000100
     2  C   -0.035339   0.002939  -0.000188   0.000043  -0.000021   0.000008
     3  C    0.002110  -0.000043   0.003168   0.000811  -0.000179  -0.000068
     4  C    0.003669  -0.048393   0.319582  -0.044379  -0.044699  -0.029302
     5  C   -0.041403   0.263774  -0.021731   0.001847   0.000568  -0.000591
     6  H   -0.000048   0.000002  -0.000090  -0.000046   0.000006   0.000001
     7  H    0.008658  -0.000049   0.000014   0.000000   0.000000   0.000000
     8  H   -0.030707  -0.004512  -0.000149   0.000003  -0.000003  -0.000003
     9  H    0.000003  -0.000939  -0.044685   0.000886   0.004533   0.006895
    10  H    0.003074  -0.037956  -0.007494   0.000172   0.001630   0.000070
    11  O    0.000010   0.001106  -0.026216   0.002182   0.001774   0.000690
    12  O    0.001088  -0.000012   0.000030  -0.000002   0.000000   0.000000
    13  O    8.248496   0.001584  -0.000045   0.000001  -0.000005   0.000000
    14  O    0.001584   8.192333   0.006459   0.000301   0.004396  -0.000048
    15  C   -0.000045   0.006459   4.921908   0.359084   0.361385   0.220014
    16  H    0.000001   0.000301   0.359084   0.576981  -0.043654  -0.035880
    17  H   -0.000005   0.004396   0.361385  -0.043654   0.568898  -0.037935
    18  O    0.000000  -0.000048   0.220014  -0.035880  -0.037935   8.202235
    19  C   -0.000143   0.000000  -0.000001   0.000000   0.000000   0.000000
    20  H   -0.000028   0.000000   0.000000   0.000000   0.000000   0.000000
    21  H    0.000001   0.000000   0.000000   0.000000   0.000000   0.000000
    22  H    0.000010   0.000000   0.000000   0.000000   0.000000   0.000000
    23  C    0.233621  -0.003135  -0.000001   0.000000   0.000000   0.000000
    24  H   -0.035150   0.000136   0.000000   0.000000   0.000000   0.000000
    25  H   -0.032278   0.000166   0.000000   0.000000   0.000000   0.000000
    26  H   -0.034693   0.008834   0.000005   0.000000   0.000001   0.000000
    27  C   -0.000017   0.229143  -0.001259  -0.000094  -0.000294  -0.006761
    28  H   -0.000031  -0.035405   0.000473   0.000006   0.000038   0.000118
    29  H   -0.000007  -0.031519  -0.000006   0.000001  -0.000012   0.000055
    30  H    0.000006  -0.034543  -0.005736   0.000220  -0.000588   0.019778
    31  C    0.000000  -0.000012  -0.039211  -0.004099  -0.004334   0.241417
    32  H    0.000000  -0.000006  -0.007304  -0.002025   0.011998  -0.035955
    33  H    0.000000   0.000001  -0.007265   0.010259  -0.002336  -0.035618
    34  H    0.000000  -0.000001   0.005534  -0.000101  -0.000133  -0.031463
              19         20         21         22         23         24
     1  C    0.002444   0.000479  -0.000136  -0.000164  -0.031063  -0.009267
     2  C   -0.025967  -0.005129   0.004862  -0.005078   0.005268  -0.000157
     3  C    0.000379   0.000356  -0.000321  -0.000836  -0.000189  -0.000017
     4  C   -0.000047   0.000004   0.000002   0.000005   0.000046   0.000054
     5  C   -0.000078  -0.000023   0.000005  -0.000002  -0.002637  -0.000752
     6  H    0.000647   0.000006  -0.000012   0.000356   0.000002   0.000000
     7  H   -0.005651   0.003550   0.000058   0.002197  -0.000019   0.000038
     8  H    0.000463  -0.000012  -0.000087   0.000073  -0.007315   0.011487
     9  H   -0.000051   0.000008  -0.000007   0.000001  -0.000004   0.000002
    10  H    0.000002   0.000001   0.000000   0.000000   0.000027   0.000131
    11  O    0.000150  -0.000014   0.000002   0.000056  -0.000002   0.000000
    12  O    0.208321  -0.032180  -0.028587  -0.029493  -0.000101  -0.000011
    13  O   -0.000143  -0.000028   0.000001   0.000010   0.233621  -0.035150
    14  O    0.000000   0.000000   0.000000   0.000000  -0.003135   0.000136
    15  C   -0.000001   0.000000   0.000000   0.000000  -0.000001   0.000000
    16  H    0.000000   0.000000   0.000000   0.000000   0.000000   0.000000
    17  H    0.000000   0.000000   0.000000   0.000000   0.000000   0.000000
    18  O    0.000000   0.000000   0.000000   0.000000   0.000000   0.000000
    19  C    4.924096   0.374165   0.383467   0.371464   0.000003   0.000006
    20  H    0.374165   0.528876  -0.026404  -0.036802   0.000011   0.000007
    21  H    0.383467  -0.026404   0.488007  -0.027216   0.000000   0.000000
    22  H    0.371464  -0.036802  -0.027216   0.537251   0.000000   0.000000
    23  C    0.000003   0.000011   0.000000   0.000000   4.911564   0.367806
    24  H    0.000006   0.000007   0.000000   0.000000   0.367806   0.579971
    25  H    0.000000  -0.000001   0.000000   0.000000   0.382108  -0.028260
    26  H    0.000000   0.000000   0.000000   0.000000   0.366868  -0.042419
    27  C    0.000000   0.000000   0.000000   0.000000   0.000386  -0.000188
    28  H   -0.000001   0.000000   0.000000   0.000000   0.000229   0.000510
    29  H    0.000000   0.000000   0.000000   0.000000   0.000066   0.000016
    30  H    0.000000   0.000000   0.000000   0.000000   0.000008   0.000006
    31  C    0.000000   0.000000   0.000000   0.000000   0.000000   0.000000
    32  H    0.000000   0.000000   0.000000   0.000000   0.000000   0.000000
    33  H    0.000000   0.000000   0.000000   0.000000   0.000000   0.000000
    34  H    0.000000   0.000000   0.000000   0.000000   0.000000   0.000000
              25         26         27         28         29         30
     1  C    0.004339  -0.003566  -0.007057   0.004132   0.000004  -0.000767
     2  C   -0.000119  -0.000131   0.000202  -0.000518   0.000000   0.000053
     3  C    0.000002   0.000024   0.000038   0.000002   0.000000   0.000009
     4  C    0.000007  -0.000068  -0.004025  -0.001772  -0.000112   0.006896
     5  C   -0.000089   0.002223  -0.045057  -0.004661   0.005037  -0.007528
     6  H    0.000000   0.000000   0.000000   0.000000   0.000000   0.000000
     7  H   -0.000102   0.000052  -0.000007   0.000007   0.000000   0.000000
     8  H    0.000025  -0.001186   0.002386   0.004337  -0.000074  -0.000165
     9  H    0.000000  -0.000004   0.002415  -0.000194  -0.000017   0.000752
    10  H   -0.000042  -0.000302   0.005783  -0.000231  -0.000114  -0.000148
    11  O    0.000000  -0.000001   0.000018   0.000006   0.000000  -0.000033
    12  O    0.000001   0.000002  -0.000011  -0.000012   0.000000  -0.000003
    13  O   -0.032278  -0.034693  -0.000017  -0.000031  -0.000007   0.000006
    14  O    0.000166   0.008834   0.229143  -0.035405  -0.031519  -0.034543
    15  C    0.000000   0.000005  -0.001259   0.000473  -0.000006  -0.005736
    16  H    0.000000   0.000000  -0.000094   0.000006   0.000001   0.000220
    17  H    0.000000   0.000001  -0.000294   0.000038  -0.000012  -0.000588
    18  O    0.000000   0.000000  -0.006761   0.000118   0.000055   0.019778
    19  C    0.000000   0.000000   0.000000  -0.000001   0.000000   0.000000
    20  H   -0.000001   0.000000   0.000000   0.000000   0.000000   0.000000
    21  H    0.000000   0.000000   0.000000   0.000000   0.000000   0.000000
    22  H    0.000000   0.000000   0.000000   0.000000   0.000000   0.000000
    23  C    0.382108   0.366868   0.000386   0.000229   0.000066   0.000008
    24  H   -0.028260  -0.042419  -0.000188   0.000510   0.000016   0.000006
    25  H    0.526432  -0.030495   0.000002  -0.000023  -0.000002   0.000000
    26  H   -0.030495   0.562487  -0.000756  -0.000214  -0.000206   0.000118
    27  C    0.000002  -0.000756   4.974119   0.357784   0.386136   0.358307
    28  H   -0.000023  -0.000214   0.357784   0.583377  -0.028830  -0.040199
    29  H   -0.000002  -0.000206   0.386136  -0.028830   0.509247  -0.027548
    30  H    0.000000   0.000118   0.358307  -0.040199  -0.027548   0.551377
    31  C    0.000000   0.000000   0.000303  -0.000003  -0.000004  -0.000528
    32  H    0.000000   0.000000   0.000029  -0.000002   0.000002  -0.000102
    33  H    0.000000   0.000000  -0.000015   0.000000   0.000000   0.000094
    34  H    0.000000   0.000000   0.000034   0.000000  -0.000001  -0.000124
              31         32         33         34
     1  C    0.000002   0.000000   0.000000   0.000000
     2  C    0.000000   0.000000   0.000000   0.000000
     3  C    0.000003   0.000000   0.000000   0.000000
     4  C    0.005104   0.000005  -0.000097  -0.000234
     5  C   -0.000123   0.000055  -0.000015   0.000003
     6  H    0.000000   0.000000   0.000000   0.000000
     7  H    0.000000   0.000000   0.000000   0.000000
     8  H    0.000000   0.000000   0.000000   0.000000
     9  H   -0.000015   0.000082  -0.000005  -0.000033
    10  H   -0.000001  -0.000002   0.000000   0.000000
    11  O   -0.000049  -0.000001   0.000005   0.000001
    12  O    0.000000   0.000000   0.000000   0.000000
    13  O    0.000000   0.000000   0.000000   0.000000
    14  O   -0.000012  -0.000006   0.000001  -0.000001
    15  C   -0.039211  -0.007304  -0.007265   0.005534
    16  H   -0.004099  -0.002025   0.010259  -0.000101
    17  H   -0.004334   0.011998  -0.002336  -0.000133
    18  O    0.241417  -0.035955  -0.035618  -0.031463
    19  C    0.000000   0.000000   0.000000   0.000000
    20  H    0.000000   0.000000   0.000000   0.000000
    21  H    0.000000   0.000000   0.000000   0.000000
    22  H    0.000000   0.000000   0.000000   0.000000
    23  C    0.000000   0.000000   0.000000   0.000000
    24  H    0.000000   0.000000   0.000000   0.000000
    25  H    0.000000   0.000000   0.000000   0.000000
    26  H    0.000000   0.000000   0.000000   0.000000
    27  C    0.000303   0.000029  -0.000015   0.000034
    28  H   -0.000003  -0.000002   0.000000   0.000000
    29  H   -0.000004   0.000002   0.000000  -0.000001
    30  H   -0.000528  -0.000102   0.000094  -0.000124
    31  C    4.892844   0.367540   0.367534   0.385748
    32  H    0.367540   0.583678  -0.045202  -0.030258
    33  H    0.367534  -0.045202   0.587754  -0.030583
    34  H    0.385748  -0.030258  -0.030583   0.523321
 Mulliken charges:
               1
     1  C    0.136159
     2  C    0.014652
     3  C    0.308224
     4  C    0.058277
     5  C    0.085852
     6  H    0.279614
     7  H    0.237539
     8  H    0.182787
     9  H    0.240043
    10  H    0.191847
    11  O   -0.330226
    12  O   -0.461756
    13  O   -0.497193
    14  O   -0.478718
    15  C   -0.040733
    16  H    0.177634
    17  H    0.178345
    18  O   -0.477558
    19  C   -0.233668
    20  H    0.193131
    21  H    0.206368
    22  H    0.188179
    23  C   -0.223545
    24  H    0.156049
    25  H    0.178328
    26  H    0.173430
    27  C   -0.251543
    28  H    0.161077
    29  H    0.187887
    30  H    0.180387
    31  C   -0.212116
    32  H    0.157466
    33  H    0.155488
    34  H    0.178291
 Sum of Mulliken charges =   1.00000
 Mulliken charges with hydrogens summed into heavy atoms:
               1
     1  C    0.318946
     2  C    0.252191
     3  C    0.587838
     4  C    0.298321
     5  C    0.277699
    11  O   -0.330226
[...]
 002040,-0.00000899,-0.00058949,-0.00029765,-0.00026537,-0.00009473,0.0
 0004581,-0.00001586,0.00001823,-0.00000458,0.00000272,0.00001297,-0.00
 000433,0.00000636,0.00001002,-0.00000649,-0.00000940,0.00000851,-0.000
 09594,-0.00006207,-0.00000780,0.00000456,0.00000902,0.00002418,0.00000
 815,-0.00000135,-0.00005354,-0.00004374,0.00001904,0.10583651,-0.28097
 537,-0.01441148,-0.00092216,0.00186352,0.00092471,-0.11597207,0.296173
 22,-0.00069445,-0.00034800,-0.00063271,0.00014638,0.00007632,0.0001719
 4,-0.00032254,0.00018693,0.00000507,0.00046563,0.00081276,-0.00077553,
 -0.00028295,-0.00007546,-0.00572821,0.00000868,0.00002442,-0.00004241,
 0.00002486,-0.00004132,-0.00000528,0.00022369,0.00000605,0.00032590,0.
 00001338,-0.00021459,0.00021279,0.00079542,-0.00130500,-0.00057906,0.0
 0016915,-0.00059825,0.00015411,0.00014937,-0.00008733,0.00012699,0.000
 13208,0.00021234,0.00020136,0.02115824,-0.03747290,-0.01575784,0.00023
 506,-0.00013340,-0.00015269,-0.00004805,-0.00001230,0.00001918,0.00004
 377,0.00001738,0.00003942,0.00002497,0.00020175,0.00015168,-0.00008807
 ,0.00003019,0.00000806,0.00001653,-0.00000404,0.00000100,0.00002173,-0
 .00000873,0.00000751,0.00000653,-0.00000274,-0.00000742,-0.00002381,-0
 .00012825,-0.00012331,0.00001749,0.00001610,0.00003392,0.00000975,0.00
 002425,0.00001713,-0.00000860,-0.00003323,0.00000474,0.00005814,-0.002
 95115,-0.04597468,-0.00598638,0.01608225,0.00320429,-0.01112574,0.0187
 1944,0.06266953,-0.00020569,0.00026874,-0.00005300,0.00002409,-0.00010
 161,0.00005484,-0.00029026,-0.00011509,-0.00009958,-0.00000834,0.00030
 594,0.00098759,0.00006387,-0.00195858,0.00003129,0.00004684,-0.0000065
 7,0.00006899,-0.00000093,0.00002095,0.00000336,0.00008086,-0.00009064,
 0.00002042,0.00003975,0.00051584,-0.00001969,0.00004614,0.00017701,0.0
 0001709,0.00030160,0.00007006,-0.00042454,-0.00000292,0.00005513,-0.00
 003487,0.00012340,0.00000213,0.00005600,-0.00039749,-0.00037021,0.0082
 6121,0.00047456,0.00025509,-0.00016209,-0.00013274,0.00001422,0.000196
 15,-0.00010189,-0.00010183,-0.00000809,-0.00140680,-0.00095765,-0.0005
 3479,0.00000277,0.00001953,-0.00002197,0.00000653,-0.00000234,0.000003
 92,-0.00001218,0.00000629,-0.00000180,0.00000099,-0.00000332,-0.000001
 80,-0.00003038,-0.00006819,-0.00016570,0.00003902,0.00000479,0.0000665
 1,-0.00002354,0.00001965,0.00004427,0.00002478,0.00007418,-0.00002722,
 -0.16601306,-0.12042957,0.04711385,-0.01564084,-0.02002513,0.00672885,
 0.01173479,0.01057151,-0.00511342,0.17153338,0.00024781,-0.00028976,-0
 .00004217,0.00003775,-0.00002065,0.00007796,0.00032032,0.00000045,-0.0
 0011764,-0.00009903,-0.00162573,0.00042985,0.00097926,0.00239140,-0.00
 014766,-0.00003448,-0.00000861,0.00005015,-0.00001004,0.00001131,-0.00
 000825,-0.00011182,0.00008762,0.00007508,0.00020800,-0.00079782,-0.000
 82686,-0.00011133,-0.00005112,0.00004735,-0.00039102,0.00123159,0.0001
 9032,-0.00000075,0.00003997,-0.00002216,-0.00015094,-0.00011064,0.0000
 3901,0.00571349,0.00924512,-0.00200691,0.00030093,-0.00003028,-0.00037
 711,-0.00005236,0.00006872,0.00021932,-0.00002235,0.00000378,0.0000889
 8,-0.00064278,-0.00196957,-0.00072931,0.00002351,-0.00001546,0.0000230
 1,-0.00000544,0.00000150,0.00000001,0.00000235,0.00000130,-0.00000208,
 -0.00000584,0.00000138,0.00000017,0.00004682,0.00006831,0.00006509,0.0
 0000432,-0.00001527,-0.00002617,-0.00002450,-0.00000756,-0.00000798,-0
 .00000561,-0.00003040,-0.00003728,-0.12134956,-0.19080502,0.05415751,0
 .00292383,0.00290550,-0.00095544,-0.01959999,-0.01816234,0.00698252,0.
 13200133,0.19760687,-0.00018840,-0.00072922,-0.00059452,0.00022943,0.0
 0011032,0.00018287,0.00005123,0.00029413,-0.00002610,0.00066727,-0.001
 80785,-0.00009275,-0.00181511,0.00644890,0.00210991,-0.00002843,0.0000
 0588,-0.00001533,0.00001984,-0.00006535,-0.00002341,0.00007417,-0.0000
 0159,0.00010001,0.00017447,-0.00048529,0.00059092,-0.00004646,-0.00051
 108,-0.00015693,-0.00048759,-0.00006182,0.00021935,0.00020267,-0.00014
 751,0.00010315,0.00003969,0.00016397,0.00013417,0.02730943,0.01977288,
 -0.03045942,0.00096312,-0.00049782,-0.00151877,-0.00014589,0.00009277,
 0.00024820,-0.00002939,-0.00003657,0.00013136,0.00047048,0.00067882,0.
 00068594,-0.00011275,0.00002759,0.00001764,0.00001715,-0.00000073,-0.0
 0000097,0.00002574,-0.00000828,0.00000966,0.00001008,-0.00000344,-0.00
 000981,-0.00017799,-0.00005598,-0.00017040,0.00012937,-0.00001124,0.00
 008033,0.00006803,0.00002504,0.00005018,-0.00011783,-0.00021551,-0.000
 04207,0.04293643,0.04738751,-0.06855338,-0.01060084,-0.01276632,0.0081
 4885,-0.00200267,-0.00041561,0.00237179,-0.05689683,-0.05747226,0.0862
 6332,-0.00063610,-0.00006418,-0.00000497,-0.00013287,-0.00003574,-0.00
 004335,-0.00180936,-0.00019146,-0.00042420,-0.00301140,0.00171471,0.00
 173893,-0.00053353,-0.00083996,0.00028223,0.00022980,0.00002581,0.0000
 3746,0.00006748,-0.00002720,0.00005895,0.00006116,0.00003615,0.0000447
 6,-0.00043361,-0.00032428,0.00012033,0.00002436,-0.00002532,-0.0000388
 6,0.00288133,-0.00076287,-0.00077477,0.00067494,-0.00010855,0.00056749
 ,0.00064191,0.00066300,-0.00009701,0.00065988,0.00063558,0.00012379,-0
 .04179968,0.00161428,0.00682381,0.00515476,-0.00106194,-0.00507006,0.0
 0483210,0.00011145,-0.00555102,-0.21418430,0.00668049,-0.01196982,-0.0
 0047817,0.00029231,-0.00010573,0.00010847,-0.00003475,0.00002426,0.000
 05989,-0.00001962,0.00003167,0.00004626,-0.00003829,-0.00004976,-0.000
 02640,-0.00039963,-0.00019736,-0.00001689,0.00003420,0.00005102,0.0000
 5365,0.00006709,-0.00000396,-0.00005003,-0.00003451,0.00006140,-0.0005
 4276,-0.00084804,0.00057976,0.00036500,0.00033831,-0.00000313,0.000162
 62,0.00036041,-0.00004563,-0.00038955,-0.00054932,-0.00127620,0.470907
 23,-0.00003072,0.00002880,-0.00004595,-0.00000420,0.00002906,0.0000000
 3,0.00032962,0.00011217,0.00006691,0.00101160,0.00064543,-0.00024261,0
 .00012692,-0.00012449,-0.00028454,-0.00004063,0.00001075,-0.00003546,-
 0.00000560,-0.00000510,-0.00000708,0.00001020,-0.00000683,0.00000415,-
 0.00003277,0.00011380,-0.00008851,-0.00000649,0.00006285,0.00000187,-0
 .00047247,-0.00004549,0.00026942,-0.00004630,-0.00002733,-0.00002912,0
 .00001764,-0.00003902,0.00002007,0.00012622,0.00001459,0.00010438,0.00
 224217,-0.00462705,0.00075375,0.00294840,0.00155006,0.00017966,-0.0033
 3607,0.00158407,0.00005647,0.00506528,-0.06373482,-0.00095496,0.000028
 17,-0.00001768,0.00000783,-0.00000898,0.00000029,-0.00000253,-0.000000
 91,0.00000176,0.00000108,0.00000109,0.00000357,0.00000173,-0.00001436,
 0.00002422,0.00000522,0.00000481,-0.00000283,0.00000201,-0.00000197,-0
 .00000249,-0.00000006,0.00000349,-0.00000352,-0.00000523,0.00004962,-0
 .00021384,-0.00038387,-0.00002843,-0.00007820,0.00002637,-0.00011901,-
 0.00014721,0.00002041,-0.00013783,0.00026521,0.00033250,0.00332949,0.5
 7233575,-0.00025333,0.00019334,-0.00003698,-0.00007874,-0.00003273,-0.
 00001932,-0.00056081,-0.00031438,-0.00026467,0.00142384,0.00049248,-0.
 00522166,0.00072645,-0.00082678,0.00067871,0.00014951,0.00005230,-0.00
 005587,0.00002611,0.00000116,0.00002528,0.00005795,0.00000109,0.000031
 48,0.00027793,-0.00036408,0.00029017,-0.00006373,-0.00010478,0.0000197
 9,0.00256809,-0.00048942,0.00023976,0.00024038,-0.00004606,0.00021262,
 0.00033336,0.00028756,-0.00005322,-0.00012669,0.00051576,0.00016446,0.
 03810450,-0.00144053,-0.00000991,0.00217211,0.00047728,0.00008203,0.00
 283954,-0.00087030,0.00018293,-0.05609212,0.00208402,-0.09698951,-0.00
 016479,0.00011084,-0.00003397,0.00003964,-0.00001467,0.00001118,0.0000
 2216,-0.00000570,0.00001231,0.00001592,-0.00001297,-0.00001755,0.00000
 747,-0.00017329,-0.00007708,-0.00000347,0.00001680,0.00001898,0.000013
 05,0.00003111,0.00000310,-0.00001685,0.00000726,0.00001844,0.00010914,
 -0.00022590,-0.00031161,-0.00001857,-0.00000322,0.00003204,-0.00004925
 ,-0.00000790,0.00005694,-0.00011311,0.00021005,0.00005451,-0.04452445,
 0.00282795,0.61847314,0.00008482,-0.00001215,0.00002402,0.00002486,0.0
 0001085,0.00000414,0.00022001,0.00002311,0.00004611,0.00006495,-0.0005
 8336,-0.00009821,-0.00006513,0.00024779,0.00007895,-0.00002326,-0.0000
 0100,-0.00001554,-0.00000740,0.00000218,-0.00000661,-0.00000541,-0.000
 00157,-0.00000508,0.00026841,-0.00000062,0.00024772,-0.00004329,-0.000
 04430,0.00001530,-0.00025475,-0.00000452,0.00012481,-0.00007540,0.0000
 0599,-0.00006433,-0.00008392,-0.00008055,0.00000771,0.00001772,-0.0000
 8355,-0.00002422,0.00397637,0.00223606,-0.00707155,-0.00044938,-0.0001
 2544,0.00083751,0.00064891,-0.00132235,0.00151286,-0.02871174,0.030441
 97,-0.02105107,0.00005361,-0.00003349,0.00001282,-0.00001249,0.0000040
 1,-0.00000282,-0.00000620,0.00000206,-0.00000328,-0.00000520,0.0000045
 5,0.00000564,-0.00000184,0.00005239,0.00002261,0.00000198,-0.00000505,
 -0.00000544,-0.00000476,-0.00000845,-0.00000034,0.00000656,0.00000051,
 -0.00000605,0.00006695,0.00007500,-0.00006333,-0.00001841,-0.00002579,
 -0.00000157,-0.00002865,-0.00005378,0.00000184,0.00003211,0.00011260,0
 .00010864,-0.05867720,0.03451372,-0.02001253,0.07339732,-0.00003482,0.
 00000018,-0.00000027,-0.00000595,-0.00000818,0.00000345,-0.00011108,-0
 .00002331,-0.00001563,-0.00020674,0.00029591,-0.00033756,0.00004411,-0
 .00007981,0.00005382,0.00001268,-0.00000046,0.00000756,0.00000380,-0.0
 0000051,0.00000310,0.00000093,0.00000283,0.00000148,-0.00020123,-0.000
 06336,-0.00000161,0.00001320,-0.00000269,0.00000007,0.00018953,-0.0000
 0966,-0.00007121,0.00003718,0.00000226,0.00002173,0.00003664,0.0000439
 1,-0.00001195,-0.00001263,0.00003722,-0.00003442,-0.00109562,0.0011951
 3,0.00042112,-0.00017733,-0.00051852,-0.00003729,0.00106994,-0.0002717
 4,-0.00058796,0.00725277,0.00628738,-0.00006968,-0.00002559,0.00001420
 ,-0.00000429,0.00000592,-0.00000050,0.00000139,0.00000145,-0.00000080,
 0.00000018,0.00000128,-0.00000286,-0.00000244,0.00000310,-0.00002578,-
 0.00000868,-0.00000219,0.00000294,0.00000096,0.00000336,0.00000420,0.0
 0000003,-0.00000363,-0.00000021,0.00000465,-0.00003379,-0.00005500,0.0
 0008979,0.00002057,0.00002981,-0.00001060,0.00001104,0.00003003,-0.000
 00450,-0.00002030,-0.00002233,-0.00010169,0.03754478,-0.22547367,0.110
 51944,-0.04682914,0.23701373,0.00007934,-0.00001804,-0.00000275,0.0000
 2163,0.00001261,0.00000070,0.00020235,0.00003317,0.00005809,0.00028375
 ,-0.00025729,0.00017234,-0.00003248,0.00019957,-0.00002531,-0.00002539
 ,-0.00000436,-0.00000649,-0.00000674,0.00000099,-0.00000617,-0.0000144
 2,-0.00000197,-0.00000783,0.00018708,0.00010736,-0.00002811,0.00000651
 ,-0.00000111,-0.00000764,-0.00034034,0.00003981,0.00008313,-0.00007358
 ,0.00000508,-0.00005861,-0.00007579,-0.00008357,0.00000915,0.00002260,
 -0.00011067,-0.00006266,0.00177109,-0.00268412,0.00105778,-0.00016860,
 0.00020267,0.00007261,-0.00120063,0.00060614,0.00064593,-0.00947352,0.
 00493405,-0.00288449,0.00005199,-0.00003122,0.00001200,-0.00001228,0.0
 0000312,-0.00000266,-0.00000529,0.00000198,-0.00000269,-0.00000456,0.0
 0000439,0.00000521,-0.00000271,0.00005468,0.00002409,0.00000116,-0.000
 00446,-0.00000622,-0.00000414,-0.00000845,-0.00000039,0.00000612,-0.00
 000056,-0.00000470,0.00000744,0.00005346,0.00001761,0.00000232,-0.0000
 1852,-0.00001458,-0.00002819,-0.00005378,-0.00000437,0.00001321,0.0000
 8361,0.00006875,-0.02324338,0.10966645,-0.12571376,0.03368050,-0.12307
 397,0.12973962,0.00008469,0.00004885,-0.00001611,0.00002420,-0.0000003
 1,0.00000759,0.00027988,0.00009147,0.00010411,0.00067939,0.00017782,-0
 .00022219,0.00025867,0.00005347,-0.00005140,-0.00004988,-0.00000132,-0
 .00002031,-0.00000940,0.00000520,-0.00000700,-0.00000164,-0.00000731,-
 0.00000227,0.00020638,0.00003382,0.00015745,-0.00002656,-0.00000297,0.
 00001276,-0.00063222,0.00009237,0.00025085,-0.00009533,0.00001697,-0.0
 0008423,-0.00006849,-0.00007978,0.00001660,-0.00010806,-0.00003838,0.0
 0002977,0.00368536,-0.00264217,-0.00604877,-0.00000041,0.00116773,0.00
 126548,-0.00050223,0.00008693,0.00072551,-0.03187124,-0.02862741,-0.02
 010906,0.00006859,-0.00004242,0.00001523,-0.00001526,0.00000550,-0.000
 00355,-0.00000939,0.00000266,-0.00000521,-0.00000681,0.00000528,0.0000
 0762,0.00000725,0.00004629,0.00002464,0.00000367,-0.00000386,-0.000006
 10,-0.00000900,-0.00000755,0.00000152,0.00000590,0.00000847,-0.0000100
 9,0.00014797,0.00008024,-0.00027881,-0.00009142,-0.00009203,0.00001533
 ,-0.00007293,-0.00010570,0.00002766,0.00005442,0.00019550,0.00036350,-
 0.06629635,-0.05008530,-0.02696431,0.00451446,0.00401579,0.00382180,0.
 08356162,0.00003346,0.00001774,-0.00000547,0.00000312,-0.00000697,0.00
 000159,0.00006902,0.00001530,0.00001833,0.00001002,0.00003134,0.000291
 79,0.00007520,-0.00001030,-0.00002241,-0.00001420,-0.00000448,0.000003
 14,-0.00000396,0.00000316,-0.00000271,-0.00000147,-0.00000278,-0.00000
 147,0.00011763,-0.00000409,-0.00000627,-0.00000693,0.00000398,0.000003
 43,-0.00019791,0.00003385,-0.00000415,-0.00003604,0.00001493,-0.000027
 35,-0.00003543,-0.00002532,0.00001108,-0.00011100,-0.00000911,0.000021
 44,0.00078780,0.00171818,0.00008302,-0.00159547,-0.00068461,0.00047967
 ,0.00018761,-0.00057270,0.00004791,-0.00428910,0.00913535,0.00145065,0
 .00002635,-0.00001618,0.00000351,-0.00000498,0.00000216,-0.00000126,-0
 .00000357,0.00000042,-0.00000220,-0.00000303,0.00000214,0.00000348,0.0
 0000805,0.00001148,0.00000760,0.00000127,-0.00000104,-0.00000211,-0.00
 000455,-0.00000300,0.00000104,0.00000143,0.00000516,-0.00000452,0.0000
 7718,0.00006317,-0.00003541,-0.00003692,-0.00001416,0.00000004,0.00000
 163,0.00000103,0.00000571,0.00002082,0.00001863,0.00006785,-0.05298485
 ,-0.22875685,-0.10258628,-0.00599672,-0.02146574,-0.01383335,0.0630820
 1,0.23988121,0.00006040,0.00000234,0.00000219,0.00001367,0.00000032,0.
 00001162,0.00018859,0.00001613,0.00005397,0.00010205,-0.00000322,0.000
 07301,0.00004980,0.00008822,-0.00005487,-0.00002491,-0.00000562,-0.000
 00289,-0.00000789,0.00000230,-0.00000787,-0.00000438,-0.00000382,-0.00
 000460,0.00007936,-0.00001985,0.00000349,-0.00000353,0.00000299,0.0000
 1212,-0.00031742,0.00003194,0.00002663,-0.00007113,0.00001666,-0.00006
 406,-0.00006827,-0.00006324,0.00001141,-0.00006966,-0.00006552,0.00001
 340,0.00163286,0.00236119,0.00047564,-0.00123376,-0.00034924,0.0006737
 9,-0.00011557,0.00000791,0.00016618,-0.00929951,-0.00475493,-0.0019675
 3,0.00005083,-0.00003367,0.00001134,-0.00001142,0.00000516,-0.00000295
 ,-0.00000749,0.00000156,-0.00000463,-0.00000568,0.00000371,0.00000610,
 0.00000441,0.00003784,0.00001948,0.00000204,-0.00000332,-0.00000515,-0
 .00000552,-0.00000674,0.00000079,0.00000430,0.00000389,-0.00000635,0.0
 0007369,0.00007972,-0.00007687,-0.00003835,-0.00003454,0.00000056,-0.0
 0001975,-0.00003779,0.00000417,0.00002791,0.00007173,0.00013845,-0.029
 84103,-0.10155026,-0.11479324,0.00532117,0.01509158,0.00992194,0.04115
 434,0.11350616,0.11721132,0.00015764,-0.00006862,0.00004413,0.00004358
 ,0.00001316,0.00001703,0.00039428,0.00014799,0.00015054,0.00011719,-0.
 00028735,0.00172845,-0.00025061,0.00042559,-0.00020050,-0.00007548,-0.
 00001805,0.00000673,-0.00001444,0.00000197,-0.00001377,-0.00002711,-0.
 00000232,-0.00001577,0.00007761,0.00011196,-0.00000585,0.00000640,0.00
 001161,0.00000033,-0.00119673,0.00018685,0.00004767,-0.00014060,0.0000
 2396,-0.00013890,-0.00017596,-0.00015415,0.00001363,0.00000862,-0.0002
 3294,-0.00017402,-0.00507047,0.00009611,-0.00360974,-0.00008716,0.0002
 9863,0.00019214,-0.00003294,-0.00026849,0.00020218,-0.02967974,0.00207
 139,0.03303198,0.00009743,-0.00006482,0.00002407,-0.00002401,0.0000090
 2,-0.00000593,-0.00001482,0.00000544,-0.00000771,-0.00000954,0.0000069
 5,0.00000923,0.00000287,0.00009555,0.00005003,0.00000044,-0.00000828,-
 0.00001425,-0.00000768,-0.00001641,-0.00000150,0.00000869,-0.00000076,
 -0.00000936,-0.00000988,0.00005843,0.00015314,-0.00001484,-0.00000712,
 -0.00002235,-0.00000603,-0.00003380,-0.00001072,0.00002671,0.00004935,
 0.00006565,-0.09791263,0.00456358,0.09991561,0.00509538,-0.00150804,-0
 .00544681,0.00628416,0.00082354,-0.00762014,0.12242964,-0.00001529,0.0
 0002386,-0.00001311,-0.00000378,0.00001231,-0.00000568,-0.00001072,0.0
 0002316,0.00001069,0.00014660,0.00045176,-0.00009661,0.00011870,-0.000
 03460,0.00006705,-0.00000456,-0.00000314,0.00000417,0.00000059,-0.0000
 0169,0.00000041,0.00000071,-0.00000034,0.00000127,-0.00001692,0.000002
 22,-0.00000505,0.00000055,-0.00000974,-0.00000450,-0.00012886,0.000029
 82,-0.00002086,0.00000291,-0.00000804,0.00000453,0.00002472,0.00001210
 ,-0.00000421,-0.00000035,-0.00001100,-0.00004684,-0.00002184,0.0003611
 4,0.00036550,-0.00026488,0.00020125,0.00027853,0.00019474,0.00016756,-
 0.00039902,0.00144411,0.00015446,-0.00109728,-0.00000387,0.00000208,-0
 .00000116,0.00000016,-0.00000058,0.00000012,0.00000116,-0.00000003,0.0
 0000088,0.00000082,-0.00000017,-0.00000063,-0.00000002,-0.00000661,-0.
 00000195,-0.00000090,0.00000123,0.00000043,0.00000106,0.00000147,-0.00
 000014,-0.00000087,-0.00000045,0.00000219,-0.00003019,-0.00001582,0.00
 005288,0.00001421,0.00000651,-0.00000728,-0.00000535,-0.00000701,0.000
 00238,-0.00001436,0.00001387,-0.00001297,0.00490242,-0.05347593,-0.010
 30946,-0.01252096,0.00306539,0.02417633,0.01252015,0.00061811,-0.02439
 961,-0.00632991,0.04842684,-0.00003325,0.00000050,-0.00001461,-0.00001
 160,0.00000144,-0.00000353,-0.00008902,0.00000501,-0.00001518,-0.00017
 877,-0.00001040,0.00041770,-0.00001019,-0.00005751,-0.00000531,0.00000
 350,-0.00000040,0.00000654,0.00000222,-0.00000218,0.00000189,0.0000019
 3,0.00000063,0.00000321,0.00003708,0.00003191,-0.00002839,-0.00000108,
 0.00001160,-0.00000866,0.00000915,0.00001070,-0.00004878,0.00002817,-0
 .00000517,0.00002747,0.00003138,0.00003110,0.00000126,0.00002234,0.000
 02136,0.00001701,-0.00228473,0.00025971,0.00197861,-0.00016670,0.00005
 083,0.00002278,-0.00019952,-0.00016069,0.00016379,-0.00370150,0.000435
 48,0.01052099,-0.00002157,0.00001130,-0.00000606,0.00000468,-0.0000013
 4,0.00000069,0.00000294,-0.00000121,0.00000153,0.00000230,-0.00000139,
 -0.00000200,-0.00000215,-0.00001998,-0.00001122,0.00000015,0.00000130,
 0.00000352,0.00000198,0.00000315,-0.00000011,-0.00000236,-0.00000145,0
 .00000186,-0.00002340,-0.00003671,0.00001898,0.00001348,0.00001292,0.0
 0000400,0.00001062,0.00002007,-0.00000398,-0.00001696,-0.00003243,-0.0
 0004546,0.11271883,-0.01071810,-0.27700956,0.00637962,-0.00184663,-0.0
 1304952,0.00582765,0.00052753,-0.01184660,-0.11835523,0.01145903,0.288
 90713\\-0.00000453,-0.00000519,0.00000247,-0.00000012,-0.00000202,-0.0
 0001218,-0.00000244,0.00000820,-0.00001020,0.00000214,0.00000152,-0.00
 000471,-0.00001005,-0.00000853,0.00000813,-0.00000402,0.00000254,-0.00
 000990,-0.00000024,0.00000465,-0.00000314,0.00000394,-0.00000395,-0.00
 000272,0.00000095,-0.00000388,0.00000032,0.00000479,0.00000395,-0.0000
 0088,-0.00000400,0.00000940,-0.00000169,-0.00000344,-0.00000132,-0.000
 00384,0.00000907,0.00000361,0.00000143,0.00000081,0.00000420,0.0000113
 5,-0.00000300,0.00001303,0.00000740,-0.00000116,0.00000429,-0.00000164
 ,-0.00000311,0.00000526,-0.00000277,0.00000301,-0.00000611,-0.00000230
 ,-0.00000084,-0.00000678,-0.00001166,0.00000064,-0.00000629,-0.0000086
 4,0.00000039,-0.00000897,-0.00001277,0.00000005,-0.00000279,-0.0000114
 4,-0.00000373,0.00000072,0.00000267,0.00000016,-0.00000455,0.00000707,
 0.00000153,0.00000020,0.00000741,0.00000131,0.00000120,0.00001219,0.00
 000188,-0.00000682,0.00000611,0.00000791,-0.00000561,0.00000406,0.0000
 0193,-0.00000295,0.00001094,0.00000202,-0.00000153,0.00000581,0.000000
 29,0.00000548,0.00000368,-0.00000112,0.00000459,0.00000560,-0.00000197
 ,0.00000434,0.00000076,0.00000095,0.00000008,0.00000309\\\@


 ALMOST ANYTHING IS EASIER TO GET INTO THAN OUT OF.

                         -- AGNES ALLEN'S LAW FROM
                PAUL DICKSON'S "THE OFFICIAL RULES"
 Job cpu time:       0 days  1 hours 13 minutes 34.8 seconds.
 Elapsed time:       0 days  0 hours 18 minutes 26.7 seconds.
 File lengths (MBytes):  RWF=    380 Int=      0 D2E=      0 Chk=     17 Scr=      1
 Normal termination of Gaussian 16 at Fri May 24 08:56:13 2019.
