 Entering Gaussian System, Link 0=g16
 Input=clay-glucose_cation-175-b3lyp_d3bj-631gd-pcm_thf.gjf
 Output=clay-glucose_cation-175-b3lyp_d3bj-631gd-pcm_thf.out
 Initial command:
 /n/sw/g16_nehalem/g16/l1.exe "/scratch/Gau-188412.inp" -scrdir="/scratch/"
 Entering Link 1 = /n/sw/g16_nehalem/g16/l1.exe PID=    188413.
  
 Copyright (c) 1988,1990,1992,1993,1995,1998,2003,2009,2016,
            Gaussian, Inc.  All Rights Reserved.
  
 This is part of the Gaussian(R) 16 program.  It is based on
 the Gaussian(R) 09 system (copyright 2009, Gaussian, Inc.),
 the Gaussian(R) 03 system (copyright 2003, Gaussian, Inc.),
 the Gaussian(R) 98 system (copyright 1998, Gaussian, Inc.),
 the Gaussian(R) 94 system (copyright 1995, Gaussian, Inc.),
 the Gaussian 92(TM) system (copyright 1992, Gaussian, Inc.),
 the Gaussian 90(TM) system (copyright 1990, Gaussian, Inc.),
 the Gaussian 88(TM) system (copyright 1988, Gaussian, Inc.),
 the Gaussian 86(TM) system (copyright 1986, Carnegie Mellon
 University), and the Gaussian 82(TM) system (copyright 1983,
 Carnegie Mellon University). Gaussian is a federally registered
 trademark of Gaussian, Inc.
  
 This software contains proprietary and confidential information,
 including trade secrets, belonging to Gaussian, Inc.
  
 This software is provided under written license and may be
 used, copied, transmitted, or stored only in accord with that
 written license.
  
 The following legend is applicable only to US Government
 contracts under FAR:
  
                    RESTRICTED RIGHTS LEGEND
  
 Use, reproduction and disclosure by the US Government is
 subject to restrictions as set forth in subparagraphs (a)
 and (c) of the Commercial Computer Software - Restricted
 Rights clause in FAR 52.227-19.
  
 Gaussian, Inc.
 340 Quinnipiac St., Bldg. 40, Wallingford CT 06492
  
  
 ---------------------------------------------------------------
 Warning -- This program may not be used in any manner that
 competes with the business of Gaussian, Inc. or will provide
 assistance to any competitor of Gaussian, Inc.  The licensee
 of this program is prohibited from giving any competitor of
 Gaussian, Inc. access to this program.  By using this program,
 the user acknowledges that Gaussian, Inc. is engaged in the
 business of creating and licensing software in the field of
 computational chemistry and represents and warrants to the
 licensee that it is not a competitor of Gaussian, Inc. and that
 it will not use this program in any manner prohibited above.
 ---------------------------------------------------------------
  

 Cite this work as:
 Gaussian 16, Revision A.03,
 M. J. Frisch, G. W. Trucks, H. B. Schlegel, G. E. Scuseria, 
 M. A. Robb, J. R. Cheeseman, G. Scalmani, V. Barone, 
 G. A. Petersson, H. Nakatsuji, X. Li, M. Caricato, A. V. Marenich, 
 J. Bloino, B. G. Janesko, R. Gomperts, B. Mennucci, H. P. Hratchian, 
 J. V. Ortiz, A. F. Izmaylov, J. L. Sonnenberg, D. Williams-Young, 
 F. Ding, F. Lipparini, F. Egidi, J. Goings, B. Peng, A. Petrone, 
 T. Henderson, D. Ranasinghe, V. G. Zakrzewski, J. Gao, N. Rega, 
 G. Zheng, W. Liang, M. Hada, M. Ehara, K. Toyota, R. Fukuda, 
 J. Hasegawa, M. Ishida, T. Nakajima, Y. Honda, O. Kitao, H. Nakai, 
 T. Vreven, K. Throssell, J. A. Montgomery, Jr., J. E. Peralta, 
 F. Ogliaro, M. J. Bearpark, J. J. Heyd, E. N. Brothers, K. N. Kudin, 
 V. N. Staroverov, T. A. Keith, R. Kobayashi, J. Normand, 
 K. Raghavachari, A. P. Rendell, J. C. Burant, S. S. Iyengar, 
 J. Tomasi, M. Cossi, J. M. Millam, M. Klene, C. Adamo, R. Cammi, 
 J. W. Ochterski, R. L. Martin, K. Morokuma, O. Farkas, 
 J. B. Foresman, and D. J. Fox, Gaussian, Inc., Wallingford CT, 2016.
 
 ******************************************
 Gaussian 16:  ES64L-G16RevA.03 25-Dec-2016
                24-May-2019 
 ******************************************
 %nprocshared=4
 Will use up to    4 processors via shared memory.
 %mem=3GB
 -------------------------------------------------------------------
 #p b3lyp 6-31g* opt freq=noraman scrf=(pcm,solvent=tetrahydrofuran)
 -------------------------------------------------------------------
 1/18=20,19=15,26=3,38=1/1,3;
 2/9=110,12=2,17=6,18=5,40=1/2;
 3/5=1,6=6,7=1,11=2,25=1,30=1,70=2201,71=1,72=20,74=-5/1,2,3;
 4//1;
 5/5=2,38=5,53=20/2;
 6/7=2,8=2,9=2,10=2,28=1/1;
 7//1,2,3,16;
 1/18=20,19=15,26=3/3(2);
 2/9=110/2;
 99//99;
 2/9=110/2;
 3/5=1,6=6,7=1,11=2,25=1,30=1,70=2205,71=1,72=20,74=-5/1,2,3;
 4/5=5,16=3,69=1/1;
 5/5=2,38=5,53=20/2;
 7//1,2,3,16;
 1/18=20,19=15,26=3/3(-5);
 2/9=110/2;
 6/7=2,8=2,9=2,10=2,19=2,28=1/1;
 99/9=1/99;
 Leave Link    1 at Fri May 24 08:32:13 2019, MaxMem=   402653184 cpu:               0.3 elap:               0.1
 (Enter /n/sw/g16_nehalem/g16/l101.exe)
 -----
 title
 -----
 Symbolic Z-matrix:
 Charge =  1 Multiplicity = 1
 6                    -0.61234   0.67445  -0.63618 
 6                    -1.42331   0.76441   0.7053 
 6                    -1.0888   -0.30233   1.69598 
 6                     0.93528  -0.96815   0.56812 
 6                     0.1495   -0.65825  -0.70804 
 1                    -1.76471  -0.48896   2.53309 
 1                    -1.02595   1.65749   1.22596 
 1                    -1.33279   0.69415  -1.46239 
 1                     1.27235  -2.00472   0.5711 
 1                     0.86305  -0.61752  -1.53886 
 8                    -0.0264   -0.97365   1.72482 
 8                    -2.80414   0.97031   0.62667 
 8                     0.31496   1.72559  -0.74889 
 8                    -0.85087  -1.64215  -0.89271 
 6                     2.11083  -0.05981   0.93292 
 1                     2.49525  -0.346     1.92369 
 1                     1.80031   0.99179   0.96214 
 8                     3.05922  -0.29161  -0.083 
 6                    -3.57213  -0.09952   0.04952 
 1                    -3.45914  -1.02875   0.62208 
 1                    -4.61011   0.2299    0.09881 
 1                    -3.29222  -0.28594  -0.99137 
 6                    -0.2624    2.97754  -1.12626 
 1                     0.56567   3.68071  -1.22395 
 1                    -0.78851   2.88839  -2.0851 
 1                    -0.96253   3.34963  -0.36603 
 6                    -0.42569  -2.83047  -1.56673 
 1                    -1.30988  -3.46335  -1.65428 
 1                    -0.04265  -2.5913   -2.56618 
 1                     0.34577  -3.36993  -1.00357 
 6                     4.21363   0.53223   0.04364 
 1                     4.87681   0.2692   -0.78251 
 1                     3.95081   1.59681  -0.0241 
 1                     4.72896   0.34978   0.99679 
 
 ITRead=  0  0  0  0  0  0  0  0  0  0  0  0  0  0  0  0  0  0  0  0
 ITRead=  0  0  0  0  0  0  0  0  0  0  0  0  0  0
 MicOpt= -1 -1 -1 -1 -1 -1 -1 -1 -1 -1 -1 -1 -1 -1 -1 -1 -1 -1 -1 -1
 MicOpt= -1 -1 -1 -1 -1 -1 -1 -1 -1 -1 -1 -1 -1 -1
 NAtoms=     34 NQM=       34 NQMF=       0 NMMI=      0 NMMIF=      0
                NMic=       0 NMicF=      0.
                    Isotopes and Nuclear Properties:
 (Nuclear quadrupole moments (NQMom) in fm**2, nuclear magnetic moments (NMagM)
  in nuclear magnetons)

  Atom         1           2           3           4           5           6           7           8           9          10
 IAtWgt=          12          12          12          12          12           1           1           1           1           1
 AtmWgt=  12.0000000  12.0000000  12.0000000  12.0000000  12.0000000   1.0078250   1.0078250   1.0078250   1.0078250   1.0078250
 NucSpn=           0           0           0           0           0           1           1           1           1           1
 AtZEff=   0.0000000   0.0000000   0.0000000   0.0000000   0.0000000   0.0000000   0.0000000   0.0000000   0.0000000   0.0000000
 NQMom=    0.0000000   0.0000000   0.0000000   0.0000000   0.0000000   0.0000000   0.0000000   0.0000000   0.0000000   0.0000000
 NMagM=    0.0000000   0.0000000   0.0000000   0.0000000   0.0000000   2.7928460   2.7928460   2.7928460   2.7928460   2.7928460
 AtZNuc=   6.0000000   6.0000000   6.0000000   6.0000000   6.0000000   1.0000000   1.0000000   1.0000000   1.0000000   1.0000000

  Atom        11          12          13          14          15          16          17          18          19          20
 IAtWgt=          16          16          16          16          12           1           1          16          12           1
 AtmWgt=  15.9949146  15.9949146  15.9949146  15.9949146  12.0000000   1.0078250   1.0078250  15.9949146  12.0000000   1.0078250
 NucSpn=           0           0           0           0           0           1           1           0           0           1
 AtZEff=   0.0000000   0.0000000   0.0000000   0.0000000   0.0000000   0.0000000   0.0000000   0.0000000   0.0000000   0.0000000
 NQMom=    0.0000000   0.0000000   0.0000000   0.0000000   0.0000000   0.0000000   0.0000000   0.0000000   0.0000000   0.0000000
 NMagM=    0.0000000   0.0000000   0.0000000   0.0000000   0.0000000   2.7928460   2.7928460   0.0000000   0.0000000   2.7928460
 AtZNuc=   8.0000000   8.0000000   8.0000000   8.0000000   6.0000000   1.0000000   1.0000000   8.0000000   6.0000000   1.0000000

  Atom        21          22          23          24          25          26          27          28          29          30
 IAtWgt=           1           1          12           1           1           1          12           1           1           1
 AtmWgt=   1.0078250   1.0078250  12.0000000   1.0078250   1.0078250   1.0078250  12.0000000   1.0078250   1.0078250   1.0078250
 NucSpn=           1           1           0           1           1           1           0           1           1           1
 AtZEff=   0.0000000   0.0000000   0.0000000   0.0000000   0.0000000   0.0000000   0.0000000   0.0000000   0.0000000   0.0000000
 NQMom=    0.0000000   0.0000000   0.0000000   0.0000000   0.0000000   0.0000000   0.0000000   0.0000000   0.0000000   0.0000000
 NMagM=    2.7928460   2.7928460   0.0000000   2.7928460   2.7928460   2.7928460   0.0000000   2.7928460   2.7928460   2.7928460
 AtZNuc=   1.0000000   1.0000000   6.0000000   1.0000000   1.0000000   1.0000000   6.0000000   1.0000000   1.0000000   1.0000000

  Atom        31          32          33          34
 IAtWgt=          12           1           1           1
 AtmWgt=  12.0000000   1.0078250   1.0078250   1.0078250
 NucSpn=           0           1           1           1
 AtZEff=   0.0000000   0.0000000   0.0000000   0.0000000
 NQMom=    0.0000000   0.0000000   0.0000000   0.0000000
 NMagM=    0.0000000   2.7928460   2.7928460   2.7928460
 AtZNuc=   6.0000000   1.0000000   1.0000000   1.0000000
 Leave Link  101 at Fri May 24 08:32:14 2019, MaxMem=   402653184 cpu:               0.6 elap:               0.2
 (Enter /n/sw/g16_nehalem/g16/l103.exe)

 GradGradGradGradGradGradGradGradGradGradGradGradGradGradGradGradGradGrad
 Berny optimization.
 Initialization pass.
                           ----------------------------
                           !    Initial Parameters    !
                           ! (Angstroms and Degrees)  !
 --------------------------                            --------------------------
 ! Name  Definition              Value          Derivative Info.                !
 --------------------------------------------------------------------------------
 ! R1    R(1,2)                  1.5701         estimate D2E/DX2                !
 ! R2    R(1,5)                  1.5368         estimate D2E/DX2                !
 ! R3    R(1,8)                  1.0964         estimate D2E/DX2                !
 ! R4    R(1,13)                 1.4062         estimate D2E/DX2                !
 ! R5    R(2,3)                  1.4937         estimate D2E/DX2                !
 ! R6    R(2,7)                  1.1075         estimate D2E/DX2                !
 ! R7    R(2,12)                 1.3983         estimate D2E/DX2                !
 ! R8    R(3,6)                  1.092          estimate D2E/DX2                !
 ! R9    R(3,11)                 1.2571         estimate D2E/DX2                !
 ! R10   R(4,5)                  1.5304         estimate D2E/DX2                !
 ! R11   R(4,9)                  1.09           estimate D2E/DX2                !
 ! R12   R(4,11)                 1.5043         estimate D2E/DX2                !
 ! R13   R(4,15)                 1.5297         estimate D2E/DX2                !
 ! R14   R(5,10)                 1.0959         estimate D2E/DX2                !
 ! R15   R(5,14)                 1.4152         estimate D2E/DX2                !
 ! R16   R(12,19)                1.4379         estimate D2E/DX2                !
 ! R17   R(13,23)                1.4294         estimate D2E/DX2                !
 ! R18   R(14,27)                1.4308         estimate D2E/DX2                !
 ! R19   R(15,16)                1.1006         estimate D2E/DX2                !
 ! R20   R(15,17)                1.0969         estimate D2E/DX2                !
 ! R21   R(15,18)                1.409          estimate D2E/DX2                !
 ! R22   R(18,31)                1.4239         estimate D2E/DX2                !
 ! R23   R(19,20)                1.0973         estimate D2E/DX2                !
 ! R24   R(19,21)                1.0901         estimate D2E/DX2                !
 ! R25   R(19,22)                1.0939         estimate D2E/DX2                !
 ! R26   R(23,24)                1.0907         estimate D2E/DX2                !
 ! R27   R(23,25)                1.0973         estimate D2E/DX2                !
 ! R28   R(23,26)                1.0984         estimate D2E/DX2                !
 ! R29   R(27,28)                1.0909         estimate D2E/DX2                !
 ! R30   R(27,29)                1.0967         estimate D2E/DX2                !
 ! R31   R(27,30)                1.097          estimate D2E/DX2                !
 ! R32   R(31,32)                1.0916         estimate D2E/DX2                !
 ! R33   R(31,33)                1.0986         estimate D2E/DX2                !
 ! R34   R(31,34)                1.0988         estimate D2E/DX2                !
 ! A1    A(2,1,5)              110.2236         estimate D2E/DX2                !
 ! A2    A(2,1,8)              107.6625         estimate D2E/DX2                !
 ! A3    A(2,1,13)             111.4836         estimate D2E/DX2                !
 ! A4    A(5,1,8)              107.8246         estimate D2E/DX2                !
 ! A5    A(5,1,13)             108.5166         estimate D2E/DX2                !
 ! A6    A(8,1,13)             111.0688         estimate D2E/DX2                !
 ! A7    A(1,2,3)              114.2083         estimate D2E/DX2                !
 ! A8    A(1,2,7)              105.2215         estimate D2E/DX2                !
 ! A9    A(1,2,12)             118.0624         estimate D2E/DX2                !
 ! A10   A(3,2,7)              100.5874         estimate D2E/DX2                !
 ! A11   A(3,2,12)             111.321          estimate D2E/DX2                !
 ! A12   A(7,2,12)             105.188          estimate D2E/DX2                !
 ! A13   A(2,3,6)              119.4626         estimate D2E/DX2                !
 ! A14   A(2,3,11)             125.8639         estimate D2E/DX2                !
 ! A15   A(6,3,11)             114.4726         estimate D2E/DX2                !
 ! A16   A(5,4,9)              110.7096         estimate D2E/DX2                !
 ! A17   A(5,4,11)             108.2825         estimate D2E/DX2                !
 ! A18   A(5,4,15)             118.2417         estimate D2E/DX2                !
 ! A19   A(9,4,11)             101.0763         estimate D2E/DX2                !
 ! A20   A(9,4,15)             109.0494         estimate D2E/DX2                !
 ! A21   A(11,4,15)            108.0643         estimate D2E/DX2                !
 ! A22   A(1,5,4)              113.0264         estimate D2E/DX2                !
 ! A23   A(1,5,10)             109.0253         estimate D2E/DX2                !
 ! A24   A(1,5,14)             104.9862         estimate D2E/DX2                !
 ! A25   A(4,5,10)             107.7813         estimate D2E/DX2                !
 ! A26   A(4,5,14)             109.3275         estimate D2E/DX2                !
 ! A27   A(10,5,14)            112.7768         estimate D2E/DX2                !
 ! A28   A(3,11,4)             121.3794         estimate D2E/DX2                !
 ! A29   A(2,12,19)            116.1326         estimate D2E/DX2                !
 ! A30   A(1,13,23)            114.1736         estimate D2E/DX2                !
 ! A31   A(5,14,27)            115.3926         estimate D2E/DX2                !
 ! A32   A(4,15,16)            109.1895         estimate D2E/DX2                !
 ! A33   A(4,15,17)            110.9824         estimate D2E/DX2                !
 ! A34   A(4,15,18)            104.337          estimate D2E/DX2                !
 ! A35   A(16,15,17)           108.917          estimate D2E/DX2                !
 ! A36   A(16,15,18)           111.7893         estimate D2E/DX2                !
 ! A37   A(17,15,18)           111.5599         estimate D2E/DX2                !
 ! A38   A(15,18,31)           112.7309         estimate D2E/DX2                !
 ! A39   A(12,19,20)           111.4467         estimate D2E/DX2                !
 ! A40   A(12,19,21)           105.4016         estimate D2E/DX2                !
 ! A41   A(12,19,22)           111.8437         estimate D2E/DX2                !
 ! A42   A(20,19,21)           109.2902         estimate D2E/DX2                !
 ! A43   A(20,19,22)           109.0171         estimate D2E/DX2                !
 ! A44   A(21,19,22)           109.7666         estimate D2E/DX2                !
 ! A45   A(13,23,24)           106.3584         estimate D2E/DX2                !
 ! A46   A(13,23,25)           110.6831         estimate D2E/DX2                !
 ! A47   A(13,23,26)           111.8037         estimate D2E/DX2                !
 ! A48   A(24,23,25)           109.7612         estimate D2E/DX2                !
 ! A49   A(24,23,26)           109.1172         estimate D2E/DX2                !
 ! A50   A(25,23,26)           109.0676         estimate D2E/DX2                !
 ! A51   A(14,27,28)           106.1878         estimate D2E/DX2                !
 ! A52   A(14,27,29)           110.6074         estimate D2E/DX2                !
 ! A53   A(14,27,30)           112.0601         estimate D2E/DX2                !
 ! A54   A(28,27,29)           109.6616         estimate D2E/DX2                !
 ! A55   A(28,27,30)           109.0207         estimate D2E/DX2                !
 ! A56   A(29,27,30)           109.237          estimate D2E/DX2                !
 ! A57   A(18,31,32)           106.6085         estimate D2E/DX2                !
 ! A58   A(18,31,33)           111.1747         estimate D2E/DX2                !
 ! A59   A(18,31,34)           111.1813         estimate D2E/DX2                !
 ! A60   A(32,31,33)           109.4009         estimate D2E/DX2                !
 ! A61   A(32,31,34)           109.3649         estimate D2E/DX2                !
 ! A62   A(33,31,34)           109.0617         estimate D2E/DX2                !
 ! D1    D(5,1,2,3)             10.6607         estimate D2E/DX2                !
 ! D2    D(5,1,2,7)            119.9966         estimate D2E/DX2                !
 ! D3    D(5,1,2,12)          -123.0836         estimate D2E/DX2                !
 ! D4    D(8,1,2,3)            128.0257         estimate D2E/DX2                !
 ! D5    D(8,1,2,7)           -122.6383         estimate D2E/DX2                !
 ! D6    D(8,1,2,12)            -5.7186         estimate D2E/DX2                !
 ! D7    D(13,1,2,3)          -109.917          estimate D2E/DX2                !
 ! D8    D(13,1,2,7)            -0.5811         estimate D2E/DX2                !
 ! D9    D(13,1,2,12)          116.3387         estimate D2E/DX2                !
 ! D10   D(2,1,5,4)            -48.6208         estimate D2E/DX2                !
 ! D11   D(2,1,5,10)          -168.4589         estimate D2E/DX2                !
 ! D12   D(2,1,5,14)            70.4609         estimate D2E/DX2                !
 ! D13   D(8,1,5,4)           -165.8854         estimate D2E/DX2                !
 ! D14   D(8,1,5,10)            74.2764         estimate D2E/DX2                !
 ! D15   D(8,1,5,14)           -46.8037         estimate D2E/DX2                !
 ! D16   D(13,1,5,4)            73.7222         estimate D2E/DX2                !
 ! D17   D(13,1,5,10)          -46.1159         estimate D2E/DX2                !
 ! D18   D(13,1,5,14)         -167.1961         estimate D2E/DX2                !
 ! D19   D(2,1,13,23)          -77.536          estimate D2E/DX2                !
 ! D20   D(5,1,13,23)          160.8904         estimate D2E/DX2                !
 ! D21   D(8,1,13,23)           42.5332         estimate D2E/DX2                !
 ! D22   D(1,2,3,6)           -163.9538         estimate D2E/DX2                !
 ! D23   D(1,2,3,11)            21.4939         estimate D2E/DX2                !
 ! D24   D(7,2,3,6)             83.9052         estimate D2E/DX2                !
 ! D25   D(7,2,3,11)           -90.6471         estimate D2E/DX2                !
 ! D26   D(12,2,3,6)           -27.1373         estimate D2E/DX2                !
 ! D27   D(12,2,3,11)          158.3103         estimate D2E/DX2                !
 ! D28   D(1,2,12,19)           66.4208         estimate D2E/DX2                !
 ! D29   D(3,2,12,19)          -68.5625         estimate D2E/DX2                !
 ! D30   D(7,2,12,19)         -176.6415         estimate D2E/DX2                !
 ! D31   D(2,3,11,4)           -12.873          estimate D2E/DX2                !
 ! D32   D(6,3,11,4)           172.3377         estimate D2E/DX2                !
 ! D33   D(9,4,5,1)            167.2259         estimate D2E/DX2                !
 ! D34   D(9,4,5,10)           -72.2246         estimate D2E/DX2                !
 ! D35   D(9,4,5,14)            50.6859         estimate D2E/DX2                !
 ! D36   D(11,4,5,1)            57.2753         estimate D2E/DX2                !
 ! D37   D(11,4,5,10)          177.8248         estimate D2E/DX2                !
 ! D38   D(11,4,5,14)          -59.2647         estimate D2E/DX2                !
 ! D39   D(15,4,5,1)           -65.9652         estimate D2E/DX2                !
 ! D40   D(15,4,5,10)           54.5843         estimate D2E/DX2                !
 ! D41   D(15,4,5,14)          177.4948         estimate D2E/DX2                !
 ! D42   D(5,4,11,3)           -26.6434         estimate D2E/DX2                !
 ! D43   D(9,4,11,3)          -143.0141         estimate D2E/DX2                !
 ! D44   D(15,4,11,3)          102.5501         estimate D2E/DX2                !
 ! D45   D(5,4,15,16)          173.7946         estimate D2E/DX2                !
 ! D46   D(5,4,15,17)           53.7202         estimate D2E/DX2                !
 ! D47   D(5,4,15,18)          -66.5608         estimate D2E/DX2                !
 ! D48   D(9,4,15,16)          -58.6057         estimate D2E/DX2                !
 ! D49   D(9,4,15,17)         -178.6801         estimate D2E/DX2                !
 ! D50   D(9,4,15,18)           61.0389         estimate D2E/DX2                !
 ! D51   D(11,4,15,16)          50.445          estimate D2E/DX2                !
 ! D52   D(11,4,15,17)         -69.6293         estimate D2E/DX2                !
 ! D53   D(11,4,15,18)         170.0897         estimate D2E/DX2                !
 ! D54   D(1,5,14,27)          153.1667         estimate D2E/DX2                !
 ! D55   D(4,5,14,27)          -85.2996         estimate D2E/DX2                !
 ! D56   D(10,5,14,27)          34.5855         estimate D2E/DX2                !
 ! D57   D(2,12,19,20)          60.0823         estimate D2E/DX2                !
 ! D58   D(2,12,19,21)         178.5306         estimate D2E/DX2                !
 ! D59   D(2,12,19,22)         -62.2374         estimate D2E/DX2                !
 ! D60   D(1,13,23,24)        -177.237          estimate D2E/DX2                !
 ! D61   D(1,13,23,25)         -58.0636         estimate D2E/DX2                !
 ! D62   D(1,13,23,26)          63.7478         estimate D2E/DX2                !
 ! D63   D(5,14,27,28)        -178.3074         estimate D2E/DX2                !
 ! D64   D(5,14,27,29)         -59.3956         estimate D2E/DX2                !
 ! D65   D(5,14,27,30)          62.7578         estimate D2E/DX2                !
 ! D66   D(4,15,18,31)         176.7049         estimate D2E/DX2                !
 ! D67   D(16,15,18,31)        -65.4207         estimate D2E/DX2                !
 ! D68   D(17,15,18,31)         56.812          estimate D2E/DX2                !
 ! D69   D(15,18,31,32)        179.7306         estimate D2E/DX2                !
 ! D70   D(15,18,31,33)        -61.1076         estimate D2E/DX2                !
 ! D71   D(15,18,31,34)         60.6086         estimate D2E/DX2                !
 --------------------------------------------------------------------------------
 Trust Radius=3.00D-01 FncErr=1.00D-07 GrdErr=1.00D-06 EigMax=2.50D+02 EigMin=1.00D-04
 Number of steps in this run=    177 maximum allowed number of steps=    204.
 GradGradGradGradGradGradGradGradGradGradGradGradGradGradGradGradGradGrad

 Leave Link  103 at Fri May 24 08:32:14 2019, MaxMem=   402653184 cpu:               0.1 elap:               0.1
 (Enter /n/sw/g16_nehalem/g16/l202.exe)
                          Input orientation:                          
 ---------------------------------------------------------------------
 Center     Atomic      Atomic             Coordinates (Angstroms)
 Number     Number       Type             X           Y           Z
 ---------------------------------------------------------------------
      1          6           0       -0.612341    0.674448   -0.636183
      2          6           0       -1.423308    0.764409    0.705297
      3          6           0       -1.088798   -0.302328    1.695976
      4          6           0        0.935276   -0.968148    0.568122
      5          6           0        0.149497   -0.658250   -0.708041
      6          1           0       -1.764714   -0.488957    2.533093
      7          1           0       -1.025955    1.657494    1.225959
      8          1           0       -1.332789    0.694148   -1.462392
      9          1           0        1.272353   -2.004721    0.571102
     10          1           0        0.863046   -0.617515   -1.538859
     11          8           0       -0.026404   -0.973654    1.724821
     12          8           0       -2.804142    0.970314    0.626670
     13          8           0        0.314960    1.725590   -0.748887
     14          8           0       -0.850867   -1.642149   -0.892712
     15          6           0        2.110828   -0.059812    0.932924
     16          1           0        2.495250   -0.345995    1.923686
     17          1           0        1.800309    0.991786    0.962141
     18          8           0        3.059222   -0.291605   -0.083002
     19          6           0       -3.572133   -0.099519    0.049516
     20          1           0       -3.459143   -1.028745    0.622077
     21          1           0       -4.610112    0.229899    0.098813
     22          1           0       -3.292217   -0.285938   -0.991365
     23          6           0       -0.262403    2.977537   -1.126258
     24          1           0        0.565674    3.680714   -1.223952
     25          1           0       -0.788511    2.888391   -2.085101
     26          1           0       -0.962532    3.349628   -0.366028
     27          6           0       -0.425687   -2.830465   -1.566733
     28          1           0       -1.309879   -3.463350   -1.654280
     29          1           0       -0.042654   -2.591296   -2.566182
     30          1           0        0.345769   -3.369933   -1.003570
     31          6           0        4.213634    0.532233    0.043641
     32          1           0        4.876809    0.269198   -0.782513
     33          1           0        3.950807    1.596809   -0.024101
     34          1           0        4.728963    0.349781    0.996789
 ---------------------------------------------------------------------
                    Distance matrix (angstroms):
                    1          2          3          4          5
     1  C    0.000000
     2  C    1.570137   0.000000
     3  C    2.572949   1.493744   0.000000
     4  C    2.558044   2.929759   2.410860   0.000000
     5  C    1.536764   2.548568   2.727518   1.530385   0.000000
     6  H    3.567322   2.242392   1.091997   3.373526   3.767999
     7  H    2.145933   1.107510   2.016375   3.342630   3.238011
     8  H    1.096383   2.170716   3.320811   3.468477   2.143641
     9  H    3.491068   3.866869   3.120660   1.090006   2.170253
    10  H    2.158879   3.489035   3.791200   2.137178   1.095933
    11  O    2.938350   2.451863   1.257057   1.504264   2.459520
    12  O    2.546827   1.398314   2.388606   4.212400   3.627349
    13  O    1.406232   2.461726   3.472800   3.061949   2.389925
    14  O    2.342931   2.944969   2.924558   2.403876   1.415235
    15  C    3.227520   3.636107   3.298283   1.529731   2.626350
    16  H    4.153475   4.251184   3.591540   2.158274   3.539216
    17  H    2.911395   3.241817   3.249644   2.178273   2.870071
    18  O    3.836619   4.672222   4.513419   2.322244   2.998600
    19  C    3.135216   2.407046   2.986455   4.619546   3.838828
    20  H    3.548009   2.714213   2.701754   4.395168   3.863776
    21  H    4.089012   3.287741   3.903056   5.692705   4.908533
    22  H    2.868838   2.733992   3.475216   4.557314   3.473368
    23  C    2.380514   3.098424   4.405162   4.458003   3.682868
    24  H    3.281894   4.022796   5.208443   4.996004   4.389302
    25  H    2.651781   3.563788   4.956552   4.988379   3.918522
    26  H    2.711495   2.836090   4.195782   4.808066   4.173328
    27  C    3.631140   4.368122   4.180486   3.142937   2.405557
    28  H    4.317922   4.842976   4.611415   4.025646   3.300565
    29  H    3.835951   4.885646   4.949726   3.662624   2.688174
    30  H    4.172525   4.810680   4.330789   2.930240   2.734792
    31  C    4.875697   5.680388   5.616270   3.643330   4.301103
    32  H    5.506034   6.492325   6.485215   4.346369   4.818006
    33  H    4.695499   5.486896   5.653583   4.002894   4.472474
    34  H    5.594777   6.173113   5.895799   4.038905   4.989397
                    6          7          8          9         10
     6  H    0.000000
     7  H    2.619469   0.000000
     8  H    4.189296   2.872179   0.000000
     9  H    3.920552   4.372971   4.266820   0.000000
    10  H    4.847932   4.048235   2.558906   2.558087   0.000000
    11  O    1.977361   2.858480   3.827079   2.020133   3.401406
    12  O    2.616167   1.998327   2.570083   5.046953   4.545216
    13  O    4.472209   2.388034   2.070758   4.071141   2.532705
    14  O    3.728419   3.925184   2.452564   2.604280   2.098780
    15  C    4.214799   3.588094   4.261982   2.148634   2.824483
    16  H    4.305706   4.110922   5.215487   2.465022   3.837581
    17  H    4.167719   2.915568   3.972814   3.067687   3.118223
    18  O    5.491198   4.711798   4.707886   2.560375   2.654981
    19  C    3.096220   3.309703   2.816103   5.231720   4.739416
    20  H    2.610449   3.674365   3.440168   4.831375   4.849750
    21  H    3.812973   4.019287   3.659745   6.310307   5.775425
    22  H    3.846594   3.718790   2.240936   5.121603   4.204272
    23  C    5.259693   2.803293   2.544126   5.482646   3.789627
    24  H    6.077191   3.553698   3.546913   6.003814   4.319996
    25  H    5.804065   3.540424   2.344932   5.936760   3.913745
    26  H    4.876795   2.324169   2.896667   5.877242   4.521780
    27  C    4.907568   5.319890   3.640964   2.852285   2.561007
    28  H    5.156353   5.882128   4.161987   3.707809   3.582416
    29  H    5.778229   5.779224   3.698235   3.451936   2.402394
    30  H    5.026146   5.668108   4.420953   2.280779   2.851301
    31  C    6.555978   5.487930   5.749536   3.919883   3.879777
    32  H    7.461761   6.387797   6.261144   4.471586   4.179547
    33  H    6.599761   5.131714   5.549763   4.527626   4.090476
    34  H    6.725441   5.906074   6.550649   4.203932   4.723398
                   11         12         13         14         15
    11  O    0.000000
    12  O    3.563815   0.000000
    13  O    3.677184   3.491618   0.000000
    14  O    2.824554   3.598440   3.566722   0.000000
    15  C    2.455599   5.031091   3.039949   3.822090   0.000000
    16  H    2.606193   5.612350   4.023403   4.561646   1.100586
    17  H    2.789537   4.616706   2.381669   4.172149   1.096875
    18  O    3.640673   6.039463   3.470368   4.215257   1.409001
    19  C    4.017829   1.437866   4.367833   3.266924   5.751350
    20  H    3.605936   2.103636   4.869267   3.077979   5.662158
    21  H    5.010272   2.021973   5.216514   4.315044   6.778695
    22  H    4.303040   2.105807   4.137241   2.794500   5.739940
    23  C    4.878141   3.682681   1.429380   4.662867   4.370120
    24  H    5.541567   4.703906   2.027573   5.518077   4.585973
    25  H    5.478294   3.885291   2.086917   4.685240   5.119233
    26  H    4.892724   3.168298   2.101444   5.020727   4.770440
    27  C    3.800198   4.991391   4.687757   1.430796   4.512063
    28  H    4.389102   5.205087   5.512253   2.026685   5.475302
    29  H    4.585819   5.523150   4.697441   2.086765   4.825934
    30  H    3.650313   5.605120   5.101977   2.104629   4.221652
    31  C    4.803331   7.055566   4.153536   5.590516   2.358630
    32  H    5.645609   7.840559   4.788807   6.039177   3.271333
    33  H    5.048189   6.815081   3.709620   5.856740   2.654395
    34  H    4.989492   7.567676   4.942030   6.218722   2.650750
                   16         17         18         19         20
    16  H    0.000000
    17  H    1.788063   0.000000
    18  O    2.085143   2.079490   0.000000
    19  C    6.355030   5.557604   6.635460   0.000000
    20  H    6.133117   5.644468   6.597696   1.097294   0.000000
    21  H    7.358531   6.513010   7.689194   1.090113   1.784018
    22  H    6.480425   5.602016   6.416068   1.093864   1.784046
    23  C    5.287029   3.543924   4.775863   4.669586   5.415359
    24  H    5.463083   3.678812   4.826890   5.747463   6.464208
    25  H    6.108577   4.425470   5.378273   4.607901   5.459399
    26  H    5.554879   3.867395   5.432604   4.345033   5.136104
    27  C    5.185315   5.095082   4.559809   4.468831   4.151980
    28  H    6.082660   6.030519   5.622982   4.397280   3.965910
    29  H    5.625055   5.355749   4.590904   5.050550   4.927368
    30  H    4.725812   5.000430   4.205517   5.211003   4.754077
    31  C    2.694197   2.622779   1.423873   7.811358   7.851290
    32  H    3.657020   3.609820   2.026682   8.497814   8.552522
    33  H    3.112396   2.442001   2.089139   7.712171   7.887867
    34  H    2.516489   2.998397   2.089344   8.367042   8.311788
                   21         22         23         24         25
    21  H    0.000000
    22  H    1.786455   0.000000
    23  C    5.287049   4.455136   0.000000
    24  H    6.359764   5.538208   1.090740   0.000000
    25  H    5.142149   4.188218   1.097322   1.789740   0.000000
    26  H    4.822201   4.363006   1.098445   1.783554   1.788361
    27  C    5.445116   3.875908   5.826969   6.595131   5.753752
    28  H    5.254042   3.803297   6.546834   7.398684   6.387648
    29  H    5.993581   4.284202   5.756177   6.442806   5.551100
    30  H    6.223728   4.769289   6.377719   7.057517   6.451583
    31  C    8.829096   7.620921   5.232885   4.982704   5.924903
    32  H    9.527851   8.190530   5.819344   5.515360   6.375952
    33  H    8.670230   7.545975   4.568621   4.152280   5.327010
    34  H    9.382913   8.288319   6.027119   5.775793   6.810661
                   26         27         28         29         30
    26  H    0.000000
    27  C    6.318500   0.000000
    28  H    6.942400   1.090873   0.000000
    29  H    6.401674   1.096729   1.788268   0.000000
    30  H    6.875363   1.096961   1.781382   1.788548   0.000000
    31  C    5.907473   5.951835   7.025441   5.889278   5.593204
    32  H    6.615165   6.191880   7.277843   5.963641   5.815708
    33  H    5.227828   6.413592   7.479138   6.320612   6.214836
    34  H    6.576433   6.576931   7.618120   6.641764   6.086879
                   31         32         33         34
    31  C    0.000000
    32  H    1.091567   0.000000
    33  H    1.098631   1.787518   0.000000
    34  H    1.098792   1.787251   1.789643   0.000000
 Stoichiometry    C10H19O5(1+)
 Framework group  C1[X(C10H19O5)]
 Deg. of freedom    96
 Full point group                 C1      NOp   1
 Largest Abelian subgroup         C1      NOp   1
 Largest concise Abelian subgroup C1      NOp   1
                         Standard orientation:                         
 ---------------------------------------------------------------------
 Center     Atomic      Atomic             Coordinates (Angstroms)
 Number     Number       Type             X           Y           Z
 ---------------------------------------------------------------------
      1          6           0       -0.612341    0.674448   -0.636183
      2          6           0       -1.423308    0.764409    0.705297
      3          6           0       -1.088798   -0.302328    1.695976
      4          6           0        0.935276   -0.968148    0.568122
      5          6           0        0.149497   -0.658250   -0.708041
      6          1           0       -1.764714   -0.488957    2.533093
      7          1           0       -1.025955    1.657494    1.225959
      8          1           0       -1.332789    0.694148   -1.462392
      9          1           0        1.272353   -2.004721    0.571102
     10          1           0        0.863046   -0.617515   -1.538859
     11          8           0       -0.026404   -0.973654    1.724821
     12          8           0       -2.804142    0.970314    0.626670
     13          8           0        0.314960    1.725590   -0.748887
     14          8           0       -0.850867   -1.642149   -0.892712
     15          6           0        2.110828   -0.059812    0.932924
     16          1           0        2.495250   -0.345995    1.923686
     17          1           0        1.800309    0.991786    0.962141
     18          8           0        3.059222   -0.291605   -0.083002
     19          6           0       -3.572133   -0.099519    0.049516
     20          1           0       -3.459143   -1.028745    0.622077
     21          1           0       -4.610112    0.229899    0.098813
     22          1           0       -3.292217   -0.285938   -0.991365
     23          6           0       -0.262403    2.977537   -1.126258
     24          1           0        0.565674    3.680714   -1.223952
     25          1           0       -0.788511    2.888391   -2.085101
     26          1           0       -0.962532    3.349628   -0.366028
     27          6           0       -0.425687   -2.830465   -1.566733
     28          1           0       -1.309879   -3.463350   -1.654280
     29          1           0       -0.042654   -2.591296   -2.566182
     30          1           0        0.345769   -3.369933   -1.003570
     31          6           0        4.213634    0.532233    0.043641
     32          1           0        4.876809    0.269198   -0.782513
     33          1           0        3.950807    1.596809   -0.024101
     34          1           0        4.728963    0.349781    0.996789
 ---------------------------------------------------------------------
 Rotational constants (GHZ):           0.7682411           0.4526803           0.3803843
 Leave Link  202 at Fri May 24 08:32:14 2019, MaxMem=   402653184 cpu:               0.2 elap:               0.1
 (Enter /n/sw/g16_nehalem/g16/l301.exe)
 Standard basis: 6-31G(d) (6D, 7F)
 Ernie: Thresh=  0.10000D-02 Tol=  0.10000D-05 Strict=F.
 There are   263 symmetry adapted cartesian basis functions of A   symmetry.
 There are   263 symmetry adapted basis functions of A   symmetry.
   263 basis functions,   496 primitive gaussians,   263 cartesian basis functions
    59 alpha electrons       59 beta electrons
       nuclear repulsion energy      1174.1279214169 Hartrees.
 IExCor=  402 DFT=T Ex+Corr=B3LYP ExCW=0 ScaHFX=  0.200000
 ScaDFX=  0.800000  0.720000  1.000000  0.810000 ScalE2=  1.000000  1.000000
 IRadAn=      5 IRanWt=     -1 IRanGd=            0 ICorTp=0 IEmpDi=  4
 NAtoms=   34 NActive=   34 NUniq=   34 SFac= 1.00D+00 NAtFMM=   60 NAOKFM=F Big=F
 Integral buffers will be    131072 words long.
 Raffenetti 2 integral format.
 Two-electron integral symmetry is turned on.
 ------------------------------------------------------------------------------
 Polarizable Continuum Model (PCM)
 =================================
 Model                : PCM.
 Atomic radii         : UFF (Universal Force Field).
 Polarization charges : Total charges.
 Charge compensation  : None.
 Solution method      : On-the-fly selection.
 Cavity type          : Scaled VdW (van der Waals Surface) (Alpha=1.100).
 Cavity algorithm     : GePol (No added spheres)
                        Default sphere list used, NSphG=   34.
                        Lebedev-Laikov grids with approx.  5.0 points / Ang**2.
                        Smoothing algorithm: York/Karplus (Gamma=1.0000).
                        Polarization charges: spherical gaussians, with
                                              point-specific exponents (IZeta= 3).
                        Self-potential: point-specific (ISelfS= 7).
                        Self-field    : sphere-specific E.n sum rule (ISelfD= 2).
 1st derivatives      : Analytical E(r).r(x)/FMM algorithm (CHGder, D1EAlg=3).
                        Cavity 1st derivative terms included.
 Solvent              : TetraHydroFuran, Eps=   7.425700 Eps(inf)=   1.974025
 ------------------------------------------------------------------------------
 GePol: Number of generator spheres                  =      34
 GePol: Total number of spheres                      =      34
 GePol: Number of exposed spheres                    =      34 (100.00%)
 GePol: Number of points                             =    2290
 GePol: Average weight of points                     =       0.13
 GePol: Minimum weight of points                     =   0.42D-10
 GePol: Maximum weight of points                     =    0.20577
 GePol: Number of points with low weight             =     138
 GePol: Fraction of low-weight points (<1% of avg)   =       6.03%
 GePol: Cavity surface area                          =    302.106 Ang**2
 GePol: Cavity volume                                =    321.190 Ang**3
 Leave Link  301 at Fri May 24 08:32:14 2019, MaxMem=   402653184 cpu:               0.4 elap:               0.1
 (Enter /n/sw/g16_nehalem/g16/l302.exe)
 NPDir=0 NMtPBC=     1 NCelOv=     1 NCel=       1 NClECP=     1 NCelD=      1
         NCelK=      1 NCelE2=     1 NClLst=     1 CellRange=     0.0.
 One-electron integrals computed using PRISM.
 One-electron integral symmetry used in STVInt
 NBasis=   263 RedAO= T EigKep=  1.68D-03  NBF=   263
 NBsUse=   263 1.00D-06 EigRej= -1.00D+00 NBFU=   263
 Precomputing XC quadrature grid using
 IXCGrd= 4 IRadAn=           5 IRanWt=          -1 IRanGd=           0 AccXCQ= 0.00D+00.
 Generated NRdTot=       0 NPtTot=           0 NUsed=           0 NTot=          32
 NSgBfM=   262   262   262   262   262 MxSgAt=    34 MxSgA2=    34.
 Leave Link  302 at Fri May 24 08:32:15 2019, MaxMem=   402653184 cpu:               2.7 elap:               0.7
 (Enter /n/sw/g16_nehalem/g16/l303.exe)
 DipDrv:  MaxL=1.
 Leave Link  303 at Fri May 24 08:32:15 2019, MaxMem=   402653184 cpu:               0.2 elap:               0.1
 (Enter /n/sw/g16_nehalem/g16/l401.exe)
 ExpMin= 1.61D-01 ExpMax= 5.48D+03 ExpMxC= 8.25D+02 IAcc=3 IRadAn=         5 AccDes= 0.00D+00
 Harris functional with IExCor=  402 and IRadAn=       5 diagonalized for initial guess.
 HarFok:  IExCor=  402 AccDes= 0.00D+00 IRadAn=         5 IDoV= 1 UseB2=F ITyADJ=14
 ICtDFT=  3500011 ScaDFX=  1.000000  1.000000  1.000000  1.000000
 FoFCou: FMM=F IPFlag=           0 FMFlag=      100000 FMFlg1=           0
         NFxFlg=           0 DoJE=T BraDBF=F KetDBF=T FulRan=T
         wScrn=  0.000000 ICntrl=       500 IOpCl=  0 I1Cent=   200000004 NGrid=           0
         NMat0=    1 NMatS0=      1 NMatT0=    0 NMatD0=    1 NMtDS0=    0 NMtDT0=    0
 Petite list used in FoFCou.
 Harris En= -768.257685618358    
 JPrj=0 DoOrth=F DoCkMO=F.
 Leave Link  401 at Fri May 24 08:32:20 2019, MaxMem=   402653184 cpu:              20.1 elap:               5.1
 (Enter /n/sw/g16_nehalem/g16/l502.exe)
 Integral symmetry usage will be decided dynamically.
 Closed shell SCF:
 Using DIIS extrapolation, IDIIS=  1040.
 NGot=   402653184 LenX=   402510103 LenY=   402440493
 Requested convergence on RMS density matrix=1.00D-08 within 128 cycles.
 Requested convergence on MAX density matrix=1.00D-06.
 Requested convergence on             energy=1.00D-06.
 No special actions if energy rises.
 Fock matrices will be formed incrementally for  20 cycles.

 Cycle   1  Pass 1  IDiag  1:
 FoFJK:  IHMeth= 1 ICntrl=       0 DoSepK=F KAlg= 0 I1Cent=           0 FoldK=F
 IRaf= 890000000 NMat=       1 IRICut=       1 DoRegI=T DoRafI=F ISym2E= 0 IDoP0=0 IntGTp=1.
 FoFCou: FMM=F IPFlag=           0 FMFlag=      100000 FMFlg1=           0
         NFxFlg=           0 DoJE=F BraDBF=F KetDBF=F FulRan=T
         wScrn=  0.000000 ICntrl=         0 IOpCl=  0 I1Cent=           0 NGrid=           0
         NMat0=    1 NMatS0=      1 NMatT0=    0 NMatD0=    1 NMtDS0=    0 NMtDT0=    0
 Symmetry not used in FoFCou.
 Inv3:  Mode=1 IEnd=    15732300.
 Iteration    1 A*A^-1 deviation from unit magnitude is 7.44D-15 for    561.
 Iteration    1 A*A^-1 deviation from orthogonality  is 2.67D-15 for   2281    462.
 Iteration    1 A^-1*A deviation from unit magnitude is 7.44D-15 for    561.
 Iteration    1 A^-1*A deviation from orthogonality  is 6.25D-14 for   1968   1946.
 E= -768.090905525330    
 DIIS: error= 2.24D-02 at cycle   1 NSaved=   1.
 NSaved= 1 IEnMin= 1 EnMin= -768.090905525330     IErMin= 1 ErrMin= 2.24D-02
 ErrMax= 2.24D-02  0.00D+00 EMaxC= 1.00D-01 BMatC= 2.53D-01 BMatP= 2.53D-01
 IDIUse=3 WtCom= 7.76D-01 WtEn= 2.24D-01
 Coeff-Com:  0.100D+01
 Coeff-En:   0.100D+01
 Coeff:      0.100D+01
 Gap=     0.036 Goal=   None    Shift=    0.000
 GapD=    0.036 DampG=0.250 DampE=0.500 DampFc=0.2500 IDamp=-1.
 Damping current iteration by 2.50D-01
 RMSDP=4.26D-03 MaxDP=1.04D-01              OVMax= 1.85D-01

 Cycle   2  Pass 1  IDiag  1:
 RMSU=  1.06D-03    CP:  9.96D-01
 E= -768.172725710488     Delta-E=       -0.081820185159 Rises=F Damp=T
 DIIS: error= 1.09D-02 at cycle   2 NSaved=   2.
 NSaved= 2 IEnMin= 2 EnMin= -768.172725710488     IErMin= 2 ErrMin= 1.09D-02
 ErrMax= 1.09D-02  0.00D+00 EMaxC= 1.00D-01 BMatC= 7.22D-02 BMatP= 2.53D-01
 IDIUse=3 WtCom= 8.91D-01 WtEn= 1.09D-01
 Coeff-Com: -0.879D+00 0.188D+01
 Coeff-En:   0.000D+00 0.100D+01
 Coeff:     -0.783D+00 0.178D+01
 Gap=     0.153 Goal=   None    Shift=    0.000
 RMSDP=1.22D-03 MaxDP=2.74D-02 DE=-8.18D-02 OVMax= 2.02D-01

 Cycle   3  Pass 1  IDiag  1:
 RMSU=  9.56D-04    CP:  9.87D-01  1.69D+00
 E= -768.318806388799     Delta-E=       -0.146080678311 Rises=F Damp=F
 DIIS: error= 3.76D-03 at cycle   3 NSaved=   3.
 NSaved= 3 IEnMin= 3 EnMin= -768.318806388799     IErMin= 3 ErrMin= 3.76D-03
 ErrMax= 3.76D-03  0.00D+00 EMaxC= 1.00D-01 BMatC= 1.11D-02 BMatP= 7.22D-02
 IDIUse=3 WtCom= 9.62D-01 WtEn= 3.76D-02
 Coeff-Com: -0.422D+00 0.801D+00 0.621D+00
 Coeff-En:   0.000D+00 0.000D+00 0.100D+01
 Coeff:     -0.406D+00 0.771D+00 0.636D+00
 Gap=     0.131 Goal=   None    Shift=    0.000
 RMSDP=4.62D-04 MaxDP=1.32D-02 DE=-1.46D-01 OVMax= 1.49D-02

 Cycle   4  Pass 1  IDiag  1:
 RMSU=  3.32D-04    CP:  9.90D-01  1.82D+00  7.01D-01
 E= -768.326148990016     Delta-E=       -0.007342601217 Rises=F Damp=F
 DIIS: error= 1.84D-03 at cycle   4 NSaved=   4.
 NSaved= 4 IEnMin= 4 EnMin= -768.326148990016     IErMin= 4 ErrMin= 1.84D-03
 ErrMax= 1.84D-03  0.00D+00 EMaxC= 1.00D-01 BMatC= 2.24D-03 BMatP= 1.11D-02
 IDIUse=3 WtCom= 9.82D-01 WtEn= 1.84D-02
 Coeff-Com: -0.131D+00 0.225D+00 0.328D+00 0.578D+00
 Coeff-En:   0.000D+00 0.000D+00 0.123D+00 0.877D+00
 Coeff:     -0.129D+00 0.220D+00 0.324D+00 0.584D+00
 Gap=     0.134 Goal=   None    Shift=    0.000
 RMSDP=1.57D-04 MaxDP=5.72D-03 DE=-7.34D-03 OVMax= 5.64D-03

 Cycle   5  Pass 1  IDiag  1:
 RMSU=  9.78D-05    CP:  9.89D-01  1.81D+00  7.71D-01  6.97D-01
 E= -768.327892899961     Delta-E=       -0.001743909945 Rises=F Damp=F
 DIIS: error= 3.86D-04 at cycle   5 NSaved=   5.
 NSaved= 5 IEnMin= 5 EnMin= -768.327892899961     IErMin= 5 ErrMin= 3.86D-04
 ErrMax= 3.86D-04  0.00D+00 EMaxC= 1.00D-01 BMatC= 1.25D-04 BMatP= 2.24D-03
 IDIUse=3 WtCom= 9.96D-01 WtEn= 3.86D-03
 Coeff-Com: -0.317D-01 0.485D-01 0.930D-01 0.261D+00 0.629D+00
 Coeff-En:   0.000D+00 0.000D+00 0.000D+00 0.000D+00 0.100D+01
 Coeff:     -0.316D-01 0.484D-01 0.927D-01 0.260D+00 0.631D+00
 Gap=     0.136 Goal=   None    Shift=    0.000
 RMSDP=4.45D-05 MaxDP=2.27D-03 DE=-1.74D-03 OVMax= 2.65D-03

 Cycle   6  Pass 1  IDiag  1:
 RMSU=  3.62D-05    CP:  9.89D-01  1.81D+00  7.78D-01  7.37D-01  7.81D-01
 E= -768.327975816382     Delta-E=       -0.000082916421 Rises=F Damp=F
 DIIS: error= 2.27D-04 at cycle   6 NSaved=   6.
 NSaved= 6 IEnMin= 6 EnMin= -768.327975816382     IErMin= 6 ErrMin= 2.27D-04
 ErrMax= 2.27D-04  0.00D+00 EMaxC= 1.00D-01 BMatC= 2.54D-05 BMatP= 1.25D-04
 IDIUse=3 WtCom= 9.98D-01 WtEn= 2.27D-03
 Coeff-Com: -0.939D-02 0.120D-01 0.308D-01 0.117D+00 0.393D+00 0.457D+00
 Coeff-En:   0.000D+00 0.000D+00 0.000D+00 0.000D+00 0.100D+00 0.900D+00
 Coeff:     -0.937D-02 0.120D-01 0.307D-01 0.117D+00 0.392D+00 0.458D+00
 Gap=     0.135 Goal=   None    Shift=    0.000
 RMSDP=1.57D-05 MaxDP=1.09D-03 DE=-8.29D-05 OVMax= 9.79D-04

 Cycle   7  Pass 1  IDiag  1:
 RMSU=  1.14D-05    CP:  9.89D-01  1.81D+00  7.78D-01  7.49D-01  8.33D-01
                    CP:  7.62D-01
 E= -768.327995646901     Delta-E=       -0.000019830519 Rises=F Damp=F
 DIIS: error= 5.13D-05 at cycle   7 NSaved=   7.
 NSaved= 7 IEnMin= 7 EnMin= -768.327995646901     IErMin= 7 ErrMin= 5.13D-05
 ErrMax= 5.13D-05  0.00D+00 EMaxC= 1.00D-01 BMatC= 1.66D-06 BMatP= 2.54D-05
 IDIUse=1 WtCom= 1.00D+00 WtEn= 0.00D+00
 Coeff-Com: -0.234D-02 0.218D-02 0.757D-02 0.421D-01 0.173D+00 0.261D+00
 Coeff-Com:  0.517D+00
 Coeff:     -0.234D-02 0.218D-02 0.757D-02 0.421D-01 0.173D+00 0.261D+00
 Coeff:      0.517D+00
 Gap=     0.135 Goal=   None    Shift=    0.000
 RMSDP=5.23D-06 MaxDP=3.03D-04 DE=-1.98D-05 OVMax= 3.75D-04

 Cycle   8  Pass 1  IDiag  1:
 RMSU=  3.83D-06    CP:  9.89D-01  1.81D+00  7.79D-01  7.55D-01  8.52D-01
                    CP:  7.83D-01  8.49D-01
 E= -768.327997089856     Delta-E=       -0.000001442955 Rises=F Damp=F
 DIIS: error= 9.51D-06 at cycle   8 NSaved=   8.
 NSaved= 8 IEnMin= 8 EnMin= -768.327997089856     IErMin= 8 ErrMin= 9.51D-06
 ErrMax= 9.51D-06  0.00D+00 EMaxC= 1.00D-01 BMatC= 9.02D-08 BMatP= 1.66D-06
 IDIUse=1 WtCom= 1.00D+00 WtEn= 0.00D+00
 Coeff-Com:  0.275D-03-0.598D-03-0.235D-02-0.330D-02 0.124D-02 0.167D-01
 Coeff-Com:  0.181D+00 0.807D+00
 Coeff:      0.275D-03-0.598D-03-0.235D-02-0.330D-02 0.124D-02 0.167D-01
 Coeff:      0.181D+00 0.807D+00
 Gap=     0.135 Goal=   None    Shift=    0.000
 RMSDP=2.73D-06 MaxDP=7.22D-05 DE=-1.44D-06 OVMax= 3.78D-04

 Cycle   9  Pass 1  IDiag  1:
 RMSU=  1.23D-06    CP:  9.89D-01  1.81D+00  7.80D-01  7.58D-01  8.64D-01
                    CP:  8.19D-01  9.57D-01  1.02D+00
 E= -768.327997233983     Delta-E=       -0.000000144127 Rises=F Damp=F
 DIIS: error= 5.45D-06 at cycle   9 NSaved=   9.
 NSaved= 9 IEnMin= 9 EnMin= -768.327997233983     IErMin= 9 ErrMin= 5.45D-06
 ErrMax= 5.45D-06  0.00D+00 EMaxC= 1.00D-01 BMatC= 1.67D-08 BMatP= 9.02D-08
 IDIUse=1 WtCom= 1.00D+00 WtEn= 0.00D+00
 Coeff-Com:  0.247D-03-0.353D-03-0.173D-02-0.483D-02-0.133D-01-0.143D-01
 Coeff-Com:  0.360D-01 0.379D+00 0.619D+00
 Coeff:      0.247D-03-0.353D-03-0.173D-02-0.483D-02-0.133D-01-0.143D-01
 Coeff:      0.360D-01 0.379D+00 0.619D+00
 Gap=     0.135 Goal=   None    Shift=    0.000
 RMSDP=8.17D-07 MaxDP=2.59D-05 DE=-1.44D-07 OVMax= 8.74D-05

 Cycle  10  Pass 1  IDiag  1:
 RMSU=  4.63D-07    CP:  9.89D-01  1.81D+00  7.80D-01  7.58D-01  8.67D-01
                    CP:  8.29D-01  9.83D-01  1.07D+00  8.46D-01
 E= -768.327997251063     Delta-E=       -0.000000017080 Rises=F Damp=F
 DIIS: error= 1.80D-06 at cycle  10 NSaved=  10.
 NSaved=10 IEnMin=10 EnMin= -768.327997251063     IErMin=10 ErrMin= 1.80D-06
 ErrMax= 1.80D-06  0.00D+00 EMaxC= 1.00D-01 BMatC= 2.66D-09 BMatP= 1.67D-08
 IDIUse=1 WtCom= 1.00D+00 WtEn= 0.00D+00
 Coeff-Com:  0.821D-04-0.901D-04-0.599D-03-0.206D-02-0.712D-02-0.978D-02
 Coeff-Com: -0.921D-02 0.777D-01 0.323D+00 0.628D+00
 Coeff:      0.821D-04-0.901D-04-0.599D-03-0.206D-02-0.712D-02-0.978D-02
 Coeff:     -0.921D-02 0.777D-01 0.323D+00 0.628D+00
 Gap=     0.135 Goal=   None    Shift=    0.000
 RMSDP=3.28D-07 MaxDP=8.84D-06 DE=-1.71D-08 OVMax= 3.07D-05

 Cycle  11  Pass 1  IDiag  1:
 RMSU=  1.57D-07    CP:  9.89D-01  1.81D+00  7.80D-01  7.59D-01  8.67D-01
                    CP:  8.31D-01  9.94D-01  1.10D+00  9.26D-01  7.72D-01
 E= -768.327997253859     Delta-E=       -0.000000002795 Rises=F Damp=F
 DIIS: error= 3.81D-07 at cycle  11 NSaved=  11.
 NSaved=11 IEnMin=11 EnMin= -768.327997253859     IErMin=11 ErrMin= 3.81D-07
 ErrMax= 3.81D-07  0.00D+00 EMaxC= 1.00D-01 BMatC= 1.46D-10 BMatP= 2.66D-09
 IDIUse=1 WtCom= 1.00D+00 WtEn= 0.00D+00
 Coeff-Com:  0.835D-05-0.190D-05-0.892D-04-0.381D-03-0.157D-02-0.240D-02
 Coeff-Com: -0.715D-02-0.187D-03 0.721D-01 0.248D+00 0.692D+00
 Coeff:      0.835D-05-0.190D-05-0.892D-04-0.381D-03-0.157D-02-0.240D-02
 Coeff:     -0.715D-02-0.187D-03 0.721D-01 0.248D+00 0.692D+00
 Gap=     0.135 Goal=   None    Shift=    0.000
 RMSDP=8.96D-08 MaxDP=2.34D-06 DE=-2.80D-09 OVMax= 7.97D-06

 Cycle  12  Pass 1  IDiag  1:
 RMSU=  5.30D-08    CP:  9.89D-01  1.81D+00  7.80D-01  7.59D-01  8.68D-01
                    CP:  8.32D-01  9.95D-01  1.11D+00  9.52D-01  8.46D-01
                    CP:  8.64D-01
 E= -768.327997254075     Delta-E=       -0.000000000217 Rises=F Damp=F
 DIIS: error= 1.80D-07 at cycle  12 NSaved=  12.
 NSaved=12 IEnMin=12 EnMin= -768.327997254075     IErMin=12 ErrMin= 1.80D-07
 ErrMax= 1.80D-07  0.00D+00 EMaxC= 1.00D-01 BMatC= 3.16D-11 BMatP= 1.46D-10
 IDIUse=1 WtCom= 1.00D+00 WtEn= 0.00D+00
 Coeff-Com: -0.528D-05 0.954D-05 0.363D-04 0.818D-04 0.147D-03 0.111D-03
 Coeff-Com: -0.303D-02-0.118D-01-0.811D-02 0.419D-01 0.363D+00 0.617D+00
 Coeff:     -0.528D-05 0.954D-05 0.363D-04 0.818D-04 0.147D-03 0.111D-03
 Coeff:     -0.303D-02-0.118D-01-0.811D-02 0.419D-01 0.363D+00 0.617D+00
 Gap=     0.135 Goal=   None    Shift=    0.000
 RMSDP=3.09D-08 MaxDP=8.26D-07 DE=-2.17D-10 OVMax= 2.34D-06

 Cycle  13  Pass 1  IDiag  1:
 RMSU=  1.46D-08    CP:  9.89D-01  1.81D+00  7.80D-01  7.59D-01  8.68D-01
                    CP:  8.32D-01  9.96D-01  1.11D+00  9.56D-01  8.66D-01
                    CP:  9.64D-01  7.80D-01
 E= -768.327997254055     Delta-E=        0.000000000020 Rises=F Damp=F
 DIIS: error= 4.28D-08 at cycle  13 NSaved=  13.
 NSaved=13 IEnMin=12 EnMin= -768.327997254075     IErMin=13 ErrMin= 4.28D-08
 ErrMax= 4.28D-08  0.00D+00 EMaxC= 1.00D-01 BMatC= 1.23D-12 BMatP= 3.16D-11
 IDIUse=1 WtCom= 1.00D+00 WtEn= 0.00D+00
 Coeff-Com: -0.241D-05 0.328D-05 0.194D-04 0.595D-04 0.185D-03 0.274D-03
 Coeff-Com: -0.438D-03-0.336D-02-0.767D-02-0.638D-02 0.674D-01 0.208D+00
 Coeff-Com:  0.742D+00
 Coeff:     -0.241D-05 0.328D-05 0.194D-04 0.595D-04 0.185D-03 0.274D-03
 Coeff:     -0.438D-03-0.336D-02-0.767D-02-0.638D-02 0.674D-01 0.208D+00
 Coeff:      0.742D+00
 Gap=     0.135 Goal=   None    Shift=    0.000
 RMSDP=6.96D-09 MaxDP=2.51D-07 DE= 2.02D-11 OVMax= 5.71D-07

 Error on total polarization charges =  0.01171
 SCF Done:  E(RB3LYP) =  -768.327997254     A.U. after   13 cycles
            NFock= 13  Conv=0.70D-08     -V/T= 2.0091
 KE= 7.614059333341D+02 PE=-4.123220228320D+03 EE= 1.419358376315D+03
 Leave Link  502 at Fri May 24 08:34:28 2019, MaxMem=   402653184 cpu:             509.3 elap:             127.4
 (Enter /n/sw/g16_nehalem/g16/l601.exe)
 Copying SCF densities to generalized density rwf, IOpCl= 0 IROHF=0.

 **********************************************************************

            Population analysis using the SCF density.

 **********************************************************************

 Orbital symmetries:
       Occupied  (A) (A) (A) (A) (A) (A) (A) (A) (A) (A) (A) (A)
                 (A) (A) (A) (A) (A) (A) (A) (A) (A) (A) (A) (A)
                 (A) (A) (A) (A) (A) (A) (A) (A) (A) (A) (A) (A)
                 (A) (A) (A) (A) (A) (A) (A) (A) (A) (A) (A) (A)
                 (A) (A) (A) (A) (A) (A) (A) (A) (A) (A) (A)
       Virtual   (A) (A) (A) (A) (A) (A) (A) (A) (A) (A) (A) (A)
                 (A) (A) (A) (A) (A) (A) (A) (A) (A) (A) (A) (A)
                 (A) (A) (A) (A) (A) (A) (A) (A) (A) (A) (A) (A)
                 (A) (A) (A) (A) (A) (A) (A) (A) (A) (A) (A) (A)
                 (A) (A) (A) (A) (A) (A) (A) (A) (A) (A) (A) (A)
                 (A) (A) (A) (A) (A) (A) (A) (A) (A) (A) (A) (A)
                 (A) (A) (A) (A) (A) (A) (A) (A) (A) (A) (A) (A)
                 (A) (A) (A) (A) (A) (A) (A) (A) (A) (A) (A) (A)
                 (A) (A) (A) (A) (A) (A) (A) (A) (A) (A) (A) (A)
                 (A) (A) (A) (A) (A) (A) (A) (A) (A) (A) (A) (A)
                 (A) (A) (A) (A) (A) (A) (A) (A) (A) (A) (A) (A)
                 (A) (A) (A) (A) (A) (A) (A) (A) (A) (A) (A) (A)
                 (A) (A) (A) (A) (A) (A) (A) (A) (A) (A) (A) (A)
                 (A) (A) (A) (A) (A) (A) (A) (A) (A) (A) (A) (A)
                 (A) (A) (A) (A) (A) (A) (A) (A) (A) (A) (A) (A)
                 (A) (A) (A) (A) (A) (A) (A) (A) (A) (A) (A) (A)
                 (A) (A) (A) (A) (A) (A) (A) (A) (A) (A) (A) (A)
 The electronic state is 1-A.
 Alpha  occ. eigenvalues --  -19.32946 -19.20829 -19.19905 -19.19674 -19.18493
 Alpha  occ. eigenvalues --  -10.39776 -10.31931 -10.31784 -10.29708 -10.29538
 Alpha  occ. eigenvalues --  -10.27687 -10.25942 -10.25643 -10.25478 -10.24660
 Alpha  occ. eigenvalues --   -1.21751  -1.09594  -1.08370  -1.07434  -1.06747
 Alpha  occ. eigenvalues --   -0.87096  -0.85384  -0.78139  -0.74964  -0.73727
 Alpha  occ. eigenvalues --   -0.71171  -0.69360  -0.68190  -0.66533  -0.62079
 Alpha  occ. eigenvalues --   -0.59086  -0.58811  -0.56623  -0.54303  -0.54028
 Alpha  occ. eigenvalues --   -0.52795  -0.51468  -0.50503  -0.50337  -0.49318
 Alpha  occ. eigenvalues --   -0.48454  -0.47816  -0.47169  -0.46157  -0.45625
 Alpha  occ. eigenvalues --   -0.45207  -0.43055  -0.42464  -0.41116  -0.40714
 Alpha  occ. eigenvalues --   -0.39399  -0.36912  -0.36328  -0.36057  -0.35209
 Alpha  occ. eigenvalues --   -0.33060  -0.30512  -0.29340  -0.28647
 Alpha virt. eigenvalues --   -0.15143   0.00633   0.03425   0.04880   0.06536
 Alpha virt. eigenvalues --    0.06886   0.08370   0.08719   0.09676   0.10692
 Alpha virt. eigenvalues --    0.11657   0.11859   0.12327   0.12971   0.13277
 Alpha virt. eigenvalues --    0.14004   0.14222   0.14447   0.14773   0.14913
 Alpha virt. eigenvalues --    0.15309   0.15567   0.16403   0.16723   0.18052
 Alpha virt. eigenvalues --    0.18157   0.18901   0.20089   0.21962   0.22283
 Alpha virt. eigenvalues --    0.22931   0.24688   0.27373   0.29266   0.31012
 Alpha virt. eigenvalues --    0.44178   0.45654   0.46496   0.47440   0.47979
 Alpha virt. eigenvalues --    0.48659   0.49161   0.50287   0.51324   0.52190
 Alpha virt. eigenvalues --    0.52584   0.53383   0.53973   0.54812   0.55270
 Alpha virt. eigenvalues --    0.56127   0.57329   0.58402   0.59120   0.60612
 Alpha virt. eigenvalues --    0.62957   0.64632   0.66910   0.68491   0.71037
 Alpha virt. eigenvalues --    0.73974   0.75031   0.75562   0.77928   0.78772
 Alpha virt. eigenvalues --    0.79506   0.80306   0.80856   0.81514   0.82502
 Alpha virt. eigenvalues --    0.83186   0.84207   0.84642   0.85105   0.85277
 Alpha virt. eigenvalues --    0.85603   0.86611   0.87896   0.88152   0.89323
 Alpha virt. eigenvalues --    0.90734   0.91957   0.92516   0.93732   0.94076
 Alpha virt. eigenvalues --    0.94866   0.96428   0.96707   0.98756   1.00910
 Alpha virt. eigenvalues --    1.02300   1.04868   1.08412   1.10079   1.10772
 Alpha virt. eigenvalues --    1.13836   1.16049   1.16403   1.17572   1.19312
 Alpha virt. eigenvalues --    1.22623   1.27152   1.30294   1.31321   1.33242
 Alpha virt. eigenvalues --    1.34658   1.36913   1.37393   1.40466   1.41187
 Alpha virt. eigenvalues --    1.43412   1.46322   1.47432   1.47990   1.48743
 Alpha virt. eigenvalues --    1.50836   1.53673   1.54590   1.56892   1.57361
 Alpha virt. eigenvalues --    1.61002   1.63923   1.67158   1.68656   1.70836
 Alpha virt. eigenvalues --    1.73284   1.74410   1.76169   1.80695   1.82029
 Alpha virt. eigenvalues --    1.84258   1.84655   1.86183   1.88583   1.89958
 Alpha virt. eigenvalues --    1.91690   1.94509   1.97515   1.98557   1.99851
 Alpha virt. eigenvalues --    2.00555   2.01848   2.03186   2.04138   2.05243
 Alpha virt. eigenvalues --    2.06535   2.07552   2.08341   2.09032   2.09849
 Alpha virt. eigenvalues --    2.11311   2.12045   2.12737   2.17243   2.18695
 Alpha virt. eigenvalues --    2.19936   2.21992   2.23480   2.23894   2.25388
 Alpha virt. eigenvalues --    2.26291   2.28849   2.30116   2.30527   2.34796
 Alpha virt. eigenvalues --    2.36990   2.40210   2.41549   2.44437   2.44938
 Alpha virt. eigenvalues --    2.49833   2.51536   2.54424   2.56099   2.58929
 Alpha virt. eigenvalues --    2.64869   2.67455   2.71222   2.72575   2.76080
 Alpha virt. eigenvalues --    2.77969   2.81726   2.84525   2.88534   2.92433
 Alpha virt. eigenvalues --    2.94930   2.97225   3.00418   3.07506   3.83649
 Alpha virt. eigenvalues --    3.89978   3.94868   3.99391   4.10856   4.11626
 Alpha virt. eigenvalues --    4.20744   4.23407   4.24411   4.25458   4.25924
 Alpha virt. eigenvalues --    4.35366   4.51662   4.64918   4.67621
          Condensed to atoms (all electrons):
               1          2          3          4          5          6
     1  C    4.988908   0.241650  -0.039921  -0.027680   0.326749   0.003065
     2  C    0.241650   5.122977   0.268347  -0.024453  -0.022746  -0.042980
     3  C   -0.039921   0.268347   4.859784  -0.045222  -0.001427   0.357665
     4  C   -0.027680  -0.024453  -0.045222   5.126993   0.288840   0.002815
     5  C    0.326749  -0.022746  -0.001427   0.288840   5.023324  -0.000103
     6  H    0.003065  -0.042980   0.357665   0.002815  -0.000103   0.433122
     7  H   -0.038196   0.357698  -0.036229   0.001514   0.001214  -0.000749
     8  H    0.372490  -0.060079   0.002912   0.005476  -0.037659  -0.000150
     9  H    0.004257  -0.000051   0.002030   0.372580  -0.041283  -0.000072
    10  H   -0.027691   0.004459   0.000702  -0.052372   0.357999   0.000020
    11  O   -0.006119  -0.019293   0.367376   0.128416  -0.025635  -0.034889
    12  O   -0.027765   0.237774  -0.031292   0.000192   0.002070   0.003881
    13  O    0.197228  -0.040710   0.003102   0.000273  -0.040026  -0.000077
    14  O   -0.049569   0.001151   0.011632  -0.044278   0.187924  -0.000034
    15  C   -0.004116   0.001334  -0.000024   0.317132  -0.029093  -0.000155
    16  H   -0.000504   0.000105  -0.000066  -0.035549   0.005698  -0.000022
    17  H    0.004088  -0.002351   0.002503  -0.028294  -0.014688  -0.000004
    18  O   -0.000897   0.000021  -0.000037  -0.044336   0.001668   0.000001
    19  C   -0.005834  -0.049030  -0.004927   0.000101  -0.000847  -0.000325
    20  H   -0.000851  -0.007237   0.008639  -0.000041   0.000063  -0.000292
    21  H   -0.000029   0.005085  -0.000086   0.000000  -0.000003  -0.000094
    22  H    0.005589  -0.003717  -0.000711   0.000035  -0.001566   0.000237
    23  C   -0.036995  -0.002811   0.000278  -0.000145   0.004868  -0.000001
    24  H    0.004812  -0.000143   0.000006   0.000022  -0.000166   0.000000
    25  H   -0.007141  -0.001794   0.000004   0.000006  -0.000006   0.000000
    26  H   -0.007027   0.008312  -0.000050  -0.000044  -0.000104   0.000012
    27  C    0.004567  -0.000231  -0.000224  -0.003732  -0.034847  -0.000001
    28  H   -0.000212   0.000024  -0.000008  -0.000155   0.005027   0.000000
    29  H    0.000051  -0.000014   0.000048  -0.000650  -0.007227   0.000000
    30  H   -0.000063  -0.000001  -0.000097   0.002918  -0.005232   0.000000
    31  C   -0.000027   0.000001  -0.000001   0.004302   0.000254   0.000000
    32  H    0.000000   0.000000   0.000000  -0.000254   0.000009   0.000000
    33  H    0.000048  -0.000001   0.000001   0.000299  -0.000172   0.000000
    34  H   -0.000005   0.000000   0.000000  -0.000176   0.000035   0.000000
               7          8          9         10         11         12
     1  C   -0.038196   0.372490   0.004257  -0.027691  -0.006119  -0.027765
     2  C    0.357698  -0.060079  -0.000051   0.004459  -0.019293   0.237774
     3  C   -0.036229   0.002912   0.002030   0.000702   0.367376  -0.031292
     4  C    0.001514   0.005476   0.372580  -0.052372   0.128416   0.000192
     5  C    0.001214  -0.037659  -0.041283   0.357999  -0.025635   0.002070
     6  H   -0.000749  -0.000150  -0.000072   0.000020  -0.034889   0.003881
     7  H    0.466917   0.002270  -0.000009  -0.000105  -0.000605  -0.030388
     8  H    0.002270   0.538324  -0.000121  -0.005249   0.000006   0.001471
     9  H   -0.000009  -0.000121   0.485686  -0.001064  -0.028314   0.000003
    10  H   -0.000105  -0.005249  -0.001064   0.520453   0.002430  -0.000068
    11  O   -0.000605   0.000006  -0.028314   0.002430   7.949340   0.001567
    12  O   -0.030388   0.001471   0.000003  -0.000068   0.001567   8.177220
    13  O    0.001658  -0.028719  -0.000086   0.003777  -0.000069   0.001365
    14  O    0.000215   0.003501  -0.003600  -0.025130  -0.005146  -0.000346
    15  C    0.000198  -0.000021  -0.034481  -0.000335  -0.024977  -0.000003
    16  H   -0.000038   0.000006  -0.008178   0.000209   0.002115   0.000000
    17  H    0.001149   0.000222   0.005315  -0.000143   0.000475   0.000014
    18  O   -0.000009  -0.000013   0.005659   0.009907   0.000971   0.000000
    19  C    0.005092   0.000759   0.000000   0.000009  -0.000050   0.234701
    20  H   -0.000115   0.000309   0.000000  -0.000001  -0.000652  -0.036473
    21  H   -0.000138  -0.000076   0.000000   0.000000   0.000001  -0.029941
    22  H   -0.000192   0.003088  -0.000001   0.000072   0.000044  -0.035158
    23  C    0.002126  -0.005882   0.000004   0.000113  -0.000008  -0.000017
    24  H   -0.000286   0.000017   0.000000  -0.000027   0.000000   0.000015
    25  H    0.000340   0.011464   0.000000  -0.000079   0.000000   0.000119
    26  H    0.000875  -0.001562   0.000000   0.000036  -0.000001  -0.000080
    27  C    0.000001   0.000264   0.002917  -0.004860   0.000289   0.000008
    28  H    0.000000  -0.000045  -0.000166   0.000011  -0.000006   0.000000
    29  H    0.000001  -0.000063  -0.000037   0.008762  -0.000010   0.000000
    30  H    0.000000   0.000030   0.003776  -0.000908   0.000188   0.000000
    31  C    0.000001   0.000000  -0.000134  -0.000172  -0.000047   0.000000
    32  H    0.000000   0.000000  -0.000001  -0.000024   0.000000   0.000000
    33  H    0.000001   0.000000   0.000046   0.000026   0.000002   0.000000
    34  H    0.000000   0.000000  -0.000058   0.000027   0.000002   0.000000
              13         14         15         16         17         18
     1  C    0.197228  -0.049569  -0.004116  -0.000504   0.004088  -0.000897
     2  C   -0.040710   0.001151   0.001334   0.000105  -0.002351   0.000021
     3  C    0.003102   0.011632  -0.000024  -0.000066   0.002503  -0.000037
     4  C    0.000273  -0.044278   0.317132  -0.035549  -0.028294  -0.044336
     5  C   -0.040026   0.187924  -0.029093   0.005698  -0.014688   0.001668
     6  H   -0.000077  -0.000034  -0.000155  -0.000022  -0.000004   0.000001
     7  H    0.001658   0.000215   0.000198  -0.000038   0.001149  -0.000009
     8  H   -0.028719   0.003501  -0.000021   0.000006   0.000222  -0.000013
     9  H   -0.000086  -0.003600  -0.034481  -0.008178   0.005315   0.005659
    10  H    0.003777  -0.025130  -0.000335   0.000209  -0.000143   0.009907
    11  O   -0.000069  -0.005146  -0.024977   0.002115   0.000475   0.000971
    12  O    0.001365  -0.000346  -0.000003   0.000000   0.000014   0.000000
    13  O    8.245374   0.001336  -0.005265   0.000337   0.014415   0.000138
    14  O    0.001336   8.272905   0.003179  -0.000052   0.000011   0.000024
    15  C   -0.005265   0.003179   4.908656   0.352878   0.346232   0.234017
    16  H    0.000337  -0.000052   0.352878   0.594990  -0.049892  -0.036864
    17  H    0.014415   0.000011   0.346232  -0.049892   0.579945  -0.036275
    18  O    0.000138   0.000024   0.234017  -0.036864  -0.036275   8.208680
    19  C    0.000053   0.001015   0.000002   0.000000   0.000000   0.000000
    20  H   -0.000002   0.000758   0.000001   0.000000   0.000000   0.000000
    21  H    0.000001   0.000137   0.000000   0.000000   0.000000   0.000000
    22  H   -0.000014   0.003669  -0.000002   0.000000   0.000000   0.000000
    23  C    0.234418  -0.000064   0.000149  -0.000008  -0.000088   0.000003
    24  H   -0.030394   0.000001   0.000003  -0.000001  -0.000073  -0.000001
    25  H   -0.034526  -0.000006  -0.000015   0.000000   0.000078   0.000000
    26  H   -0.036292   0.000003   0.000043   0.000000  -0.000143   0.000000
    27  C   -0.000053   0.234883   0.000071  -0.000002  -0.000003  -0.000010
    28  H    0.000001  -0.030727   0.000002   0.000000   0.000000   0.000000
    29  H   -0.000012  -0.034991   0.000054  -0.000001   0.000001  -0.000009
    30  H    0.000004  -0.035533  -0.000354   0.000020  -0.000004  -0.000003
    31  C    0.000028   0.000000  -0.038602  -0.003770  -0.004246   0.241464
    32  H    0.000000   0.000000   0.005581  -0.000122  -0.000099  -0.031497
    33  H    0.000125   0.000000  -0.008334  -0.002017   0.011403  -0.035341
    34  H    0.000004   0.000000  -0.007614   0.010363  -0.002295  -0.035798
              19         20         21         22         23         24
     1  C   -0.005834  -0.000851  -0.000029   0.005589  -0.036995   0.004812
     2  C   -0.049030  -0.007237   0.005085  -0.003717  -0.002811  -0.000143
     3  C   -0.004927   0.008639  -0.000086  -0.000711   0.000278   0.000006
     4  C    0.000101  -0.000041   0.000000   0.000035  -0.000145   0.000022
     5  C   -0.000847   0.000063  -0.000003  -0.001566   0.004868  -0.000166
     6  H   -0.000325  -0.000292  -0.000094   0.000237  -0.000001   0.000000
     7  H    0.005092  -0.000115  -0.000138  -0.000192   0.002126  -0.000286
     8  H    0.000759   0.000309  -0.000076   0.003088  -0.005882   0.000017
     9  H    0.000000   0.000000   0.000000  -0.000001   0.000004   0.000000
    10  H    0.000009  -0.000001   0.000000   0.000072   0.000113  -0.000027
    11  O   -0.000050  -0.000652   0.000001   0.000044  -0.000008   0.000000
    12  O    0.234701  -0.036473  -0.029941  -0.035158  -0.000017   0.000015
    13  O    0.000053  -0.000002   0.000001  -0.000014   0.234418  -0.030394
    14  O    0.001015   0.000758   0.000137   0.003669  -0.000064   0.000001
    15  C    0.000002   0.000001   0.000000  -0.000002   0.000149   0.000003
    16  H    0.000000   0.000000   0.000000   0.000000  -0.000008  -0.000001
    17  H    0.000000   0.000000   0.000000   0.000000  -0.000088  -0.000073
    18  O    0.000000   0.000000   0.000000   0.000000   0.000003  -0.000001
    19  C    4.943336   0.366712   0.382654   0.365598   0.000001   0.000000
    20  H    0.366712   0.575843  -0.028228  -0.042886   0.000000   0.000000
    21  H    0.382654  -0.028228   0.502263  -0.027385   0.000000   0.000000
    22  H    0.365598  -0.042886  -0.027385   0.553447  -0.000019   0.000000
    23  C    0.000001   0.000000   0.000000  -0.000019   4.911711   0.385921
    24  H    0.000000   0.000000   0.000000   0.000000   0.385921   0.509312
    25  H    0.000005   0.000000   0.000001  -0.000013   0.370513  -0.027668
    26  H   -0.000030   0.000002  -0.000004   0.000012   0.364408  -0.030288
    27  C    0.000000   0.000010  -0.000004  -0.000073   0.000003   0.000000
    28  H    0.000009   0.000014  -0.000002   0.000011   0.000000   0.000000
    29  H    0.000010   0.000004   0.000000  -0.000027   0.000000   0.000000
    30  H    0.000002  -0.000005   0.000000   0.000017   0.000000   0.000000
    31  C    0.000000   0.000000   0.000000   0.000000  -0.000004   0.000003
    32  H    0.000000   0.000000   0.000000   0.000000   0.000000   0.000000
    33  H    0.000000   0.000000   0.000000   0.000000  -0.000001   0.000021
    34  H    0.000000   0.000000   0.000000   0.000000   0.000000   0.000000
              25         26         27         28         29         30
     1  C   -0.007141  -0.007027   0.004567  -0.000212   0.000051  -0.000063
     2  C   -0.001794   0.008312  -0.000231   0.000024  -0.000014  -0.000001
     3  C    0.000004  -0.000050  -0.000224  -0.000008   0.000048  -0.000097
     4  C    0.000006  -0.000044  -0.003732  -0.000155  -0.000650   0.002918
     5  C   -0.000006  -0.000104  -0.034847   0.005027  -0.007227  -0.005232
     6  H    0.000000   0.000012  -0.000001   0.000000   0.000000   0.000000
     7  H    0.000340   0.000875   0.000001   0.000000   0.000001   0.000000
     8  H    0.011464  -0.001562   0.000264  -0.000045  -0.000063   0.000030
     9  H    0.000000   0.000000   0.002917  -0.000166  -0.000037   0.003776
    10  H   -0.000079   0.000036  -0.004860   0.000011   0.008762  -0.000908
    11  O    0.000000  -0.000001   0.000289  -0.000006  -0.000010   0.000188
    12  O    0.000119  -0.000080   0.000008   0.000000   0.000000   0.000000
    13  O   -0.034526  -0.036292  -0.000053   0.000001  -0.000012   0.000004
    14  O   -0.000006   0.000003   0.234883  -0.030727  -0.034991  -0.035533
    15  C   -0.000015   0.000043   0.000071   0.000002   0.000054  -0.000354
    16  H    0.000000   0.000000  -0.000002   0.000000  -0.000001   0.000020
    17  H    0.000078  -0.000143  -0.000003   0.000000   0.000001  -0.000004
    18  O    0.000000   0.000000  -0.000010   0.000000  -0.000009  -0.000003
    19  C    0.000005  -0.000030   0.000000   0.000009   0.000010   0.000002
    20  H    0.000000   0.000002   0.000010   0.000014   0.000004  -0.000005
    21  H    0.000001  -0.000004  -0.000004  -0.000002   0.000000   0.000000
    22  H   -0.000013   0.000012  -0.000073   0.000011  -0.000027   0.000017
    23  C    0.370513   0.364408   0.000003   0.000000   0.000000   0.000000
    24  H   -0.027668  -0.030288   0.000000   0.000000   0.000000   0.000000
    25  H    0.562337  -0.043263   0.000000   0.000000   0.000001   0.000000
    26  H   -0.043263   0.581149   0.000000   0.000000   0.000000   0.000000
    27  C    0.000000   0.000000   4.900258   0.385688   0.373314   0.365573
    28  H    0.000000   0.000000   0.385688   0.510307  -0.027908  -0.030491
    29  H    0.000001   0.000000   0.373314  -0.027908   0.559166  -0.042647
    30  H    0.000000   0.000000   0.365573  -0.030491  -0.042647   0.577770
    31  C    0.000000   0.000000   0.000000   0.000000   0.000000   0.000000
    32  H    0.000000   0.000000   0.000000   0.000000   0.000000   0.000000
    33  H    0.000000   0.000001   0.000000   0.000000   0.000000   0.000000
    34  H    0.000000   0.000000   0.000000   0.000000   0.000000   0.000000
              31         32         33         34
     1  C   -0.000027   0.000000   0.000048  -0.000005
     2  C    0.000001   0.000000  -0.000001   0.000000
     3  C   -0.000001   0.000000   0.000001   0.000000
     4  C    0.004302  -0.000254   0.000299  -0.000176
     5  C    0.000254   0.000009  -0.000172   0.000035
     6  H    0.000000   0.000000   0.000000   0.000000
     7  H    0.000001   0.000000   0.000001   0.000000
     8  H    0.000000   0.000000   0.000000   0.000000
     9  H   -0.000134  -0.000001   0.000046  -0.000058
    10  H   -0.000172  -0.000024   0.000026   0.000027
    11  O   -0.000047   0.000000   0.000002   0.000002
    12  O    0.000000   0.000000   0.000000   0.000000
    13  O    0.000028   0.000000   0.000125   0.000004
    14  O    0.000000   0.000000   0.000000   0.000000
    15  C   -0.038602   0.005581  -0.008334  -0.007614
    16  H   -0.003770  -0.000122  -0.002017   0.010363
    17  H   -0.004246  -0.000099   0.011403  -0.002295
    18  O    0.241464  -0.031497  -0.035341  -0.035798
    19  C    0.000000   0.000000   0.000000   0.000000
    20  H    0.000000   0.000000   0.000000   0.000000
    21  H    0.000000   0.000000   0.000000   0.000000
    22  H    0.000000   0.000000   0.000000   0.000000
    23  C   -0.000004   0.000000  -0.000001   0.000000
    24  H    0.000003   0.000000   0.000021   0.000000
    25  H    0.000000   0.000000   0.000000   0.000000
    26  H    0.000000   0.000000   0.000001   0.000000
    27  C    0.000000   0.000000   0.000000   0.000000
    28  H    0.000000   0.000000   0.000000   0.000000
    29  H    0.000000   0.000000   0.000000   0.000000
    30  H    0.000000   0.000000   0.000000   0.000000
    31  C    4.888958   0.386144   0.368241   0.367892
    32  H    0.386144   0.521181  -0.030010  -0.030333
    33  H    0.368241  -0.030010   0.582697  -0.044803
    34  H    0.367892  -0.030333  -0.044803   0.586227
 Mulliken charges:
               1
     1  C    0.127139
     2  C    0.028702
     3  C    0.275291
     4  C    0.055469
     5  C    0.057088
     6  H    0.279131
     7  H    0.265790
     8  H    0.197032
     9  H    0.235380
    10  H    0.209211
    11  O   -0.307405
    12  O   -0.468869
    13  O   -0.487394
    14  O   -0.492869
    15  C   -0.016143
    16  H    0.170366
    17  H    0.172745
    18  O   -0.481464
    19  C   -0.239016
    20  H    0.164428
    21  H    0.195850
    22  H    0.179945
    23  C   -0.228474
    24  H    0.188913
    25  H    0.169645
    26  H    0.164033
    27  C   -0.223807
    28  H    0.188626
    29  H    0.172180
    30  H    0.165039
    31  C   -0.210288
    32  H    0.179426
    33  H    0.157767
    34  H    0.156532
 Sum of Mulliken charges =   1.00000
 Mulliken charges with hydrogens summed into heavy atoms:
               1
     1  C    0.324171
     2  C    0.294492
     3  C    0.554423
     4  C    0.290850
     5  C    0.266299
    11  O   -0.307405
    12  O   -0.468869
    13  O   -0.487394
    14  O   -0.492869
    15  C    0.326968
    18  O   -0.481464
    19  C    0.301207
    23  C    0.294116
    27  C    0.302039
    31  C    0.283437
 Electronic spatial extent (au):  <R**2>=           3354.1894
 Charge=              1.0000 electrons
 Dipole moment (field-independent basis, Debye):
    X=             -1.4406    Y=             -0.8288    Z=              2.6775  Tot=              3.1514
 Quadrupole moment (field-independent basis, Debye-Ang):
   XX=            -67.3289   YY=            -71.9890   ZZ=            -73.5743
   XY=              4.2941   XZ=              0.2941   YZ=             -0.0017
 Traceless Quadrupole moment (field-independent basis, Debye-Ang):
   XX=              3.6352   YY=             -1.0249   ZZ=             -2.6103
   XY=              4.2941   XZ=              0.2941   YZ=             -0.0017
 Octapole moment (field-independent basis, Debye-Ang**2):
[...]
 .00002720,0.00001134,0.00002755,0.00002784,-0.00000458,-0.00004154,-0.
 00002016,0.00006838,0.00001223,-0.00004874,-0.00001716,-0.00002776,0.0
 0003874,-0.00005602,-0.00003624,0.00007246,-0.00002411,-0.00000118,-0.
 00001162,0.00000705,0.00000908,-0.00000761,0.00001106,0.00000375,0.000
 00478,0.00001053,-0.02723381,-0.07035750,0.06719117,-0.00414459,-0.002
 67547,0.01677065,0.02021709,0.07593178,-0.00027785,0.00023468,0.000112
 01,-0.00031606,0.00003270,-0.00004538,-0.00007444,0.00037631,0.0005255
 8,-0.00035399,-0.00009565,-0.00029945,0.00286807,0.00300536,0.00114972
 ,-0.00000166,-0.00000294,0.00001445,0.00004411,-0.00002759,0.00005141,
 -0.00004130,0.00004049,-0.00004473,0.00011921,0.00003353,0.00003921,-0
 .00075184,-0.00094623,-0.00057005,-0.00011197,-0.00010017,0.00005003,0
 .00008831,0.00001356,0.00004878,-0.00001372,-0.00046774,0.00004328,0.0
 0875088,-0.01285186,-0.01605584,0.00020601,0.00008195,-0.00024254,-0.0
 0010106,-0.00004830,-0.00000282,-0.00003566,-0.00002171,0.00001064,-0.
 00015184,-0.00002878,0.00006469,0.00002441,0.00005169,-0.00000690,-0.0
 0003722,-0.00002627,0.00007283,0.00001819,-0.00004561,-0.00002282,-0.0
 0005992,0.00005063,-0.00005331,-0.00009467,0.00011571,-0.00008271,0.00
 000422,-0.00003831,0.00001127,0.00002462,-0.00000961,0.00001809,0.0000
 1417,-0.00001812,0.00001511,0.07657747,0.06297467,-0.26324225,-0.00150
 735,0.00022395,0.00515043,-0.09088110,-0.05884279,0.28753278,0.0002164
 8,-0.00016351,0.00008459,0.00012995,0.00001539,-0.00005193,-0.00013842
 ,-0.00002157,-0.00040715,0.00061462,0.00063341,-0.00040699,-0.00129822
 ,-0.00240126,0.00046908,-0.00000143,-0.00002764,-0.00000921,-0.0000066
 4,0.00002812,0.00000353,0.00008595,-0.00009569,0.00005830,0.00028983,-
 0.00082234,-0.00002177,0.00030397,0.00009211,0.00010165,0.00032652,-0.
 00016938,0.00011169,-0.00008514,-0.00000859,0.00006983,-0.00000930,0.0
 0048867,0.00001309,-0.00473550,0.01278594,0.00143940,0.00001741,-0.000
 10594,0.00040670,0.00012273,0.00006999,0.00002760,-0.00003281,-0.00004
 427,-0.00000678,0.00006900,-0.00000986,-0.00002221,-0.00001741,-0.0000
 0744,-0.00008802,0.00002307,0.00000561,-0.00003963,-0.00002093,0.00002
 910,0.00003747,0.00006839,-0.00004988,0.00007256,0.00011527,-0.0001426
 9,0.00007340,-0.00000529,0.00004427,-0.00001288,-0.00002315,0.00000819
 ,-0.00001307,-0.00002267,0.00002314,-0.00000366,-0.17888979,0.08011711
 ,-0.09803965,-0.01646970,0.01240335,-0.01553987,0.00941016,-0.00636560
 ,0.00603946,0.18999834,-0.00055886,-0.00001357,0.00016867,-0.00013423,
 0.00014886,0.00011261,0.00022152,-0.00007562,0.00049487,0.00018977,-0.
 00063552,-0.00036537,0.00431279,0.00337308,0.00242780,-0.00001627,0.00
 004094,0.00000059,0.00000189,-0.00001578,-0.00000172,-0.00020581,0.000
 15008,-0.00011963,-0.00088356,-0.00044474,-0.00087467,-0.00041434,-0.0
 0045049,0.00011084,-0.00032477,0.00018005,-0.00003777,0.00005617,0.000
 01495,-0.00006975,-0.00002563,-0.00076362,-0.00010195,0.02387237,-0.02
 808303,0.00336777,-0.00014979,0.00034528,-0.00015348,-0.00006346,-0.00
 005618,-0.00000123,0.00012983,0.00005732,0.00005307,-0.00002797,0.0000
 2049,-0.00002567,0.00009396,0.00002790,0.00016459,-0.00004023,-0.00001
 741,0.00005743,0.00002057,-0.00006487,-0.00007153,-0.00011117,0.000088
 89,-0.00014221,-0.00016474,0.00015147,-0.00010156,0.00001448,-0.000059
 38,0.00002090,0.00003096,-0.00000219,0.00001617,0.00002972,-0.00003101
 ,0.00000095,0.07710872,-0.10469433,0.06465179,-0.01238959,0.01161924,-
 0.01008174,0.00573111,-0.00146292,0.00630375,-0.09628525,0.12064881,-0
 .00021775,-0.00003346,0.00008179,-0.00003675,0.00007142,0.00006253,0.0
 0006114,-0.00013460,-0.00001011,0.00020334,-0.00000423,-0.00010691,0.0
 0087945,0.00070054,0.00124957,0.00001042,0.00001403,0.00000244,0.00000
 106,0.00000959,-0.00000905,-0.00004658,0.00006892,-0.00004896,-0.00017
 979,-0.00042667,-0.00118371,-0.00013994,-0.00014431,-0.00036949,0.0002
 0444,-0.00001768,-0.00003611,0.00004131,0.00001278,-0.00001393,-0.0000
 2717,-0.00024984,-0.00003319,0.01672328,-0.01423065,0.01187234,-0.0000
 3640,0.00025809,0.00019495,0.00000835,0.00000574,-0.00000445,0.0000453
 9,-0.00002025,0.00002961,-0.00005140,-0.00005523,-0.00003671,0.0000378
 4,-0.00001728,0.00004850,-0.00001151,-0.00000120,0.00002262,0.00000690
 ,-0.00002474,-0.00003046,-0.00003364,0.00003412,-0.00005540,-0.0000654
 2,0.00004395,-0.00004569,0.00000766,-0.00002002,0.00000790,0.00001435,
 -0.00000236,0.00000802,0.00001101,-0.00001039,0.00000067,-0.10101452,0
 .06588838,-0.13292769,-0.00040268,0.00103437,-0.00039010,-0.02164596,0
 .01304644,-0.01424916,0.10565253,-0.06580342,0.13597583,-0.00036025,0.
 00020423,-0.00011210,-0.00066011,-0.00021692,0.00000013,-0.00112491,0.
 00064394,-0.00041330,-0.00454591,0.00007353,0.00327677,-0.00108192,-0.
 00028436,-0.00077612,0.00009573,-0.00017581,-0.00001035,0.00000657,0.0
 0010509,0.00014566,0.00014315,-0.00009443,0.00006314,-0.00008132,-0.00
 047606,-0.00017554,-0.00045994,-0.00001409,-0.00068516,0.00255773,-0.0
 0047918,-0.00049898,0.00065541,0.00007859,0.00011462,0.00079718,-0.001
 03084,0.00068266,0.00095320,0.00087308,0.00066063,-0.04233530,-0.01701
 357,0.00754251,0.00567208,0.00049059,-0.00426947,0.00389490,-0.0018007
 2,-0.00377185,-0.16376709,-0.05997193,0.00574565,-0.00016301,-0.000232
 02,-0.00012502,-0.00001052,0.00002802,0.00002372,0.00005555,0.00001074
 ,0.00000386,-0.00002688,0.00004140,-0.00000619,-0.00011739,0.00088918,
 -0.00020802,-0.00002326,-0.00008526,0.00002191,0.00012209,-0.00014462,
 0.00010279,0.00009718,-0.00012798,0.00000105,0.00017264,-0.00062503,-0
 .00043186,0.00004844,0.00008444,0.00005857,-0.00006912,0.00004171,0.00
 007422,-0.00006154,-0.00001965,0.00000267,0.51297131,0.00003494,0.0006
 9247,-0.00016566,-0.00061032,-0.00014273,0.00005308,-0.00111883,0.0011
 4870,-0.00052644,-0.00046433,-0.00285015,-0.00087044,-0.00071787,-0.00
 016379,-0.00061771,0.00000722,-0.00035838,-0.00008905,0.00003520,0.000
 09522,0.00010592,0.00002948,-0.00015637,0.00007324,-0.00026440,0.00018
 313,0.00003483,-0.00016471,-0.00000301,-0.00046088,0.00337635,0.000828
 10,-0.00038737,0.00050452,0.00000259,0.00015185,-0.00004120,-0.0009680
 9,0.00037609,0.00083190,0.00062043,0.00058851,0.00078479,-0.00007579,0
 .00430340,0.00147905,0.00009200,-0.00277103,0.00544628,0.00272528,-0.0
 0302390,-0.08516713,-0.12417941,-0.01183147,-0.00012809,-0.00016502,-0
 .00011720,-0.00001489,0.00001305,0.00002328,0.00004302,0.00000488,0.00
 000546,-0.00001821,0.00003513,-0.00000011,0.00001036,0.00050555,-0.000
 13920,0.00001915,-0.00013793,0.00006135,0.00004037,-0.00009420,0.00004
 180,0.00003449,-0.00007008,0.00002560,0.00013780,-0.00047726,-0.000319
 36,0.00002897,0.00006973,0.00004081,-0.00005349,0.00003258,0.00005947,
 -0.00004215,-0.00000036,0.00001243,-0.06522938,0.53894746,0.00007102,-
 0.00008733,-0.00006476,-0.00027043,-0.00003690,0.00009294,-0.00037955,
 0.00066723,-0.00045891,0.00209937,-0.00124801,-0.00415494,-0.00038181,
 0.00005047,-0.00063417,-0.00002246,-0.00028514,-0.00010290,0.00004158,
 0.00002608,0.00006711,-0.00000453,-0.00000976,0.00004621,-0.00008170,0
 .00002505,-0.00017778,0.00012865,-0.00009673,0.00055208,0.00258326,0.0
 0050133,0.00024435,0.00017914,0.00000938,0.00009397,0.00004405,-0.0001
 1959,0.00009957,-0.00001807,0.00017777,0.00029688,0.02975821,0.0186883
 1,-0.00387500,0.00317382,0.00091853,0.00089562,-0.00021075,0.00007765,
 0.00049107,-0.02512600,-0.03177387,-0.08042497,-0.00005650,-0.00007719
 ,-0.00004901,-0.00000916,0.00001044,-0.00000030,0.00001534,0.00000444,
 0.00000674,0.00000116,0.00001000,0.00000459,-0.00002728,0.00013005,-0.
 00001417,-0.00000189,-0.00000576,0.00000553,0.00001720,-0.00002175,0.0
 0001809,0.00001060,-0.00000971,0.00000059,0.00003526,-0.00004275,-0.00
 002189,0.00000304,0.00001165,0.00000660,-0.00000049,0.00001064,0.00001
 113,-0.00000342,-0.00000481,-0.00000297,-0.03393459,0.00724460,0.60751
 083,-0.00003262,-0.00008447,0.00003412,0.00017487,0.00002486,-0.000023
 33,0.00030997,-0.00037631,0.00021191,-0.00002253,0.00075106,0.00119955
 ,0.00019050,0.00006664,0.00030415,-0.00000091,0.00012678,0.00003333,-0
 .00001279,-0.00002157,-0.00003395,-0.00001826,0.00003039,-0.00002491,0
 .00001876,-0.00002573,0.00001421,0.00000879,-0.00000523,0.00001455,-0.
 00119438,-0.00020237,-0.00002612,-0.00014798,-0.00000839,-0.00005454,-
 0.00005890,0.00016346,-0.00012599,-0.00016126,-0.00019161,-0.00020723,
 -0.00282563,-0.00380202,-0.00240476,-0.00007818,-0.00014949,0.00043530
 ,0.00004022,0.00005984,-0.00007558,-0.02762575,0.00151310,0.02319309,0
 .00004183,0.00005753,0.00003974,0.00000434,-0.00000598,-0.00000426,-0.
 00001228,-0.00000267,-0.00000240,0.00000370,-0.00000956,-0.00000248,0.
 00002109,-0.00012874,0.00003929,0.00000575,0.00001803,0.00000209,-0.00
 002419,0.00002077,-0.00001861,-0.00000864,0.00001536,-0.00000767,-0.00
 004972,0.00012889,0.00010081,-0.00000207,-0.00001839,-0.00001362,0.000
 01105,-0.00000760,-0.00002828,0.00001250,-0.00000181,0.00000156,-0.140
 71775,0.04175039,0.11765722,0.16384574,-0.00003873,-0.00006595,0.00001
 430,0.00007817,0.00001353,-0.00001620,0.00013329,-0.00021184,0.0001247
 8,-0.00032501,0.00083970,0.00067622,0.00007242,0.00000913,0.00012101,0
 .00000250,0.00007957,0.00002474,-0.00001047,-0.00000997,-0.00001697,0.
 00000394,0.00001467,-0.00001252,0.00009985,0.00002663,0.00005253,0.000
 00008,0.00000202,-0.00001912,-0.00074177,-0.00018272,-0.00000561,-0.00
 005812,0.00000111,-0.00002372,0.00002347,0.00007887,-0.00001088,-0.000
 06323,-0.00008664,-0.00008497,-0.00338040,-0.00200572,-0.00034042,0.00
 007317,-0.00005022,-0.00006440,-0.00044303,0.00027161,0.00016311,-0.01
 918720,0.00343292,0.01841781,0.00001696,0.00002154,0.00001508,0.000002
 55,-0.00000219,-0.00000131,-0.00000477,-0.00000065,-0.00000148,0.00000
 094,-0.00000343,-0.00000087,0.00000100,-0.00003133,0.00000420,-0.00000
 406,0.00000980,-0.00001348,0.00000281,0.00000808,-0.00000078,-0.000005
 22,0.00000150,-0.00000013,-0.00002372,0.00005643,0.00002879,0.00000021
 ,-0.00000800,-0.00000444,0.00000359,-0.00000344,-0.00000933,0.00000619
 ,-0.00000367,0.00000263,0.04905853,-0.07170163,-0.05999087,-0.03900154
 ,0.07208752,-0.00001823,0.00002028,-0.00000207,-0.00003106,-0.00001598
 ,-0.00000489,-0.00007270,0.00001889,-0.00000482,-0.00005704,-0.0001000
 7,0.00033882,-0.00001620,0.00005837,-0.00006059,0.00000919,0.00000812,
 0.00000877,0.00000319,0.00000351,0.00000410,0.00000844,-0.00000524,0.0
 0000074,0.00001817,-0.00000480,0.00000745,-0.00003088,-0.00000117,-0.0
 0004308,0.00001190,-0.00007479,-0.00001255,0.00003231,0.00000652,0.000
 00390,0.00003642,-0.00004102,0.00002788,0.00009210,0.00006302,0.000071
 54,-0.00185684,0.00001894,0.00195153,-0.00020681,-0.00012802,0.0002603
 3,0.00000597,-0.00007407,-0.00012280,-0.00197406,0.00278926,0.00533652
 ,-0.00000845,-0.00001259,-0.00000543,-0.00000009,0.00000185,0.00000094
 ,0.00000269,0.00000060,-0.00000030,-0.00000185,0.00000217,-0.00000043,
 -0.00000882,0.00003337,-0.00000935,-0.00000061,-0.00000240,-0.00000068
 ,0.00000538,-0.00000405,0.00000524,0.00000309,-0.00000465,-0.00000001,
 0.00001825,-0.00005068,-0.00003198,0.00000123,0.00000692,0.00000405,-0
 .00000420,0.00000217,0.00000657,-0.00000582,0.00000155,-0.00000183,0.1
 2667576,-0.05447238,-0.21605790,-0.13595229,0.05923738,0.22365026,-0.0
 0004236,-0.00010332,-0.00000508,0.00004103,0.00003804,-0.00000283,0.00
 006850,-0.00010168,0.00007516,0.00056379,-0.00020463,-0.00029559,0.000
 08481,0.00003771,0.00009052,-0.00001993,0.00002106,-0.00000484,-0.0000
 1131,-0.00000142,-0.00000628,-0.00000339,0.00001473,-0.00000605,-0.000
 05675,0.00021115,0.00009293,0.00006218,-0.00001168,0.00007797,-0.00037
 902,0.00017076,0.00005159,-0.00003701,-0.00000268,-0.00001050,0.000057
 18,0.00008617,-0.00003064,-0.00006588,-0.00005720,-0.00004923,0.005059
 98,-0.00410291,-0.00333848,-0.00068957,0.00030398,0.00037455,0.0004603
 3,0.00177769,-0.00011317,-0.00359395,-0.03917398,0.00296486,0.00001023
 ,0.00001316,0.00000830,0.00000090,-0.00000153,-0.00000133,-0.00000287,
 -0.00000027,-0.00000036,0.00000127,-0.00000267,-0.00000003,0.00000146,
 0.00001010,-0.00000858,-0.00001128,0.00000114,-0.00000172,0.00000039,0
 .00000565,-0.00000174,-0.00000217,-0.00000576,-0.00000281,-0.00000796,
 0.00004432,0.00003333,-0.00000416,-0.00000470,-0.00000468,0.00000414,-
 0.00000299,-0.00000580,0.00000354,0.00000442,0.00000157,-0.07407592,0.
 07503799,-0.00367663,-0.00333547,0.01778145,-0.00310086,0.07772528,-0.
 00005956,-0.00023201,0.00006479,0.00011567,0.00006975,-0.00001604,0.00
 024657,-0.00024526,0.00013112,0.00044867,0.00069599,-0.00009506,0.0001
 7638,0.00001523,0.00012974,-0.00001661,0.00006043,0.00000591,-0.000013
 97,-0.00001965,-0.00001656,0.00000042,0.00004241,-0.00001202,0.0002625
 2,0.00022434,0.00003881,0.00008032,-0.00002812,0.00013205,-0.00071935,
 0.00003656,0.00004147,-0.00008581,0.00000281,-0.00003332,0.00014575,0.
 00022621,-0.00006781,-0.00017645,-0.00009753,-0.00011223,0.00328388,0.
 00070632,-0.00324816,-0.00016554,-0.00011612,0.00061652,-0.00157415,-0
 .00017213,0.00132841,-0.01353299,-0.02498508,-0.00051301,0.00002054,0.
 00002494,0.00002122,0.00000281,-0.00000142,-0.00000531,-0.00000743,-0.
 00000069,-0.00000074,0.00000338,-0.00000729,-0.00000006,-0.00002363,-0
 .00006414,0.00002156,-0.00000917,0.00004787,-0.00001477,-0.00000308,0.
 00001437,-0.00000476,0.00000561,0.00000921,-0.00001083,-0.00000993,0.0
 0007400,0.00006578,-0.00000993,-0.00000990,-0.00000823,0.00001130,-0.0
 0000658,-0.00000962,0.00000436,0.00000955,-0.00000528,0.07044826,-0.28
 042161,0.01766587,0.00315389,-0.00517098,0.00083746,-0.06568599,0.3134
 8347,-0.00000243,-0.00005151,0.00004065,0.00005371,0.00002301,0.000005
 39,0.00008494,-0.00004290,0.00002679,0.00017750,0.00003224,-0.00003467
 ,0.00003202,-0.00000527,0.00007731,0.00000010,0.00001630,0.00000082,0.
 00000369,-0.00000952,-0.00000352,-0.00000230,0.00001125,-0.00000669,0.
 00002188,-0.00002632,-0.00004126,0.00000365,-0.00001520,0.00000856,-0.
 00010656,0.00001644,-0.00002107,-0.00003721,-0.00000834,-0.00002030,0.
 00003812,0.00008294,-0.00010227,-0.00004797,-0.00003974,-0.00005854,-0
 .00036701,0.00203350,0.00015723,-0.00022104,0.00000608,-0.00005311,-0.
 00029952,-0.00024111,0.00032319,0.00094247,-0.00603279,0.00287314,0.00
 000993,0.00001705,0.00001125,0.00000107,-0.00000185,-0.00000107,-0.000
 00325,-0.00000129,-0.00000072,0.00000066,-0.00000332,-0.00000136,-0.00
 000955,-0.00001639,-0.00000015,-0.00000655,0.00001120,0.00001084,-0.00
 001016,0.00000686,-0.00000800,0.00000910,0.00000069,-0.00000655,-0.000
 00879,0.00002897,0.00002684,-0.00000243,-0.00000354,-0.00000334,0.0000
 0369,-0.00000294,-0.00000560,0.00000254,0.00000245,-0.00000070,-0.0048
 3518,0.01794304,-0.05617672,0.00648410,-0.02434030,0.00374205,0.006633
 91,-0.01744979,0.04998511,0.00005616,-0.00008867,-0.00000081,0.0000920
 2,0.00000411,0.00000355,0.00013140,-0.00013666,0.00006290,0.00076722,0
 .00028285,-0.00002569,0.00018882,0.00019192,-0.00007260,-0.00001359,0.
 00004098,0.00000287,0.00000554,-0.00001151,-0.00001707,-0.00002160,0.0
 0002306,-0.00000798,0.00005081,0.00006137,-0.00001599,0.00009691,-0.00
 001473,0.00029196,-0.00051133,-0.00006603,0.00013481,-0.00010658,-0.00
 000709,-0.00000826,-0.00009870,0.00014296,-0.00006939,-0.00016950,-0.0
 0013047,-0.00000331,0.00339159,0.00005349,-0.00597624,-0.00016550,-0.0
 0011674,0.00145516,-0.00054860,0.00022619,0.00043170,-0.02890693,-0.00
 751858,-0.02410670,0.00002639,0.00003556,0.00001902,0.00000170,-0.0000
 0361,-0.00000463,-0.00000876,-0.00000088,-0.00000038,0.00000522,-0.000
 00642,0.00000167,0.00002900,-0.00012760,0.00003971,0.00000617,0.000010
 18,-0.00000218,-0.00001782,0.00001760,-0.00001267,-0.00001929,0.000019
 87,0.00000125,-0.00002180,0.00010928,0.00007064,-0.00000856,-0.0000146
 1,-0.00000873,0.00001358,-0.00000451,-0.00000763,0.00001019,-0.0000011
 4,-0.00000477,-0.09856102,0.02440276,-0.09161364,0.01164021,-0.0040738
 4,0.01642272,-0.00180599,0.00368328,-0.00854317,0.11447264,-0.00001218
 ,-0.00013586,0.00003726,0.00006390,0.00002785,0.00000009,0.00011732,-0
 .00010690,0.00004604,0.00050681,0.00018575,-0.00029787,0.00007032,0.00
 003347,-0.00002500,-0.00000710,0.00002624,-0.00000068,-0.00000401,-0.0
 0000855,-0.00000392,-0.00000422,0.00002503,-0.00000630,-0.00000515,0.0
 0001255,-0.00002010,0.00005469,-0.00001833,0.00018079,-0.00026350,-0.0
 0000886,0.00007496,-0.00005926,-0.00000271,-0.00001549,0.00003277,0.00
 013442,-0.00005629,-0.00015085,-0.00008462,-0.00004233,0.00223586,0.00
 026584,-0.00288079,0.00053314,-0.00012653,0.00100057,-0.00031226,-0.00
 027991,0.00058248,-0.02081717,0.00153987,-0.02097456,0.00001488,0.0000
 2069,0.00001363,0.00000148,-0.00000157,-0.00000307,-0.00000477,-0.0000
 0046,-0.00000002,0.00000287,-0.00000482,-0.00000010,-0.00001363,-0.000
 05135,0.00002522,-0.00000643,0.00002569,-0.00000408,-0.00000430,0.0000
 0871,-0.00000522,0.00000298,0.00001024,-0.00000768,-0.00002031,0.00008
 367,0.00005190,-0.00000408,-0.00000998,-0.00000578,0.00000953,-0.00000
 430,-0.00000780,0.00000813,-0.00000224,-0.00000180,0.02495050,-0.06403
 048,0.04758071,-0.00383752,0.00258375,-0.00811845,0.01390391,-0.004164
 95,0.02806008,-0.01698236,0.06405867,0.00005274,-0.00002360,0.00000407
 ,0.00009358,0.00001889,-0.00000058,0.00013983,-0.00012557,0.00006279,0
 .00022444,0.00011215,0.00025927,0.00026258,0.00010517,0.00006043,-0.00
 000880,0.00003601,0.00000454,-0.00000259,-0.00000958,-0.00002027,-0.00
 001705,0.00000973,-0.00000867,0.00001586,0.00003075,-0.00000013,0.0000
 5938,0.00002618,0.00008880,-0.00040881,0.00000516,-0.00000448,-0.00009
 602,-0.00001059,-0.00001125,-0.00010227,0.00010528,-0.00005434,-0.0000
 9541,-0.00014916,-0.00006718,0.00236569,-0.00092352,0.00233380,-0.0021
 1787,0.00010073,0.00042102,-0.00013007,0.00027502,-0.00007517,-0.00637
 084,-0.00566954,0.00225084,0.00002553,0.00003468,0.00001606,0.00000167
 ,-0.00000466,-0.00000246,-0.00000796,-0.00000129,-0.00000094,0.0000031
 9,-0.00000513,0.00000123,0.00003041,-0.00010641,0.00001897,0.00000383,
 0.00000252,-0.00000426,-0.00001252,0.00001514,-0.00001152,-0.00001694,
 0.00001313,0.00000534,-0.00002679,0.00008704,0.00003735,-0.00000770,-0
 .00001210,-0.00000594,0.00000933,-0.00000633,-0.00000446,0.00000865,0.
 00000071,-0.00000014,-0.09494258,0.04464745,-0.24822751,-0.01075896,0.
 00607523,-0.01906197,0.00026254,0.00052292,-0.00074353,0.11156390,-0.0
 4517638,0.26274030\\0.00000240,-0.00000273,-0.00000449,-0.00000686,0.0
 0000182,0.00001199,0.00000670,0.00000958,0.00000311,0.00000068,0.00000
 222,0.00000425,-0.00000186,0.00000529,-0.00000012,0.00001068,0.0000116
 7,0.00000980,0.00000921,0.00000619,-0.00000195,-0.00000543,-0.00000463
 ,0.00000229,0.00000067,0.00000114,0.00000551,-0.00000708,-0.00000841,-
 0.00000037,0.00001323,0.00000780,0.00000370,0.00000896,0.00000660,0.00
 000663,-0.00000130,-0.00000490,-0.00001156,-0.00000480,-0.00000582,0.0
 0001570,0.00000166,0.00000644,-0.00000682,0.00000982,0.00000766,-0.000
 00951,0.00000493,0.00000347,-0.00001261,0.00000178,-0.00000107,-0.0000
 1184,-0.00000206,0.00000049,0.00001675,0.00000455,0.00000303,0.0000198
 5,0.00000108,0.00000109,0.00002008,-0.00000294,-0.00000302,0.00001603,
 -0.00000582,-0.00000302,-0.00001146,-0.00000427,-0.00000488,-0.0000171
 6,-0.00000708,-0.00000814,-0.00000813,-0.00000097,-0.00000083,-0.00000
 976,-0.00000685,-0.00000630,0.00001296,-0.00000755,-0.00000619,0.00002
 046,-0.00001076,-0.00001121,0.00001189,-0.00000289,-0.00000219,0.00001
 150,-0.00000036,-0.00000115,-0.00002047,-0.00000342,-0.00000361,-0.000
 02213,0.00000049,-0.00000029,-0.00002287,0.00000546,0.00000392,-0.0000
 2126\\\@


 There are more things in heaven and earth, Horatio,
 than are dreamt of in your philosophy.
                   -- Hamlet, Act I, Scene 5
 Job cpu time:       0 days  1 hours 15 minutes 38.4 seconds.
 Elapsed time:       0 days  0 hours 18 minutes 55.1 seconds.
 File lengths (MBytes):  RWF=    377 Int=      0 D2E=      0 Chk=     16 Scr=      1
 Normal termination of Gaussian 16 at Fri May 24 08:53:48 2019.
