 Entering Gaussian System, Link 0=g16
 Input=clay-glucose_cation-095-b3lyp_d3bj-631gd-pcm_thf.gjf
 Output=clay-glucose_cation-095-b3lyp_d3bj-631gd-pcm_thf.out
 Initial command:
 /n/sw/g16_nehalem/g16/l1.exe "/scratch/Gau-36649.inp" -scrdir="/scratch/"
 Entering Link 1 = /n/sw/g16_nehalem/g16/l1.exe PID=     36652.
  
 Copyright (c) 1988,1990,1992,1993,1995,1998,2003,2009,2016,
            Gaussian, Inc.  All Rights Reserved.
  
 This is part of the Gaussian(R) 16 program.  It is based on
 the Gaussian(R) 09 system (copyright 2009, Gaussian, Inc.),
 the Gaussian(R) 03 system (copyright 2003, Gaussian, Inc.),
 the Gaussian(R) 98 system (copyright 1998, Gaussian, Inc.),
 the Gaussian(R) 94 system (copyright 1995, Gaussian, Inc.),
 the Gaussian 92(TM) system (copyright 1992, Gaussian, Inc.),
 the Gaussian 90(TM) system (copyright 1990, Gaussian, Inc.),
 the Gaussian 88(TM) system (copyright 1988, Gaussian, Inc.),
 the Gaussian 86(TM) system (copyright 1986, Carnegie Mellon
 University), and the Gaussian 82(TM) system (copyright 1983,
 Carnegie Mellon University). Gaussian is a federally registered
 trademark of Gaussian, Inc.
  
 This software contains proprietary and confidential information,
 including trade secrets, belonging to Gaussian, Inc.
  
 This software is provided under written license and may be
 used, copied, transmitted, or stored only in accord with that
 written license.
  
 The following legend is applicable only to US Government
 contracts under FAR:
  
                    RESTRICTED RIGHTS LEGEND
  
 Use, reproduction and disclosure by the US Government is
 subject to restrictions as set forth in subparagraphs (a)
 and (c) of the Commercial Computer Software - Restricted
 Rights clause in FAR 52.227-19.
  
 Gaussian, Inc.
 340 Quinnipiac St., Bldg. 40, Wallingford CT 06492
  
  
 ---------------------------------------------------------------
 Warning -- This program may not be used in any manner that
 competes with the business of Gaussian, Inc. or will provide
 assistance to any competitor of Gaussian, Inc.  The licensee
 of this program is prohibited from giving any competitor of
 Gaussian, Inc. access to this program.  By using this program,
 the user acknowledges that Gaussian, Inc. is engaged in the
 business of creating and licensing software in the field of
 computational chemistry and represents and warrants to the
 licensee that it is not a competitor of Gaussian, Inc. and that
 it will not use this program in any manner prohibited above.
 ---------------------------------------------------------------
  

 Cite this work as:
 Gaussian 16, Revision A.03,
 M. J. Frisch, G. W. Trucks, H. B. Schlegel, G. E. Scuseria, 
 M. A. Robb, J. R. Cheeseman, G. Scalmani, V. Barone, 
 G. A. Petersson, H. Nakatsuji, X. Li, M. Caricato, A. V. Marenich, 
 J. Bloino, B. G. Janesko, R. Gomperts, B. Mennucci, H. P. Hratchian, 
 J. V. Ortiz, A. F. Izmaylov, J. L. Sonnenberg, D. Williams-Young, 
 F. Ding, F. Lipparini, F. Egidi, J. Goings, B. Peng, A. Petrone, 
 T. Henderson, D. Ranasinghe, V. G. Zakrzewski, J. Gao, N. Rega, 
 G. Zheng, W. Liang, M. Hada, M. Ehara, K. Toyota, R. Fukuda, 
 J. Hasegawa, M. Ishida, T. Nakajima, Y. Honda, O. Kitao, H. Nakai, 
 T. Vreven, K. Throssell, J. A. Montgomery, Jr., J. E. Peralta, 
 F. Ogliaro, M. J. Bearpark, J. J. Heyd, E. N. Brothers, K. N. Kudin, 
 V. N. Staroverov, T. A. Keith, R. Kobayashi, J. Normand, 
 K. Raghavachari, A. P. Rendell, J. C. Burant, S. S. Iyengar, 
 J. Tomasi, M. Cossi, J. M. Millam, M. Klene, C. Adamo, R. Cammi, 
 J. W. Ochterski, R. L. Martin, K. Morokuma, O. Farkas, 
 J. B. Foresman, and D. J. Fox, Gaussian, Inc., Wallingford CT, 2016.
 
 ******************************************
 Gaussian 16:  ES64L-G16RevA.03 25-Dec-2016
                24-May-2019 
 ******************************************
 %nprocshared=4
 Will use up to    4 processors via shared memory.
 %mem=3GB
 -------------------------------------------------------------------
 #p b3lyp 6-31g* opt freq=noraman scrf=(pcm,solvent=tetrahydrofuran)
 -------------------------------------------------------------------
 1/18=20,19=15,26=3,38=1/1,3;
 2/9=110,12=2,17=6,18=5,40=1/2;
 3/5=1,6=6,7=1,11=2,25=1,30=1,70=2201,71=1,72=20,74=-5/1,2,3;
 4//1;
 5/5=2,38=5,53=20/2;
 6/7=2,8=2,9=2,10=2,28=1/1;
 7//1,2,3,16;
 1/18=20,19=15,26=3/3(2);
 2/9=110/2;
 99//99;
 2/9=110/2;
 3/5=1,6=6,7=1,11=2,25=1,30=1,70=2205,71=1,72=20,74=-5/1,2,3;
 4/5=5,16=3,69=1/1;
 5/5=2,38=5,53=20/2;
 7//1,2,3,16;
 1/18=20,19=15,26=3/3(-5);
 2/9=110/2;
 6/7=2,8=2,9=2,10=2,19=2,28=1/1;
 99/9=1/99;
 Leave Link    1 at Fri May 24 08:31:01 2019, MaxMem=   402653184 cpu:               0.4 elap:               0.1
 (Enter /n/sw/g16_nehalem/g16/l101.exe)
 -----
 title
 -----
 Symbolic Z-matrix:
 Charge =  1 Multiplicity = 1
 6                    -1.03245   0.54994  -0.36221 
 6                    -1.80855  -0.69788   0.12796 
 6                    -0.91257  -1.87929   0.34367 
 6                     1.15582  -0.61954   0.09152 
 6                     0.29343   0.61202   0.43377 
 1                    -1.35122  -2.86998   0.46699 
 1                    -2.28493  -0.4762    1.09674 
 1                    -0.82194   0.3928   -1.42552 
 1                     1.38507  -0.68295  -0.974 
 1                     0.07526   0.56247   1.50872 
 8                     0.34517  -1.87519   0.31346 
 8                    -2.73998  -1.13075  -0.83511 
 8                    -1.81349   1.71396  -0.32253 
 8                     1.02502   1.79912   0.28549 
 6                     2.44794  -0.76863   0.91237 
 1                     2.63715  -1.83599   1.09219 
 1                     2.33695  -0.26751   1.878 
 8                     3.52156  -0.15037   0.24104 
 6                    -4.05778  -1.41012  -0.33659 
 1                    -4.66083  -1.65668  -1.21079 
 1                    -4.05644  -2.26014   0.35595 
 1                    -4.46856  -0.52595   0.16444 
 6                    -2.06084   2.30637   0.95626 
 1                    -2.73716   3.1408    0.76475 
 1                    -2.55466   1.61179   1.64916 
 1                    -1.13786   2.68368   1.40741 
 6                     1.34592   2.22453  -1.04595 
 1                     0.44307   2.40676  -1.637 
 1                     1.99792   1.50698  -1.55614 
 1                     1.88818   3.16308  -0.92323 
 6                     4.20055  -1.00251  -0.679 
 1                     3.54399  -1.3496   -1.48967 
 1                     5.00853  -0.40956  -1.11133 
 1                     4.62244  -1.87721  -0.16604 
 
 ITRead=  0  0  0  0  0  0  0  0  0  0  0  0  0  0  0  0  0  0  0  0
 ITRead=  0  0  0  0  0  0  0  0  0  0  0  0  0  0
 MicOpt= -1 -1 -1 -1 -1 -1 -1 -1 -1 -1 -1 -1 -1 -1 -1 -1 -1 -1 -1 -1
 MicOpt= -1 -1 -1 -1 -1 -1 -1 -1 -1 -1 -1 -1 -1 -1
 NAtoms=     34 NQM=       34 NQMF=       0 NMMI=      0 NMMIF=      0
                NMic=       0 NMicF=      0.
                    Isotopes and Nuclear Properties:
 (Nuclear quadrupole moments (NQMom) in fm**2, nuclear magnetic moments (NMagM)
  in nuclear magnetons)

  Atom         1           2           3           4           5           6           7           8           9          10
 IAtWgt=          12          12          12          12          12           1           1           1           1           1
 AtmWgt=  12.0000000  12.0000000  12.0000000  12.0000000  12.0000000   1.0078250   1.0078250   1.0078250   1.0078250   1.0078250
 NucSpn=           0           0           0           0           0           1           1           1           1           1
 AtZEff=   0.0000000   0.0000000   0.0000000   0.0000000   0.0000000   0.0000000   0.0000000   0.0000000   0.0000000   0.0000000
 NQMom=    0.0000000   0.0000000   0.0000000   0.0000000   0.0000000   0.0000000   0.0000000   0.0000000   0.0000000   0.0000000
 NMagM=    0.0000000   0.0000000   0.0000000   0.0000000   0.0000000   2.7928460   2.7928460   2.7928460   2.7928460   2.7928460
 AtZNuc=   6.0000000   6.0000000   6.0000000   6.0000000   6.0000000   1.0000000   1.0000000   1.0000000   1.0000000   1.0000000

  Atom        11          12          13          14          15          16          17          18          19          20
 IAtWgt=          16          16          16          16          12           1           1          16          12           1
 AtmWgt=  15.9949146  15.9949146  15.9949146  15.9949146  12.0000000   1.0078250   1.0078250  15.9949146  12.0000000   1.0078250
 NucSpn=           0           0           0           0           0           1           1           0           0           1
 AtZEff=   0.0000000   0.0000000   0.0000000   0.0000000   0.0000000   0.0000000   0.0000000   0.0000000   0.0000000   0.0000000
 NQMom=    0.0000000   0.0000000   0.0000000   0.0000000   0.0000000   0.0000000   0.0000000   0.0000000   0.0000000   0.0000000
 NMagM=    0.0000000   0.0000000   0.0000000   0.0000000   0.0000000   2.7928460   2.7928460   0.0000000   0.0000000   2.7928460
 AtZNuc=   8.0000000   8.0000000   8.0000000   8.0000000   6.0000000   1.0000000   1.0000000   8.0000000   6.0000000   1.0000000

  Atom        21          22          23          24          25          26          27          28          29          30
 IAtWgt=           1           1          12           1           1           1          12           1           1           1
 AtmWgt=   1.0078250   1.0078250  12.0000000   1.0078250   1.0078250   1.0078250  12.0000000   1.0078250   1.0078250   1.0078250
 NucSpn=           1           1           0           1           1           1           0           1           1           1
 AtZEff=   0.0000000   0.0000000   0.0000000   0.0000000   0.0000000   0.0000000   0.0000000   0.0000000   0.0000000   0.0000000
 NQMom=    0.0000000   0.0000000   0.0000000   0.0000000   0.0000000   0.0000000   0.0000000   0.0000000   0.0000000   0.0000000
 NMagM=    2.7928460   2.7928460   0.0000000   2.7928460   2.7928460   2.7928460   0.0000000   2.7928460   2.7928460   2.7928460
 AtZNuc=   1.0000000   1.0000000   6.0000000   1.0000000   1.0000000   1.0000000   6.0000000   1.0000000   1.0000000   1.0000000

  Atom        31          32          33          34
 IAtWgt=          12           1           1           1
 AtmWgt=  12.0000000   1.0078250   1.0078250   1.0078250
 NucSpn=           0           1           1           1
 AtZEff=   0.0000000   0.0000000   0.0000000   0.0000000
 NQMom=    0.0000000   0.0000000   0.0000000   0.0000000
 NMagM=    0.0000000   2.7928460   2.7928460   2.7928460
 AtZNuc=   6.0000000   1.0000000   1.0000000   1.0000000
 Leave Link  101 at Fri May 24 08:31:01 2019, MaxMem=   402653184 cpu:               1.3 elap:               0.3
 (Enter /n/sw/g16_nehalem/g16/l103.exe)

 GradGradGradGradGradGradGradGradGradGradGradGradGradGradGradGradGradGrad
 Berny optimization.
 Initialization pass.
                           ----------------------------
                           !    Initial Parameters    !
                           ! (Angstroms and Degrees)  !
 --------------------------                            --------------------------
 ! Name  Definition              Value          Derivative Info.                !
 --------------------------------------------------------------------------------
 ! R1    R(1,2)                  1.5491         estimate D2E/DX2                !
 ! R2    R(1,5)                  1.5477         estimate D2E/DX2                !
 ! R3    R(1,8)                  1.0953         estimate D2E/DX2                !
 ! R4    R(1,13)                 1.4023         estimate D2E/DX2                !
 ! R5    R(2,3)                  1.4983         estimate D2E/DX2                !
 ! R6    R(2,7)                  1.1021         estimate D2E/DX2                !
 ! R7    R(2,12)                 1.408          estimate D2E/DX2                !
 ! R8    R(3,6)                  1.0904         estimate D2E/DX2                !
 ! R9    R(3,11)                 1.2581         estimate D2E/DX2                !
 ! R10   R(4,5)                  1.5419         estimate D2E/DX2                !
 ! R11   R(4,9)                  1.0917         estimate D2E/DX2                !
 ! R12   R(4,11)                 1.511          estimate D2E/DX2                !
 ! R13   R(4,15)                 1.538          estimate D2E/DX2                !
 ! R14   R(5,10)                 1.098          estimate D2E/DX2                !
 ! R15   R(5,14)                 1.4023         estimate D2E/DX2                !
 ! R16   R(12,19)                1.4364         estimate D2E/DX2                !
 ! R17   R(13,23)                1.4309         estimate D2E/DX2                !
 ! R18   R(14,27)                1.4341         estimate D2E/DX2                !
 ! R19   R(15,16)                1.0988         estimate D2E/DX2                !
 ! R20   R(15,17)                1.0936         estimate D2E/DX2                !
 ! R21   R(15,18)                1.4091         estimate D2E/DX2                !
 ! R22   R(18,31)                1.4261         estimate D2E/DX2                !
 ! R23   R(19,20)                1.0903         estimate D2E/DX2                !
 ! R24   R(19,21)                1.0964         estimate D2E/DX2                !
 ! R25   R(19,22)                1.0961         estimate D2E/DX2                !
 ! R26   R(23,24)                1.091          estimate D2E/DX2                !
 ! R27   R(23,25)                1.0984         estimate D2E/DX2                !
 ! R28   R(23,26)                1.0944         estimate D2E/DX2                !
 ! R29   R(27,28)                1.0944         estimate D2E/DX2                !
 ! R30   R(27,29)                1.0956         estimate D2E/DX2                !
 ! R31   R(27,30)                1.0909         estimate D2E/DX2                !
 ! R32   R(31,32)                1.0994         estimate D2E/DX2                !
 ! R33   R(31,33)                1.0915         estimate D2E/DX2                !
 ! R34   R(31,34)                1.0983         estimate D2E/DX2                !
 ! A1    A(2,1,5)              107.384          estimate D2E/DX2                !
 ! A2    A(2,1,8)              106.7333         estimate D2E/DX2                !
 ! A3    A(2,1,13)             112.3731         estimate D2E/DX2                !
 ! A4    A(5,1,8)              109.9002         estimate D2E/DX2                !
 ! A5    A(5,1,13)             115.4223         estimate D2E/DX2                !
 ! A6    A(8,1,13)             104.691          estimate D2E/DX2                !
 ! A7    A(1,2,3)              112.402          estimate D2E/DX2                !
 ! A8    A(1,2,7)              109.4319         estimate D2E/DX2                !
 ! A9    A(1,2,12)             111.2628         estimate D2E/DX2                !
 ! A10   A(3,2,7)              106.8895         estimate D2E/DX2                !
 ! A11   A(3,2,12)             104.5745         estimate D2E/DX2                !
 ! A12   A(7,2,12)             112.1572         estimate D2E/DX2                !
 ! A13   A(2,3,6)              119.4776         estimate D2E/DX2                !
 ! A14   A(2,3,11)             126.2828         estimate D2E/DX2                !
 ! A15   A(6,3,11)             114.0681         estimate D2E/DX2                !
 ! A16   A(5,4,9)              112.3622         estimate D2E/DX2                !
 ! A17   A(5,4,11)             109.3338         estimate D2E/DX2                !
 ! A18   A(5,4,15)             115.3927         estimate D2E/DX2                !
 ! A19   A(9,4,11)             101.9906         estimate D2E/DX2                !
 ! A20   A(9,4,15)             109.8059         estimate D2E/DX2                !
 ! A21   A(11,4,15)            106.9644         estimate D2E/DX2                !
 ! A22   A(1,5,4)              109.4473         estimate D2E/DX2                !
 ! A23   A(1,5,10)             109.3585         estimate D2E/DX2                !
 ! A24   A(1,5,14)             115.2464         estimate D2E/DX2                !
 ! A25   A(4,5,10)             107.0012         estimate D2E/DX2                !
 ! A26   A(4,5,14)             111.1542         estimate D2E/DX2                !
 ! A27   A(10,5,14)            104.2045         estimate D2E/DX2                !
 ! A28   A(3,11,4)             122.8597         estimate D2E/DX2                !
 ! A29   A(2,12,19)            115.4246         estimate D2E/DX2                !
 ! A30   A(1,13,23)            117.7247         estimate D2E/DX2                !
 ! A31   A(5,14,27)            117.7767         estimate D2E/DX2                !
 ! A32   A(4,15,16)            109.036          estimate D2E/DX2                !
 ! A33   A(4,15,17)            109.9729         estimate D2E/DX2                !
 ! A34   A(4,15,18)            110.0776         estimate D2E/DX2                !
 ! A35   A(16,15,17)           108.5475         estimate D2E/DX2                !
 ! A36   A(16,15,18)           111.8987         estimate D2E/DX2                !
 ! A37   A(17,15,18)           107.2752         estimate D2E/DX2                !
 ! A38   A(15,18,31)           114.0766         estimate D2E/DX2                !
 ! A39   A(12,19,20)           105.8525         estimate D2E/DX2                !
 ! A40   A(12,19,21)           111.6473         estimate D2E/DX2                !
 ! A41   A(12,19,22)           110.2166         estimate D2E/DX2                !
 ! A42   A(20,19,21)           109.3786         estimate D2E/DX2                !
 ! A43   A(20,19,22)           109.9763         estimate D2E/DX2                !
 ! A44   A(21,19,22)           109.6993         estimate D2E/DX2                !
 ! A45   A(13,23,24)           105.4817         estimate D2E/DX2                !
 ! A46   A(13,23,25)           112.3149         estimate D2E/DX2                !
 ! A47   A(13,23,26)           111.4295         estimate D2E/DX2                !
 ! A48   A(24,23,25)           108.4017         estimate D2E/DX2                !
 ! A49   A(24,23,26)           109.3573         estimate D2E/DX2                !
 ! A50   A(25,23,26)           109.7017         estimate D2E/DX2                !
 ! A51   A(14,27,28)           111.4813         estimate D2E/DX2                !
 ! A52   A(14,27,29)           111.7908         estimate D2E/DX2                !
 ! A53   A(14,27,30)           105.1888         estimate D2E/DX2                !
 ! A54   A(28,27,29)           110.397          estimate D2E/DX2                !
 ! A55   A(28,27,30)           109.1227         estimate D2E/DX2                !
 ! A56   A(29,27,30)           108.6672         estimate D2E/DX2                !
 ! A57   A(18,31,32)           112.3353         estimate D2E/DX2                !
 ! A58   A(18,31,33)           106.462          estimate D2E/DX2                !
 ! A59   A(18,31,34)           110.9453         estimate D2E/DX2                !
 ! A60   A(32,31,33)           108.7548         estimate D2E/DX2                !
 ! A61   A(32,31,34)           108.8057         estimate D2E/DX2                !
 ! A62   A(33,31,34)           109.4691         estimate D2E/DX2                !
 ! D1    D(5,1,2,3)            -40.7357         estimate D2E/DX2                !
 ! D2    D(5,1,2,7)             77.8611         estimate D2E/DX2                !
 ! D3    D(5,1,2,12)          -157.6377         estimate D2E/DX2                !
 ! D4    D(8,1,2,3)             77.0763         estimate D2E/DX2                !
 ! D5    D(8,1,2,7)           -164.3269         estimate D2E/DX2                !
 ! D6    D(8,1,2,12)           -39.8258         estimate D2E/DX2                !
 ! D7    D(13,1,2,3)          -168.7108         estimate D2E/DX2                !
 ! D8    D(13,1,2,7)           -50.114          estimate D2E/DX2                !
 ! D9    D(13,1,2,12)           74.3872         estimate D2E/DX2                !
 ! D10   D(2,1,5,4)             64.1469         estimate D2E/DX2                !
 ! D11   D(2,1,5,10)           -52.7713         estimate D2E/DX2                !
 ! D12   D(2,1,5,14)          -169.7225         estimate D2E/DX2                !
 ! D13   D(8,1,5,4)            -51.5869         estimate D2E/DX2                !
 ! D14   D(8,1,5,10)          -168.5051         estimate D2E/DX2                !
 ! D15   D(8,1,5,14)            74.5437         estimate D2E/DX2                !
 ! D16   D(13,1,5,4)          -169.666          estimate D2E/DX2                !
 ! D17   D(13,1,5,10)           73.4158         estimate D2E/DX2                !
 ! D18   D(13,1,5,14)          -43.5354         estimate D2E/DX2                !
 ! D19   D(2,1,13,23)           74.9188         estimate D2E/DX2                !
 ! D20   D(5,1,13,23)          -48.6806         estimate D2E/DX2                !
 ! D21   D(8,1,13,23)         -169.6266         estimate D2E/DX2                !
 ! D22   D(1,2,3,6)           -166.1993         estimate D2E/DX2                !
 ! D23   D(1,2,3,11)             8.7437         estimate D2E/DX2                !
 ! D24   D(7,2,3,6)             73.72           estimate D2E/DX2                !
 ! D25   D(7,2,3,11)          -111.337          estimate D2E/DX2                !
 ! D26   D(12,2,3,6)           -45.3711         estimate D2E/DX2                !
 ! D27   D(12,2,3,11)          129.572          estimate D2E/DX2                !
 ! D28   D(1,2,12,19)         -132.6689         estimate D2E/DX2                !
 ! D29   D(3,2,12,19)          105.7494         estimate D2E/DX2                !
 ! D30   D(7,2,12,19)           -9.7183         estimate D2E/DX2                !
 ! D31   D(2,3,11,4)             2.1472         estimate D2E/DX2                !
 ! D32   D(6,3,11,4)           177.3262         estimate D2E/DX2                !
 ! D33   D(9,4,5,1)             58.8529         estimate D2E/DX2                !
 ! D34   D(9,4,5,10)           177.2485         estimate D2E/DX2                !
 ! D35   D(9,4,5,14)           -69.5821         estimate D2E/DX2                !
 ! D36   D(11,4,5,1)           -53.6303         estimate D2E/DX2                !
 ! D37   D(11,4,5,10)           64.7652         estimate D2E/DX2                !
 ! D38   D(11,4,5,14)          177.9346         estimate D2E/DX2                !
 ! D39   D(15,4,5,1)          -174.2161         estimate D2E/DX2                !
 ! D40   D(15,4,5,10)          -55.8206         estimate D2E/DX2                !
 ! D41   D(15,4,5,14)           57.3489         estimate D2E/DX2                !
 ! D42   D(5,4,11,3)            20.6952         estimate D2E/DX2                !
 ! D43   D(9,4,11,3)           -98.4293         estimate D2E/DX2                !
 ! D44   D(15,4,11,3)          146.2972         estimate D2E/DX2                !
 ! D45   D(5,4,15,16)          144.5826         estimate D2E/DX2                !
 ! D46   D(5,4,15,17)           25.6735         estimate D2E/DX2                !
 ! D47   D(5,4,15,18)          -92.3119         estimate D2E/DX2                !
 ! D48   D(9,4,15,16)          -87.2052         estimate D2E/DX2                !
 ! D49   D(9,4,15,17)          153.8858         estimate D2E/DX2                !
 ! D50   D(9,4,15,18)           35.9003         estimate D2E/DX2                !
 ! D51   D(11,4,15,16)          22.7156         estimate D2E/DX2                !
 ! D52   D(11,4,15,17)         -96.1935         estimate D2E/DX2                !
 ! D53   D(11,4,15,18)         145.821          estimate D2E/DX2                !
 ! D54   D(1,5,14,27)          -53.7988         estimate D2E/DX2                !
 ! D55   D(4,5,14,27)           71.4528         estimate D2E/DX2                !
 ! D56   D(10,5,14,27)        -173.6271         estimate D2E/DX2                !
 ! D57   D(2,12,19,20)         175.9235         estimate D2E/DX2                !
 ! D58   D(2,12,19,21)         -65.1427         estimate D2E/DX2                !
 ! D59   D(2,12,19,22)          57.0403         estimate D2E/DX2                !
 ! D60   D(1,13,23,24)        -175.9434         estimate D2E/DX2                !
 ! D61   D(1,13,23,25)         -58.0543         estimate D2E/DX2                !
 ! D62   D(1,13,23,26)          65.4892         estimate D2E/DX2                !
 ! D63   D(5,14,27,28)          60.6932         estimate D2E/DX2                !
 ! D64   D(5,14,27,29)         -63.4104         estimate D2E/DX2                !
 ! D65   D(5,14,27,30)         178.8332         estimate D2E/DX2                !
 ! D66   D(4,15,18,31)         -88.2324         estimate D2E/DX2                !
 ! D67   D(16,15,18,31)         33.1799         estimate D2E/DX2                !
 ! D68   D(17,15,18,31)        152.1291         estimate D2E/DX2                !
 ! D69   D(15,18,31,32)         61.9391         estimate D2E/DX2                !
 ! D70   D(15,18,31,33)       -179.1232         estimate D2E/DX2                !
 ! D71   D(15,18,31,34)        -60.095          estimate D2E/DX2                !
 --------------------------------------------------------------------------------
 Trust Radius=3.00D-01 FncErr=1.00D-07 GrdErr=1.00D-06 EigMax=2.50D+02 EigMin=1.00D-04
 Number of steps in this run=    177 maximum allowed number of steps=    204.
 GradGradGradGradGradGradGradGradGradGradGradGradGradGradGradGradGradGrad

 Leave Link  103 at Fri May 24 08:31:01 2019, MaxMem=   402653184 cpu:               0.1 elap:               0.1
 (Enter /n/sw/g16_nehalem/g16/l202.exe)
                          Input orientation:                          
 ---------------------------------------------------------------------
 Center     Atomic      Atomic             Coordinates (Angstroms)
 Number     Number       Type             X           Y           Z
 ---------------------------------------------------------------------
      1          6           0       -1.032450    0.549937   -0.362208
      2          6           0       -1.808546   -0.697876    0.127959
      3          6           0       -0.912572   -1.879293    0.343665
      4          6           0        1.155821   -0.619541    0.091516
      5          6           0        0.293428    0.612016    0.433767
      6          1           0       -1.351218   -2.869979    0.466990
      7          1           0       -2.284934   -0.476196    1.096742
      8          1           0       -0.821936    0.392799   -1.425516
      9          1           0        1.385072   -0.682947   -0.973996
     10          1           0        0.075264    0.562471    1.508716
     11          8           0        0.345171   -1.875191    0.313456
     12          8           0       -2.739980   -1.130751   -0.835113
     13          8           0       -1.813494    1.713958   -0.322528
     14          8           0        1.025022    1.799118    0.285487
     15          6           0        2.447939   -0.768625    0.912366
     16          1           0        2.637154   -1.835991    1.092193
     17          1           0        2.336945   -0.267510    1.877999
     18          8           0        3.521556   -0.150368    0.241039
     19          6           0       -4.057775   -1.410123   -0.336594
     20          1           0       -4.660828   -1.656683   -1.210790
     21          1           0       -4.056440   -2.260141    0.355948
     22          1           0       -4.468556   -0.525952    0.164442
     23          6           0       -2.060841    2.306366    0.956256
     24          1           0       -2.737160    3.140804    0.764749
     25          1           0       -2.554663    1.611788    1.649158
     26          1           0       -1.137863    2.683675    1.407407
     27          6           0        1.345920    2.224533   -1.045952
     28          1           0        0.443069    2.406757   -1.636997
     29          1           0        1.997919    1.506982   -1.556137
     30          1           0        1.888175    3.163082   -0.923225
     31          6           0        4.200548   -1.002514   -0.679003
     32          1           0        3.543988   -1.349603   -1.489673
     33          1           0        5.008534   -0.409556   -1.111331
     34          1           0        4.622439   -1.877213   -0.166043
 ---------------------------------------------------------------------
                    Distance matrix (angstroms):
                    1          2          3          4          5
     1  C    0.000000
     2  C    1.549073   0.000000
     3  C    2.532545   1.498347   0.000000
     4  C    2.522315   2.965626   2.434914   0.000000
     5  C    1.547702   2.495522   2.769328   1.541944   0.000000
     6  H    3.533413   2.245467   1.090449   3.389793   3.851007
     7  H    2.179495   1.102102   2.102185   3.587453   2.876055
     8  H    1.095277   2.139219   2.881079   2.690305   2.179226
     9  H    2.781852   3.378420   2.906311   1.091738   2.202365
    10  H    2.174292   2.653998   2.880169   2.138507   1.097983
    11  O    2.869775   2.461499   1.258112   1.510982   2.490653
    12  O    2.442132   1.407998   2.299838   4.036984   3.721405
    13  O    1.402337   2.453550   3.763898   3.799142   2.495071
    14  O    2.492620   3.780066   4.157928   2.429947   1.402294
    15  C    3.933987   4.328737   3.584695   1.538047   2.603295
    16  H    4.612367   4.689275   3.628047   2.162279   3.452436
    17  H    4.127901   4.520282   3.938450   2.170369   2.652420
    18  O    4.646860   5.359341   4.760379   2.416440   3.322527
    19  C    3.604869   2.404607   3.251949   5.290546   4.859575
    20  H    4.330634   3.293489   4.063903   6.050212   5.691767
    21  H    4.190084   2.746940   3.166876   5.470755   5.213127
    22  H    3.638918   2.665810   3.809025   5.625628   4.903468
    23  C    2.425073   3.126531   4.383324   4.433466   2.947270
    24  H    3.299797   4.000411   5.357967   5.454240   3.960907
    25  H    2.736833   2.864487   4.072889   4.601388   3.253973
    26  H    2.774074   3.677185   4.690733   4.231287   2.699693
    27  C    2.988046   4.457488   4.886022   3.068995   2.428481
    28  H    2.692587   4.221799   4.912332   3.557282   2.744367
    29  H    3.394781   4.710282   4.852532   2.818863   2.768749
    30  H    3.958954   5.447727   5.905484   3.984254   3.300391
    31  C    5.467607   6.070684   5.287588   3.163974   4.371562
    32  H    5.081655   5.629485   4.847951   2.955756   4.256021
    33  H    6.162410   6.934807   6.271893   4.041575   5.065882
    34  H    6.156891   6.544833   5.558431   3.696690   5.029550
                    6          7          8          9         10
     6  H    0.000000
     7  H    2.645489   0.000000
     8  H    3.808863   3.042581   0.000000
     9  H    3.787721   4.218963   2.496394   0.000000
    10  H    3.860279   2.611338   3.073024   3.070915   0.000000
    11  O    1.972539   3.080288   3.087060   2.039699   2.728313
    12  O    2.578574   2.089874   2.519657   4.151611   4.035608
    13  O    4.674347   2.652048   1.986261   4.049739   2.871721
    14  O    5.242130   4.097682   2.883837   2.806525   1.981824
    15  C    4.364360   4.745482   4.184099   2.166885   2.785146
    16  H    4.167388   5.106468   4.824072   2.677005   3.534033
    17  H    4.729306   4.692087   4.618198   3.035214   2.437302
    18  O    5.584914   5.878241   4.683840   2.514859   3.740598
    19  C    3.178424   2.463663   3.860950   5.528078   4.937439
    20  H    3.903915   3.516124   4.357015   6.128388   5.894992
    21  H    2.775330   2.620967   4.546836   5.819480   5.134880
    22  H    3.912006   2.374840   4.082880   5.965371   4.861896
    23  C    5.247618   2.795104   3.296887   4.953401   2.812352
    24  H    6.175679   3.660248   4.002109   5.885329   3.887289
    25  H    4.788741   2.176602   3.733885   5.260062   2.835014
    26  H    5.636752   3.375955   3.656963   4.834297   2.445700
    27  C    5.959664   5.006813   2.863375   2.908634   3.302021
    28  H    5.957363   4.819414   2.387674   3.297455   3.664994
    29  H    5.870907   5.414203   3.034806   2.347394   3.739255
    30  H    6.987431   5.894018   3.907872   3.879127   3.995518
    31  C    5.968487   6.744758   5.265883   2.848868   4.924760
    32  H    5.486631   6.436514   4.701210   2.317600   4.967737
    33  H    6.999373   7.620676   5.893799   3.636355   5.669800
    34  H    6.088587   7.160257   6.031621   3.543953   5.425281
                   11         12         13         14         15
    11  O    0.000000
    12  O    3.375138   0.000000
    13  O    4.236307   3.035373   0.000000
    14  O    3.736780   4.900522   2.904153   0.000000
    15  C    2.450472   5.486285   5.084092   3.001828   0.000000
    16  H    2.420982   5.755471   5.866161   4.057556   1.098822
    17  H    2.999933   5.820767   5.098498   2.920306   1.093564
    18  O    3.615201   6.428537   5.679443   3.167831   1.409104
    19  C    4.474906   1.436368   3.846671   6.043264   6.655504
    20  H    5.237471   2.026671   4.500838   6.819846   7.472015
    21  H    4.418616   2.104095   4.613524   6.504137   6.696355
    22  H    5.001462   2.086353   3.507662   5.966574   6.961048
    23  C    4.866981   3.934972   1.430880   3.198403   5.457710
    24  H    5.904628   4.561332   2.017726   4.022913   6.495435
    25  H    4.727807   3.705059   2.108866   3.835210   5.588851
    26  H    4.917253   4.705903   2.095114   2.592145   5.002141
    27  C    4.433647   5.291216   3.281147   1.434114   3.742786
    28  H    4.706265   4.825845   2.701828   2.098533   4.538921
    29  H    4.203100   5.470393   4.011421   2.103200   3.387390
    30  H    5.412433   6.313841   4.020342   2.016536   4.375049
    31  C    4.075595   6.943468   6.608706   4.343196   2.378823
    32  H    3.709440   6.321756   6.280943   4.405772   2.703452
    33  H    5.091666   7.786905   7.188295   4.764211   3.283432
    34  H    4.304061   7.430348   7.371718   5.163400   2.668405
                   16         17         18         19         20
    16  H    0.000000
    17  H    1.779817   0.000000
    18  O    2.085175   2.024022   0.000000
    19  C    6.858926   6.863121   7.704992   0.000000
    20  H    7.654830   7.774268   8.445602   1.090268   0.000000
    21  H    6.747308   6.867502   7.867043   1.096425   1.784409
    22  H    7.284781   7.022671   7.999301   1.096146   1.790750
    23  C    6.264883   5.178317   6.140866   4.412652   5.211696
    24  H    7.332050   6.213089   7.090671   4.864968   5.533456
    25  H    6.257184   5.245184   6.481391   3.915929   4.826814
    26  H    5.897245   4.583147   5.576953   5.322275   6.172920
    27  C    4.767264   3.967606   3.468414   6.550865   7.153463
    28  H    5.501218   4.805587   4.420745   6.042948   6.537810
    29  H    4.312510   3.880342   2.880646   6.831414   7.380173
    30  H    5.441839   4.451653   3.873293   7.524139   8.136478
    31  C    2.505199   3.248308   1.426065   8.275463   8.901389
    32  H    2.779380   3.737525   2.105714   7.688957   8.215295
    33  H    3.537468   4.011690   2.026620   9.154196   9.749963
    34  H    2.350790   3.463053   2.087978   8.694445   9.344473
                   21         22         23         24         25
    21  H    0.000000
    22  H    1.792742   0.000000
    23  C    5.019539   3.800801   0.000000
    24  H    5.574749   4.099171   1.091040   0.000000
    25  H    4.349662   3.230681   1.098368   1.775774   0.000000
    26  H    5.836521   4.789591   1.094435   1.783179   1.792961
    27  C    7.159827   6.545101   3.952411   4.559576   4.780546
    28  H    6.782134   5.997502   3.606190   4.052291   4.518538
    29  H    7.382584   6.993462   4.839904   5.520585   5.568743
    30  H    8.147765   7.429672   4.456584   4.923766   5.363066
    31  C    8.416092   8.723066   7.268270   8.208733   7.608402
    32  H    7.874129   8.222856   7.124801   8.043568   7.470987
    33  H    9.367568   9.563283   7.850300   8.724707   8.301089
    34  H    8.702991   9.196810   7.964177   8.956035   8.184062
                   26         27         28         29         30
    26  H    0.000000
    27  C    3.521216   0.000000
    28  H    3.441573   1.094386   0.000000
    29  H    4.472173   1.095569   1.798247   0.000000
    30  H    3.849491   1.090860   1.780401   1.776313   0.000000
    31  C    6.814670   4.324047   5.163287   3.452319   4.770629
    32  H    6.824964   4.219341   4.873155   3.248819   4.840135
    33  H    7.327368   4.511922   5.389936   3.596495   4.747185
    34  H    7.513889   5.322982   6.163054   4.502582   5.783952
                   31         32         33         34
    31  C    0.000000
    32  H    1.099422   0.000000
    33  H    1.091489   1.780934   0.000000
    34  H    1.098280   1.787016   1.787919   0.000000
 Stoichiometry    C10H19O5(1+)
 Framework group  C1[X(C10H19O5)]
 Deg. of freedom    96
 Full point group                 C1      NOp   1
 Largest Abelian subgroup         C1      NOp   1
 Largest concise Abelian subgroup C1      NOp   1
                         Standard orientation:                         
 ---------------------------------------------------------------------
 Center     Atomic      Atomic             Coordinates (Angstroms)
 Number     Number       Type             X           Y           Z
 ---------------------------------------------------------------------
      1          6           0        1.032450    0.549937    0.362208
      2          6           0        1.808546   -0.697876   -0.127959
      3          6           0        0.912572   -1.879293   -0.343665
      4          6           0       -1.155821   -0.619541   -0.091516
      5          6           0       -0.293428    0.612016   -0.433767
      6          1           0        1.351218   -2.869979   -0.466990
      7          1           0        2.284934   -0.476196   -1.096742
      8          1           0        0.821936    0.392799    1.425516
      9          1           0       -1.385072   -0.682947    0.973996
     10          1           0       -0.075264    0.562471   -1.508716
     11          8           0       -0.345171   -1.875191   -0.313456
     12          8           0        2.739980   -1.130751    0.835113
     13          8           0        1.813494    1.713958    0.322528
     14          8           0       -1.025022    1.799118   -0.285487
     15          6           0       -2.447939   -0.768625   -0.912366
     16          1           0       -2.637154   -1.835991   -1.092193
     17          1           0       -2.336945   -0.267510   -1.877999
     18          8           0       -3.521556   -0.150368   -0.241039
     19          6           0        4.057775   -1.410123    0.336594
     20          1           0        4.660828   -1.656683    1.210790
     21          1           0        4.056440   -2.260141   -0.355948
     22          1           0        4.468556   -0.525952   -0.164442
     23          6           0        2.060841    2.306366   -0.956256
     24          1           0        2.737160    3.140804   -0.764749
     25          1           0        2.554663    1.611788   -1.649158
     26          1           0        1.137863    2.683675   -1.407407
     27          6           0       -1.345920    2.224533    1.045952
     28          1           0       -0.443069    2.406757    1.636997
     29          1           0       -1.997919    1.506982    1.556137
     30          1           0       -1.888175    3.163082    0.923225
     31          6           0       -4.200548   -1.002514    0.679003
     32          1           0       -3.543988   -1.349603    1.489673
     33          1           0       -5.008534   -0.409556    1.111331
     34          1           0       -4.622439   -1.877213    0.166043
 ---------------------------------------------------------------------
 Rotational constants (GHZ):           0.9048483           0.3956092           0.3054882
 Leave Link  202 at Fri May 24 08:31:01 2019, MaxMem=   402653184 cpu:               0.1 elap:               0.0
 (Enter /n/sw/g16_nehalem/g16/l301.exe)
 Standard basis: 6-31G(d) (6D, 7F)
 Ernie: Thresh=  0.10000D-02 Tol=  0.10000D-05 Strict=F.
 There are   263 symmetry adapted cartesian basis functions of A   symmetry.
 There are   263 symmetry adapted basis functions of A   symmetry.
   263 basis functions,   496 primitive gaussians,   263 cartesian basis functions
    59 alpha electrons       59 beta electrons
       nuclear repulsion energy      1152.9325210435 Hartrees.
 IExCor=  402 DFT=T Ex+Corr=B3LYP ExCW=0 ScaHFX=  0.200000
 ScaDFX=  0.800000  0.720000  1.000000  0.810000 ScalE2=  1.000000  1.000000
 IRadAn=      5 IRanWt=     -1 IRanGd=            0 ICorTp=0 IEmpDi=  4
 NAtoms=   34 NActive=   34 NUniq=   34 SFac= 1.00D+00 NAtFMM=   60 NAOKFM=F Big=F
 Integral buffers will be    131072 words long.
 Raffenetti 2 integral format.
 Two-electron integral symmetry is turned on.
 ------------------------------------------------------------------------------
 Polarizable Continuum Model (PCM)
 =================================
 Model                : PCM.
 Atomic radii         : UFF (Universal Force Field).
 Polarization charges : Total charges.
 Charge compensation  : None.
 Solution method      : On-the-fly selection.
 Cavity type          : Scaled VdW (van der Waals Surface) (Alpha=1.100).
 Cavity algorithm     : GePol (No added spheres)
                        Default sphere list used, NSphG=   34.
                        Lebedev-Laikov grids with approx.  5.0 points / Ang**2.
                        Smoothing algorithm: York/Karplus (Gamma=1.0000).
                        Polarization charges: spherical gaussians, with
                                              point-specific exponents (IZeta= 3).
                        Self-potential: point-specific (ISelfS= 7).
                        Self-field    : sphere-specific E.n sum rule (ISelfD= 2).
 1st derivatives      : Analytical E(r).r(x)/FMM algorithm (CHGder, D1EAlg=3).
                        Cavity 1st derivative terms included.
 Solvent              : TetraHydroFuran, Eps=   7.425700 Eps(inf)=   1.974025
 ------------------------------------------------------------------------------
 GePol: Number of generator spheres                  =      34
 GePol: Total number of spheres                      =      34
 GePol: Number of exposed spheres                    =      34 (100.00%)
 GePol: Number of points                             =    2289
 GePol: Average weight of points                     =       0.13
 GePol: Minimum weight of points                     =   0.91D-09
 GePol: Maximum weight of points                     =    0.20577
 GePol: Number of points with low weight             =     142
 GePol: Fraction of low-weight points (<1% of avg)   =       6.20%
 GePol: Cavity surface area                          =    300.891 Ang**2
 GePol: Cavity volume                                =    321.827 Ang**3
 Leave Link  301 at Fri May 24 08:31:01 2019, MaxMem=   402653184 cpu:               0.6 elap:               0.2
 (Enter /n/sw/g16_nehalem/g16/l302.exe)
 NPDir=0 NMtPBC=     1 NCelOv=     1 NCel=       1 NClECP=     1 NCelD=      1
         NCelK=      1 NCelE2=     1 NClLst=     1 CellRange=     0.0.
 One-electron integrals computed using PRISM.
 One-electron integral symmetry used in STVInt
 NBasis=   263 RedAO= T EigKep=  1.58D-03  NBF=   263
 NBsUse=   263 1.00D-06 EigRej= -1.00D+00 NBFU=   263
 Precomputing XC quadrature grid using
 IXCGrd= 4 IRadAn=           5 IRanWt=          -1 IRanGd=           0 AccXCQ= 0.00D+00.
 Generated NRdTot=       0 NPtTot=           0 NUsed=           0 NTot=          32
 NSgBfM=   261   261   261   261   261 MxSgAt=    34 MxSgA2=    34.
 Leave Link  302 at Fri May 24 08:31:03 2019, MaxMem=   402653184 cpu:               7.0 elap:               1.8
 (Enter /n/sw/g16_nehalem/g16/l303.exe)
 DipDrv:  MaxL=1.
 Leave Link  303 at Fri May 24 08:31:03 2019, MaxMem=   402653184 cpu:               0.3 elap:               0.1
 (Enter /n/sw/g16_nehalem/g16/l401.exe)
 ExpMin= 1.61D-01 ExpMax= 5.48D+03 ExpMxC= 8.25D+02 IAcc=3 IRadAn=         5 AccDes= 0.00D+00
 Harris functional with IExCor=  402 and IRadAn=       5 diagonalized for initial guess.
 HarFok:  IExCor=  402 AccDes= 0.00D+00 IRadAn=         5 IDoV= 1 UseB2=F ITyADJ=14
 ICtDFT=  3500011 ScaDFX=  1.000000  1.000000  1.000000  1.000000
 FoFCou: FMM=F IPFlag=           0 FMFlag=      100000 FMFlg1=           0
         NFxFlg=           0 DoJE=T BraDBF=F KetDBF=T FulRan=T
         wScrn=  0.000000 ICntrl=       500 IOpCl=  0 I1Cent=   200000004 NGrid=           0
         NMat0=    1 NMatS0=      1 NMatT0=    0 NMatD0=    1 NMtDS0=    0 NMtDT0=    0
 Petite list used in FoFCou.
 Harris En= -768.255279101403    
 JPrj=0 DoOrth=F DoCkMO=F.
 Leave Link  401 at Fri May 24 08:31:14 2019, MaxMem=   402653184 cpu:              44.5 elap:              11.2
 (Enter /n/sw/g16_nehalem/g16/l502.exe)
 Integral symmetry usage will be decided dynamically.
 Closed shell SCF:
 Using DIIS extrapolation, IDIIS=  1040.
 NGot=   402653184 LenX=   402510103 LenY=   402440493
 Requested convergence on RMS density matrix=1.00D-08 within 128 cycles.
 Requested convergence on MAX density matrix=1.00D-06.
 Requested convergence on             energy=1.00D-06.
 No special actions if energy rises.
 Fock matrices will be formed incrementally for  20 cycles.

 Cycle   1  Pass 1  IDiag  1:
 FoFJK:  IHMeth= 1 ICntrl=       0 DoSepK=F KAlg= 0 I1Cent=           0 FoldK=F
 IRaf= 870000000 NMat=       1 IRICut=       1 DoRegI=T DoRafI=F ISym2E= 0 IDoP0=0 IntGTp=1.
 FoFCou: FMM=F IPFlag=           0 FMFlag=      100000 FMFlg1=           0
         NFxFlg=           0 DoJE=F BraDBF=F KetDBF=F FulRan=T
         wScrn=  0.000000 ICntrl=         0 IOpCl=  0 I1Cent=           0 NGrid=           0
         NMat0=    1 NMatS0=      1 NMatT0=    0 NMatD0=    1 NMtDS0=    0 NMtDT0=    0
 Symmetry not used in FoFCou.
 Inv3:  Mode=1 IEnd=    15718563.
 Iteration    1 A*A^-1 deviation from unit magnitude is 5.77D-15 for   1132.
 Iteration    1 A*A^-1 deviation from orthogonality  is 5.61D-15 for   1706    563.
 Iteration    1 A^-1*A deviation from unit magnitude is 6.22D-15 for   1132.
 Iteration    1 A^-1*A deviation from orthogonality  is 3.23D-14 for   2066   2027.
 E= -768.076954179975    
 DIIS: error= 1.95D-02 at cycle   1 NSaved=   1.
 NSaved= 1 IEnMin= 1 EnMin= -768.076954179975     IErMin= 1 ErrMin= 1.95D-02
 ErrMax= 1.95D-02  0.00D+00 EMaxC= 1.00D-01 BMatC= 2.56D-01 BMatP= 2.56D-01
 IDIUse=3 WtCom= 8.05D-01 WtEn= 1.95D-01
 Coeff-Com:  0.100D+01
 Coeff-En:   0.100D+01
 Coeff:      0.100D+01
 Gap=     0.009 Goal=   None    Shift=    0.000
 GapD=    0.009 DampG=0.250 DampE=0.500 DampFc=0.2500 IDamp=-1.
 Damping current iteration by 2.50D-01
 RMSDP=4.98D-03 MaxDP=1.48D-01              OVMax= 3.67D-01

 Cycle   2  Pass 1  IDiag  1:
 RMSU=  1.24D-03    CP:  9.94D-01
 E= -768.149992739538     Delta-E=       -0.073038559563 Rises=F Damp=T
 DIIS: error= 9.90D-03 at cycle   2 NSaved=   2.
 NSaved= 2 IEnMin= 2 EnMin= -768.149992739538     IErMin= 2 ErrMin= 9.90D-03
 ErrMax= 9.90D-03  0.00D+00 EMaxC= 1.00D-01 BMatC= 6.80D-02 BMatP= 2.56D-01
 IDIUse=3 WtCom= 9.01D-01 WtEn= 9.90D-02
 Coeff-Com: -0.631D+00 0.163D+01
 Coeff-En:   0.000D+00 0.100D+01
 Coeff:     -0.568D+00 0.157D+01
 Gap=     0.112 Goal=   None    Shift=    0.000
 RMSDP=1.46D-03 MaxDP=4.54D-02 DE=-7.30D-02 OVMax= 4.62D-01

 Cycle   3  Pass 1  IDiag  1:
 RMSU=  1.44D-03    CP:  9.85D-01  1.11D+00
 E= -768.274699742178     Delta-E=       -0.124707002640 Rises=F Damp=F
 DIIS: error= 6.39D-03 at cycle   3 NSaved=   3.
 NSaved= 3 IEnMin= 3 EnMin= -768.274699742178     IErMin= 3 ErrMin= 6.39D-03
 ErrMax= 6.39D-03  0.00D+00 EMaxC= 1.00D-01 BMatC= 5.02D-02 BMatP= 6.80D-02
 IDIUse=3 WtCom= 9.36D-01 WtEn= 6.39D-02
 Coeff-Com: -0.499D+00 0.102D+01 0.482D+00
 Coeff-En:   0.000D+00 0.000D+00 0.100D+01
 Coeff:     -0.467D+00 0.952D+00 0.515D+00
 Gap=     0.140 Goal=   None    Shift=    0.000
 RMSDP=8.59D-04 MaxDP=3.15D-02 DE=-1.25D-01 OVMax= 3.82D-02

 Cycle   4  Pass 1  IDiag  1:
 RMSU=  6.09D-04    CP:  9.89D-01  1.35D+00  6.41D-01
 E= -768.315969525266     Delta-E=       -0.041269783088 Rises=F Damp=F
 DIIS: error= 2.28D-03 at cycle   4 NSaved=   4.
 NSaved= 4 IEnMin= 4 EnMin= -768.315969525266     IErMin= 4 ErrMin= 2.28D-03
 ErrMax= 2.28D-03  0.00D+00 EMaxC= 1.00D-01 BMatC= 3.42D-03 BMatP= 5.02D-02
 IDIUse=3 WtCom= 9.77D-01 WtEn= 2.28D-02
 Coeff-Com: -0.228D+00 0.391D+00 0.220D+00 0.618D+00
 Coeff-En:   0.000D+00 0.000D+00 0.000D+00 0.100D+01
 Coeff:     -0.223D+00 0.382D+00 0.215D+00 0.627D+00
 Gap=     0.128 Goal=   None    Shift=    0.000
 RMSDP=2.31D-04 MaxDP=1.47D-02 DE=-4.13D-02 OVMax= 9.91D-03

 Cycle   5  Pass 1  IDiag  1:
 RMSU=  2.09D-04    CP:  9.88D-01  1.39D+00  6.87D-01  9.06D-01
 E= -768.318183604150     Delta-E=       -0.002214078883 Rises=F Damp=F
 DIIS: error= 1.07D-03 at cycle   5 NSaved=   5.
 NSaved= 5 IEnMin= 5 EnMin= -768.318183604150     IErMin= 5 ErrMin= 1.07D-03
 ErrMax= 1.07D-03  0.00D+00 EMaxC= 1.00D-01 BMatC= 1.15D-03 BMatP= 3.42D-03
 IDIUse=3 WtCom= 9.89D-01 WtEn= 1.07D-02
 Coeff-Com: -0.101D+00 0.151D+00 0.485D-01 0.367D+00 0.534D+00
 Coeff-En:   0.000D+00 0.000D+00 0.000D+00 0.166D+00 0.834D+00
 Coeff:     -0.997D-01 0.149D+00 0.480D-01 0.365D+00 0.537D+00
 Gap=     0.130 Goal=   None    Shift=    0.000
 RMSDP=1.08D-04 MaxDP=7.75D-03 DE=-2.21D-03 OVMax= 5.20D-03

 Cycle   6  Pass 1  IDiag  1:
 RMSU=  7.57D-05    CP:  9.88D-01  1.41D+00  6.86D-01  9.79D-01  7.28D-01
 E= -768.318945544598     Delta-E=       -0.000761940448 Rises=F Damp=F
 DIIS: error= 4.13D-04 at cycle   6 NSaved=   6.
 NSaved= 6 IEnMin= 6 EnMin= -768.318945544598     IErMin= 6 ErrMin= 4.13D-04
 ErrMax= 4.13D-04  0.00D+00 EMaxC= 1.00D-01 BMatC= 1.47D-04 BMatP= 1.15D-03
 IDIUse=3 WtCom= 9.96D-01 WtEn= 4.13D-03
 Coeff-Com: -0.378D-01 0.488D-01-0.908D-02 0.139D+00 0.332D+00 0.526D+00
 Coeff-En:   0.000D+00 0.000D+00 0.000D+00 0.000D+00 0.000D+00 0.100D+01
 Coeff:     -0.376D-01 0.486D-01-0.904D-02 0.139D+00 0.331D+00 0.528D+00
 Gap=     0.130 Goal=   None    Shift=    0.000
 RMSDP=3.71D-05 MaxDP=2.40D-03 DE=-7.62D-04 OVMax= 2.03D-03

 Cycle   7  Pass 1  IDiag  1:
 RMSU=  2.69D-05    CP:  9.88D-01  1.41D+00  6.84D-01  1.00D+00  7.97D-01
                    CP:  8.26D-01
 E= -768.319057620288     Delta-E=       -0.000112075690 Rises=F Damp=F
 DIIS: error= 1.36D-04 at cycle   7 NSaved=   7.
 NSaved= 7 IEnMin= 7 EnMin= -768.319057620288     IErMin= 7 ErrMin= 1.36D-04
 ErrMax= 1.36D-04  0.00D+00 EMaxC= 1.00D-01 BMatC= 1.21D-05 BMatP= 1.47D-04
 IDIUse=3 WtCom= 9.99D-01 WtEn= 1.36D-03
 Coeff-Com: -0.849D-02 0.843D-02-0.161D-01 0.229D-01 0.112D+00 0.268D+00
 Coeff-Com:  0.614D+00
 Coeff-En:   0.000D+00 0.000D+00 0.000D+00 0.000D+00 0.000D+00 0.000D+00
 Coeff-En:   0.100D+01
 Coeff:     -0.848D-02 0.842D-02-0.161D-01 0.229D-01 0.112D+00 0.267D+00
 Coeff:      0.614D+00
 Gap=     0.129 Goal=   None    Shift=    0.000
 RMSDP=1.56D-05 MaxDP=6.92D-04 DE=-1.12D-04 OVMax= 9.61D-04

 Cycle   8  Pass 1  IDiag  1:
 RMSU=  8.23D-06    CP:  9.88D-01  1.42D+00  6.83D-01  1.02D+00  8.29D-01
                    CP:  8.90D-01  8.51D-01
 E= -768.319069308085     Delta-E=       -0.000011687797 Rises=F Damp=F
 DIIS: error= 3.13D-05 at cycle   8 NSaved=   8.
 NSaved= 8 IEnMin= 8 EnMin= -768.319069308085     IErMin= 8 ErrMin= 3.13D-05
 ErrMax= 3.13D-05  0.00D+00 EMaxC= 1.00D-01 BMatC= 8.50D-07 BMatP= 1.21D-05
 IDIUse=1 WtCom= 1.00D+00 WtEn= 0.00D+00
 Coeff-Com: -0.310D-03-0.203D-03-0.537D-02-0.731D-02 0.371D-02 0.307D-01
 Coeff-Com:  0.234D+00 0.745D+00
 Coeff:     -0.310D-03-0.203D-03-0.537D-02-0.731D-02 0.371D-02 0.307D-01
 Coeff:      0.234D+00 0.745D+00
 Gap=     0.129 Goal=   None    Shift=    0.000
 RMSDP=5.44D-06 MaxDP=1.46D-04 DE=-1.17D-05 OVMax= 6.84D-04

 Cycle   9  Pass 1  IDiag  1:
 RMSU=  3.33D-06    CP:  9.88D-01  1.41D+00  6.84D-01  1.02D+00  8.36D-01
                    CP:  9.16D-01  9.35D-01  9.93D-01
 E= -768.319070067280     Delta-E=       -0.000000759196 Rises=F Damp=F
 DIIS: error= 1.49D-05 at cycle   9 NSaved=   9.
 NSaved= 9 IEnMin= 9 EnMin= -768.319070067280     IErMin= 9 ErrMin= 1.49D-05
 ErrMax= 1.49D-05  0.00D+00 EMaxC= 1.00D-01 BMatC= 1.64D-07 BMatP= 8.50D-07
 IDIUse=1 WtCom= 1.00D+00 WtEn= 0.00D+00
 Coeff-Com:  0.361D-03-0.494D-03-0.137D-02-0.582D-02-0.843D-02-0.101D-01
 Coeff-Com:  0.665D-01 0.425D+00 0.535D+00
 Coeff:      0.361D-03-0.494D-03-0.137D-02-0.582D-02-0.843D-02-0.101D-01
 Coeff:      0.665D-01 0.425D+00 0.535D+00
 Gap=     0.129 Goal=   None    Shift=    0.000
 RMSDP=1.78D-06 MaxDP=6.41D-05 DE=-7.59D-07 OVMax= 1.87D-04

 Cycle  10  Pass 1  IDiag  1:
 RMSU=  9.51D-07    CP:  9.88D-01  1.41D+00  6.84D-01  1.02D+00  8.38D-01
                    CP:  9.23D-01  9.56D-01  1.07D+00  7.31D-01
 E= -768.319070212315     Delta-E=       -0.000000145034 Rises=F Damp=F
 DIIS: error= 2.32D-06 at cycle  10 NSaved=  10.
 NSaved=10 IEnMin=10 EnMin= -768.319070212315     IErMin=10 ErrMin= 2.32D-06
 ErrMax= 2.32D-06  0.00D+00 EMaxC= 1.00D-01 BMatC= 5.34D-09 BMatP= 1.64D-07
 IDIUse=1 WtCom= 1.00D+00 WtEn= 0.00D+00
 Coeff-Com:  0.256D-03-0.318D-03-0.144D-03-0.181D-02-0.406D-02-0.674D-02
 Coeff-Com:  0.297D-02 0.851D-01 0.178D+00 0.747D+00
 Coeff:      0.256D-03-0.318D-03-0.144D-03-0.181D-02-0.406D-02-0.674D-02
 Coeff:      0.297D-02 0.851D-01 0.178D+00 0.747D+00
 Gap=     0.129 Goal=   None    Shift=    0.000
 RMSDP=5.88D-07 MaxDP=1.52D-05 DE=-1.45D-07 OVMax= 7.67D-05

 Cycle  11  Pass 1  IDiag  1:
 RMSU=  3.14D-07    CP:  9.88D-01  1.41D+00  6.84D-01  1.02D+00  8.38D-01
                    CP:  9.26D-01  9.64D-01  1.09D+00  7.69D-01  9.83D-01
 E= -768.319070218568     Delta-E=       -0.000000006253 Rises=F Damp=F
 DIIS: error= 1.11D-06 at cycle  11 NSaved=  11.
 NSaved=11 IEnMin=11 EnMin= -768.319070218568     IErMin=11 ErrMin= 1.11D-06
 ErrMax= 1.11D-06  0.00D+00 EMaxC= 1.00D-01 BMatC= 1.36D-09 BMatP= 5.34D-09
 IDIUse=1 WtCom= 1.00D+00 WtEn= 0.00D+00
 Coeff-Com:  0.690D-04-0.799D-04 0.615D-04-0.245D-03-0.112D-02-0.205D-02
 Coeff-Com: -0.538D-02-0.411D-03 0.362D-01 0.412D+00 0.561D+00
 Coeff:      0.690D-04-0.799D-04 0.615D-04-0.245D-03-0.112D-02-0.205D-02
 Coeff:     -0.538D-02-0.411D-03 0.362D-01 0.412D+00 0.561D+00
 Gap=     0.129 Goal=   None    Shift=    0.000
 RMSDP=2.01D-07 MaxDP=6.14D-06 DE=-6.25D-09 OVMax= 2.13D-05

 Cycle  12  Pass 1  IDiag  1:
 RMSU=  1.04D-07    CP:  9.88D-01  1.41D+00  6.84D-01  1.02D+00  8.39D-01
                    CP:  9.27D-01  9.66D-01  1.09D+00  7.86D-01  1.03D+00
                    CP:  6.59D-01
 E= -768.319070219916     Delta-E=       -0.000000001349 Rises=F Damp=F
 DIIS: error= 2.70D-07 at cycle  12 NSaved=  12.
 NSaved=12 IEnMin=12 EnMin= -768.319070219916     IErMin=12 ErrMin= 2.70D-07
 ErrMax= 2.70D-07  0.00D+00 EMaxC= 1.00D-01 BMatC= 7.81D-11 BMatP= 1.36D-09
 IDIUse=1 WtCom= 1.00D+00 WtEn= 0.00D+00
 Coeff-Com:  0.637D-05-0.548D-05 0.397D-04 0.800D-04-0.741D-04-0.818D-04
 Coeff-Com: -0.268D-02-0.892D-02-0.372D-02 0.827D-01 0.236D+00 0.697D+00
 Coeff:      0.637D-05-0.548D-05 0.397D-04 0.800D-04-0.741D-04-0.818D-04
 Coeff:     -0.268D-02-0.892D-02-0.372D-02 0.827D-01 0.236D+00 0.697D+00
 Gap=     0.129 Goal=   None    Shift=    0.000
 RMSDP=5.66D-08 MaxDP=1.30D-06 DE=-1.35D-09 OVMax= 6.96D-06

 Cycle  13  Pass 1  IDiag  1:
 RMSU=  2.51D-08    CP:  9.88D-01  1.41D+00  6.84D-01  1.02D+00  8.39D-01
                    CP:  9.27D-01  9.66D-01  1.09D+00  7.89D-01  1.05D+00
                    CP:  7.28D-01  8.68D-01
 E= -768.319070219969     Delta-E=       -0.000000000053 Rises=F Damp=F
 DIIS: error= 1.03D-07 at cycle  13 NSaved=  13.
 NSaved=13 IEnMin=13 EnMin= -768.319070219969     IErMin=13 ErrMin= 1.03D-07
 ErrMax= 1.03D-07  0.00D+00 EMaxC= 1.00D-01 BMatC= 9.80D-12 BMatP= 7.81D-11
 IDIUse=1 WtCom= 1.00D+00 WtEn= 0.00D+00
 Coeff-Com:  0.682D-07 0.246D-06 0.145D-04 0.555D-04 0.385D-04 0.124D-03
 Coeff-Com: -0.985D-03-0.454D-02-0.464D-02 0.900D-02 0.793D-01 0.352D+00
 Coeff-Com:  0.570D+00
 Coeff:      0.682D-07 0.246D-06 0.145D-04 0.555D-04 0.385D-04 0.124D-03
 Coeff:     -0.985D-03-0.454D-02-0.464D-02 0.900D-02 0.793D-01 0.352D+00
 Coeff:      0.570D+00
 Gap=     0.129 Goal=   None    Shift=    0.000
 RMSDP=1.48D-08 MaxDP=4.73D-07 DE=-5.28D-11 OVMax= 1.13D-06

 Cycle  14  Pass 1  IDiag  1:
 RMSU=  1.09D-08    CP:  9.88D-01  1.41D+00  6.84D-01  1.02D+00  8.39D-01
                    CP:  9.27D-01  9.66D-01  1.09D+00  7.89D-01  1.05D+00
                    CP:  7.37D-01  9.00D-01  7.84D-01
 E= -768.319070220011     Delta-E=       -0.000000000042 Rises=F Damp=F
 DIIS: error= 3.48D-08 at cycle  14 NSaved=  14.
 NSaved=14 IEnMin=14 EnMin= -768.319070220011     IErMin=14 ErrMin= 3.48D-08
 ErrMax= 3.48D-08  0.00D+00 EMaxC= 1.00D-01 BMatC= 9.96D-13 BMatP= 9.80D-12
 IDIUse=1 WtCom= 1.00D+00 WtEn= 0.00D+00
 Coeff-Com: -0.138D-05 0.167D-05 0.100D-05 0.146D-04 0.258D-04 0.675D-04
 Coeff-Com: -0.667D-04-0.712D-03-0.136D-02-0.715D-02 0.382D-02 0.582D-01
 Coeff-Com:  0.273D+00 0.674D+00
 Coeff:     -0.138D-05 0.167D-05 0.100D-05 0.146D-04 0.258D-04 0.675D-04
 Coeff:     -0.667D-04-0.712D-03-0.136D-02-0.715D-02 0.382D-02 0.582D-01
 Coeff:      0.273D+00 0.674D+00
 Gap=     0.129 Goal=   None    Shift=    0.000
 RMSDP=4.66D-09 MaxDP=1.28D-07 DE=-4.18D-11 OVMax= 3.02D-07

 Error on total polarization charges =  0.01310
 SCF Done:  E(RB3LYP) =  -768.319070220     A.U. after   14 cycles
            NFock= 14  Conv=0.47D-08     -V/T= 2.0091
 KE= 7.613848422425D+02 PE=-4.080651229749D+03 EE= 1.398014796243D+03
 Leave Link  502 at Fri May 24 08:36:30 2019, MaxMem=   402653184 cpu:            1261.7 elap:             315.5
 (Enter /n/sw/g16_nehalem/g16/l601.exe)
 Copying SCF densities to generalized density rwf, IOpCl= 0 IROHF=0.

 **********************************************************************

            Population analysis using the SCF density.

 **********************************************************************

 Orbital symmetries:
       Occupied  (A) (A) (A) (A) (A) (A) (A) (A) (A) (A) (A) (A)
                 (A) (A) (A) (A) (A) (A) (A) (A) (A) (A) (A) (A)
                 (A) (A) (A) (A) (A) (A) (A) (A) (A) (A) (A) (A)
                 (A) (A) (A) (A) (A) (A) (A) (A) (A) (A) (A) (A)
                 (A) (A) (A) (A) (A) (A) (A) (A) (A) (A) (A)
       Virtual   (A) (A) (A) (A) (A) (A) (A) (A) (A) (A) (A) (A)
                 (A) (A) (A) (A) (A) (A) (A) (A) (A) (A) (A) (A)
                 (A) (A) (A) (A) (A) (A) (A) (A) (A) (A) (A) (A)
                 (A) (A) (A) (A) (A) (A) (A) (A) (A) (A) (A) (A)
                 (A) (A) (A) (A) (A) (A) (A) (A) (A) (A) (A) (A)
                 (A) (A) (A) (A) (A) (A) (A) (A) (A) (A) (A) (A)
                 (A) (A) (A) (A) (A) (A) (A) (A) (A) (A) (A) (A)
                 (A) (A) (A) (A) (A) (A) (A) (A) (A) (A) (A) (A)
                 (A) (A) (A) (A) (A) (A) (A) (A) (A) (A) (A) (A)
                 (A) (A) (A) (A) (A) (A) (A) (A) (A) (A) (A) (A)
                 (A) (A) (A) (A) (A) (A) (A) (A) (A) (A) (A) (A)
                 (A) (A) (A) (A) (A) (A) (A) (A) (A) (A) (A) (A)
                 (A) (A) (A) (A) (A) (A) (A) (A) (A) (A) (A) (A)
                 (A) (A) (A) (A) (A) (A) (A) (A) (A) (A) (A) (A)
                 (A) (A) (A) (A) (A) (A) (A) (A) (A) (A) (A) (A)
                 (A) (A) (A) (A) (A) (A) (A) (A) (A) (A) (A) (A)
                 (A) (A) (A) (A) (A) (A) (A) (A) (A) (A) (A) (A)
 The electronic state is 1-A.
 Alpha  occ. eigenvalues --  -19.33319 -19.21767 -19.19639 -19.19279 -19.18545
 Alpha  occ. eigenvalues --  -10.39850 -10.32043 -10.31985 -10.29832 -10.29522
 Alpha  occ. eigenvalues --  -10.27780 -10.26360 -10.25146 -10.24993 -10.24852
 Alpha  occ. eigenvalues --   -1.21802  -1.10062  -1.08415  -1.06757  -1.06327
 Alpha  occ. eigenvalues --   -0.87118  -0.85969  -0.77151  -0.75709  -0.74164
 Alpha  occ. eigenvalues --   -0.71845  -0.69102  -0.68006  -0.65570  -0.62372
 Alpha  occ. eigenvalues --   -0.60545  -0.59092  -0.55871  -0.55368  -0.53350
 Alpha  occ. eigenvalues --   -0.52840  -0.51624  -0.51111  -0.50508  -0.49479
 Alpha  occ. eigenvalues --   -0.48478  -0.48022  -0.46180  -0.46112  -0.45245
 Alpha  occ. eigenvalues --   -0.43740  -0.43657  -0.42943  -0.41432  -0.40950
 Alpha  occ. eigenvalues --   -0.40219  -0.37841  -0.35840  -0.34941  -0.34509
 Alpha  occ. eigenvalues --   -0.32425  -0.30928  -0.29775  -0.28332
 Alpha virt. eigenvalues --   -0.15439  -0.00963   0.04363   0.04879   0.06143
 Alpha virt. eigenvalues --    0.06441   0.07474   0.08473   0.09488   0.10374
 Alpha virt. eigenvalues --    0.11007   0.11517   0.12022   0.12513   0.13408
 Alpha virt. eigenvalues --    0.13507   0.13742   0.14524   0.14996   0.15310
 Alpha virt. eigenvalues --    0.15920   0.16077   0.16382   0.17512   0.17980
 Alpha virt. eigenvalues --    0.18405   0.19998   0.20226   0.21277   0.23380
 Alpha virt. eigenvalues --    0.24346   0.25117   0.25986   0.28155   0.28725
 Alpha virt. eigenvalues --    0.44500   0.45439   0.46773   0.47562   0.47801
 Alpha virt. eigenvalues --    0.48885   0.49582   0.49800   0.50439   0.51776
 Alpha virt. eigenvalues --    0.52059   0.53336   0.53938   0.54985   0.55551
 Alpha virt. eigenvalues --    0.57270   0.58751   0.58920   0.60407   0.61129
 Alpha virt. eigenvalues --    0.62330   0.65352   0.67035   0.69959   0.70782
 Alpha virt. eigenvalues --    0.73707   0.74841   0.75626   0.77210   0.78090
 Alpha virt. eigenvalues --    0.79305   0.80139   0.80880   0.81261   0.81829
 Alpha virt. eigenvalues --    0.82726   0.83353   0.84454   0.84506   0.85092
 Alpha virt. eigenvalues --    0.85917   0.87149   0.87656   0.89466   0.89821
 Alpha virt. eigenvalues --    0.91939   0.92246   0.93016   0.94023   0.94534
 Alpha virt. eigenvalues --    0.95395   0.96272   0.97820   0.99377   1.01531
 Alpha virt. eigenvalues --    1.03803   1.06209   1.08570   1.09935   1.13937
 Alpha virt. eigenvalues --    1.14544   1.15724   1.17969   1.19290   1.22251
 Alpha virt. eigenvalues --    1.23202   1.24381   1.25273   1.28464   1.32959
 Alpha virt. eigenvalues --    1.33952   1.36511   1.38345   1.39917   1.41605
 Alpha virt. eigenvalues --    1.43313   1.44537   1.46350   1.48400   1.49540
 Alpha virt. eigenvalues --    1.53162   1.56841   1.57860   1.60288   1.61417
 Alpha virt. eigenvalues --    1.62646   1.63996   1.65525   1.69314   1.70617
 Alpha virt. eigenvalues --    1.71839   1.75326   1.76833   1.77965   1.79823
 Alpha virt. eigenvalues --    1.82468   1.84052   1.84216   1.86144   1.89458
 Alpha virt. eigenvalues --    1.91501   1.91778   1.94481   1.96509   1.99056
 Alpha virt. eigenvalues --    2.00073   2.01439   2.02489   2.03431   2.04792
 Alpha virt. eigenvalues --    2.06402   2.07520   2.08172   2.09722   2.10316
 Alpha virt. eigenvalues --    2.11977   2.12568   2.13710   2.15784   2.16611
 Alpha virt. eigenvalues --    2.17767   2.20252   2.22211   2.24788   2.26412
 Alpha virt. eigenvalues --    2.27858   2.28997   2.31086   2.32430   2.35120
 Alpha virt. eigenvalues --    2.37153   2.38286   2.41388   2.43583   2.48654
 Alpha virt. eigenvalues --    2.50531   2.51213   2.55845   2.59122   2.61822
 Alpha virt. eigenvalues --    2.63846   2.64912   2.67727   2.71477   2.73225
 Alpha virt. eigenvalues --    2.76017   2.78135   2.85953   2.88461   2.89890
 Alpha virt. eigenvalues --    2.94747   2.97846   3.02802   3.04446   3.84890
 Alpha virt. eigenvalues --    3.88610   3.92799   3.99209   4.12266   4.13563
 Alpha virt. eigenvalues --    4.21702   4.22709   4.23115   4.26104   4.26954
 Alpha virt. eigenvalues --    4.36945   4.42606   4.54687   4.63968
          Condensed to atoms (all electrons):
               1          2          3          4          5          6
     1  C    4.971219   0.283633  -0.041360  -0.041566   0.248646   0.002276
     2  C    0.283633   5.143388   0.275149  -0.006379  -0.048193  -0.038311
     3  C   -0.041360   0.275149   4.794415  -0.032556   0.010361   0.361308
     4  C   -0.041566  -0.006379  -0.032556   5.223259   0.275400   0.002730
     5  C    0.248646  -0.048193   0.010361   0.275400   5.029437  -0.000063
     6  H    0.002276  -0.038311   0.361308   0.002730  -0.000063   0.427445
     7  H   -0.027641   0.340973  -0.039876   0.000885  -0.004569   0.000002
     8  H    0.386586  -0.052263  -0.001559  -0.004320  -0.044243  -0.000190
     9  H   -0.005632   0.001191  -0.001953   0.371027  -0.036274  -0.000181
    10  H   -0.046250  -0.004265   0.001736  -0.051888   0.381712  -0.000094
    11  O    0.000197  -0.028236   0.393501   0.088620  -0.018598  -0.035377
    12  O   -0.032454   0.173746  -0.024962  -0.000077   0.002593   0.001254
    13  O    0.261149  -0.035148   0.002864   0.002549  -0.034765  -0.000036
    14  O   -0.032317   0.002787  -0.000181  -0.045898   0.252800   0.000003
    15  C    0.004022  -0.000373   0.001804   0.289051  -0.025865  -0.000054
    16  H   -0.000111   0.000014   0.000715  -0.052652   0.002861  -0.000015
    17  H    0.000352  -0.000030   0.000055  -0.049374  -0.004083   0.000007
    18  O   -0.000045  -0.000002  -0.000035  -0.035580  -0.001779   0.000001
    19  C    0.002176  -0.026169  -0.001144  -0.000004  -0.000096   0.001673
    20  H   -0.000163   0.004848  -0.000151   0.000000   0.000000  -0.000062
    21  H   -0.000013  -0.004885   0.001307  -0.000001   0.000023   0.000325
    22  H   -0.000077  -0.007474  -0.000035   0.000000  -0.000008   0.000019
    23  C   -0.042679  -0.007518   0.000253   0.000185  -0.005172  -0.000003
    24  H    0.005084  -0.000016  -0.000001  -0.000003  -0.000030   0.000000
    25  H   -0.005128   0.004033  -0.000728   0.000061  -0.002002   0.000015
    26  H   -0.009239  -0.000678   0.000087   0.000189   0.006440   0.000000
    27  C   -0.004086   0.000220  -0.000001  -0.004616  -0.047185   0.000000
    28  H    0.006073   0.000118  -0.000014  -0.001087  -0.008361   0.000000
    29  H   -0.001243   0.000042   0.000018   0.005660  -0.006672   0.000000
    30  H   -0.000040  -0.000004   0.000000  -0.000048   0.005217   0.000000
    31  C    0.000002   0.000000  -0.000006  -0.004751   0.000227   0.000000
    32  H   -0.000005   0.000001   0.000023   0.004877   0.000184  -0.000001
    33  H    0.000000   0.000000   0.000000  -0.000090  -0.000005   0.000000
    34  H    0.000000   0.000000   0.000001  -0.001160  -0.000024   0.000000
               7          8          9         10         11         12
     1  C   -0.027641   0.386586  -0.005632  -0.046250   0.000197  -0.032454
     2  C    0.340973  -0.052263   0.001191  -0.004265  -0.028236   0.173746
     3  C   -0.039876  -0.001559  -0.001953   0.001736   0.393501  -0.024962
     4  C    0.000885  -0.004320   0.371027  -0.051888   0.088620  -0.000077
     5  C   -0.004569  -0.044243  -0.036274   0.381712  -0.018598   0.002593
     6  H    0.000002  -0.000190  -0.000181  -0.000094  -0.035377   0.001254
     7  H    0.509845   0.004718  -0.000013   0.003041   0.001307  -0.024939
     8  H    0.004718   0.543308   0.004691   0.004746   0.000639   0.002359
     9  H   -0.000013   0.004691   0.483543   0.004616  -0.024391   0.000017
    10  H    0.003041   0.004746   0.004616   0.555692  -0.000245   0.000011
    11  O    0.001307   0.000639  -0.024391  -0.000245   7.953436   0.000777
    12  O   -0.024939   0.002359   0.000017   0.000011   0.000777   8.239257
    13  O   -0.005770  -0.041611   0.000010  -0.002374   0.000006   0.001345
    14  O   -0.000023  -0.002607  -0.001327  -0.040406   0.001171  -0.000008
    15  C    0.000002  -0.000050  -0.041609  -0.006510  -0.020788   0.000000
    16  H   -0.000001  -0.000002  -0.000412   0.000034   0.003238   0.000000
    17  H   -0.000008   0.000002   0.003793   0.004066   0.002073   0.000000
    18  O    0.000000  -0.000010  -0.002038   0.000071   0.001118   0.000000
    19  C   -0.005286  -0.000180   0.000000  -0.000003  -0.000002   0.219531
    20  H   -0.000018  -0.000008   0.000000   0.000000   0.000001  -0.029372
    21  H    0.000449   0.000007   0.000000  -0.000001  -0.000026  -0.032656
    22  H    0.007737   0.000076   0.000000   0.000001   0.000002  -0.033110
    23  C    0.003796   0.005645   0.000006   0.004781   0.000001   0.000075
    24  H   -0.000159  -0.000137   0.000000  -0.000026   0.000000  -0.000007
    25  H    0.005922  -0.000359  -0.000001  -0.000268   0.000001  -0.000050
    26  H   -0.000334  -0.000134  -0.000012  -0.002528  -0.000005  -0.000001
    27  C   -0.000002   0.003667   0.003155   0.005861   0.000036  -0.000001
    28  H   -0.000009  -0.001854  -0.000278  -0.000163   0.000010   0.000004
    29  H    0.000000  -0.000444   0.001673  -0.000336  -0.000077   0.000000
    30  H    0.000000  -0.000010  -0.000051  -0.000124   0.000000   0.000000
    31  C    0.000000  -0.000003   0.003801   0.000006   0.000021   0.000000
    32  H    0.000000   0.000001   0.002865  -0.000003  -0.000411   0.000000
    33  H    0.000000   0.000000  -0.000201   0.000000   0.000002   0.000000
    34  H    0.000000   0.000000   0.000004   0.000001   0.000034   0.000000
              13         14         15         16         17         18
     1  C    0.261149  -0.032317   0.004022  -0.000111   0.000352  -0.000045
     2  C   -0.035148   0.002787  -0.000373   0.000014  -0.000030  -0.000002
     3  C    0.002864  -0.000181   0.001804   0.000715   0.000055  -0.000035
     4  C    0.002549  -0.045898   0.289051  -0.052652  -0.049374  -0.035580
     5  C   -0.034765   0.252800  -0.025865   0.002861  -0.004083  -0.001779
     6  H   -0.000036   0.000003  -0.000054  -0.000015   0.000007   0.000001
     7  H   -0.005770  -0.000023   0.000002  -0.000001  -0.000008   0.000000
     8  H   -0.041611  -0.002607  -0.000050  -0.000002   0.000002  -0.000010
     9  H    0.000010  -0.001327  -0.041609  -0.000412   0.003793  -0.002038
    10  H   -0.002374  -0.040406  -0.006510   0.000034   0.004066   0.000071
    11  O    0.000006   0.001171  -0.020788   0.003238   0.002073   0.001118
    12  O    0.001345  -0.000008   0.000000   0.000000   0.000000   0.000000
    13  O    8.188195   0.002975  -0.000036   0.000000  -0.000001   0.000000
    14  O    0.002975   8.188218   0.007392   0.000152   0.001020  -0.000130
    15  C   -0.000036   0.007392   4.916503   0.357290   0.383524   0.246824
    16  H    0.000000   0.000152   0.357290   0.564174  -0.028627  -0.027837
    17  H   -0.000001   0.001020   0.383524  -0.028627   0.522826  -0.033723
    18  O    0.000000  -0.000130   0.246824  -0.027837  -0.033723   8.171991
    19  C   -0.000191   0.000000   0.000000   0.000000   0.000000   0.000000
    20  H    0.000001   0.000000   0.000000   0.000000   0.000000   0.000000
    21  H    0.000015   0.000000   0.000000   0.000000   0.000000   0.000000
    22  H    0.000520   0.000000   0.000000   0.000000   0.000000   0.000000
    23  C    0.237734  -0.005055  -0.000001   0.000000  -0.000002   0.000000
    24  H   -0.031383   0.000037   0.000000   0.000000   0.000000   0.000000
    25  H   -0.037093   0.000380   0.000000   0.000000   0.000000   0.000000
    26  H   -0.033995   0.008956   0.000021   0.000000  -0.000006   0.000000
    27  C   -0.003033   0.235037  -0.001494  -0.000017   0.000013  -0.000042
    28  H    0.006462  -0.034029   0.000175   0.000003   0.000005   0.000058
    29  H    0.000248  -0.036192  -0.001443   0.000054  -0.000014   0.005535
    30  H   -0.000015  -0.031103  -0.000022   0.000000   0.000002  -0.000044
    31  C    0.000000   0.000016  -0.045184  -0.008596   0.005495   0.241796
    32  H    0.000000  -0.000002  -0.003804  -0.000976  -0.000367  -0.038429
    33  H    0.000000   0.000000   0.005455  -0.000033  -0.000201  -0.031202
    34  H    0.000000  -0.000002  -0.009856   0.011394   0.000282  -0.034675
              19         20         21         22         23         24
     1  C    0.002176  -0.000163  -0.000013  -0.000077  -0.042679   0.005084
     2  C   -0.026169   0.004848  -0.004885  -0.007474  -0.007518  -0.000016
     3  C   -0.001144  -0.000151   0.001307  -0.000035   0.000253  -0.000001
     4  C   -0.000004   0.000000  -0.000001   0.000000   0.000185  -0.000003
     5  C   -0.000096   0.000000   0.000023  -0.000008  -0.005172  -0.000030
     6  H    0.001673  -0.000062   0.000325   0.000019  -0.000003   0.000000
     7  H   -0.005286  -0.000018   0.000449   0.007737   0.003796  -0.000159
     8  H   -0.000180  -0.000008   0.000007   0.000076   0.005645  -0.000137
     9  H    0.000000   0.000000   0.000000   0.000000   0.000006   0.000000
    10  H   -0.000003   0.000000  -0.000001   0.000001   0.004781  -0.000026
    11  O   -0.000002   0.000001  -0.000026   0.000002   0.000001   0.000000
    12  O    0.219531  -0.029372  -0.032656  -0.033110   0.000075  -0.000007
    13  O   -0.000191   0.000001   0.000015   0.000520   0.237734  -0.031383
    14  O    0.000000   0.000000   0.000000   0.000000  -0.005055   0.000037
    15  C    0.000000   0.000000   0.000000   0.000000  -0.000001   0.000000
    16  H    0.000000   0.000000   0.000000   0.000000   0.000000   0.000000
    17  H    0.000000   0.000000   0.000000   0.000000  -0.000002   0.000000
    18  O    0.000000   0.000000   0.000000   0.000000   0.000000   0.000000
    19  C    4.919289   0.385512   0.367500   0.371986  -0.000037  -0.000003
    20  H    0.385512   0.494456  -0.029234  -0.025624   0.000001   0.000000
    21  H    0.367500  -0.029234   0.562633  -0.040116   0.000002   0.000000
    22  H    0.371986  -0.025624  -0.040116   0.542634   0.000002   0.000011
    23  C   -0.000037   0.000001   0.000002   0.000002   4.941250   0.387371
    24  H   -0.000003   0.000000   0.000000   0.000011   0.387371   0.508016
    25  H    0.000166  -0.000001  -0.000028   0.000173   0.356454  -0.029276
    26  H    0.000000   0.000000   0.000000   0.000008   0.364922  -0.028568
    27  C    0.000000   0.000000   0.000000   0.000000   0.000522   0.000014
    28  H    0.000000   0.000000   0.000000   0.000000  -0.000506  -0.000043
    29  H    0.000000   0.000000   0.000000   0.000000  -0.000021   0.000000
    30  H    0.000000   0.000000   0.000000   0.000000   0.000031  -0.000001
    31  C    0.000000   0.000000   0.000000   0.000000   0.000000   0.000000
    32  H    0.000000   0.000000   0.000000   0.000000   0.000000   0.000000
    33  H    0.000000   0.000000   0.000000   0.000000   0.000000   0.000000
    34  H    0.000000   0.000000   0.000000   0.000000   0.000000   0.000000
              25         26         27         28         29         30
     1  C   -0.005128  -0.009239  -0.004086   0.006073  -0.001243  -0.000040
     2  C    0.004033  -0.000678   0.000220   0.000118   0.000042  -0.000004
     3  C   -0.000728   0.000087  -0.000001  -0.000014   0.000018   0.000000
     4  C    0.000061   0.000189  -0.004616  -0.001087   0.005660  -0.000048
     5  C   -0.002002   0.006440  -0.047185  -0.008361  -0.006672   0.005217
     6  H    0.000015   0.000000   0.000000   0.000000   0.000000   0.000000
     7  H    0.005922  -0.000334  -0.000002  -0.000009   0.000000   0.000000
     8  H   -0.000359  -0.000134   0.003667  -0.001854  -0.000444  -0.000010
     9  H   -0.000001  -0.000012   0.003155  -0.000278   0.001673  -0.000051
    10  H   -0.000268  -0.002528   0.005861  -0.000163  -0.000336  -0.000124
    11  O    0.000001  -0.000005   0.000036   0.000010  -0.000077   0.000000
    12  O   -0.000050  -0.000001  -0.000001   0.000004   0.000000   0.000000
    13  O   -0.037093  -0.033995  -0.003033   0.006462   0.000248  -0.000015
    14  O    0.000380   0.008956   0.235037  -0.034029  -0.036192  -0.031103
    15  C    0.000000   0.000021  -0.001494   0.000175  -0.001443  -0.000022
    16  H    0.000000   0.000000  -0.000017   0.000003   0.000054   0.000000
    17  H    0.000000  -0.000006   0.000013   0.000005  -0.000014   0.000002
    18  O    0.000000   0.000000  -0.000042   0.000058   0.005535  -0.000044
    19  C    0.000166   0.000000   0.000000   0.000000   0.000000   0.000000
    20  H   -0.000001   0.000000   0.000000   0.000000   0.000000   0.000000
    21  H   -0.000028   0.000000   0.000000   0.000000   0.000000   0.000000
    22  H    0.000173   0.000008   0.000000   0.000000   0.000000   0.000000
    23  C    0.356454   0.364922   0.000522  -0.000506  -0.000021   0.000031
    24  H   -0.029276  -0.028568   0.000014  -0.000043   0.000000  -0.000001
    25  H    0.595584  -0.042846  -0.000014   0.000043   0.000001   0.000000
    26  H   -0.042846   0.560819  -0.000708  -0.000214   0.000050  -0.000079
    27  C   -0.000014  -0.000708   4.940999   0.362339   0.360211   0.388101
    28  H    0.000043  -0.000214   0.362339   0.566684  -0.041034  -0.028348
    29  H    0.000001   0.000050   0.360211  -0.041034   0.579911  -0.029314
    30  H    0.000000  -0.000079   0.388101  -0.028348  -0.029314   0.506747
    31  C    0.000000   0.000000   0.000000  -0.000005   0.000279   0.000001
    32  H    0.000000   0.000000   0.000045  -0.000001  -0.000283   0.000000
    33  H    0.000000   0.000000  -0.000008  -0.000001  -0.000016   0.000001
    34  H    0.000000   0.000000   0.000002   0.000000   0.000049   0.000000
              31         32         33         34
     1  C    0.000002  -0.000005   0.000000   0.000000
     2  C    0.000000   0.000001   0.000000   0.000000
     3  C   -0.000006   0.000023   0.000000   0.000001
     4  C   -0.004751   0.004877  -0.000090  -0.001160
     5  C    0.000227   0.000184  -0.000005  -0.000024
     6  H    0.000000  -0.000001   0.000000   0.000000
     7  H    0.000000   0.000000   0.000000   0.000000
     8  H   -0.000003   0.000001   0.000000   0.000000
     9  H    0.003801   0.002865  -0.000201   0.000004
    10  H    0.000006  -0.000003   0.000000   0.000001
    11  O    0.000021  -0.000411   0.000002   0.000034
    12  O    0.000000   0.000000   0.000000   0.000000
    13  O    0.000000   0.000000   0.000000   0.000000
    14  O    0.000016  -0.000002   0.000000  -0.000002
    15  C   -0.045184  -0.003804   0.005455  -0.009856
    16  H   -0.008596  -0.000976  -0.000033   0.011394
    17  H    0.005495  -0.000367  -0.000201   0.000282
    18  O    0.241796  -0.038429  -0.031202  -0.034675
    19  C    0.000000   0.000000   0.000000   0.000000
    20  H    0.000000   0.000000   0.000000   0.000000
    21  H    0.000000   0.000000   0.000000   0.000000
    22  H    0.000000   0.000000   0.000000   0.000000
    23  C    0.000000   0.000000   0.000000   0.000000
    24  H    0.000000   0.000000   0.000000   0.000000
    25  H    0.000000   0.000000   0.000000   0.000000
    26  H    0.000000   0.000000   0.000000   0.000000
    27  C    0.000000   0.000045  -0.000008   0.000002
    28  H   -0.000005  -0.000001  -0.000001   0.000000
    29  H    0.000279  -0.000283  -0.000016   0.000049
    30  H    0.000001   0.000000   0.000001   0.000000
    31  C    4.914576   0.360715   0.387087   0.369430
    32  H    0.360715   0.601700  -0.031673  -0.045857
    33  H    0.387087  -0.031673   0.515303  -0.028574
    34  H    0.369430  -0.045857  -0.028574   0.576778
 Mulliken charges:
               1
     1  C    0.118633
     2  C    0.029800
     3  C    0.300965
     4  C    0.067556
     5  C    0.072083
     6  H    0.277327
     7  H    0.229972
     8  H    0.193538
     9  H    0.233979
    10  H    0.189113
    11  O   -0.318035
    12  O   -0.463332
    13  O   -0.478623
    14  O   -0.471665
    15  C   -0.054972
    16  H    0.179349
    17  H    0.192918
    18  O   -0.461823
    19  C   -0.234718
    20  H    0.199812
    21  H    0.174700
    22  H    0.183279
    23  C   -0.242037
    24  H    0.189122
    25  H    0.154962
    26  H    0.177856
    27  C   -0.239017
    28  H    0.173972
    29  H    0.163356
    30  H    0.189105
    31  C   -0.224906
    32  H    0.151402
    33  H    0.184155
    34  H    0.162173
 Sum of Mulliken charges =   1.00000
 Mulliken charges with hydrogens summed into heavy atoms:
               1
     1  C    0.312170
     2  C    0.259772
[...]
 54,0.00001408,-0.00001194,-0.00000246,0.00000180,0.00000338,0.00000395
 ,0.00000067,-0.00000155,-0.00000585,-0.00000084,0.00000146,-0.00010202
 ,0.00004675,0.00006161,-0.00001302,-0.00000979,-0.00000818,0.00000742,
 -0.00000427,-0.00001391,0.00005429,-0.00003937,-0.00002768,0.10541720,
 -0.17603446,-0.07736564,0.00104439,-0.00195261,-0.00197697,-0.11479642
 ,0.18303906,-0.00002910,0.00084492,-0.00043614,0.00004713,-0.00010707,
 0.00026064,0.00010407,-0.00037529,0.00002056,0.00049499,0.00095370,-0.
 00013257,-0.00233231,-0.00575147,0.00108774,-0.00001572,0.00000963,-0.
 00003721,-0.00002665,-0.00002769,0.00001383,0.00011745,0.00003865,0.00
 000378,0.00031686,0.00124704,-0.00019270,0.00013404,0.00067025,-0.0001
 6567,-0.00046674,0.00050223,0.00018258,0.00029695,0.00019641,-0.000004
 53,-0.00024174,-0.00021976,0.00017205,0.02412451,-0.01316471,-0.031794
 29,0.00091221,0.00038517,-0.00052826,-0.00015279,-0.00012434,0.0000608
 7,-0.00000298,-0.00003433,0.00009168,0.00029869,-0.00094050,0.00089315
 ,-0.00010498,-0.00000146,0.00008494,0.00003239,0.00000525,-0.00000650,
 0.00001212,0.00000590,-0.00001537,0.00001013,-0.00000303,-0.00001313,-
 0.00013719,-0.00018395,-0.00021174,0.00009851,0.00001401,0.00002971,0.
 00005715,0.00003664,0.00003442,-0.00012224,0.00018743,0.00020409,0.062
 59215,-0.07291794,-0.09633080,-0.00917225,0.01120028,0.01079608,-0.078
 56947,0.08095826,0.11583253,0.00031975,0.00015557,-0.00019109,0.000062
 35,0.00010145,0.00009609,-0.00008599,0.00019634,-0.00001025,-0.0002194
 9,0.00027206,0.00024241,0.00067659,0.00094378,0.00101954,0.00001061,-0
 .00001636,-0.00000815,-0.00002471,-0.00003348,0.00000576,0.00003824,0.
 00018317,0.00015086,-0.00002838,-0.00022670,-0.00010175,-0.00011392,-0
 .00042462,0.00014177,0.00013041,-0.00025174,-0.00006286,-0.00014064,-0
 .00009835,-0.00000769,-0.00030242,-0.00005744,0.00036577,-0.00416132,-
 0.00855461,0.00363652,-0.00000346,-0.00006920,0.00000870,0.00001738,-0
 .00000538,0.00000411,-0.00002832,0.00000536,-0.00002749,-0.00004273,0.
 00001108,-0.00009352,0.00007740,0.00000737,-0.00004799,-0.00001783,-0.
 00000354,0.00000219,-0.00000784,-0.00000325,0.00001058,-0.00000532,0.0
 0000196,0.00000865,0.00006495,-0.00016635,-0.00025677,-0.00003835,0.00
 002030,0.00001502,-0.00000947,0.00001468,0.00007032,0.00003003,-0.0000
 1531,0.00003391,-0.11953075,-0.11594197,-0.01979431,-0.01147596,-0.023
 94244,-0.00409319,0.01180394,0.01782837,0.00221088,0.12295665,0.000374
 41,-0.00011853,0.00019244,0.00001087,0.00004243,-0.00007286,0.00021128
 ,0.00002629,-0.00001381,-0.00000683,0.00031930,-0.00013650,0.00123381,
 0.00227243,0.00126491,-0.00001841,0.00000493,0.00000075,0.00001341,0.0
 0001317,-0.00001164,0.00006135,-0.00004809,-0.00005885,0.00000024,0.00
 020546,0.00005228,-0.00032959,-0.00049194,0.00014300,-0.00020169,-0.00
 019990,0.00007667,-0.00019286,-0.00007145,-0.00001982,-0.00016569,0.00
 015835,0.00000395,-0.00709877,-0.01013168,0.00587076,-0.00025441,0.000
 01847,-0.00009307,0.00005755,-0.00001319,0.00001870,0.00000549,0.00001
 136,0.00000953,0.00028067,-0.00004636,0.00006215,0.00009443,0.00001315
 ,-0.00004515,-0.00001975,-0.00000321,0.00000186,-0.00000808,-0.0000054
 2,0.00001150,-0.00001259,0.00000005,0.00000716,0.00005231,-0.00000406,
 -0.00006769,-0.00002597,0.00000898,0.,0.00000028,-0.00000682,0.0000104
 0,0.00003519,-0.00002786,-0.00003959,-0.11661328,-0.25538974,-0.033676
 69,0.00338321,0.00729220,-0.00013693,-0.01087457,-0.01698736,-0.003964
 89,0.13010533,0.27306763,-0.00056268,0.00009052,-0.00089913,0.00001033
 ,-0.00005054,0.00030053,-0.00028475,-0.00018250,0.00001096,0.00070671,
 -0.00072723,-0.00073012,0.00100601,0.00206337,-0.00554925,0.00001937,-
 0.00000556,-0.00002715,-0.00004545,-0.00006966,0.00003553,0.00009289,0
 .00011766,0.00043481,-0.00010279,0.00023784,0.00015561,0.00071594,0.00
 128205,-0.00033585,0.00008346,0.00062983,0.00022195,0.00018796,0.00012
 084,0.00001183,0.00001169,-0.00026173,0.00020526,0.02236096,0.03719379
 ,-0.00589196,0.00019974,0.00009728,0.00002320,-0.00004807,-0.00000074,
 -0.00001156,0.00004523,-0.00002293,0.00003178,-0.00000850,-0.00011701,
 0.00014563,-0.00005851,0.00000196,0.00005012,0.00002079,0.00000313,-0.
 00000618,0.00000721,0.00000297,-0.00000802,0.00000723,-0.00000250,-0.0
 0000707,-0.00003970,-0.00004098,-0.00004570,0.00001275,-0.00000102,0.0
 0001441,-0.00001144,0.00000642,0.00002572,0.00001683,0.00004755,0.0000
 2104,-0.02647984,-0.04523617,-0.05332100,-0.00645866,-0.01472042,-0.00
 026319,-0.00800869,-0.01104889,-0.00011198,0.01666339,0.03056709,0.065
 51440,-0.00029002,0.00011738,-0.00038404,-0.00015876,-0.00018188,-0.00
 011634,-0.00103452,0.00055438,-0.00014417,-0.00172369,-0.00007691,0.00
 185128,-0.00037408,0.00081345,0.00048872,0.00021117,-0.00004976,-0.000
 09673,0.00004957,-0.00001662,0.00006197,-0.00007409,-0.00000268,-0.000
 03928,-0.00200527,0.00002903,-0.00026990,0.00004235,-0.00002458,-0.000
 20596,0.00294920,0.00063270,0.00016268,0.00045356,0.00003160,0.0001350
 1,0.00046619,-0.00033936,-0.00005504,0.00027568,-0.00043042,0.00021194
 ,-0.02999160,0.01613679,0.02783134,0.00401891,0.00153981,-0.00178287,-
 0.00087070,-0.00038171,-0.00066809,-0.10202354,0.01657815,0.04296863,-
 0.00026832,-0.00006665,0.00008480,0.00004758,0.00000507,-0.00000002,0.
 00001668,0.00001405,-0.00003020,0.00004616,0.00000892,-0.00001218,-0.0
 0009030,0.00010309,0.00021369,0.00003077,-0.00003038,-0.00001411,0.000
 00087,-0.00000004,-0.00003830,-0.00002206,0.00002504,-0.00000369,-0.00
 027028,0.00055526,0.00012695,0.00013007,-0.00014021,-0.00002118,-0.000
 53168,0.00052958,-0.00050530,0.00005261,-0.00014081,-0.00005927,0.5734
 4671,0.00033914,0.00009576,0.00037712,0.00020854,0.00019893,0.00012944
 ,0.00124057,-0.00064179,0.00009929,0.00077533,0.00022351,0.00243015,-0
 .00010940,-0.00088081,-0.00087939,-0.00027543,0.00004129,0.00006570,-0
 .00002948,0.00001549,-0.00005062,0.00003032,0.00000563,0.00000671,-0.0
 0027483,0.00009669,0.00038328,0.00007735,-0.00012795,-0.00008357,-0.00
 373138,-0.00073465,-0.00010929,-0.00044357,-0.00006859,-0.00015310,-0.
 00057206,0.00036188,-0.00000179,0.00002131,0.00057547,-0.00033340,-0.0
 0505697,0.00862721,0.01139253,-0.00503292,0.00154983,0.00285151,-0.004
 80908,-0.00121718,0.00385746,0.04777090,-0.14323557,-0.07420459,0.0002
 5066,0.00006081,-0.00008145,-0.00005162,-0.00000338,0.00000050,-0.0000
 1666,-0.00001192,0.00003118,-0.00004115,-0.00001091,0.00001004,0.00010
 897,-0.00009912,-0.00021337,-0.00003022,0.00003111,0.00001329,-0.00000
 024,-0.00000242,0.00003944,0.00001616,-0.00002535,0.00001120,0.0000458
 1,-0.00036248,-0.00004656,-0.00012549,0.00011350,0.00000383,0.00046033
 ,-0.00050020,0.00063396,-0.00000226,0.00008345,0.00000632,0.05929298,0
 .55475761,0.00012137,0.00002133,0.00042352,0.00016230,0.00018352,0.000
 10323,0.00117787,-0.00072894,0.00008363,0.00003350,0.00013187,0.003452
 80,0.00037070,-0.00009407,-0.00113883,-0.00031068,0.00003570,0.0001001
 1,-0.00002038,0.00001544,-0.00004247,0.00003621,0.00001952,-0.00001575
 ,-0.00124485,0.00019229,0.00071177,0.00003576,-0.00016560,-0.00005270,
 -0.00443187,-0.00118188,-0.00029046,-0.00038460,-0.00006527,-0.0001537
 1,-0.00045642,0.00028565,-0.00003206,-0.00087462,0.00094862,-0.0005642
 5,0.02130472,-0.00600644,-0.02745297,-0.00136364,-0.00455230,0.0009137
 5,0.00247786,0.00171143,-0.00007868,0.04928430,-0.04703737,-0.12098759
 ,0.00020530,0.00004508,-0.00006447,-0.00004783,-0.00000278,0.00000021,
 -0.00001261,-0.00000590,0.00002470,-0.00003412,-0.00000951,0.00000773,
 0.00009653,-0.00007910,-0.00015868,-0.00002773,0.00002556,0.00000933,-
 0.00000244,-0.00000068,0.00002985,0.00001824,-0.00003034,-0.00000494,-
 0.00007647,-0.00057770,0.00060668,-0.00009547,0.00011471,-0.00004651,0
 .00002327,0.00020864,0.00043916,0.00002129,0.00004841,0.00000114,0.021
 93270,-0.06118865,0.53155340,0.00001837,-0.00003721,-0.00002418,-0.000
 00140,0.00000180,-0.00001208,-0.00013557,0.00009484,0.00001608,-0.0001
 5483,0.00021120,-0.00052813,0.00015511,-0.00001169,0.00010979,0.000046
 90,0.00000454,0.00003617,-0.00000337,0.00000023,-0.00000308,-0.0000035
 3,0.00000383,-0.00000309,-0.00220075,-0.00002179,0.00031135,-0.0000019
 0,0.00002535,0.00005661,0.00069285,0.00031673,-0.00038027,0.00000891,0
 .00000466,0.00000991,0.00001783,-0.00000767,0.00001497,-0.00000587,-0.
 00008171,0.00005896,0.00282022,-0.00011701,0.00094988,-0.00029213,0.00
 014647,0.00020453,-0.00011551,-0.00030699,0.00000270,0.01412842,0.0091
 0848,0.01811441,-0.00000281,-0.00000116,0.00000079,0.00000274,-0.00000
 042,-0.00000005,-0.00000031,-0.00000030,-0.00000110,0.00000055,0.00000
 106,0.00000025,-0.00000479,0.00000286,0.00000285,0.00000013,-0.0000006
 9,0.00000035,0.00000061,-0.00000012,-0.00000067,-0.00000338,0.00000301
 ,0.00000067,0.00000483,-0.00001564,-0.00001548,0.00000908,-0.00000389,
 -0.00000018,0.00009586,-0.00003773,-0.00006522,0.00000537,-0.00000495,
 -0.00000299,-0.15712613,-0.04694368,-0.11406314,0.16206812,-0.00001685
 ,-0.00001972,-0.00007382,-0.00003571,-0.00002175,-0.00000063,-0.000103
 62,0.00008401,-0.00003470,0.00017028,0.00052010,-0.00053811,-0.0000077
 3,0.00011447,0.00027971,0.00002845,-0.00000764,-0.00006412,0.00000247,
 -0.00000315,0.00000760,0.00000766,-0.00000603,0.00001103,0.00014246,-0
 .00085828,-0.00008061,-0.00006647,0.00006313,0.00000855,0.00042559,0.0
 0003314,0.00037961,0.00004675,0.00000124,0.00002398,0.00006621,-0.0000
 4400,0.00002012,0.00001767,-0.00016928,0.00016689,-0.00265594,-0.00108
 280,0.00193196,0.00058395,0.00022394,0.00008951,0.00050156,0.00013117,
 -0.00023136,-0.00613347,-0.01112906,-0.02454149,-0.00002391,-0.0000056
 9,0.00000396,0.00000555,0.00000069,0.00000027,0.00000152,-0.00000047,-
 0.00000167,0.00000503,0.00000133,-0.00000065,-0.00000786,0.00001091,0.
 00001217,0.00000225,-0.00000319,-0.00000164,-0.00000128,-0.00000252,-0
 .00000181,-0.00000122,0.00000126,-0.00000240,0.00012985,0.00000593,-0.
 00024690,-0.00001271,0.00001855,0.00003078,-0.00010412,-0.00002770,0.0
 0005243,-0.00002991,0.00002926,0.00002008,-0.04416858,-0.07286077,-0.0
 4815990,0.04735198,0.07934086,0.00005077,-0.00003949,0.00000273,-0.000
 00675,0.00000226,-0.00000445,0.00008908,0.00009270,-0.00003221,-0.0002
 4687,0.00040923,-0.00025632,-0.00017664,-0.00022837,0.00033400,0.00004
 420,-0.00000195,-0.00002742,-0.00000616,-0.00000280,-0.00000468,0.0000
 0474,-0.00001125,0.00000727,0.00095643,-0.00034861,-0.00045147,-0.0001
 0267,0.00012864,0.00001844,0.00067159,0.00027958,0.00013839,-0.0000175
 7,0.00001473,0.00000002,-0.00000547,0.00002868,0.00001388,0.00015384,-
 0.00003788,0.00007397,-0.00477540,-0.00218342,0.00191627,0.00023185,0.
 00063574,-0.00040461,0.00061261,0.00036572,-0.00027860,-0.00063473,-0.
 01676451,-0.02353880,0.00001506,0.00000222,-0.00000346,0.00000062,-0.0
 0000098,0.00000010,-0.00000168,-0.00000201,0.00000050,-0.00000264,0.00
 000092,0.00000125,-0.00000084,-0.00000499,-0.00001359,-0.00000122,0.00
 000093,0.00000081,0.00000105,0.00000067,0.00000102,-0.00000192,0.00000
 143,0.00000319,0.00003833,0.00002517,-0.00003280,0.00001209,-0.0000143
 9,0.00000082,0.00007490,-0.00003922,-0.00012253,-0.00000497,0.00000843
 ,-0.00000429,-0.11274319,-0.04763351,-0.17912212,0.12120764,0.06520476
 ,0.20042050,0.00009134,-0.00003053,0.00007351,0.00004033,0.00004702,0.
 00002120,0.00031208,-0.00011623,0.00001906,0.00060258,0.00006075,0.000
 41079,-0.00004480,-0.00026331,0.00002136,-0.00003978,0.00001183,0.0000
 2690,-0.00000916,0.00000121,-0.00001590,0.00000184,-0.00000661,0.00000
 071,0.00030944,-0.00019428,-0.00004215,-0.00001783,0.00003724,-0.00001
 792,-0.00056047,-0.00007248,-0.00011661,-0.00010525,-0.00000032,-0.000
 03714,-0.00010873,0.00009596,0.00000215,0.00002455,0.00019386,-0.00014
 701,0.00064194,0.00282858,0.00113792,-0.00002922,-0.00005338,-0.000011
 78,-0.00082712,-0.00032118,0.00038398,-0.01577103,-0.00484172,0.012041
 03,0.00006218,0.00001337,-0.00001657,-0.00001075,-0.00000159,-0.000000
 21,-0.00000427,-0.00000245,0.00000612,-0.00001099,-0.00000182,0.000003
 01,0.00001832,-0.00002230,-0.00004288,-0.00000743,0.00000710,0.0000028
 7,0.00000255,0.00000220,0.00000718,0.00000114,-0.00000465,0.00000486,-
 0.00004818,-0.00004824,0.00017373,0.00000785,-0.00000194,-0.00002762,-
 0.00000310,-0.00005179,0.00001622,-0.00000479,0.00003010,-0.00000340,-
 0.19720759,-0.11206628,0.07443034,-0.01347578,-0.01200966,0.00696758,0
 .21427228,-0.00001199,0.00000348,0.00000322,-0.00001129,-0.00001057,-0
 .00000150,-0.00002555,0.00005887,-0.00001246,-0.00031697,0.00011397,-0
 .00058731,-0.00002126,0.00002885,0.00002813,0.00002143,-0.00000584,-0.
 00002246,0.00000036,-0.00000034,0.00000261,0.00000474,0.00000011,0.000
 00225,0.00005811,0.00003081,0.00012802,-0.00002053,0.00001746,0.000023
 27,0.00028077,0.00007302,0.00014543,0.00001084,0.00000318,0.00000668,0
 .00001296,-0.00001296,0.00000142,-0.00002728,-0.00005030,0.00003533,0.
 00281524,-0.00170940,-0.00306633,0.00007495,0.00036144,-0.00028339,0.0
 0078611,0.00055120,-0.00054586,0.02151551,0.01219817,-0.01307792,-0.00
 000510,-0.00000204,0.00000105,0.00000172,-0.00000026,-0.00000007,0.000
 00067,0.00000011,-0.00000101,0.00000100,0.00000079,0.00000024,-0.00000
 200,0.00000169,0.00000231,0.00000065,-0.00000060,-0.00000023,-0.000000
 53,-0.00000070,-0.00000022,0.00000067,0.00000009,-0.00000128,0.0000261
 6,-0.00000367,-0.00005031,-0.00000608,0.00000155,0.00000729,0.00000711
 ,0.00001043,0.00001828,0.00000233,-0.00000747,0.00000333,-0.12143389,-
 0.14323411,0.06498290,-0.00522662,-0.00377814,0.00394582,0.12021537,0.
 14696001,-0.00005038,-0.00003238,-0.00004288,-0.00002959,-0.00003038,-
 0.00001203,-0.00015688,0.00006829,-0.00000874,-0.00009566,-0.00008927,
 -0.00053670,0.00006666,0.00005729,0.00024219,0.00003100,-0.00000438,-0
 .00001542,0.00000239,-0.00000047,0.00000431,0.00000240,-0.00000118,0.0
 0000221,0.00035878,-0.00010419,0.00006215,-0.00005744,0.00006324,0.000
 01728,0.00046548,0.00009911,0.00007390,0.00005599,0.00001084,0.0000174
 9,0.00009043,-0.00005692,0.00000013,0.00002915,-0.00009620,0.00002982,
 0.00093781,-0.00328635,-0.00195477,-0.00021810,-0.00014755,0.00008290,
 0.00113566,0.00025581,-0.00053017,0.02314617,0.00948132,-0.01480142,-0
 .00003190,-0.00000609,0.00001044,0.00000609,0.00000050,0.00000006,0.00
 000225,0.00000131,-0.00000375,0.00000497,0.00000088,-0.00000146,-0.000
 01464,0.00001709,0.00003465,0.00000439,-0.00000444,-0.00000222,-0.0000
 0009,-0.00000019,-0.00000634,-0.00000239,0.00000300,-0.00000331,0.0000
 0444,0.00006530,-0.00004154,0.00000434,-0.00001093,0.00000916,-0.00002
 234,-0.00000183,-0.00002786,-0.00000069,-0.00001506,0.00000510,0.07037
 057,0.05709695,-0.08811593,-0.01794530,-0.01324570,0.01151245,-0.08977
 647,-0.05953724,0.09883889,0.00004821,-0.00007245,0.00002732,0.0000273
 5,0.00003662,-0.00000347,0.00011792,-0.00012537,0.00003513,0.00022903,
 -0.00014928,0.00003948,0.00022207,-0.00001338,0.00007063,-0.00004155,0
 .00001094,0.00003562,-0.00000544,-0.00000064,-0.00000823,0.00000728,-0
 .00000109,0.00000414,0.00028588,-0.00007277,-0.00003412,-0.00003370,0.
 00003323,0.00002475,-0.00052349,-0.00012636,-0.00017528,-0.00006805,-0
 .00001116,-0.00001932,-0.00004596,0.00004068,0.00001718,-0.00020541,0.
 00014932,-0.00004968,0.00252774,0.00420167,-0.00314229,-0.00008723,-0.
 00145574,0.00020987,0.00004828,-0.00014383,0.00001749,-0.01075821,0.01
 846324,0.00339291,0.00003765,0.00001001,-0.00001235,-0.00000697,-0.000
 00035,0.00000014,-0.00000316,-0.00000235,0.00000487,-0.00000651,-0.000
 00153,0.00000142,0.00001670,-0.00000758,-0.00002304,-0.00000546,0.0000
 0344,0.00000088,-0.00000121,-0.00000112,0.00000470,0.00000020,-0.00000
 474,-0.00000254,0.00003012,-0.00011718,0.00007739,-0.00001315,0.000018
 90,-0.00000673,0.00002234,-0.00003341,0.00006821,-0.00000457,0.0000183
 5,0.00000628,-0.08817546,0.06897437,-0.04828538,-0.00654786,0.01588980
 ,-0.01240365,0.01189783,-0.01872759,0.01168289,0.09101480,-0.00007616,
 0.00003024,-0.00008525,-0.00004393,-0.00005212,-0.00002268,-0.00030517
 ,0.00012809,-0.00001253,-0.00024316,-0.00015693,-0.00014417,-0.0002174
 8,0.00009067,0.00018731,0.00005791,-0.00000834,-0.00001615,0.00000966,
 -0.00000480,0.00001275,-0.00001196,-0.00000194,-0.00000607,0.00006971,
 0.00002421,-0.00004853,0.00001469,0.00001081,-0.00000567,0.00075205,0.
 00013181,0.00003113,0.00012097,0.00001960,0.00003246,0.00013147,-0.000
 08807,-0.00001714,0.00023671,-0.00022495,0.00009619,-0.00471465,0.0001
 9895,0.00194004,0.00115274,0.00084145,-0.00055197,0.00009693,0.0003358
 4,-0.00021775,0.01723648,-0.02374678,-0.00394515,-0.00006933,-0.000015
 80,0.00002418,0.00001292,0.00000127,-0.00000031,0.00000477,0.00000386,
 -0.00000814,0.00001125,0.00000195,-0.00000324,-0.00003089,0.00002373,0
 .00005696,0.00000901,-0.00000788,-0.00000325,0.00000177,0.00000228,-0.
 00001084,-0.00000461,0.00000750,0.00000119,-0.00003634,0.00017413,-0.0
 0010639,0.00003538,-0.00003290,0.00000568,-0.00003741,0.00000887,-0.00
 014402,-0.00000624,-0.00001385,-0.00000414,0.07051721,-0.20282100,0.10
 091574,-0.00445779,0.00944021,-0.00383425,0.00656616,-0.01159883,0.009
 44982,-0.08678269,0.22729871,0.00002118,0.00003641,-0.00001357,-0.0000
 0358,-0.00000999,0.00000558,-0.00006350,0.00008789,-0.00000367,-0.0004
 9427,0.00037794,-0.00073550,-0.00016036,-0.00014070,0.00005570,0.00002
 705,-0.00000251,-0.00002453,-0.00000101,-0.00000019,0.00000243,0.00000
 517,-0.00000181,0.00000749,0.00012409,0.00003271,-0.00002617,-0.000012
 14,0.00002221,0.00001972,0.00048269,0.00017291,0.00013394,0.00001335,-
 0.00000353,0.00001007,-0.00000754,-0.00000297,0.00000558,0.00021357,-0
 .00016497,0.00013006,-0.00184270,-0.00430612,0.00346913,-0.00116365,0.
 00134099,0.00031735,-0.00027764,-0.00028539,0.00018686,0.01748752,-0.0
 2603197,0.00780276,-0.00000517,0.00000046,-0.00000014,0.00000188,0.000
 00051,-0.00000005,-0.00000002,-0.00000110,0.00000055,0.00000144,-0.000
 00015,-0.00000010,-0.00000144,0.00000072,-0.00000518,0.00000093,-0.000
 00018,0.00000083,-0.00000028,-0.00000119,0.00000134,-0.00000133,0.0000
 0191,0.00000285,0.00007438,0.00005426,-0.00015902,-0.00000377,-0.00000
 262,0.00001618,-0.00005444,0.00001824,-0.00007655,-0.00000705,0.000002
 56,0.00000342,-0.04925043,0.10553936,-0.12013892,-0.00805293,0.0189821
 0,-0.01014826,-0.00549480,0.00785003,-0.00483860,0.04844481,-0.1035657
 9,0.12399844\\-0.00001649,0.00000485,-0.00000284,-0.00000832,0.0000070
 7,0.00000646,0.00000603,-0.00000294,-0.00000345,-0.00000909,-0.0000163
 4,-0.00000405,0.00001774,0.00000797,0.00000881,-0.00000157,-0.00000309
 ,0.00000132,0.00000515,-0.00000680,-0.00000065,-0.00000099,-0.00000220
 ,-0.00000179,0.00000372,0.00000513,-0.00000047,-0.00000136,-0.00000132
 ,-0.00000023,0.00001911,0.00001516,-0.00000116,0.00000936,-0.00001614,
 -0.00000207,0.00000183,-0.00000255,0.00000210,-0.00001042,-0.00000225,
 -0.00000503,0.00001819,0.00001171,-0.00001660,0.00000448,-0.00000164,0
 .00000095,0.00000003,0.00000582,0.00000097,-0.00001080,-0.00000481,0.0
 0001600,0.00000090,-0.00000641,0.00000302,0.00000107,-0.00000187,0.000
 00195,0.00000249,-0.00000371,-0.00000211,-0.00000442,-0.00000837,0.000
 00310,0.00000323,0.00000095,-0.00000089,-0.00000430,-0.00000323,0.0000
 0154,-0.00000245,-0.00000289,0.00000175,-0.00000590,-0.00000071,0.0000
 0084,-0.00000370,0.00000062,0.00000474,-0.00000421,-0.00000052,-0.0000
 0006,-0.00000326,0.00000112,-0.00000317,-0.00000455,0.00000309,0.00000
 115,-0.00000534,0.00000774,-0.00000348,0.00000097,0.00000401,-0.000003
 11,0.00000053,0.00000713,-0.00000206,0.00000235,0.00000545,-0.00000144
 \\\@


 IT IS BY EATING THE LIGHT OF A STAR THAT WE EXIST, 
 IN THE FINAL ANALYSIS, 
 JUST AS IT IS BY PERCEIVING THE LIGHT OF STARS
 THAT WE DEFINE THE WORLD AROUND US.

                                    -- GILBERT GROSVENOR
 Job cpu time:       0 days  3 hours  6 minutes 28.4 seconds.
 Elapsed time:       0 days  0 hours 46 minutes 37.6 seconds.
 File lengths (MBytes):  RWF=    377 Int=      0 D2E=      0 Chk=     16 Scr=      1
 Normal termination of Gaussian 16 at Fri May 24 09:24:05 2019.
