 Entering Gaussian System, Link 0=g16
 Input=clay-glucose_cation-154-b3lyp_d3bj-631gd-pcm_thf.gjf
 Output=clay-glucose_cation-154-b3lyp_d3bj-631gd-pcm_thf.out
 Initial command:
 /n/sw/g16_nehalem/g16/l1.exe "/scratch/Gau-183489.inp" -scrdir="/scratch/"
 Entering Link 1 = /n/sw/g16_nehalem/g16/l1.exe PID=    183494.
  
 Copyright (c) 1988,1990,1992,1993,1995,1998,2003,2009,2016,
            Gaussian, Inc.  All Rights Reserved.
  
 This is part of the Gaussian(R) 16 program.  It is based on
 the Gaussian(R) 09 system (copyright 2009, Gaussian, Inc.),
 the Gaussian(R) 03 system (copyright 2003, Gaussian, Inc.),
 the Gaussian(R) 98 system (copyright 1998, Gaussian, Inc.),
 the Gaussian(R) 94 system (copyright 1995, Gaussian, Inc.),
 the Gaussian 92(TM) system (copyright 1992, Gaussian, Inc.),
 the Gaussian 90(TM) system (copyright 1990, Gaussian, Inc.),
 the Gaussian 88(TM) system (copyright 1988, Gaussian, Inc.),
 the Gaussian 86(TM) system (copyright 1986, Carnegie Mellon
 University), and the Gaussian 82(TM) system (copyright 1983,
 Carnegie Mellon University). Gaussian is a federally registered
 trademark of Gaussian, Inc.
  
 This software contains proprietary and confidential information,
 including trade secrets, belonging to Gaussian, Inc.
  
 This software is provided under written license and may be
 used, copied, transmitted, or stored only in accord with that
 written license.
  
 The following legend is applicable only to US Government
 contracts under FAR:
  
                    RESTRICTED RIGHTS LEGEND
  
 Use, reproduction and disclosure by the US Government is
 subject to restrictions as set forth in subparagraphs (a)
 and (c) of the Commercial Computer Software - Restricted
 Rights clause in FAR 52.227-19.
  
 Gaussian, Inc.
 340 Quinnipiac St., Bldg. 40, Wallingford CT 06492
  
  
 ---------------------------------------------------------------
 Warning -- This program may not be used in any manner that
 competes with the business of Gaussian, Inc. or will provide
 assistance to any competitor of Gaussian, Inc.  The licensee
 of this program is prohibited from giving any competitor of
 Gaussian, Inc. access to this program.  By using this program,
 the user acknowledges that Gaussian, Inc. is engaged in the
 business of creating and licensing software in the field of
 computational chemistry and represents and warrants to the
 licensee that it is not a competitor of Gaussian, Inc. and that
 it will not use this program in any manner prohibited above.
 ---------------------------------------------------------------
  

 Cite this work as:
 Gaussian 16, Revision A.03,
 M. J. Frisch, G. W. Trucks, H. B. Schlegel, G. E. Scuseria, 
 M. A. Robb, J. R. Cheeseman, G. Scalmani, V. Barone, 
 G. A. Petersson, H. Nakatsuji, X. Li, M. Caricato, A. V. Marenich, 
 J. Bloino, B. G. Janesko, R. Gomperts, B. Mennucci, H. P. Hratchian, 
 J. V. Ortiz, A. F. Izmaylov, J. L. Sonnenberg, D. Williams-Young, 
 F. Ding, F. Lipparini, F. Egidi, J. Goings, B. Peng, A. Petrone, 
 T. Henderson, D. Ranasinghe, V. G. Zakrzewski, J. Gao, N. Rega, 
 G. Zheng, W. Liang, M. Hada, M. Ehara, K. Toyota, R. Fukuda, 
 J. Hasegawa, M. Ishida, T. Nakajima, Y. Honda, O. Kitao, H. Nakai, 
 T. Vreven, K. Throssell, J. A. Montgomery, Jr., J. E. Peralta, 
 F. Ogliaro, M. J. Bearpark, J. J. Heyd, E. N. Brothers, K. N. Kudin, 
 V. N. Staroverov, T. A. Keith, R. Kobayashi, J. Normand, 
 K. Raghavachari, A. P. Rendell, J. C. Burant, S. S. Iyengar, 
 J. Tomasi, M. Cossi, J. M. Millam, M. Klene, C. Adamo, R. Cammi, 
 J. W. Ochterski, R. L. Martin, K. Morokuma, O. Farkas, 
 J. B. Foresman, and D. J. Fox, Gaussian, Inc., Wallingford CT, 2016.
 
 ******************************************
 Gaussian 16:  ES64L-G16RevA.03 25-Dec-2016
                24-May-2019 
 ******************************************
 %nprocshared=4
 Will use up to    4 processors via shared memory.
 %mem=3GB
 -------------------------------------------------------------------
 #p b3lyp 6-31g* opt freq=noraman scrf=(pcm,solvent=tetrahydrofuran)
 -------------------------------------------------------------------
 1/18=20,19=15,26=3,38=1/1,3;
 2/9=110,12=2,17=6,18=5,40=1/2;
 3/5=1,6=6,7=1,11=2,25=1,30=1,70=2201,71=1,72=20,74=-5/1,2,3;
 4//1;
 5/5=2,38=5,53=20/2;
 6/7=2,8=2,9=2,10=2,28=1/1;
 7//1,2,3,16;
 1/18=20,19=15,26=3/3(2);
 2/9=110/2;
 99//99;
 2/9=110/2;
 3/5=1,6=6,7=1,11=2,25=1,30=1,70=2205,71=1,72=20,74=-5/1,2,3;
 4/5=5,16=3,69=1/1;
 5/5=2,38=5,53=20/2;
 7//1,2,3,16;
 1/18=20,19=15,26=3/3(-5);
 2/9=110/2;
 6/7=2,8=2,9=2,10=2,19=2,28=1/1;
 99/9=1/99;
 Leave Link    1 at Fri May 24 08:32:03 2019, MaxMem=   402653184 cpu:               0.4 elap:               0.1
 (Enter /n/sw/g16_nehalem/g16/l101.exe)
 -----
 title
 -----
 Symbolic Z-matrix:
 Charge =  1 Multiplicity = 1
 6                     0.56354   0.39977   0.72663 
 6                     0.41887   0.93524  -0.74535 
 6                     0.20928  -0.12437  -1.77152 
 6                    -0.74002  -1.63721  -0.18333 
 6                     0.35815  -1.12546   0.74872 
 1                     0.50101   0.05983  -2.80711 
 1                    -0.56936   1.42988  -0.76146 
 1                     1.5942    0.60213   1.04543 
 1                    -0.6644   -2.72273  -0.23731 
 1                     0.1007   -1.43464   1.76966 
 8                    -0.36254  -1.22935  -1.58332 
 8                     1.34931   1.88417  -1.1861 
 8                    -0.3426    0.99345   1.61461 
 8                     1.54227  -1.75027   0.27867 
 6                    -2.19538  -1.23719   0.03201 
 1                    -2.43185  -1.40959   1.09343 
 1                    -2.8367   -1.90043  -0.56685 
 8                    -2.38186   0.10517  -0.34596 
 6                     2.71283   1.44442  -1.26757 
 1                     2.8004    0.49498  -1.81187 
 1                     3.24326   2.22206  -1.81795 
 1                     3.1659    1.33292  -0.27688 
 6                    -0.05845   2.35798   1.92256 
 1                    -0.7861    2.66119   2.67693 
 1                     0.95718   2.46539   2.32702 
 1                    -0.16174   3.00542   1.04213 
 6                     2.52079  -2.01621   1.28691 
 1                     3.36021  -2.49284   0.7785 
 1                     2.87054  -1.09674   1.77291 
 1                     2.1178   -2.69587   2.04788 
 6                    -3.71324   0.56426  -0.12696 
 1                    -3.75183   1.59536  -0.48164 
 1                    -4.43554  -0.04307  -0.68886 
 1                    -3.9686    0.53391   0.9403 
 
 ITRead=  0  0  0  0  0  0  0  0  0  0  0  0  0  0  0  0  0  0  0  0
 ITRead=  0  0  0  0  0  0  0  0  0  0  0  0  0  0
 MicOpt= -1 -1 -1 -1 -1 -1 -1 -1 -1 -1 -1 -1 -1 -1 -1 -1 -1 -1 -1 -1
 MicOpt= -1 -1 -1 -1 -1 -1 -1 -1 -1 -1 -1 -1 -1 -1
 NAtoms=     34 NQM=       34 NQMF=       0 NMMI=      0 NMMIF=      0
                NMic=       0 NMicF=      0.
                    Isotopes and Nuclear Properties:
 (Nuclear quadrupole moments (NQMom) in fm**2, nuclear magnetic moments (NMagM)
  in nuclear magnetons)

  Atom         1           2           3           4           5           6           7           8           9          10
 IAtWgt=          12          12          12          12          12           1           1           1           1           1
 AtmWgt=  12.0000000  12.0000000  12.0000000  12.0000000  12.0000000   1.0078250   1.0078250   1.0078250   1.0078250   1.0078250
 NucSpn=           0           0           0           0           0           1           1           1           1           1
 AtZEff=   0.0000000   0.0000000   0.0000000   0.0000000   0.0000000   0.0000000   0.0000000   0.0000000   0.0000000   0.0000000
 NQMom=    0.0000000   0.0000000   0.0000000   0.0000000   0.0000000   0.0000000   0.0000000   0.0000000   0.0000000   0.0000000
 NMagM=    0.0000000   0.0000000   0.0000000   0.0000000   0.0000000   2.7928460   2.7928460   2.7928460   2.7928460   2.7928460
 AtZNuc=   6.0000000   6.0000000   6.0000000   6.0000000   6.0000000   1.0000000   1.0000000   1.0000000   1.0000000   1.0000000

  Atom        11          12          13          14          15          16          17          18          19          20
 IAtWgt=          16          16          16          16          12           1           1          16          12           1
 AtmWgt=  15.9949146  15.9949146  15.9949146  15.9949146  12.0000000   1.0078250   1.0078250  15.9949146  12.0000000   1.0078250
 NucSpn=           0           0           0           0           0           1           1           0           0           1
 AtZEff=   0.0000000   0.0000000   0.0000000   0.0000000   0.0000000   0.0000000   0.0000000   0.0000000   0.0000000   0.0000000
 NQMom=    0.0000000   0.0000000   0.0000000   0.0000000   0.0000000   0.0000000   0.0000000   0.0000000   0.0000000   0.0000000
 NMagM=    0.0000000   0.0000000   0.0000000   0.0000000   0.0000000   2.7928460   2.7928460   0.0000000   0.0000000   2.7928460
 AtZNuc=   8.0000000   8.0000000   8.0000000   8.0000000   6.0000000   1.0000000   1.0000000   8.0000000   6.0000000   1.0000000

  Atom        21          22          23          24          25          26          27          28          29          30
 IAtWgt=           1           1          12           1           1           1          12           1           1           1
 AtmWgt=   1.0078250   1.0078250  12.0000000   1.0078250   1.0078250   1.0078250  12.0000000   1.0078250   1.0078250   1.0078250
 NucSpn=           1           1           0           1           1           1           0           1           1           1
 AtZEff=   0.0000000   0.0000000   0.0000000   0.0000000   0.0000000   0.0000000   0.0000000   0.0000000   0.0000000   0.0000000
 NQMom=    0.0000000   0.0000000   0.0000000   0.0000000   0.0000000   0.0000000   0.0000000   0.0000000   0.0000000   0.0000000
 NMagM=    2.7928460   2.7928460   0.0000000   2.7928460   2.7928460   2.7928460   0.0000000   2.7928460   2.7928460   2.7928460
 AtZNuc=   1.0000000   1.0000000   6.0000000   1.0000000   1.0000000   1.0000000   6.0000000   1.0000000   1.0000000   1.0000000

  Atom        31          32          33          34
 IAtWgt=          12           1           1           1
 AtmWgt=  12.0000000   1.0078250   1.0078250   1.0078250
 NucSpn=           0           1           1           1
 AtZEff=   0.0000000   0.0000000   0.0000000   0.0000000
 NQMom=    0.0000000   0.0000000   0.0000000   0.0000000
 NMagM=    0.0000000   2.7928460   2.7928460   2.7928460
 AtZNuc=   6.0000000   1.0000000   1.0000000   1.0000000
 Leave Link  101 at Fri May 24 08:32:04 2019, MaxMem=   402653184 cpu:               0.7 elap:               0.3
 (Enter /n/sw/g16_nehalem/g16/l103.exe)

 GradGradGradGradGradGradGradGradGradGradGradGradGradGradGradGradGradGrad
 Berny optimization.
 Initialization pass.
                           ----------------------------
                           !    Initial Parameters    !
                           ! (Angstroms and Degrees)  !
 --------------------------                            --------------------------
 ! Name  Definition              Value          Derivative Info.                !
 --------------------------------------------------------------------------------
 ! R1    R(1,2)                  1.573          estimate D2E/DX2                !
 ! R2    R(1,5)                  1.5392         estimate D2E/DX2                !
 ! R3    R(1,8)                  1.0977         estimate D2E/DX2                !
 ! R4    R(1,13)                 1.4007         estimate D2E/DX2                !
 ! R5    R(2,3)                  1.4899         estimate D2E/DX2                !
 ! R6    R(2,7)                  1.1052         estimate D2E/DX2                !
 ! R7    R(2,12)                 1.4002         estimate D2E/DX2                !
 ! R8    R(3,6)                  1.0915         estimate D2E/DX2                !
 ! R9    R(3,11)                 1.2583         estimate D2E/DX2                !
 ! R10   R(4,5)                  1.5286         estimate D2E/DX2                !
 ! R11   R(4,9)                  1.0895         estimate D2E/DX2                !
 ! R12   R(4,11)                 1.5063         estimate D2E/DX2                !
 ! R13   R(4,15)                 1.5246         estimate D2E/DX2                !
 ! R14   R(5,10)                 1.0974         estimate D2E/DX2                !
 ! R15   R(5,14)                 1.419          estimate D2E/DX2                !
 ! R16   R(12,19)                1.435          estimate D2E/DX2                !
 ! R17   R(13,23)                1.4274         estimate D2E/DX2                !
 ! R18   R(14,27)                1.43           estimate D2E/DX2                !
 ! R19   R(15,16)                1.101          estimate D2E/DX2                !
 ! R20   R(15,17)                1.0999         estimate D2E/DX2                !
 ! R21   R(15,18)                1.407          estimate D2E/DX2                !
 ! R22   R(18,31)                1.4252         estimate D2E/DX2                !
 ! R23   R(19,20)                1.0979         estimate D2E/DX2                !
 ! R24   R(19,21)                1.0904         estimate D2E/DX2                !
 ! R25   R(19,22)                1.0951         estimate D2E/DX2                !
 ! R26   R(23,24)                1.0911         estimate D2E/DX2                !
 ! R27   R(23,25)                1.0985         estimate D2E/DX2                !
 ! R28   R(23,26)                1.0977         estimate D2E/DX2                !
 ! R29   R(27,28)                1.091          estimate D2E/DX2                !
 ! R30   R(27,29)                1.0972         estimate D2E/DX2                !
 ! R31   R(27,30)                1.097          estimate D2E/DX2                !
 ! R32   R(31,32)                1.0911         estimate D2E/DX2                !
 ! R33   R(31,33)                1.0983         estimate D2E/DX2                !
 ! R34   R(31,34)                1.0978         estimate D2E/DX2                !
 ! A1    A(2,1,5)              109.7848         estimate D2E/DX2                !
 ! A2    A(2,1,8)              107.181          estimate D2E/DX2                !
 ! A3    A(2,1,13)             112.9201         estimate D2E/DX2                !
 ! A4    A(5,1,8)              107.6867         estimate D2E/DX2                !
 ! A5    A(5,1,13)             108.9399         estimate D2E/DX2                !
 ! A6    A(8,1,13)             110.1917         estimate D2E/DX2                !
 ! A7    A(1,2,3)              114.5418         estimate D2E/DX2                !
 ! A8    A(1,2,7)              104.372          estimate D2E/DX2                !
 ! A9    A(1,2,12)             117.6553         estimate D2E/DX2                !
 ! A10   A(3,2,7)              100.5141         estimate D2E/DX2                !
 ! A11   A(3,2,12)             111.0193         estimate D2E/DX2                !
 ! A12   A(7,2,12)             106.6355         estimate D2E/DX2                !
 ! A13   A(2,3,6)              119.7246         estimate D2E/DX2                !
 ! A14   A(2,3,11)             125.8351         estimate D2E/DX2                !
 ! A15   A(6,3,11)             114.3014         estimate D2E/DX2                !
 ! A16   A(5,4,9)              108.2953         estimate D2E/DX2                !
 ! A17   A(5,4,11)             107.2195         estimate D2E/DX2                !
 ! A18   A(5,4,15)             120.7855         estimate D2E/DX2                !
 ! A19   A(9,4,11)             101.9079         estimate D2E/DX2                !
 ! A20   A(9,4,15)             109.5524         estimate D2E/DX2                !
 ! A21   A(11,4,15)            107.4251         estimate D2E/DX2                !
 ! A22   A(1,5,4)              114.7635         estimate D2E/DX2                !
 ! A23   A(1,5,10)             108.8967         estimate D2E/DX2                !
 ! A24   A(1,5,14)             108.6771         estimate D2E/DX2                !
 ! A25   A(4,5,10)             107.7227         estimate D2E/DX2                !
 ! A26   A(4,5,14)             104.4841         estimate D2E/DX2                !
 ! A27   A(10,5,14)            112.3282         estimate D2E/DX2                !
 ! A28   A(3,11,4)             119.3847         estimate D2E/DX2                !
 ! A29   A(2,12,19)            116.2071         estimate D2E/DX2                !
 ! A30   A(1,13,23)            114.403          estimate D2E/DX2                !
 ! A31   A(5,14,27)            114.7943         estimate D2E/DX2                !
 ! A32   A(4,15,16)            107.4631         estimate D2E/DX2                !
 ! A33   A(4,15,17)            108.7519         estimate D2E/DX2                !
 ! A34   A(4,15,18)            109.8098         estimate D2E/DX2                !
 ! A35   A(16,15,17)           107.7721         estimate D2E/DX2                !
 ! A36   A(16,15,18)           112.3279         estimate D2E/DX2                !
 ! A37   A(17,15,18)           110.5948         estimate D2E/DX2                !
 ! A38   A(15,18,31)           112.9453         estimate D2E/DX2                !
 ! A39   A(12,19,20)           111.6504         estimate D2E/DX2                !
 ! A40   A(12,19,21)           105.8033         estimate D2E/DX2                !
 ! A41   A(12,19,22)           111.8994         estimate D2E/DX2                !
 ! A42   A(20,19,21)           109.1288         estimate D2E/DX2                !
 ! A43   A(20,19,22)           109.1144         estimate D2E/DX2                !
 ! A44   A(21,19,22)           109.1465         estimate D2E/DX2                !
 ! A45   A(13,23,24)           106.3826         estimate D2E/DX2                !
 ! A46   A(13,23,25)           110.914          estimate D2E/DX2                !
 ! A47   A(13,23,26)           111.8417         estimate D2E/DX2                !
 ! A48   A(24,23,25)           109.5644         estimate D2E/DX2                !
 ! A49   A(24,23,26)           109.1398         estimate D2E/DX2                !
 ! A50   A(25,23,26)           108.9445         estimate D2E/DX2                !
 ! A51   A(14,27,28)           106.2116         estimate D2E/DX2                !
 ! A52   A(14,27,29)           111.9981         estimate D2E/DX2                !
 ! A53   A(14,27,30)           110.6681         estimate D2E/DX2                !
 ! A54   A(28,27,29)           109.1017         estimate D2E/DX2                !
 ! A55   A(28,27,30)           109.5864         estimate D2E/DX2                !
 ! A56   A(29,27,30)           109.2095         estimate D2E/DX2                !
 ! A57   A(18,31,32)           106.7079         estimate D2E/DX2                !
 ! A58   A(18,31,33)           110.9534         estimate D2E/DX2                !
 ! A59   A(18,31,34)           110.9634         estimate D2E/DX2                !
 ! A60   A(32,31,33)           109.4508         estimate D2E/DX2                !
 ! A61   A(32,31,34)           109.5072         estimate D2E/DX2                !
 ! A62   A(33,31,34)           109.2147         estimate D2E/DX2                !
 ! D1    D(5,1,2,3)             -3.6199         estimate D2E/DX2                !
 ! D2    D(5,1,2,7)            105.2899         estimate D2E/DX2                !
 ! D3    D(5,1,2,12)          -136.8108         estimate D2E/DX2                !
 ! D4    D(8,1,2,3)            113.0708         estimate D2E/DX2                !
 ! D5    D(8,1,2,7)           -138.0194         estimate D2E/DX2                !
 ! D6    D(8,1,2,12)           -20.1201         estimate D2E/DX2                !
 ! D7    D(13,1,2,3)          -125.3964         estimate D2E/DX2                !
 ! D8    D(13,1,2,7)           -16.4866         estimate D2E/DX2                !
 ! D9    D(13,1,2,12)          101.4127         estimate D2E/DX2                !
 ! D10   D(2,1,5,4)            -38.9526         estimate D2E/DX2                !
 ! D11   D(2,1,5,10)          -159.7657         estimate D2E/DX2                !
 ! D12   D(2,1,5,14)            77.5786         estimate D2E/DX2                !
 ! D13   D(8,1,5,4)           -155.3252         estimate D2E/DX2                !
 ! D14   D(8,1,5,10)            83.8617         estimate D2E/DX2                !
 ! D15   D(8,1,5,14)           -38.794          estimate D2E/DX2                !
 ! D16   D(13,1,5,4)            85.1731         estimate D2E/DX2                !
 ! D17   D(13,1,5,10)          -35.6401         estimate D2E/DX2                !
 ! D18   D(13,1,5,14)         -158.2957         estimate D2E/DX2                !
 ! D19   D(2,1,13,23)          -71.5019         estimate D2E/DX2                !
 ! D20   D(5,1,13,23)          166.2466         estimate D2E/DX2                !
 ! D21   D(8,1,13,23)           48.3139         estimate D2E/DX2                !
 ! D22   D(1,2,3,6)           -154.7885         estimate D2E/DX2                !
 ! D23   D(1,2,3,11)            29.7507         estimate D2E/DX2                !
 ! D24   D(7,2,3,6)             93.9718         estimate D2E/DX2                !
 ! D25   D(7,2,3,11)           -81.489          estimate D2E/DX2                !
 ! D26   D(12,2,3,6)           -18.5627         estimate D2E/DX2                !
 ! D27   D(12,2,3,11)          165.9765         estimate D2E/DX2                !
 ! D28   D(1,2,12,19)           64.3861         estimate D2E/DX2                !
 ! D29   D(3,2,12,19)          -70.3393         estimate D2E/DX2                !
 ! D30   D(7,2,12,19)         -178.9317         estimate D2E/DX2                !
 ! D31   D(2,3,11,4)            -7.9571         estimate D2E/DX2                !
 ! D32   D(6,3,11,4)           176.3677         estimate D2E/DX2                !
 ! D33   D(9,4,5,1)            168.8529         estimate D2E/DX2                !
 ! D34   D(9,4,5,10)           -69.6908         estimate D2E/DX2                !
 ! D35   D(9,4,5,14)            49.945          estimate D2E/DX2                !
 ! D36   D(11,4,5,1)            59.5845         estimate D2E/DX2                !
 ! D37   D(11,4,5,10)         -178.9592         estimate D2E/DX2                !
 ! D38   D(11,4,5,14)          -59.3233         estimate D2E/DX2                !
 ! D39   D(15,4,5,1)           -63.7538         estimate D2E/DX2                !
 ! D40   D(15,4,5,10)           57.7025         estimate D2E/DX2                !
 ! D41   D(15,4,5,14)          177.3384         estimate D2E/DX2                !
 ! D42   D(5,4,11,3)           -35.8611         estimate D2E/DX2                !
 ! D43   D(9,4,11,3)          -149.5162         estimate D2E/DX2                !
 ! D44   D(15,4,11,3)           95.3542         estimate D2E/DX2                !
 ! D45   D(5,4,15,16)          -49.2724         estimate D2E/DX2                !
 ! D46   D(5,4,15,17)         -165.6777         estimate D2E/DX2                !
 ! D47   D(5,4,15,18)           73.1824         estimate D2E/DX2                !
 ! D48   D(9,4,15,16)           77.5513         estimate D2E/DX2                !
 ! D49   D(9,4,15,17)          -38.854          estimate D2E/DX2                !
 ! D50   D(9,4,15,18)         -159.994          estimate D2E/DX2                !
 ! D51   D(11,4,15,16)        -172.513          estimate D2E/DX2                !
 ! D52   D(11,4,15,17)          71.0817         estimate D2E/DX2                !
 ! D53   D(11,4,15,18)         -50.0583         estimate D2E/DX2                !
 ! D54   D(1,5,14,27)           87.9214         estimate D2E/DX2                !
 ! D55   D(4,5,14,27)         -149.1226         estimate D2E/DX2                !
 ! D56   D(10,5,14,27)         -32.6365         estimate D2E/DX2                !
 ! D57   D(2,12,19,20)          49.6464         estimate D2E/DX2                !
 ! D58   D(2,12,19,21)         168.2512         estimate D2E/DX2                !
 ! D59   D(2,12,19,22)         -72.988          estimate D2E/DX2                !
 ! D60   D(1,13,23,24)        -175.4788         estimate D2E/DX2                !
 ! D61   D(1,13,23,25)         -56.4008         estimate D2E/DX2                !
 ! D62   D(1,13,23,26)          65.4424         estimate D2E/DX2                !
 ! D63   D(5,14,27,28)         179.8874         estimate D2E/DX2                !
 ! D64   D(5,14,27,29)         -61.0991         estimate D2E/DX2                !
 ! D65   D(5,14,27,30)          61.0189         estimate D2E/DX2                !
 ! D66   D(4,15,18,31)        -177.916          estimate D2E/DX2                !
 ! D67   D(16,15,18,31)        -58.3938         estimate D2E/DX2                !
 ! D68   D(17,15,18,31)         62.0591         estimate D2E/DX2                !
 ! D69   D(15,18,31,32)       -178.2012         estimate D2E/DX2                !
 ! D70   D(15,18,31,33)        -59.0421         estimate D2E/DX2                !
 ! D71   D(15,18,31,34)         62.566          estimate D2E/DX2                !
 --------------------------------------------------------------------------------
 Trust Radius=3.00D-01 FncErr=1.00D-07 GrdErr=1.00D-06 EigMax=2.50D+02 EigMin=1.00D-04
 Number of steps in this run=    177 maximum allowed number of steps=    204.
 GradGradGradGradGradGradGradGradGradGradGradGradGradGradGradGradGradGrad

 Leave Link  103 at Fri May 24 08:32:04 2019, MaxMem=   402653184 cpu:               0.2 elap:               0.1
 (Enter /n/sw/g16_nehalem/g16/l202.exe)
                          Input orientation:                          
 ---------------------------------------------------------------------
 Center     Atomic      Atomic             Coordinates (Angstroms)
 Number     Number       Type             X           Y           Z
 ---------------------------------------------------------------------
      1          6           0        0.563542    0.399774    0.726626
      2          6           0        0.418873    0.935242   -0.745354
      3          6           0        0.209279   -0.124373   -1.771523
      4          6           0       -0.740019   -1.637206   -0.183329
      5          6           0        0.358153   -1.125455    0.748720
      6          1           0        0.501006    0.059832   -2.807112
      7          1           0       -0.569360    1.429884   -0.761457
      8          1           0        1.594199    0.602128    1.045434
      9          1           0       -0.664400   -2.722726   -0.237312
     10          1           0        0.100704   -1.434637    1.769662
     11          8           0       -0.362538   -1.229351   -1.583324
     12          8           0        1.349314    1.884165   -1.186097
     13          8           0       -0.342599    0.993454    1.614605
     14          8           0        1.542269   -1.750271    0.278665
     15          6           0       -2.195382   -1.237189    0.032013
     16          1           0       -2.431847   -1.409593    1.093431
     17          1           0       -2.836704   -1.900427   -0.566846
     18          8           0       -2.381863    0.105174   -0.345957
     19          6           0        2.712827    1.444424   -1.267568
     20          1           0        2.800396    0.494979   -1.811871
     21          1           0        3.243256    2.222059   -1.817946
     22          1           0        3.165905    1.332919   -0.276883
     23          6           0       -0.058445    2.357983    1.922563
     24          1           0       -0.786100    2.661186    2.676934
     25          1           0        0.957180    2.465389    2.327022
     26          1           0       -0.161741    3.005422    1.042131
     27          6           0        2.520785   -2.016211    1.286906
     28          1           0        3.360205   -2.492841    0.778504
     29          1           0        2.870535   -1.096736    1.772906
     30          1           0        2.117798   -2.695872    2.047883
     31          6           0       -3.713238    0.564256   -0.126957
     32          1           0       -3.751827    1.595360   -0.481637
     33          1           0       -4.435538   -0.043071   -0.688860
     34          1           0       -3.968597    0.533907    0.940299
 ---------------------------------------------------------------------
                    Distance matrix (angstroms):
                    1          2          3          4          5
     1  C    0.000000
     2  C    1.573016   0.000000
     3  C    2.577010   1.489878   0.000000
     4  C    2.583907   2.876872   2.390019   0.000000
     5  C    1.539154   2.546059   2.715871   1.528590   0.000000
     6  H    3.550602   2.241414   1.091550   3.362190   3.750900
     7  H    2.135178   1.105231   2.010529   3.125764   3.109770
     8  H    1.097652   2.167782   3.221964   3.460209   2.144852
     9  H    3.490992   3.848677   3.141426   1.089489   2.137557
    10  H    2.160372   3.470283   3.777376   2.135889   1.097359
    11  O    2.974482   2.449134   1.258320   1.506261   2.443076
    12  O    2.545459   1.400153   2.382568   4.215556   3.712645
    13  O    1.400733   2.480451   3.608319   3.211056   2.393864
    14  O    2.404427   3.085873   2.936610   2.331322   1.418971
    15  C    3.282346   3.486845   3.205229   1.524620   2.654561
    16  H    3.518623   4.123831   4.103084   2.131714   2.825537
    17  H    4.304145   4.321072   3.726074   2.147664   3.540961
    18  O    3.148434   2.948331   2.966302   2.399581   3.196944
    19  C    3.112480   2.407114   2.997140   4.753332   4.026684
    20  H    3.384752   2.646307   2.664416   4.442173   3.891913
    21  H    4.120247   3.283823   3.835742   5.782074   5.110523
    22  H    2.941102   2.814924   3.619294   4.907814   3.870263
    23  C    2.377334   3.061014   4.458704   4.567369   3.699433
    24  H    3.277075   4.017823   5.342180   5.163274   4.400679
    25  H    2.642534   3.474280   4.905537   5.100356   3.967875
    26  H    2.723046   2.796044   4.224917   4.836337   4.173790
    27  C    3.159382   4.154418   4.275055   3.596954   2.400014
    28  H    4.023834   4.767109   4.694743   4.297566   3.298931
    29  H    2.942186   4.059706   4.537703   4.141867   2.713272
    30  H    3.707352   4.886052   4.984267   3.777062   2.692654
    31  C    4.364230   4.194566   4.308706   3.699952   4.494236
    32  H    4.638074   4.230844   4.506845   4.428257   5.080211
    33  H    5.214452   4.952332   4.770020   4.056315   5.120319
    34  H    4.539155   4.717244   5.024138   4.049690   4.637990
                    6          7          8          9         10
     6  H    0.000000
     7  H    2.684666   0.000000
     8  H    4.041196   2.937860   0.000000
     9  H    3.962912   4.186637   4.219166   0.000000
    10  H    4.831205   3.880854   2.627441   2.504496   0.000000
    11  O    1.976198   2.791016   3.754132   2.032987   3.391054
    12  O    2.583700   2.016928   2.585211   5.116511   4.616274
    13  O    4.597271   2.426430   2.056278   4.164510   2.473092
    14  O    3.725952   3.956541   2.474755   2.466027   2.097810
    15  C    4.124731   3.222859   4.332555   2.150177   2.886247
    16  H    5.096575   3.869379   4.500930   2.572754   2.621399
    17  H    4.472328   4.033571   5.338083   2.345991   3.782142
    18  O    3.790814   2.283126   4.241698   3.310363   3.606938
    19  C    3.029760   3.321011   2.703843   5.461889   4.933249
    20  H    2.543040   3.651393   3.103318   4.983741   4.882534
    21  H    3.629547   4.034817   3.680015   6.497621   6.009824
    22  H    3.889022   3.767814   2.180100   5.578625   4.609031
    23  C    5.288129   2.885544   2.565855   5.553904   3.799036
    24  H    6.204712   3.658635   3.545044   6.123247   4.287812
    25  H    5.688069   3.597401   2.349469   6.010147   4.031675
    26  H    4.892076   2.429280   2.976434   5.890783   4.506917
    27  C    5.015022   5.061656   2.787933   3.601084   2.535365
    28  H    5.248600   5.762008   3.573354   4.157184   3.567427
    29  H    5.284778   4.963837   2.245972   4.379565   2.790368
    30  H    5.811962   5.668780   3.486526   3.600481   2.395159
    31  C    5.019714   3.322028   5.435515   4.484623   4.705198
    32  H    5.084513   3.199028   5.647871   5.313922   5.393628
    33  H    5.372806   4.137898   6.307280   4.648218   5.343995
    34  H    5.851939   3.905581   5.564208   4.786454   4.595892
                   11         12         13         14         15
    11  O    0.000000
    12  O    3.575221   0.000000
    13  O    3.894613   3.391145   0.000000
    14  O    2.714157   3.923249   3.586850   0.000000
    15  C    2.443091   4.877654   3.303509   3.780757   0.000000
    16  H    3.388148   5.508382   3.226641   4.071057   1.101021
    17  H    2.757729   5.677090   4.399299   4.462381   1.099914
    18  O    2.718402   4.218095   2.965037   4.385389   1.406974
    19  C    4.087376   1.434983   4.224444   3.737261   5.741992
    20  H    3.609667   2.104060   4.676284   3.315776   5.599831
    21  H    4.996902   2.024950   5.113730   4.802972   6.705783
    22  H    4.552134   2.104886   4.000320   3.528582   5.953509
    23  C    5.025205   3.445295   1.427418   4.705575   4.589765
    24  H    5.784936   4.481826   2.026466   5.534794   4.917216
    25  H    5.539275   3.582401   2.088913   4.723334   5.377248
    26  H    4.986646   2.916420   2.099631   5.109124   4.812046
    27  C    4.143781   4.764559   4.167066   1.429954   4.942050
    28  H    4.586224   5.202069   5.154035   2.026361   5.744428
    29  H    4.662041   4.467167   3.836428   2.103367   5.358540
    30  H    4.635560   5.659146   4.455604   2.086990   4.979459
    31  C    4.070039   5.337918   3.818174   5.756902   2.361009
    32  H    4.547525   5.157646   4.047142   6.308626   3.272566
    33  H    4.335511   6.117679   4.809624   6.291646   2.638915
    34  H    4.741457   5.884296   3.716683   6.002072   2.665719
                   16         17         18         19         20
    16  H    0.000000
    17  H    1.778018   0.000000
    18  O    2.090181   2.068359   0.000000
    19  C    6.339353   6.517387   5.347787   0.000000
    20  H    6.280489   6.250196   5.399691   1.097898   0.000000
    21  H    7.339742   7.451581   6.187885   1.090407   1.782966
    22  H    6.382316   6.824216   5.682417   1.095066   1.786597
    23  C    4.529363   5.661266   3.952164   4.323364   5.058632
    24  H    4.667677   5.961157   4.268199   5.411293   6.140422
    25  H    5.293651   6.467486   4.885145   4.128649   4.940688
    26  H    4.964713   5.814773   3.907322   4.004318   4.818911
    27  C    4.993394   5.670317   5.585917   4.305602   3.998334
    28  H    5.900887   6.368878   6.401987   4.484146   3.993807
    29  H    5.354888   6.220365   5.789806   3.965709   3.922895
    30  H    4.823356   5.658324   5.815778   5.337446   5.054223
    31  C    2.650922   2.652636   1.425229   6.585590   6.728385
    32  H    3.640457   3.614587   2.028759   6.514002   6.775838
    33  H    3.009771   2.453758   2.087376   7.324388   7.342302
    34  H    2.482386   3.078742   2.087101   7.095431   7.307203
                   21         22         23         24         25
    21  H    0.000000
    22  H    1.780850   0.000000
    23  C    4.991103   4.035437   0.000000
    24  H    6.052478   5.109567   1.091096   0.000000
    25  H    4.739843   3.597398   1.098461   1.788798   0.000000
    26  H    4.515274   3.950986   1.097728   1.783509   1.787335
    27  C    5.303301   3.752104   5.117623   5.894549   4.859160
    28  H    5.383819   3.973416   6.043718   6.881851   5.723328
    29  H    4.903829   3.192507   4.531711   5.320735   4.081263
    30  H    6.355890   4.768042   5.503925   6.125879   5.297506
    31  C    7.348508   6.923578   4.558015   4.563667   5.607952
    32  H    7.149102   6.925736   4.472454   4.461849   5.551600
    33  H    8.085142   7.735956   5.634140   5.653315   6.668532
    34  H    7.903708   7.281557   4.425086   4.203511   5.469635
                   26         27         28         29         30
    26  H    0.000000
    27  C    5.698479   0.000000
    28  H    6.534868   1.090997   0.000000
    29  H    5.153293   1.097249   1.782616   0.000000
    30  H    6.221944   1.097007   1.787770   1.788704   0.000000
    31  C    4.465332   6.893538   7.758821   7.050847   7.025621
    32  H    4.147151   7.450963   8.299539   7.495734   7.698418
    33  H    5.527656   7.495823   8.302297   7.781337   7.581117
    34  H    4.539924   6.981068   7.930871   7.079969   6.978712
                   31         32         33         34
    31  C    0.000000
    32  H    1.091083   0.000000
    33  H    1.098316   1.787417   0.000000
    34  H    1.097800   1.787617   1.790278   0.000000
 Stoichiometry    C10H19O5(1+)
 Framework group  C1[X(C10H19O5)]
 Deg. of freedom    96
 Full point group                 C1      NOp   1
 Largest Abelian subgroup         C1      NOp   1
 Largest concise Abelian subgroup C1      NOp   1
                         Standard orientation:                         
 ---------------------------------------------------------------------
 Center     Atomic      Atomic             Coordinates (Angstroms)
 Number     Number       Type             X           Y           Z
 ---------------------------------------------------------------------
      1          6           0        0.563542    0.399774    0.726626
      2          6           0        0.418873    0.935242   -0.745354
      3          6           0        0.209279   -0.124373   -1.771523
      4          6           0       -0.740019   -1.637206   -0.183329
      5          6           0        0.358153   -1.125455    0.748720
      6          1           0        0.501006    0.059832   -2.807112
      7          1           0       -0.569360    1.429884   -0.761457
      8          1           0        1.594199    0.602128    1.045434
      9          1           0       -0.664400   -2.722726   -0.237312
     10          1           0        0.100704   -1.434637    1.769662
     11          8           0       -0.362538   -1.229351   -1.583324
     12          8           0        1.349314    1.884165   -1.186097
     13          8           0       -0.342599    0.993454    1.614605
     14          8           0        1.542269   -1.750271    0.278665
     15          6           0       -2.195382   -1.237189    0.032013
     16          1           0       -2.431847   -1.409593    1.093431
     17          1           0       -2.836704   -1.900427   -0.566846
     18          8           0       -2.381863    0.105174   -0.345957
     19          6           0        2.712827    1.444424   -1.267568
     20          1           0        2.800396    0.494979   -1.811871
     21          1           0        3.243256    2.222059   -1.817946
     22          1           0        3.165905    1.332919   -0.276883
     23          6           0       -0.058445    2.357983    1.922563
     24          1           0       -0.786100    2.661186    2.676934
     25          1           0        0.957180    2.465389    2.327022
     26          1           0       -0.161741    3.005422    1.042131
     27          6           0        2.520785   -2.016211    1.286906
     28          1           0        3.360205   -2.492841    0.778504
     29          1           0        2.870535   -1.096736    1.772906
     30          1           0        2.117798   -2.695872    2.047883
     31          6           0       -3.713238    0.564256   -0.126957
     32          1           0       -3.751827    1.595360   -0.481637
     33          1           0       -4.435538   -0.043071   -0.688860
     34          1           0       -3.968597    0.533907    0.940299
 ---------------------------------------------------------------------
 Rotational constants (GHZ):           0.6956548           0.5159412           0.4514192
 Leave Link  202 at Fri May 24 08:32:04 2019, MaxMem=   402653184 cpu:               0.2 elap:               0.1
 (Enter /n/sw/g16_nehalem/g16/l301.exe)
 Standard basis: 6-31G(d) (6D, 7F)
 Ernie: Thresh=  0.10000D-02 Tol=  0.10000D-05 Strict=F.
 There are   263 symmetry adapted cartesian basis functions of A   symmetry.
 There are   263 symmetry adapted basis functions of A   symmetry.
   263 basis functions,   496 primitive gaussians,   263 cartesian basis functions
    59 alpha electrons       59 beta electrons
       nuclear repulsion energy      1195.1291313323 Hartrees.
 IExCor=  402 DFT=T Ex+Corr=B3LYP ExCW=0 ScaHFX=  0.200000
 ScaDFX=  0.800000  0.720000  1.000000  0.810000 ScalE2=  1.000000  1.000000
 IRadAn=      5 IRanWt=     -1 IRanGd=            0 ICorTp=0 IEmpDi=  4
 NAtoms=   34 NActive=   34 NUniq=   34 SFac= 1.00D+00 NAtFMM=   60 NAOKFM=F Big=F
 Integral buffers will be    131072 words long.
 Raffenetti 2 integral format.
 Two-electron integral symmetry is turned on.
 ------------------------------------------------------------------------------
 Polarizable Continuum Model (PCM)
 =================================
 Model                : PCM.
 Atomic radii         : UFF (Universal Force Field).
 Polarization charges : Total charges.
 Charge compensation  : None.
 Solution method      : On-the-fly selection.
 Cavity type          : Scaled VdW (van der Waals Surface) (Alpha=1.100).
 Cavity algorithm     : GePol (No added spheres)
                        Default sphere list used, NSphG=   34.
                        Lebedev-Laikov grids with approx.  5.0 points / Ang**2.
                        Smoothing algorithm: York/Karplus (Gamma=1.0000).
                        Polarization charges: spherical gaussians, with
                                              point-specific exponents (IZeta= 3).
                        Self-potential: point-specific (ISelfS= 7).
                        Self-field    : sphere-specific E.n sum rule (ISelfD= 2).
 1st derivatives      : Analytical E(r).r(x)/FMM algorithm (CHGder, D1EAlg=3).
                        Cavity 1st derivative terms included.
 Solvent              : TetraHydroFuran, Eps=   7.425700 Eps(inf)=   1.974025
 ------------------------------------------------------------------------------
 GePol: Number of generator spheres                  =      34
 GePol: Total number of spheres                      =      34
 GePol: Number of exposed spheres                    =      34 (100.00%)
 GePol: Number of points                             =    2291
 GePol: Average weight of points                     =       0.13
 GePol: Minimum weight of points                     =   0.39D-10
 GePol: Maximum weight of points                     =    0.20577
 GePol: Number of points with low weight             =     131
 GePol: Fraction of low-weight points (<1% of avg)   =       5.72%
 GePol: Cavity surface area                          =    299.178 Ang**2
 GePol: Cavity volume                                =    319.294 Ang**3
 Leave Link  301 at Fri May 24 08:32:04 2019, MaxMem=   402653184 cpu:               0.4 elap:               0.1
 (Enter /n/sw/g16_nehalem/g16/l302.exe)
 NPDir=0 NMtPBC=     1 NCelOv=     1 NCel=       1 NClECP=     1 NCelD=      1
         NCelK=      1 NCelE2=     1 NClLst=     1 CellRange=     0.0.
 One-electron integrals computed using PRISM.
 One-electron integral symmetry used in STVInt
 NBasis=   263 RedAO= T EigKep=  1.49D-03  NBF=   263
 NBsUse=   263 1.00D-06 EigRej= -1.00D+00 NBFU=   263
 Precomputing XC quadrature grid using
 IXCGrd= 4 IRadAn=           5 IRanWt=          -1 IRanGd=           0 AccXCQ= 0.00D+00.
 Generated NRdTot=       0 NPtTot=           0 NUsed=           0 NTot=          32
 NSgBfM=   262   262   262   262   262 MxSgAt=    34 MxSgA2=    34.
 Leave Link  302 at Fri May 24 08:32:06 2019, MaxMem=   402653184 cpu:               4.2 elap:               1.6
 (Enter /n/sw/g16_nehalem/g16/l303.exe)
 DipDrv:  MaxL=1.
 Leave Link  303 at Fri May 24 08:32:06 2019, MaxMem=   402653184 cpu:               0.4 elap:               0.2
 (Enter /n/sw/g16_nehalem/g16/l401.exe)
 ExpMin= 1.61D-01 ExpMax= 5.48D+03 ExpMxC= 8.25D+02 IAcc=3 IRadAn=         5 AccDes= 0.00D+00
 Harris functional with IExCor=  402 and IRadAn=       5 diagonalized for initial guess.
 HarFok:  IExCor=  402 AccDes= 0.00D+00 IRadAn=         5 IDoV= 1 UseB2=F ITyADJ=14
 ICtDFT=  3500011 ScaDFX=  1.000000  1.000000  1.000000  1.000000
 FoFCou: FMM=F IPFlag=           0 FMFlag=      100000 FMFlg1=           0
         NFxFlg=           0 DoJE=T BraDBF=F KetDBF=T FulRan=T
         wScrn=  0.000000 ICntrl=       500 IOpCl=  0 I1Cent=   200000004 NGrid=           0
         NMat0=    1 NMatS0=      1 NMatT0=    0 NMatD0=    1 NMtDS0=    0 NMtDT0=    0
 Petite list used in FoFCou.
 Harris En= -768.256838900755    
 JPrj=0 DoOrth=F DoCkMO=F.
 Leave Link  401 at Fri May 24 08:32:11 2019, MaxMem=   402653184 cpu:              21.0 elap:               5.3
 (Enter /n/sw/g16_nehalem/g16/l502.exe)
 Integral symmetry usage will be decided dynamically.
 Closed shell SCF:
 Using DIIS extrapolation, IDIIS=  1040.
 NGot=   402653184 LenX=   402510103 LenY=   402440493
 Requested convergence on RMS density matrix=1.00D-08 within 128 cycles.
 Requested convergence on MAX density matrix=1.00D-06.
 Requested convergence on             energy=1.00D-06.
 No special actions if energy rises.
 Fock matrices will be formed incrementally for  20 cycles.

 Cycle   1  Pass 1  IDiag  1:
 FoFJK:  IHMeth= 1 ICntrl=       0 DoSepK=F KAlg= 0 I1Cent=           0 FoldK=F
 IRaf= 900000000 NMat=       1 IRICut=       1 DoRegI=T DoRafI=F ISym2E= 0 IDoP0=0 IntGTp=1.
 FoFCou: FMM=F IPFlag=           0 FMFlag=      100000 FMFlg1=           0
         NFxFlg=           0 DoJE=F BraDBF=F KetDBF=F FulRan=T
         wScrn=  0.000000 ICntrl=         0 IOpCl=  0 I1Cent=           0 NGrid=           0
         NMat0=    1 NMatS0=      1 NMatT0=    0 NMatD0=    1 NMtDS0=    0 NMtDT0=    0
 Symmetry not used in FoFCou.
 Inv3:  Mode=1 IEnd=    15746043.
 Iteration    1 A*A^-1 deviation from unit magnitude is 5.11D-15 for    567.
 Iteration    1 A*A^-1 deviation from orthogonality  is 3.33D-15 for   2287   1474.
 Iteration    1 A^-1*A deviation from unit magnitude is 5.55D-15 for    562.
 Iteration    1 A^-1*A deviation from orthogonality  is 3.14D-15 for   2270    658.
 E= -768.096152595682    
 DIIS: error= 1.92D-02 at cycle   1 NSaved=   1.
 NSaved= 1 IEnMin= 1 EnMin= -768.096152595682     IErMin= 1 ErrMin= 1.92D-02
 ErrMax= 1.92D-02  0.00D+00 EMaxC= 1.00D-01 BMatC= 2.52D-01 BMatP= 2.52D-01
 IDIUse=3 WtCom= 8.08D-01 WtEn= 1.92D-01
 Coeff-Com:  0.100D+01
 Coeff-En:   0.100D+01
 Coeff:      0.100D+01
 Gap=     0.033 Goal=   None    Shift=    0.000
 GapD=    0.033 DampG=0.250 DampE=0.500 DampFc=0.2500 IDamp=-1.
 Damping current iteration by 2.50D-01
 RMSDP=4.27D-03 MaxDP=1.04D-01              OVMax= 3.05D-01

 Cycle   2  Pass 1  IDiag  1:
 RMSU=  1.06D-03    CP:  9.95D-01
 E= -768.176175829086     Delta-E=       -0.080023233404 Rises=F Damp=T
 DIIS: error= 9.51D-03 at cycle   2 NSaved=   2.
 NSaved= 2 IEnMin= 2 EnMin= -768.176175829086     IErMin= 2 ErrMin= 9.51D-03
 ErrMax= 9.51D-03  0.00D+00 EMaxC= 1.00D-01 BMatC= 7.14D-02 BMatP= 2.52D-01
 IDIUse=3 WtCom= 9.05D-01 WtEn= 9.51D-02
 Coeff-Com: -0.859D+00 0.186D+01
 Coeff-En:   0.000D+00 0.100D+01
 Coeff:     -0.777D+00 0.178D+01
 Gap=     0.153 Goal=   None    Shift=    0.000
 RMSDP=1.22D-03 MaxDP=2.80D-02 DE=-8.00D-02 OVMax= 2.66D-01

 Cycle   3  Pass 1  IDiag  1:
 RMSU=  1.03D-03    CP:  9.87D-01  1.59D+00
 E= -768.318474402801     Delta-E=       -0.142298573715 Rises=F Damp=F
 DIIS: error= 3.81D-03 at cycle   3 NSaved=   3.
 NSaved= 3 IEnMin= 3 EnMin= -768.318474402801     IErMin= 3 ErrMin= 3.81D-03
 ErrMax= 3.81D-03  0.00D+00 EMaxC= 1.00D-01 BMatC= 1.48D-02 BMatP= 7.14D-02
 IDIUse=3 WtCom= 9.62D-01 WtEn= 3.81D-02
 Coeff-Com: -0.460D+00 0.872D+00 0.588D+00
 Coeff-En:   0.000D+00 0.000D+00 0.100D+01
 Coeff:     -0.442D+00 0.838D+00 0.604D+00
 Gap=     0.137 Goal=   None    Shift=    0.000
 RMSDP=5.31D-04 MaxDP=1.82D-02 DE=-1.42D-01 OVMax= 2.48D-02

 Cycle   4  Pass 1  IDiag  1:
 RMSU=  3.74D-04    CP:  9.90D-01  1.75D+00  6.80D-01
 E= -768.329229951944     Delta-E=       -0.010755549143 Rises=F Damp=F
 DIIS: error= 1.76D-03 at cycle   4 NSaved=   4.
 NSaved= 4 IEnMin= 4 EnMin= -768.329229951944     IErMin= 4 ErrMin= 1.76D-03
 ErrMax= 1.76D-03  0.00D+00 EMaxC= 1.00D-01 BMatC= 2.06D-03 BMatP= 1.48D-02
 IDIUse=3 WtCom= 9.82D-01 WtEn= 1.76D-02
 Coeff-Com: -0.154D+00 0.259D+00 0.292D+00 0.603D+00
 Coeff-En:   0.000D+00 0.000D+00 0.316D-01 0.968D+00
 Coeff:     -0.151D+00 0.254D+00 0.287D+00 0.610D+00
 Gap=     0.139 Goal=   None    Shift=    0.000
 RMSDP=1.66D-04 MaxDP=7.08D-03 DE=-1.08D-02 OVMax= 9.73D-03

 Cycle   5  Pass 1  IDiag  1:
 RMSU=  1.16D-04    CP:  9.89D-01  1.75D+00  7.47D-01  7.48D-01
 E= -768.330824414631     Delta-E=       -0.001594462687 Rises=F Damp=F
 DIIS: error= 4.15D-04 at cycle   5 NSaved=   5.
 NSaved= 5 IEnMin= 5 EnMin= -768.330824414631     IErMin= 5 ErrMin= 4.15D-04
 ErrMax= 4.15D-04  0.00D+00 EMaxC= 1.00D-01 BMatC= 1.98D-04 BMatP= 2.06D-03
 IDIUse=3 WtCom= 9.96D-01 WtEn= 4.15D-03
 Coeff-Com: -0.434D-01 0.651D-01 0.799D-01 0.295D+00 0.604D+00
 Coeff-En:   0.000D+00 0.000D+00 0.000D+00 0.000D+00 0.100D+01
 Coeff:     -0.432D-01 0.649D-01 0.796D-01 0.293D+00 0.605D+00
 Gap=     0.140 Goal=   None    Shift=    0.000
 RMSDP=5.29D-05 MaxDP=2.39D-03 DE=-1.59D-03 OVMax= 3.75D-03

 Cycle   6  Pass 1  IDiag  1:
 RMSU=  4.21D-05    CP:  9.89D-01  1.75D+00  7.52D-01  8.02D-01  7.92D-01
 E= -768.330954502333     Delta-E=       -0.000130087703 Rises=F Damp=F
 DIIS: error= 2.45D-04 at cycle   6 NSaved=   6.
 NSaved= 6 IEnMin= 6 EnMin= -768.330954502333     IErMin= 6 ErrMin= 2.45D-04
 ErrMax= 2.45D-04  0.00D+00 EMaxC= 1.00D-01 BMatC= 3.31D-05 BMatP= 1.98D-04
 IDIUse=3 WtCom= 9.98D-01 WtEn= 2.45D-03
 Coeff-Com: -0.133D-01 0.167D-01 0.200D-01 0.128D+00 0.373D+00 0.476D+00
 Coeff-En:   0.000D+00 0.000D+00 0.000D+00 0.000D+00 0.591D-01 0.941D+00
 Coeff:     -0.133D-01 0.167D-01 0.199D-01 0.127D+00 0.373D+00 0.477D+00
 Gap=     0.139 Goal=   None    Shift=    0.000
 RMSDP=1.78D-05 MaxDP=1.26D-03 DE=-1.30D-04 OVMax= 1.23D-03

 Cycle   7  Pass 1  IDiag  1:
 RMSU=  1.33D-05    CP:  9.89D-01  1.75D+00  7.53D-01  8.17D-01  8.43D-01
                    CP:  7.98D-01
 E= -768.330980215296     Delta-E=       -0.000025712962 Rises=F Damp=F
 DIIS: error= 5.44D-05 at cycle   7 NSaved=   7.
 NSaved= 7 IEnMin= 7 EnMin= -768.330980215296     IErMin= 7 ErrMin= 5.44D-05
 ErrMax= 5.44D-05  0.00D+00 EMaxC= 1.00D-01 BMatC= 2.25D-06 BMatP= 3.31D-05
 IDIUse=1 WtCom= 1.00D+00 WtEn= 0.00D+00
 Coeff-Com: -0.350D-02 0.341D-02 0.185D-02 0.439D-01 0.160D+00 0.265D+00
 Coeff-Com:  0.530D+00
 Coeff:     -0.350D-02 0.341D-02 0.185D-02 0.439D-01 0.160D+00 0.265D+00
 Coeff:      0.530D+00
 Gap=     0.139 Goal=   None    Shift=    0.000
 RMSDP=6.47D-06 MaxDP=3.35D-04 DE=-2.57D-05 OVMax= 4.91D-04

 Cycle   8  Pass 1  IDiag  1:
 RMSU=  4.82D-06    CP:  9.89D-01  1.75D+00  7.54D-01  8.24D-01  8.63D-01
                    CP:  8.17D-01  8.61D-01
 E= -768.330982186345     Delta-E=       -0.000001971049 Rises=F Damp=F
 DIIS: error= 1.35D-05 at cycle   8 NSaved=   8.
 NSaved= 8 IEnMin= 8 EnMin= -768.330982186345     IErMin= 8 ErrMin= 1.35D-05
 ErrMax= 1.35D-05  0.00D+00 EMaxC= 1.00D-01 BMatC= 1.98D-07 BMatP= 2.25D-06
 IDIUse=1 WtCom= 1.00D+00 WtEn= 0.00D+00
 Coeff-Com:  0.470D-03-0.923D-03-0.342D-02-0.539D-02-0.234D-02 0.161D-01
 Coeff-Com:  0.222D+00 0.773D+00
 Coeff:      0.470D-03-0.923D-03-0.342D-02-0.539D-02-0.234D-02 0.161D-01
 Coeff:      0.222D+00 0.773D+00
 Gap=     0.139 Goal=   None    Shift=    0.000
 RMSDP=3.51D-06 MaxDP=9.02D-05 DE=-1.97D-06 OVMax= 6.05D-04

 Cycle   9  Pass 1  IDiag  1:
 RMSU=  1.47D-06    CP:  9.89D-01  1.75D+00  7.55D-01  8.28D-01  8.77D-01
                    CP:  8.54D-01  9.76D-01  9.58D-01
 E= -768.330982444144     Delta-E=       -0.000000257799 Rises=F Damp=F
 DIIS: error= 5.19D-06 at cycle   9 NSaved=   9.
 NSaved= 9 IEnMin= 9 EnMin= -768.330982444144     IErMin= 9 ErrMin= 5.19D-06
 ErrMax= 5.19D-06  0.00D+00 EMaxC= 1.00D-01 BMatC= 3.37D-08 BMatP= 1.98D-07
 IDIUse=1 WtCom= 1.00D+00 WtEn= 0.00D+00
 Coeff-Com:  0.370D-03-0.526D-03-0.183D-02-0.575D-02-0.131D-01-0.128D-01
 Coeff-Com:  0.631D-01 0.397D+00 0.574D+00
 Coeff:      0.370D-03-0.526D-03-0.183D-02-0.575D-02-0.131D-01-0.128D-01
 Coeff:      0.631D-01 0.397D+00 0.574D+00
 Gap=     0.139 Goal=   None    Shift=    0.000
 RMSDP=1.00D-06 MaxDP=3.17D-05 DE=-2.58D-07 OVMax= 1.28D-04

 Cycle  10  Pass 1  IDiag  1:
 RMSU=  6.28D-07    CP:  9.89D-01  1.75D+00  7.55D-01  8.28D-01  8.80D-01
                    CP:  8.64D-01  9.98D-01  1.01D+00  8.05D-01
 E= -768.330982474588     Delta-E=       -0.000000030445 Rises=F Damp=F
 DIIS: error= 2.09D-06 at cycle  10 NSaved=  10.
 NSaved=10 IEnMin=10 EnMin= -768.330982474588     IErMin=10 ErrMin= 2.09D-06
 ErrMax= 2.09D-06  0.00D+00 EMaxC= 1.00D-01 BMatC= 3.58D-09 BMatP= 3.37D-08
 IDIUse=1 WtCom= 1.00D+00 WtEn= 0.00D+00
 Coeff-Com:  0.130D-03-0.152D-03-0.474D-03-0.216D-02-0.644D-02-0.903D-02
 Coeff-Com: -0.612D-02 0.782D-01 0.280D+00 0.666D+00
 Coeff:      0.130D-03-0.152D-03-0.474D-03-0.216D-02-0.644D-02-0.903D-02
 Coeff:     -0.612D-02 0.782D-01 0.280D+00 0.666D+00
 Gap=     0.139 Goal=   None    Shift=    0.000
 RMSDP=4.08D-07 MaxDP=9.82D-06 DE=-3.04D-08 OVMax= 5.29D-05

 Cycle  11  Pass 1  IDiag  1:
 RMSU=  1.71D-07    CP:  9.89D-01  1.75D+00  7.55D-01  8.29D-01  8.81D-01
                    CP:  8.67D-01  1.01D+00  1.04D+00  8.76D-01  7.84D-01
 E= -768.330982478594     Delta-E=       -0.000000004005 Rises=F Damp=F
 DIIS: error= 5.29D-07 at cycle  11 NSaved=  11.
 NSaved=11 IEnMin=11 EnMin= -768.330982478594     IErMin=11 ErrMin= 5.29D-07
 ErrMax= 5.29D-07  0.00D+00 EMaxC= 1.00D-01 BMatC= 2.04D-10 BMatP= 3.58D-09
 IDIUse=1 WtCom= 1.00D+00 WtEn= 0.00D+00
 Coeff-Com:  0.219D-04-0.186D-04-0.721D-04-0.456D-03-0.162D-02-0.256D-02
 Coeff-Com: -0.728D-02 0.768D-02 0.718D-01 0.268D+00 0.665D+00
 Coeff:      0.219D-04-0.186D-04-0.721D-04-0.456D-03-0.162D-02-0.256D-02
 Coeff:     -0.728D-02 0.768D-02 0.718D-01 0.268D+00 0.665D+00
 Gap=     0.139 Goal=   None    Shift=    0.000
 RMSDP=9.61D-08 MaxDP=2.88D-06 DE=-4.01D-09 OVMax= 1.11D-05

 Cycle  12  Pass 1  IDiag  1:
 RMSU=  6.13D-08    CP:  9.89D-01  1.75D+00  7.55D-01  8.29D-01  8.81D-01
                    CP:  8.68D-01  1.01D+00  1.04D+00  8.96D-01  8.34D-01
                    CP:  8.25D-01
 E= -768.330982478755     Delta-E=       -0.000000000161 Rises=F Damp=F
 DIIS: error= 2.32D-07 at cycle  12 NSaved=  12.
 NSaved=12 IEnMin=12 EnMin= -768.330982478755     IErMin=12 ErrMin= 2.32D-07
 ErrMax= 2.32D-07  0.00D+00 EMaxC= 1.00D-01 BMatC= 3.97D-11 BMatP= 2.04D-10
 IDIUse=1 WtCom= 1.00D+00 WtEn= 0.00D+00
 Coeff-Com: -0.324D-05 0.705D-05 0.277D-04 0.503D-04 0.148D-04-0.950D-04
 Coeff-Com: -0.370D-02-0.762D-02-0.353D-02 0.451D-01 0.340D+00 0.629D+00
 Coeff:     -0.324D-05 0.705D-05 0.277D-04 0.503D-04 0.148D-04-0.950D-04
 Coeff:     -0.370D-02-0.762D-02-0.353D-02 0.451D-01 0.340D+00 0.629D+00
 Gap=     0.139 Goal=   None    Shift=    0.000
 RMSDP=3.53D-08 MaxDP=1.26D-06 DE=-1.61D-10 OVMax= 3.13D-06

 Cycle  13  Pass 1  IDiag  1:
 RMSU=  1.73D-08    CP:  9.89D-01  1.75D+00  7.55D-01  8.29D-01  8.81D-01
                    CP:  8.68D-01  1.01D+00  1.04D+00  8.99D-01  8.48D-01
                    CP:  9.23D-01  7.90D-01
 E= -768.330982478834     Delta-E=       -0.000000000079 Rises=F Damp=F
 DIIS: error= 3.38D-08 at cycle  13 NSaved=  13.
 NSaved=13 IEnMin=13 EnMin= -768.330982478834     IErMin=13 ErrMin= 3.38D-08
 ErrMax= 3.38D-08  0.00D+00 EMaxC= 1.00D-01 BMatC= 1.41D-12 BMatP= 3.97D-11
 IDIUse=1 WtCom= 1.00D+00 WtEn= 0.00D+00
 Coeff-Com: -0.309D-05 0.427D-05 0.145D-04 0.531D-04 0.134D-03 0.199D-03
 Coeff-Com: -0.678D-03-0.261D-02-0.605D-02-0.445D-02 0.658D-01 0.212D+00
 Coeff-Com:  0.736D+00
 Coeff:     -0.309D-05 0.427D-05 0.145D-04 0.531D-04 0.134D-03 0.199D-03
 Coeff:     -0.678D-03-0.261D-02-0.605D-02-0.445D-02 0.658D-01 0.212D+00
 Coeff:      0.736D+00
 Gap=     0.139 Goal=   None    Shift=    0.000
 RMSDP=7.49D-09 MaxDP=2.28D-07 DE=-7.94D-11 OVMax= 7.31D-07

 Error on total polarization charges =  0.01181
 SCF Done:  E(RB3LYP) =  -768.330982479     A.U. after   13 cycles
            NFock= 13  Conv=0.75D-08     -V/T= 2.0091
 KE= 7.614085313238D+02 PE=-4.165400830756D+03 EE= 1.440532185621D+03
 Leave Link  502 at Fri May 24 08:34:27 2019, MaxMem=   402653184 cpu:             543.6 elap:             136.1
 (Enter /n/sw/g16_nehalem/g16/l601.exe)
 Copying SCF densities to generalized density rwf, IOpCl= 0 IROHF=0.

 **********************************************************************

            Population analysis using the SCF density.

 **********************************************************************

 Orbital symmetries:
       Occupied  (A) (A) (A) (A) (A) (A) (A) (A) (A) (A) (A) (A)
                 (A) (A) (A) (A) (A) (A) (A) (A) (A) (A) (A) (A)
                 (A) (A) (A) (A) (A) (A) (A) (A) (A) (A) (A) (A)
                 (A) (A) (A) (A) (A) (A) (A) (A) (A) (A) (A) (A)
                 (A) (A) (A) (A) (A) (A) (A) (A) (A) (A) (A)
       Virtual   (A) (A) (A) (A) (A) (A) (A) (A) (A) (A) (A) (A)
                 (A) (A) (A) (A) (A) (A) (A) (A) (A) (A) (A) (A)
                 (A) (A) (A) (A) (A) (A) (A) (A) (A) (A) (A) (A)
                 (A) (A) (A) (A) (A) (A) (A) (A) (A) (A) (A) (A)
                 (A) (A) (A) (A) (A) (A) (A) (A) (A) (A) (A) (A)
                 (A) (A) (A) (A) (A) (A) (A) (A) (A) (A) (A) (A)
                 (A) (A) (A) (A) (A) (A) (A) (A) (A) (A) (A) (A)
                 (A) (A) (A) (A) (A) (A) (A) (A) (A) (A) (A) (A)
                 (A) (A) (A) (A) (A) (A) (A) (A) (A) (A) (A) (A)
                 (A) (A) (A) (A) (A) (A) (A) (A) (A) (A) (A) (A)
                 (A) (A) (A) (A) (A) (A) (A) (A) (A) (A) (A) (A)
                 (A) (A) (A) (A) (A) (A) (A) (A) (A) (A) (A) (A)
                 (A) (A) (A) (A) (A) (A) (A) (A) (A) (A) (A) (A)
                 (A) (A) (A) (A) (A) (A) (A) (A) (A) (A) (A) (A)
                 (A) (A) (A) (A) (A) (A) (A) (A) (A) (A) (A) (A)
                 (A) (A) (A) (A) (A) (A) (A) (A) (A) (A) (A) (A)
                 (A) (A) (A) (A) (A) (A) (A) (A) (A) (A) (A) (A)
 The electronic state is 1-A.
 Alpha  occ. eigenvalues --  -19.32205 -19.20506 -19.19739 -19.19197 -19.18968
 Alpha  occ. eigenvalues --  -10.39102 -10.31844 -10.31136 -10.29614 -10.29434
 Alpha  occ. eigenvalues --  -10.28310 -10.26082 -10.25556 -10.25098 -10.25061
 Alpha  occ. eigenvalues --   -1.21136  -1.09254  -1.08148  -1.07436  -1.06940
 Alpha  occ. eigenvalues --   -0.87009  -0.84876  -0.77836  -0.74776  -0.74122
 Alpha  occ. eigenvalues --   -0.70931  -0.69631  -0.68091  -0.66669  -0.61344
 Alpha  occ. eigenvalues --   -0.58795  -0.58335  -0.56929  -0.53992  -0.53439
 Alpha  occ. eigenvalues --   -0.52876  -0.51988  -0.50550  -0.50349  -0.48995
 Alpha  occ. eigenvalues --   -0.48168  -0.47390  -0.46940  -0.46607  -0.45743
 Alpha  occ. eigenvalues --   -0.44310  -0.43159  -0.42739  -0.41641  -0.40296
 Alpha  occ. eigenvalues --   -0.39552  -0.36741  -0.36548  -0.35960  -0.35323
 Alpha  occ. eigenvalues --   -0.32588  -0.30528  -0.29639  -0.28326
 Alpha virt. eigenvalues --   -0.14408   0.00998   0.03855   0.04941   0.06643
 Alpha virt. eigenvalues --    0.06976   0.07809   0.09474   0.10046   0.10583
 Alpha virt. eigenvalues --    0.10898   0.11780   0.12183   0.12752   0.13160
 Alpha virt. eigenvalues --    0.13808   0.14404   0.14602   0.14833   0.15387
 Alpha virt. eigenvalues --    0.15664   0.16031   0.16924   0.17011   0.17196
 Alpha virt. eigenvalues --    0.17896   0.18972   0.19920   0.21372   0.22439
 Alpha virt. eigenvalues --    0.23890   0.26053   0.28299   0.29787   0.30708
 Alpha virt. eigenvalues --    0.44649   0.45858   0.46000   0.47223   0.47941
 Alpha virt. eigenvalues --    0.48562   0.48793   0.50101   0.50935   0.52107
 Alpha virt. eigenvalues --    0.52863   0.53055   0.54239   0.54992   0.55641
 Alpha virt. eigenvalues --    0.56977   0.57588   0.59099   0.60211   0.62241
 Alpha virt. eigenvalues --    0.62749   0.65329   0.66648   0.68862   0.71202
 Alpha virt. eigenvalues --    0.73089   0.75281   0.76040   0.77159   0.77714
 Alpha virt. eigenvalues --    0.78502   0.79393   0.80249   0.80978   0.82401
 Alpha virt. eigenvalues --    0.83219   0.83909   0.84394   0.84597   0.85741
 Alpha virt. eigenvalues --    0.86279   0.87351   0.87911   0.88867   0.90221
 Alpha virt. eigenvalues --    0.90791   0.92099   0.92511   0.93708   0.94656
 Alpha virt. eigenvalues --    0.94846   0.97077   0.97416   1.00020   1.01338
 Alpha virt. eigenvalues --    1.03870   1.05203   1.07433   1.09803   1.11342
 Alpha virt. eigenvalues --    1.13432   1.15292   1.17400   1.19636   1.20906
 Alpha virt. eigenvalues --    1.22511   1.26187   1.28871   1.30412   1.33413
 Alpha virt. eigenvalues --    1.34910   1.36537   1.39101   1.39967   1.42154
 Alpha virt. eigenvalues --    1.44550   1.45659   1.46851   1.47849   1.49267
 Alpha virt. eigenvalues --    1.51553   1.53424   1.55976   1.56601   1.59320
 Alpha virt. eigenvalues --    1.60794   1.63849   1.65954   1.69321   1.71383
 Alpha virt. eigenvalues --    1.73069   1.77884   1.79046   1.80697   1.80932
 Alpha virt. eigenvalues --    1.83776   1.85945   1.86556   1.87321   1.88838
 Alpha virt. eigenvalues --    1.92381   1.94597   1.98460   1.99764   2.00655
 Alpha virt. eigenvalues --    2.01590   2.02804   2.03082   2.04759   2.05263
 Alpha virt. eigenvalues --    2.06904   2.07824   2.08149   2.08771   2.10238
 Alpha virt. eigenvalues --    2.11027   2.13772   2.14354   2.15684   2.16960
 Alpha virt. eigenvalues --    2.19738   2.20209   2.23437   2.23932   2.26948
 Alpha virt. eigenvalues --    2.28842   2.29214   2.32663   2.35529   2.36520
 Alpha virt. eigenvalues --    2.37774   2.38458   2.40958   2.42279   2.46683
 Alpha virt. eigenvalues --    2.47378   2.53224   2.53483   2.58641   2.62171
 Alpha virt. eigenvalues --    2.64447   2.67301   2.69003   2.74415   2.77551
 Alpha virt. eigenvalues --    2.78059   2.79902   2.85324   2.90379   2.93213
 Alpha virt. eigenvalues --    2.95078   2.97026   3.01303   3.07644   3.82617
 Alpha virt. eigenvalues --    3.86386   3.97227   3.98586   4.11039   4.11994
 Alpha virt. eigenvalues --    4.21399   4.22686   4.23569   4.24678   4.26099
 Alpha virt. eigenvalues --    4.41024   4.51262   4.62522   4.69753
          Condensed to atoms (all electrons):
               1          2          3          4          5          6
     1  C    5.004626   0.241894  -0.037528  -0.032783   0.295189   0.002712
     2  C    0.241894   5.154084   0.276348  -0.018750  -0.017508  -0.042423
     3  C   -0.037528   0.276348   4.853709  -0.053240  -0.004298   0.357341
     4  C   -0.032783  -0.018750  -0.053240   5.051921   0.342051   0.003585
     5  C    0.295189  -0.017508  -0.004298   0.342051   5.024715  -0.000242
     6  H    0.002712  -0.042423   0.357341   0.003585  -0.000242   0.435974
     7  H   -0.030678   0.343292  -0.033486   0.001305  -0.000257   0.000515
     8  H    0.372440  -0.062201   0.001473   0.004254  -0.040876  -0.000193
     9  H    0.004772  -0.000054   0.002400   0.369165  -0.033946  -0.000075
    10  H   -0.042913   0.004534   0.000773  -0.035259   0.353170   0.000020
    11  O   -0.007285  -0.020380   0.364089   0.145694  -0.029463  -0.035003
    12  O   -0.028659   0.217791  -0.029354   0.000211   0.001991   0.003845
    13  O    0.197968  -0.039053   0.003106  -0.001405  -0.032858  -0.000055
    14  O   -0.045035  -0.000511   0.011389  -0.045220   0.177468  -0.000057
    15  C   -0.003368   0.001484  -0.002237   0.313089  -0.035005  -0.000282
    16  H    0.000001  -0.000289   0.000442  -0.037748  -0.006939   0.000008
    17  H   -0.000157   0.000088  -0.000586  -0.024031   0.004661  -0.000014
    18  O    0.002981  -0.012826   0.010586  -0.042049  -0.002650   0.000114
    19  C   -0.006268  -0.043777  -0.005805   0.000064  -0.000350   0.000017
    20  H   -0.000774  -0.007021   0.009052  -0.000052  -0.000112  -0.000165
    21  H    0.000047   0.004578  -0.000008  -0.000001   0.000006  -0.000178
    22  H    0.003444  -0.003245  -0.000403  -0.000004  -0.000652   0.000208
    23  C   -0.035726  -0.002579   0.000316  -0.000105   0.004590  -0.000001
    24  H    0.004666  -0.000161   0.000007   0.000012  -0.000130   0.000000
    25  H   -0.007317  -0.002252   0.000004  -0.000009   0.000043  -0.000001
    26  H   -0.007360   0.008632  -0.000077  -0.000009  -0.000145   0.000012
    27  C   -0.004591   0.000279  -0.000278   0.004222  -0.031840  -0.000001
    28  H   -0.000088   0.000002   0.000003  -0.000267   0.005127   0.000000
    29  H    0.003461  -0.000127  -0.000038   0.000067  -0.004973   0.000000
    30  H   -0.000627  -0.000020   0.000038   0.000209  -0.008559   0.000000
    31  C   -0.000225   0.000369  -0.000271   0.004978   0.000105  -0.000003
    32  H   -0.000008   0.000098   0.000017  -0.000222   0.000001   0.000000
    33  H    0.000003  -0.000004  -0.000035   0.000161   0.000005   0.000000
    34  H    0.000004  -0.000064   0.000037  -0.000268  -0.000051   0.000000
               7          8          9         10         11         12
     1  C   -0.030678   0.372440   0.004772  -0.042913  -0.007285  -0.028659
     2  C    0.343292  -0.062201  -0.000054   0.004534  -0.020380   0.217791
     3  C   -0.033486   0.001473   0.002400   0.000773   0.364089  -0.029354
     4  C    0.001305   0.004254   0.369165  -0.035259   0.145694   0.000211
     5  C   -0.000257  -0.040876  -0.033946   0.353170  -0.029463   0.001991
     6  H    0.000515  -0.000193  -0.000075   0.000020  -0.035003   0.003845
     7  H    0.441108   0.003124  -0.000031  -0.000103  -0.001435  -0.027831
     8  H    0.003124   0.562576  -0.000148  -0.003195   0.000147  -0.001174
     9  H   -0.000031  -0.000148   0.474261  -0.002024  -0.028763   0.000003
    10  H   -0.000103  -0.003195  -0.002024   0.533313   0.002403  -0.000064
    11  O   -0.001435   0.000147  -0.028763   0.002403   7.950176   0.001593
    12  O   -0.027831  -0.001174   0.000003  -0.000064   0.001593   8.203356
    13  O   -0.001059  -0.033360  -0.000095   0.007828   0.000069   0.001035
    14  O    0.000201  -0.000443   0.003335  -0.024944  -0.004032  -0.000193
    15  C   -0.000999   0.000180  -0.028668  -0.001060  -0.034084  -0.000023
    16  H    0.000066  -0.000025   0.001612   0.002681   0.002615   0.000000
    17  H    0.000156   0.000005  -0.003993  -0.000035  -0.001002   0.000000
    18  O    0.020074   0.000021   0.002177  -0.000050  -0.001995   0.000128
    19  C    0.004569   0.003284  -0.000001   0.000002   0.000016   0.232183
    20  H   -0.000085   0.000288  -0.000001   0.000004  -0.000691  -0.036323
    21  H   -0.000110  -0.000022   0.000000   0.000000   0.000001  -0.030018
    22  H   -0.000163   0.002901   0.000000   0.000029   0.000025  -0.035918
    23  C    0.001056  -0.006015   0.000005  -0.000051  -0.000006   0.000313
    24  H   -0.000210  -0.000017   0.000000  -0.000032   0.000000   0.000052
    25  H    0.000251   0.012241   0.000000  -0.000057   0.000000   0.000162
    26  H    0.000696  -0.001593   0.000000   0.000048  -0.000003   0.001119
    27  C   -0.000005   0.002703   0.000126  -0.004677   0.000104  -0.000003
    28  H    0.000000  -0.000207  -0.000054  -0.000019   0.000010   0.000000
    29  H   -0.000003   0.003879   0.000056  -0.001177  -0.000005   0.000008
    30  H    0.000001   0.000099  -0.000114   0.009172  -0.000006   0.000000
    31  C   -0.000522   0.000004  -0.000136  -0.000004   0.000098  -0.000003
    32  H   -0.000257   0.000000   0.000003   0.000000   0.000000  -0.000001
    33  H    0.000097   0.000000   0.000012  -0.000001  -0.000006   0.000000
    34  H    0.000097   0.000000   0.000000  -0.000001   0.000000   0.000000
              13         14         15         16         17         18
     1  C    0.197968  -0.045035  -0.003368   0.000001  -0.000157   0.002981
     2  C   -0.039053  -0.000511   0.001484  -0.000289   0.000088  -0.012826
     3  C    0.003106   0.011389  -0.002237   0.000442  -0.000586   0.010586
     4  C   -0.001405  -0.045220   0.313089  -0.037748  -0.024031  -0.042049
     5  C   -0.032858   0.177468  -0.035005  -0.006939   0.004661  -0.002650
     6  H   -0.000055  -0.000057  -0.000282   0.000008  -0.000014   0.000114
     7  H   -0.001059   0.000201  -0.000999   0.000066   0.000156   0.020074
     8  H   -0.033360  -0.000443   0.000180  -0.000025   0.000005   0.000021
     9  H   -0.000095   0.003335  -0.028668   0.001612  -0.003993   0.002177
    10  H    0.007828  -0.024944  -0.001060   0.002681  -0.000035  -0.000050
    11  O    0.000069  -0.004032  -0.034084   0.002615  -0.001002  -0.001995
    12  O    0.001035  -0.000193  -0.000023   0.000000   0.000000   0.000128
    13  O    8.242553   0.001466   0.004541   0.000688   0.000051  -0.001333
    14  O    0.001466   8.279635   0.003205   0.000054  -0.000071  -0.000004
    15  C    0.004541   0.003205   4.898313   0.361438   0.352984   0.235797
    16  H    0.000688   0.000054   0.361438   0.567844  -0.046192  -0.035336
    17  H    0.000051  -0.000071   0.352984  -0.046192   0.575922  -0.041008
    18  O   -0.001333  -0.000004   0.235797  -0.035336  -0.041008   8.214621
    19  C    0.000041   0.000744   0.000000   0.000000   0.000000  -0.000002
    20  H    0.000001   0.001191   0.000000   0.000000   0.000000   0.000000
    21  H    0.000000   0.000020   0.000000   0.000000   0.000000   0.000000
    22  H   -0.000012  -0.000112   0.000000   0.000000   0.000000   0.000000
    23  C    0.235832  -0.000081  -0.000090  -0.000035  -0.000001   0.000268
    24  H   -0.030897   0.000001  -0.000008  -0.000004   0.000000  -0.000005
    25  H   -0.035310  -0.000001   0.000010   0.000001   0.000000  -0.000004
    26  H   -0.036233   0.000001   0.000005   0.000000   0.000000   0.000034
    27  C    0.000010   0.236234  -0.000129  -0.000007   0.000003   0.000000
    28  H    0.000001  -0.030782   0.000002   0.000000   0.000000   0.000000
    29  H   -0.000339  -0.036000   0.000019   0.000000   0.000000   0.000000
    30  H    0.000020  -0.035100  -0.000018   0.000002   0.000001   0.000000
    31  C    0.000690   0.000000  -0.038896  -0.003616  -0.004364   0.239780
    32  H   -0.000024   0.000000   0.005346  -0.000107  -0.000156  -0.031056
    33  H    0.000006   0.000000  -0.007131  -0.002198   0.011174  -0.035383
    34  H    0.000212   0.000000  -0.007080   0.010441  -0.002053  -0.036138
              19         20         21         22         23         24
     1  C   -0.006268  -0.000774   0.000047   0.003444  -0.035726   0.004666
     2  C   -0.043777  -0.007021   0.004578  -0.003245  -0.002579  -0.000161
     3  C   -0.005805   0.009052  -0.000008  -0.000403   0.000316   0.000007
     4  C    0.000064  -0.000052  -0.000001  -0.000004  -0.000105   0.000012
     5  C   -0.000350  -0.000112   0.000006  -0.000652   0.004590  -0.000130
     6  H    0.000017  -0.000165  -0.000178   0.000208  -0.000001   0.000000
     7  H    0.004569  -0.000085  -0.000110  -0.000163   0.001056  -0.000210
     8  H    0.003284   0.000288  -0.000022   0.002901  -0.006015  -0.000017
     9  H   -0.000001  -0.000001   0.000000   0.000000   0.000005   0.000000
    10  H    0.000002   0.000004   0.000000   0.000029  -0.000051  -0.000032
    11  O    0.000016  -0.000691   0.000001   0.000025  -0.000006   0.000000
    12  O    0.232183  -0.036323  -0.030018  -0.035918   0.000313   0.000052
    13  O    0.000041   0.000001   0.000000  -0.000012   0.235832  -0.030897
    14  O    0.000744   0.001191   0.000020  -0.000112  -0.000081   0.000001
    15  C    0.000000   0.000000   0.000000   0.000000  -0.000090  -0.000008
    16  H    0.000000   0.000000   0.000000   0.000000  -0.000035  -0.000004
    17  H    0.000000   0.000000   0.000000   0.000000  -0.000001   0.000000
    18  O   -0.000002   0.000000   0.000000   0.000000   0.000268  -0.000005
    19  C    4.940374   0.362120   0.385620   0.368667  -0.000014  -0.000001
    20  H    0.362120   0.578662  -0.026285  -0.042862   0.000007   0.000000
    21  H    0.385620  -0.026285   0.498079  -0.029966   0.000000   0.000000
    22  H    0.368667  -0.042862  -0.029966   0.560612  -0.000053  -0.000004
    23  C   -0.000014   0.000007   0.000000  -0.000053   4.911112   0.384489
    24  H   -0.000001   0.000000   0.000000  -0.000004   0.384489   0.517501
    25  H   -0.000017   0.000000   0.000005   0.000077   0.367618  -0.028385
    26  H   -0.000052   0.000011  -0.000012   0.000006   0.365306  -0.030731
    27  C    0.000024   0.000003  -0.000001   0.000142  -0.000001   0.000000
    28  H   -0.000003   0.000000   0.000000   0.000007   0.000000   0.000000
    29  H   -0.000126  -0.000033  -0.000004   0.000334   0.000027  -0.000002
    30  H    0.000007   0.000005   0.000000   0.000000  -0.000001   0.000000
    31  C    0.000000   0.000000   0.000000   0.000000   0.000022   0.000008
    32  H    0.000000   0.000000   0.000000   0.000000   0.000016   0.000000
    33  H    0.000000   0.000000   0.000000   0.000000   0.000000   0.000000
    34  H    0.000000   0.000000   0.000000   0.000000  -0.000018   0.000008
              25         26         27         28         29         30
     1  C   -0.007317  -0.007360  -0.004591  -0.000088   0.003461  -0.000627
     2  C   -0.002252   0.008632   0.000279   0.000002  -0.000127  -0.000020
     3  C    0.000004  -0.000077  -0.000278   0.000003  -0.000038   0.000038
     4  C   -0.000009  -0.000009   0.004222  -0.000267   0.000067   0.000209
     5  C    0.000043  -0.000145  -0.031840   0.005127  -0.004973  -0.008559
     6  H   -0.000001   0.000012  -0.000001   0.000000   0.000000   0.000000
     7  H    0.000251   0.000696  -0.000005   0.000000  -0.000003   0.000001
     8  H    0.012241  -0.001593   0.002703  -0.000207   0.003879   0.000099
     9  H    0.000000   0.000000   0.000126  -0.000054   0.000056  -0.000114
    10  H   -0.000057   0.000048  -0.004677  -0.000019  -0.001177   0.009172
    11  O    0.000000  -0.000003   0.000104   0.000010  -0.000005  -0.000006
    12  O    0.000162   0.001119  -0.000003   0.000000   0.000008   0.000000
    13  O   -0.035310  -0.036233   0.000010   0.000001  -0.000339   0.000020
    14  O   -0.000001   0.000001   0.236234  -0.030782  -0.036000  -0.035100
    15  C    0.000010   0.000005  -0.000129   0.000002   0.000019  -0.000018
    16  H    0.000001   0.000000  -0.000007   0.000000   0.000000   0.000002
    17  H    0.000000   0.000000   0.000003   0.000000   0.000000   0.000001
    18  O   -0.000004   0.000034   0.000000   0.000000   0.000000   0.000000
    19  C   -0.000017  -0.000052   0.000024  -0.000003  -0.000126   0.000007
    20  H    0.000000   0.000011   0.000003   0.000000  -0.000033   0.000005
    21  H    0.000005  -0.000012  -0.000001   0.000000  -0.000004   0.000000
    22  H    0.000077   0.000006   0.000142   0.000007   0.000334   0.000000
    23  C    0.367618   0.365306  -0.000001   0.000000   0.000027  -0.000001
    24  H   -0.028385  -0.030731   0.000000   0.000000  -0.000002   0.000000
    25  H    0.575375  -0.043896  -0.000012   0.000000   0.000036   0.000000
    26  H   -0.043896   0.579597   0.000000   0.000000  -0.000001   0.000000
    27  C   -0.000012   0.000000   4.899406   0.386009   0.363340   0.373386
    28  H    0.000000   0.000000   0.386009   0.510835  -0.030168  -0.028441
    29  H    0.000036  -0.000001   0.363340  -0.030168   0.581466  -0.043066
    30  H    0.000000   0.000000   0.373386  -0.028441  -0.043066   0.563181
    31  C    0.000002  -0.000011   0.000000   0.000000   0.000000   0.000000
    32  H    0.000000   0.000015   0.000000   0.000000   0.000000   0.000000
    33  H    0.000000   0.000000   0.000000   0.000000   0.000000   0.000000
    34  H    0.000001  -0.000009   0.000000   0.000000   0.000000   0.000000
              31         32         33         34
     1  C   -0.000225  -0.000008   0.000003   0.000004
     2  C    0.000369   0.000098  -0.000004  -0.000064
     3  C   -0.000271   0.000017  -0.000035   0.000037
     4  C    0.004978  -0.000222   0.000161  -0.000268
     5  C    0.000105   0.000001   0.000005  -0.000051
     6  H   -0.000003   0.000000   0.000000   0.000000
     7  H   -0.000522  -0.000257   0.000097   0.000097
     8  H    0.000004   0.000000   0.000000   0.000000
     9  H   -0.000136   0.000003   0.000012   0.000000
    10  H   -0.000004   0.000000  -0.000001  -0.000001
    11  O    0.000098   0.000000  -0.000006   0.000000
    12  O   -0.000003  -0.000001   0.000000   0.000000
    13  O    0.000690  -0.000024   0.000006   0.000212
    14  O    0.000000   0.000000   0.000000   0.000000
    15  C   -0.038896   0.005346  -0.007131  -0.007080
    16  H   -0.003616  -0.000107  -0.002198   0.010441
    17  H   -0.004364  -0.000156   0.011174  -0.002053
    18  O    0.239780  -0.031056  -0.035383  -0.036138
    19  C    0.000000   0.000000   0.000000   0.000000
    20  H    0.000000   0.000000   0.000000   0.000000
    21  H    0.000000   0.000000   0.000000   0.000000
    22  H    0.000000   0.000000   0.000000   0.000000
    23  C    0.000022   0.000016   0.000000  -0.000018
    24  H    0.000008   0.000000   0.000000   0.000008
    25  H    0.000002   0.000000   0.000000   0.000001
    26  H   -0.000011   0.000015   0.000000  -0.000009
    27  C    0.000000   0.000000   0.000000   0.000000
    28  H    0.000000   0.000000   0.000000   0.000000
    29  H    0.000000   0.000000   0.000000   0.000000
    30  H    0.000000   0.000000   0.000000   0.000000
    31  C    4.887922   0.385386   0.368838   0.371792
    32  H    0.385386   0.519748  -0.029943  -0.029755
    33  H    0.368838  -0.029943   0.576650  -0.043644
    34  H    0.371792  -0.029755  -0.043644   0.572197
 Mulliken charges:
               1
     1  C    0.157180
     2  C    0.019773
     3  C    0.276514
     4  C    0.050433
     5  C    0.041732
     6  H    0.274339
     7  H    0.280624
     8  H    0.179850
     9  H    0.240175
    10  H    0.201687
    11  O   -0.302881
    12  O   -0.474225
    13  O   -0.484087
    14  O   -0.492358
    15  C   -0.017333
    16  H    0.184602
    17  H    0.178620
    18  O   -0.486743
    19  C   -0.241317
    20  H    0.163059
    21  H    0.198250
    22  H    0.176943
    23  C   -0.226201
    24  H    0.183841
    25  H    0.161435
    26  H    0.164648
    27  C   -0.224447
    28  H    0.188037
    29  H    0.163369
    30  H    0.169832
    31  C   -0.211943
    32  H    0.180901
    33  H    0.161398
    34  H    0.164292
 Sum of Mulliken charges =   1.00000
 Mulliken charges with hydrogens summed into heavy atoms:
               1
     1  C    0.337029
     2  C    0.300397
     3  C    0.550853
     4  C    0.290609
     5  C    0.243419
    11  O   -0.302881
    12  O   -0.474225
    13  O   -0.484087
    14  O   -0.492358
    15  C    0.345889
    18  O   -0.486743
    19  C    0.296935
    23  C    0.283723
    27  C    0.296791
    31  C    0.294649
 Electronic spatial extent (au):  <R**2>=           3086.1906
 Charge=              1.0000 electrons
 Dipole moment (field-independent basis, Debye):
    X=              0.1740    Y=             -1.8209    Z=             -0.9477  Tot=              2.0602
 Quadrupole moment (field-independent basis, Debye-Ang):
   XX=            -60.9570   YY=            -75.5840   ZZ=            -74.4943
   XY=              2.0230   XZ=              0.4049   YZ=             -1.2039
 Traceless Quadrupole moment (field-independent basis, Debye-Ang):
   XX=              9.3881   YY=             -5.2389   ZZ=             -4.1492
   XY=              2.0230   XZ=              0.4049   YZ=             -1.2039
 Octapole moment (field-independent basis, Debye-Ang**2):
[...]
 .00020014,0.00040812,-0.00001284,0.00121561,0.01401240,0.00334373,0.00
 005555,-0.00009980,-0.00001000,-0.00000327,0.00000167,0.00000420,-0.00
 001743,0.00001186,0.00000160,-0.00002258,0.00003619,-0.00000007,-0.000
 04601,-0.00002932,-0.00007864,-0.00000279,0.00001121,0.00001975,-0.000
 00602,0.00000937,0.00001792,0.00015030,-0.00032752,0.00031833,-0.00012
 973,-0.00005249,-0.00001912,0.00000413,0.00003067,0.00000234,0.0000240
 9,0.00000220,-0.00000888,0.00000756,0.00002513,0.00000205,-0.06361271,
 -0.24592125,-0.09188560,-0.00445222,-0.01072524,-0.00411725,0.06972105
 ,0.25788919,-0.00123285,-0.00021898,-0.00016417,-0.00002667,-0.0000748
 1,0.00014748,0.00001387,-0.00061624,0.00018093,-0.00038700,0.00021262,
 0.00045139,0.00346236,-0.00171902,-0.00081811,0.00000139,0.00003826,0.
 00001139,0.00006700,0.00000094,0.00007819,0.00009598,0.00062560,0.0002
 6299,0.00019692,0.00014846,0.00011558,-0.00030315,0.00042012,0.0002465
 6,0.00002870,0.00032693,-0.00010444,0.00031905,0.00012955,-0.00005081,
 0.00038606,0.00046448,0.00001951,-0.01960900,-0.01675920,-0.01918881,0
 .00010291,-0.00012292,-0.00032147,0.00002933,0.00001623,0.00000817,-0.
 00012545,0.00003591,-0.00000719,-0.00022730,0.00014473,0.00000583,-0.0
 0025941,-0.00000570,-0.00024411,-0.00000078,0.00000090,0.00002331,0.00
 004204,-0.00000318,0.00005885,0.00030157,0.00037699,-0.00035141,-0.000
 12350,-0.00001147,0.00000287,0.00000668,0.00003650,0.00001590,0.000010
 44,0.00000044,0.00001969,0.00000303,0.00002164,-0.00000813,-0.02814819
 ,-0.08839790,-0.09472822,-0.00430551,-0.01389784,-0.00486741,0.0424731
 1,0.10009908,0.10749802,-0.00064225,-0.00027800,0.00035582,-0.00031568
 ,-0.00009615,0.00007553,0.00026126,-0.00039130,0.00037895,0.00063675,-
 0.00008876,-0.00051423,0.00509488,0.00033386,-0.00438121,-0.00001533,0
 .00000972,0.00000217,0.00005992,0.00007719,-0.00000371,0.00003413,0.00
 002645,0.00006160,-0.00000249,-0.00002492,-0.00003642,0.00026019,-0.00
 102923,0.00124738,-0.00042274,0.00006998,-0.00012554,0.00016334,0.0000
 1510,0.00003287,0.00008526,0.00041687,0.00010449,0.00139733,0.02060725
 ,-0.02678812,0.00006291,-0.00000130,0.00008757,-0.00002476,0.00000481,
 0.00001053,0.00001863,-0.00000191,0.00000148,-0.00002352,-0.00000550,0
 .00000658,-0.00007821,-0.00002846,-0.00008455,-0.00002286,-0.00000273,
 0.00002949,0.00000701,0.00000935,0.00001846,0.00004964,0.00000377,0.00
 002814,-0.00008713,-0.00004604,0.00003065,0.00000952,0.00003196,0.0000
 1374,0.00001281,0.00000753,0.00000863,0.00000391,0.00000637,-0.0000050
 8,-0.09664082,-0.06709596,0.07605617,-0.00733621,-0.01653042,0.0149139
 6,-0.00193295,-0.00455375,0.00713681,0.09937458,-0.00029764,-0.0000398
 5,0.00011732,0.00019595,0.00016580,-0.00008202,-0.00012976,0.00001158,
 -0.00017232,0.00024874,0.00002391,-0.00001644,-0.00225828,0.00091796,0
 .00112739,0.00000036,0.00001593,0.00000069,-0.00002082,-0.00003030,0.0
 0002256,-0.00005492,0.00022071,0.00004997,-0.00005119,-0.00005250,-0.0
 0002641,0.00049575,-0.00047765,-0.00018765,0.00003101,0.00002462,-0.00
 016970,-0.00000945,-0.00002345,0.00002952,0.00019017,-0.00028143,-0.00
 018724,0.00616661,-0.00035116,0.00765836,-0.00004389,-0.00001392,0.000
 09016,0.00001419,-0.00000416,-0.00001204,0.00002467,-0.00000471,-0.000
 00465,0.00008815,-0.00001447,-0.00001687,-0.00003846,0.00003067,-0.000
 05529,0.00000786,0.00000499,-0.00002509,0.00000490,-0.00001319,0.00002
 371,0.00008388,0.00001830,-0.00001285,0.00002443,0.00011495,-0.0000221
 1,0.00000758,-0.00003267,-0.00001461,-0.00001734,-0.00001636,0.0000074
 1,-0.00000577,-0.00000517,0.00000114,-0.06560563,-0.15437787,0.1056679
 0,0.00510205,0.01118405,-0.01063828,-0.01269342,-0.01613851,0.01873153
 ,0.06856735,0.15913514,-0.00049955,-0.00039404,0.00000876,-0.00026799,
 -0.00025319,0.00015323,0.00049742,-0.00049026,0.00057297,0.00008728,0.
 00013046,0.00034687,0.00415373,-0.00276958,-0.00028181,0.00001393,-0.0
 0000080,0.00001618,0.00010371,0.00005959,0.00006284,-0.00000202,0.0000
 8549,0.00000371,0.00005460,0.00005386,0.00001441,-0.00123419,0.0004788
 4,0.00056005,-0.00033108,0.00005029,-0.00010572,0.00022769,0.00012961,
 -0.00008453,-0.00000686,0.00062790,0.00016914,-0.00678771,0.01878559,-
 0.02759695,0.00013066,-0.00007260,-0.00016966,0.00001005,0.00001854,0.
 00000843,-0.00009131,0.00002530,-0.00001715,-0.00021755,0.00007373,0.0
 0001062,-0.00008416,-0.00007534,-0.00010905,-0.00001010,0.00000768,0.0
 0008921,0.00000696,0.00003501,0.00000711,0.00001648,-0.00000279,-0.000
 00371,-0.00014036,-0.00020417,-0.00001707,0.00000375,0.00005838,0.0000
 3210,0.00003334,0.00002391,0.00000729,0.00001585,0.00002927,-0.0000082
 8,0.07084830,0.10475167,-0.16395700,0.00653509,0.00950922,-0.00820621,
 -0.00448043,-0.00875501,0.01172485,-0.06866538,-0.12189208,0.18678292,
 -0.00057886,0.00007840,-0.00052543,-0.00084510,-0.00078551,0.00043030,
 -0.00243408,-0.00079664,0.00072080,-0.00079301,-0.00186308,0.00149461,
 -0.00140019,0.00044220,-0.00100131,-0.00009324,0.00022670,0.00000739,-
 0.00140365,-0.00117852,0.00046492,0.00020025,0.00013542,0.00015438,0.0
 0101236,-0.00030904,-0.00046747,-0.00001541,-0.00007498,-0.00004887,0.
 00197406,0.00041859,-0.00012974,0.00144623,0.00049984,-0.00030147,0.00
 112122,0.00099826,0.00134936,0.00170403,-0.00045049,0.00066945,-0.0145
 2551,0.01709859,-0.00319582,0.00266527,-0.00561827,0.00202977,0.003395
 59,-0.00693975,0.00119115,-0.20648089,0.05429779,0.02270933,-0.0006159
 4,0.00029046,-0.00002360,0.00001770,-0.00007123,0.00002133,0.00013966,
 0.00002121,-0.00003496,0.00005657,-0.00006400,0.00004107,-0.00010841,-
 0.00142558,-0.00052089,-0.00003254,0.00012031,0.00013132,0.00016250,0.
 00026519,0.00008405,0.00000245,0.00011261,-0.00008154,-0.00056376,0.00
 027317,-0.00074830,0.00014458,-0.00006242,0.00007256,0.00007113,0.0000
 3100,0.00013029,0.00002343,-0.00004916,0.00014200,0.46831299,0.0008131
 7,-0.00012961,0.00059720,0.00020865,-0.00015794,-0.00002080,0.00143632
 ,-0.00029688,-0.00106128,0.00084976,-0.00612671,0.00133161,0.00029121,
 -0.00057114,0.00001062,0.00007768,0.00000670,0.00003803,0.00035657,0.0
 0145080,-0.00016046,-0.00007601,-0.00000365,-0.00010737,0.00120610,0.0
 0004921,-0.00013596,-0.00002018,0.00004802,-0.00002150,-0.00097330,0.0
 0022933,0.00020039,-0.00112445,-0.00005680,0.00014635,-0.00061138,-0.0
 0063981,-0.00082584,-0.00020629,0.00027111,-0.00009801,0.04288489,-0.0
 2803409,-0.00378027,-0.00035658,0.00295622,-0.00120982,0.00190779,0.00
 217180,0.00022380,0.01476463,-0.09256297,0.00663777,0.00029121,-0.0002
 7516,0.00003600,-0.00000834,0.00004688,-0.00000147,-0.00011458,0.00000
 602,0.00001834,-0.00004462,0.00003750,-0.00002417,-0.00005443,0.000775
 14,0.00015128,0.00001204,-0.00004348,-0.00007464,-0.00007499,-0.000179
 75,-0.00003505,-0.00004230,-0.00008046,0.00005729,0.00017088,-0.000015
 55,0.00016770,-0.00003328,0.00001842,-0.00001423,0.00000415,-0.0000087
 4,-0.00001655,-0.00001563,0.00001404,-0.00003773,0.03899459,0.61471536
 ,0.00014615,0.00024364,0.00020001,0.00024965,0.00010994,-0.00007843,-0
 .00061825,0.00006477,0.00019610,0.00065779,0.00312686,-0.00208803,0.00
 033806,-0.00006656,0.00040961,-0.00001390,-0.00002288,-0.00000293,0.00
 022136,-0.00001572,-0.00007559,0.00002199,-0.00007946,-0.00004801,-0.0
 0066040,0.00015261,0.00049036,-0.00006995,0.00003511,0.00000091,0.0007
 0653,-0.00115212,0.00032014,-0.00014887,-0.00002812,0.00004599,0.00005
 962,-0.00035124,-0.00036688,-0.00044492,0.00003934,-0.00018863,-0.0118
 4623,0.00408030,-0.00256943,-0.00318574,0.00243531,0.00188956,0.001691
 13,0.00006397,0.00076398,0.03605997,-0.00487521,-0.06932391,0.00005538
 ,-0.00001921,0.00001699,-0.00000860,0.00000184,-0.00000447,-0.00001313
 ,-0.00000133,0.00000552,-0.00000402,0.00000691,-0.00000993,-0.00011456
 ,0.00009934,0.00006702,-0.00000700,-0.00005741,-0.00005050,0.00000696,
 -0.00004618,-0.00002834,0.00000396,0.00000333,-0.00001780,0.00010142,-
 0.00007106,0.00019121,-0.00002952,0.00001180,-0.00002211,-0.00002652,-
 0.00000770,-0.00003209,0.00000176,0.00001683,-0.00002801,0.01544898,-0
 .02430996,0.58083472,-0.00007559,0.00010113,0.00004496,0.00009186,-0.0
 0000699,-0.00014475,0.00020986,0.00039197,0.00011903,0.00040335,0.0021
 7658,-0.00072485,0.00025510,0.00005863,0.00020064,-0.00001335,-0.00003
 777,-0.00000365,-0.00008149,0.00005094,-0.00004302,-0.00000387,-0.0000
 3419,-0.00001259,-0.00059669,0.00004926,0.00018624,-0.00000435,0.00000
 321,0.00000777,-0.00012240,-0.00037951,0.00002147,-0.00001895,-0.00005
 130,0.00001856,0.00003031,-0.00013927,-0.00005687,-0.00028455,0.000002
 44,-0.00010533,-0.00562632,0.00037245,0.00114725,-0.00013980,0.0000258
 2,-0.00024093,0.00006126,0.00050613,0.00022311,-0.00989375,0.04043212,
 -0.01108866,0.00001430,0.00000686,0.00000160,-0.00000042,-0.00000117,-
 0.00000477,-0.00000123,-0.00000258,0.00000241,0.00000320,0.00000238,0.
 00000014,-0.00001324,0.00009656,-0.00001411,-0.00000259,-0.00001323,-0
 .00001537,0.00000029,-0.00002408,0.00000621,-0.00001932,-0.00003165,0.
 00000903,0.00006562,-0.00004713,0.00010601,-0.00001957,0.00000750,-0.0
 0001133,-0.00001660,-0.00000497,-0.00002324,-0.00000014,0.00000534,-0.
 00001716,-0.04893456,-0.01002727,0.00237181,0.06040693,-0.00001127,-0.
 00004953,-0.00008746,-0.00002887,-0.00003360,0.00002566,-0.00017202,-0
 .00016186,0.00007111,-0.00029459,-0.00055223,0.00047829,-0.00013926,-0
 .00004188,-0.00018991,-0.00000382,0.00002974,0.00000119,-0.00005897,-0
 .00018802,0.00001313,0.00001196,0.00002238,0.00001776,0.00021614,-0.00
 002549,-0.00006034,-0.00000091,-0.00000905,-0.00000294,0.00017115,0.00
 017672,-0.00003175,0.00013914,0.00004643,-0.00003084,0.00002480,0.0001
 3366,0.00010278,0.00025496,-0.00003641,0.00011039,0.00202949,0.0025088
 7,-0.00107170,-0.00005343,-0.00005385,0.00013117,-0.00012712,0.0001531
 9,-0.00001318,0.00647525,-0.01140460,0.00199725,-0.00005124,0.00002777
 ,-0.00000373,0.00000095,-0.00000550,0.00000399,0.00001430,0.00000288,-
 0.00000274,0.00000476,-0.00000586,0.00000305,-0.00000634,-0.00012170,-
 0.00002322,-0.00000284,0.00001033,0.00001795,0.00000877,0.00002496,0.0
 0000229,0.00000825,0.00002008,-0.00001764,-0.00006377,0.00003877,-0.00
 009914,0.00001972,-0.00000766,0.00001077,0.00001281,0.00000379,0.00001
 927,0.00000186,-0.00000518,0.00001660,0.00209608,-0.29717855,0.0860433
 0,-0.00886141,0.31954457,-0.00002899,0.00002302,0.00006864,-0.00001714
 ,-0.00001353,-0.00001491,0.00003273,0.00001455,-0.00001340,0.00014047,
 -0.00024483,0.00048351,0.00002533,-0.00003897,-0.00005830,0.00002003,-
 0.00001034,-0.00000069,0.00002416,0.00003285,0.00006021,0.00000623,0.0
 0000217,-0.00001087,0.00004381,0.00001004,-0.00003759,0.00000227,-0.00
 000085,-0.00000068,-0.00011945,0.00001285,0.00004163,-0.00002600,-0.00
 000410,-0.00001062,0.00003947,-0.00007382,-0.00002121,0.00003554,-0.00
 000383,0.00001079,0.00104333,-0.00101875,0.00040630,0.00014596,-0.0003
 3116,0.00028328,0.00000234,0.00029849,0.00002201,0.00058679,-0.0073011
 0,0.00269494,0.00000802,-0.00000657,0.00000384,0.00000031,0.00000017,-
 0.00000011,-0.00000229,0.00000065,0.00000066,-0.00000275,0.00000174,-0
 .00000190,-0.00002956,0.00004517,-0.00000438,-0.00000828,-0.00000034,-
 0.00003054,0.00001240,-0.00002197,0.00000155,-0.00002483,-0.00001944,0
 .00001681,0.00000226,0.00000751,-0.00000858,0.00000171,-0.00000086,0.0
 0000172,0.00000117,-0.00000024,0.00000167,-0.00000076,-0.00000087,0.00
 000102,-0.00183835,0.08948848,-0.08414828,-0.00057445,-0.09383018,0.08
 105985,0.00039560,-0.00004609,0.00019247,0.00018069,0.00007225,0.00001
 203,0.00038328,-0.00013510,-0.00038229,0.00067708,0.00032682,0.0000836
 3,0.00037587,-0.00023123,0.00006622,0.00000984,-0.00001213,0.00000835,
 0.00027864,0.00048662,-0.00016068,-0.00003866,-0.00002660,-0.00004318,
 -0.00019642,0.00006170,0.00011454,-0.00002263,0.00001502,-0.00000451,-
 0.00011410,-0.00008382,-0.00000425,-0.00044551,-0.00004150,0.00008261,
 -0.00027830,-0.00028988,-0.00037816,-0.00024099,0.00010751,-0.00007867
 ,0.00128256,-0.00683163,0.00105113,-0.00018496,0.00073331,-0.00030825,
 0.00024714,0.00173563,0.00035213,-0.04215581,-0.00772665,-0.01277061,0
 .00014332,-0.00011004,0.00000915,-0.00000448,0.00002142,-0.00000180,-0
 .00004590,-0.00000041,0.00000758,-0.00001770,0.00001636,-0.00001044,-0
 .00001445,0.00032767,0.00009427,0.00000609,-0.00002460,-0.00002976,-0.
 00004203,-0.00007404,-0.00002276,-0.00000396,-0.00002474,0.00001742,0.
 00011191,-0.00004140,0.00012511,-0.00002380,0.00001132,-0.00001019,-0.
 00000705,-0.00000330,-0.00001914,-0.00000583,0.00000934,-0.00002635,-0
 .14526101,-0.08839733,-0.08221464,0.00276214,-0.00043378,0.00078936,0.
 17518782,-0.00004985,-0.00002480,-0.00005412,0.00003330,0.00005327,-0.
 00003516,0.00002962,0.00008922,0.00001810,-0.00002356,0.00012839,-0.00
 015383,0.00001574,-0.00005050,0.00006326,-0.00000168,-0.00001399,-0.00
 000078,0.00005980,-0.00006281,-0.00000121,-0.00001090,-0.00001030,0.00
 000349,-0.00002825,-0.00002804,-0.00003607,0.00001087,0.00000579,0.000
 01241,-0.00008268,-0.00003735,0.00006116,0.00000440,-0.00001934,0.0000
 1025,-0.00002416,0.00005534,0.00003819,-0.00008216,0.00001749,-0.00001
 134,0.00240505,0.00411552,0.00208052,-0.00000444,-0.00032989,-0.000190
 34,-0.00162743,0.00073236,-0.00075471,0.01183612,0.00815969,0.00765661
 ,0.00001986,0.00000292,-0.00000560,-0.00000111,0.00000282,-0.00000040,
 0.00000086,-0.00000198,0.00000070,0.00000038,0.00000103,0.,0.00003145,
 -0.00003068,0.00002101,0.00000474,0.00000276,0.00001965,-0.00001442,0.
 00001855,-0.00000590,0.00001406,0.00001576,-0.00001301,0.00001806,-0.0
 0001762,0.00002326,-0.00000563,0.00000232,-0.00000189,-0.00000343,-0.0
 0000013,-0.00000581,-0.00000008,0.00000119,-0.00000489,-0.09275925,-0.
 14047958,-0.07772836,-0.01856298,-0.01460199,-0.01725430,0.09772338,0.
 14041260,0.00002118,-0.00004476,-0.00005465,-0.00000437,-0.00000466,0.
 00000733,0.00004010,-0.00001355,0.00000034,0.00009291,0.00025515,0.000
 08508,0.00002431,-0.00003624,-0.00006019,-0.00000016,0.00000264,-0.000
 00054,-0.00002232,-0.00001304,-0.00000827,-0.00001205,0.00000536,0.000
 00930,-0.00004871,0.00000274,-0.00000303,0.00000453,-0.00000540,0.0000
 0693,-0.00000432,0.00004141,-0.00003343,0.00000924,0.00000265,0.000000
 43,-0.00006138,0.00004930,0.00005262,0.00002202,0.00000514,0.00002673,
 0.00007222,0.00042077,0.00042482,0.00000696,-0.00028884,-0.00041594,-0
 .00050352,0.00046693,-0.00025352,0.00523926,0.00564436,0.00865913,0.00
 000649,-0.00000037,-0.00000265,-0.00000066,0.00000102,0.00000088,0.000
 00110,-0.00000023,0.00000058,0.00000051,0.,0.,0.00003063,0.00000452,-0
 .00000641,0.00000520,0.00001339,0.00001907,-0.00001439,0.00000765,0.00
 000433,0.00000446,-0.00000022,0.00000141,0.00000304,-0.00000203,-0.000
 00831,0.00000136,-0.00000029,0.00000259,0.00000212,0.00000168,0.000001
 00,0.00000010,-0.00000080,-0.00000057,-0.08421086,-0.07810731,-0.12663
 758,0.00808684,0.00643575,0.00717818,0.09116085,0.08449134,0.12646421,
 -0.00000163,0.00008177,0.00035870,0.00015146,0.00003236,-0.00008357,0.
 00071950,0.00020645,-0.00030505,0.00012395,-0.00011565,0.00002255,0.00
 019509,-0.00003140,0.00012689,0.00001092,-0.00002106,-0.00000662,0.000
 18752,0.00036108,0.00001800,0.00000393,-0.00002076,-0.00006780,-0.0001
 2438,0.00000535,0.00002036,-0.00001276,0.00002396,-0.00001493,-0.00040
 952,0.00005142,-0.00012941,-0.00030890,-0.00006481,0.00002620,0.000178
 49,-0.00012172,-0.00024352,-0.00020783,0.00004774,-0.00011227,0.001468
 72,-0.00601689,0.00309436,0.00029787,0.00090085,-0.00129070,-0.0001904
 1,0.00079729,-0.00037211,-0.02579123,0.00810633,0.03676117,0.00010795,
 -0.00006901,0.00000849,0.00000004,0.00001471,-0.00000235,-0.00003005,-
 0.00000127,0.00000311,-0.00001656,0.00001221,-0.00000831,-0.00000725,0
 .00007981,0.00004291,-0.00000786,-0.00002512,-0.00003147,0.00000045,-0
 .00001620,-0.00000461,-0.00000991,-0.00000277,0.00000370,0.00007508,-0
 .00003143,0.00009479,-0.00001779,0.00000751,-0.00000991,-0.00001024,-0
 .00000511,-0.00001637,-0.00000460,0.00000743,-0.00001864,-0.05836387,-
 0.00208866,0.04126371,0.00156455,-0.00118077,-0.00029085,0.00706162,0.
 00107431,-0.01995271,0.07336766,-0.00007574,0.00005612,0.00002563,-0.0
 0001583,0.00000495,-0.00001346,-0.00011778,-0.00001541,0.00012326,0.00
 015273,0.00008440,-0.00011784,-0.00000707,0.00001832,-0.00000820,0.000
 01024,-0.00001913,0.00000220,-0.00001881,-0.00010455,0.00000444,0.0000
 1418,-0.00001010,-0.00000803,0.00002889,0.00000378,0.00000281,0.000010
 32,0.00000158,0.00001583,0.00002372,-0.00011680,0.00009605,0.00004907,
 0.00000086,-0.00001214,0.00012273,-0.00001574,0.00000289,-0.00000690,-
 0.00001929,0.00000812,0.00017686,0.00276642,-0.00384050,-0.00041384,0.
 00005024,0.00088113,-0.00011462,-0.00024269,0.00006684,0.00934882,-0.0
 0075538,-0.01118008,-0.00001170,0.00001468,0.00000151,-0.00000019,-0.0
 0000272,-0.00000051,0.00000540,-0.00000010,-0.00000064,0.00000126,-0.0
 0000124,-0.00000007,-0.00002998,-0.00004640,0.00000200,-0.00000908,-0.
 00000112,-0.00001821,0.00001593,0.00000188,0.00000152,-0.00000683,-0.0
 0000029,0.00000019,-0.00000251,0.00000229,-0.00000123,0.00000017,-0.00
 000083,-0.00000011,-0.00000183,-0.00000080,-0.00000056,0.00000071,-0.0
 0000130,0.00000155,-0.00395249,-0.05595569,0.01229729,-0.00606380,0.00
 173881,0.03023839,0.00288591,0.00189198,-0.01933409,-0.00199794,0.0506
 7323,-0.00000939,-0.00002842,-0.00016412,-0.00009884,-0.00005290,0.000
 06799,-0.00040883,0.00000027,0.00010288,-0.00016208,-0.00032187,0.0003
 6440,-0.00013195,0.00004141,-0.00011871,-0.00000994,0.00001357,0.00000
 194,-0.00012495,-0.00016116,0.00000517,0.00000416,0.00001342,0.0000331
 7,0.00010041,-0.00001106,-0.00006472,0.00001095,-0.00001492,0.00000878
 ,0.00001466,0.00005240,0.00014315,0.00017641,0.00003999,-0.00001404,0.
 00001701,0.00015203,0.00020178,0.00015629,-0.00003994,0.00008648,-0.00
 084949,0.00184818,0.00173173,0.00105725,-0.00160590,-0.00020722,-0.000
 23437,-0.00023273,-0.00040380,0.01076710,-0.00310137,0.00123211,-0.000
 07438,0.00003803,-0.00000760,0.00000220,-0.00000840,0.00000124,0.00001
 611,0.00000070,-0.00000363,0.00000956,-0.00000801,0.00000735,0.0000204
 7,-0.00011917,-0.00006659,-0.00000181,0.00002584,0.00003701,0.00000071
 ,0.00003134,0.00001389,0.00000575,0.00000726,-0.00000414,-0.00005450,0
 .00002776,-0.00007788,0.00001279,-0.00000555,0.00000811,0.00000799,0.0
 0000405,0.00001218,0.00000212,-0.00000717,0.00001404,0.04583556,0.0109
 3754,-0.29971118,0.00052796,-0.00003694,-0.00797455,0.00229882,0.00175
 776,-0.01545985,-0.05888375,-0.00923601,0.32020460\\-0.00000783,-0.000
 00071,0.00000986,0.00001132,-0.00000776,-0.00000647,-0.00001497,0.0000
 1423,-0.00000319,0.00000521,-0.00000290,0.00000377,-0.00000278,0.00001
 102,0.00000625,0.00000880,-0.00000616,0.00000188,-0.00000019,-0.000001
 12,-0.00000240,0.00000047,0.00000159,-0.00000335,-0.00000185,0.0000001
 3,0.00000220,-0.00000241,-0.00000254,0.00000021,-0.00000299,-0.0000044
 0,-0.00000105,0.00000595,-0.00000143,-0.00000142,0.00000887,-0.0000058
 1,0.00000068,-0.00000270,-0.00000730,-0.00000550,-0.00000368,-0.000003
 67,0.00000570,0.00000031,0.00000429,0.00000103,-0.00000044,0.00000229,
 0.00000170,-0.00000034,0.00000661,-0.00000444,-0.00000310,-0.00000249,
 -0.00000135,-0.00000165,-0.00000516,-0.00000106,0.00000168,-0.00000360
 ,-0.00000166,0.00000130,-0.00000287,0.00000073,-0.00000014,0.00000748,
 -0.00000227,0.00000165,0.00000273,-0.00000343,0.00000225,-0.00000105,-
 0.00000065,0.00000534,-0.00000043,-0.00000277,-0.00000425,0.00000081,0
 .00000203,-0.00000206,-0.00000266,0.00000141,-0.00000043,-0.00000217,0
 .00000132,-0.00000162,-0.00000140,0.00000244,-0.00000016,0.00000338,0.
 00000016,0.00000163,0.00000289,-0.00000047,-0.00000044,0.00000371,0.00
 000038,-0.00000076,0.00000445,-0.00000026\\\@


 QED = W**5 (WHICH WAS WHAT WE WANTED)
 Job cpu time:       0 days  1 hours 20 minutes 42.6 seconds.
 Elapsed time:       0 days  0 hours 20 minutes 29.7 seconds.
 File lengths (MBytes):  RWF=    377 Int=      0 D2E=      0 Chk=     16 Scr=      1
 Normal termination of Gaussian 16 at Fri May 24 08:55:38 2019.
