 Entering Gaussian System, Link 0=g16
 Input=clay-glucose_cation-153-b3lyp_d3bj-631gd-pcm_thf.gjf
 Output=clay-glucose_cation-153-b3lyp_d3bj-631gd-pcm_thf.out
 Initial command:
 /n/sw/g16_nehalem/g16/l1.exe "/scratch/Gau-183487.inp" -scrdir="/scratch/"
 Entering Link 1 = /n/sw/g16_nehalem/g16/l1.exe PID=    183496.
  
 Copyright (c) 1988,1990,1992,1993,1995,1998,2003,2009,2016,
            Gaussian, Inc.  All Rights Reserved.
  
 This is part of the Gaussian(R) 16 program.  It is based on
 the Gaussian(R) 09 system (copyright 2009, Gaussian, Inc.),
 the Gaussian(R) 03 system (copyright 2003, Gaussian, Inc.),
 the Gaussian(R) 98 system (copyright 1998, Gaussian, Inc.),
 the Gaussian(R) 94 system (copyright 1995, Gaussian, Inc.),
 the Gaussian 92(TM) system (copyright 1992, Gaussian, Inc.),
 the Gaussian 90(TM) system (copyright 1990, Gaussian, Inc.),
 the Gaussian 88(TM) system (copyright 1988, Gaussian, Inc.),
 the Gaussian 86(TM) system (copyright 1986, Carnegie Mellon
 University), and the Gaussian 82(TM) system (copyright 1983,
 Carnegie Mellon University). Gaussian is a federally registered
 trademark of Gaussian, Inc.
  
 This software contains proprietary and confidential information,
 including trade secrets, belonging to Gaussian, Inc.
  
 This software is provided under written license and may be
 used, copied, transmitted, or stored only in accord with that
 written license.
  
 The following legend is applicable only to US Government
 contracts under FAR:
  
                    RESTRICTED RIGHTS LEGEND
  
 Use, reproduction and disclosure by the US Government is
 subject to restrictions as set forth in subparagraphs (a)
 and (c) of the Commercial Computer Software - Restricted
 Rights clause in FAR 52.227-19.
  
 Gaussian, Inc.
 340 Quinnipiac St., Bldg. 40, Wallingford CT 06492
  
  
 ---------------------------------------------------------------
 Warning -- This program may not be used in any manner that
 competes with the business of Gaussian, Inc. or will provide
 assistance to any competitor of Gaussian, Inc.  The licensee
 of this program is prohibited from giving any competitor of
 Gaussian, Inc. access to this program.  By using this program,
 the user acknowledges that Gaussian, Inc. is engaged in the
 business of creating and licensing software in the field of
 computational chemistry and represents and warrants to the
 licensee that it is not a competitor of Gaussian, Inc. and that
 it will not use this program in any manner prohibited above.
 ---------------------------------------------------------------
  

 Cite this work as:
 Gaussian 16, Revision A.03,
 M. J. Frisch, G. W. Trucks, H. B. Schlegel, G. E. Scuseria, 
 M. A. Robb, J. R. Cheeseman, G. Scalmani, V. Barone, 
 G. A. Petersson, H. Nakatsuji, X. Li, M. Caricato, A. V. Marenich, 
 J. Bloino, B. G. Janesko, R. Gomperts, B. Mennucci, H. P. Hratchian, 
 J. V. Ortiz, A. F. Izmaylov, J. L. Sonnenberg, D. Williams-Young, 
 F. Ding, F. Lipparini, F. Egidi, J. Goings, B. Peng, A. Petrone, 
 T. Henderson, D. Ranasinghe, V. G. Zakrzewski, J. Gao, N. Rega, 
 G. Zheng, W. Liang, M. Hada, M. Ehara, K. Toyota, R. Fukuda, 
 J. Hasegawa, M. Ishida, T. Nakajima, Y. Honda, O. Kitao, H. Nakai, 
 T. Vreven, K. Throssell, J. A. Montgomery, Jr., J. E. Peralta, 
 F. Ogliaro, M. J. Bearpark, J. J. Heyd, E. N. Brothers, K. N. Kudin, 
 V. N. Staroverov, T. A. Keith, R. Kobayashi, J. Normand, 
 K. Raghavachari, A. P. Rendell, J. C. Burant, S. S. Iyengar, 
 J. Tomasi, M. Cossi, J. M. Millam, M. Klene, C. Adamo, R. Cammi, 
 J. W. Ochterski, R. L. Martin, K. Morokuma, O. Farkas, 
 J. B. Foresman, and D. J. Fox, Gaussian, Inc., Wallingford CT, 2016.
 
 ******************************************
 Gaussian 16:  ES64L-G16RevA.03 25-Dec-2016
                24-May-2019 
 ******************************************
 %nprocshared=4
 Will use up to    4 processors via shared memory.
 %mem=3GB
 -------------------------------------------------------------------
 #p b3lyp 6-31g* opt freq=noraman scrf=(pcm,solvent=tetrahydrofuran)
 -------------------------------------------------------------------
 1/18=20,19=15,26=3,38=1/1,3;
 2/9=110,12=2,17=6,18=5,40=1/2;
 3/5=1,6=6,7=1,11=2,25=1,30=1,70=2201,71=1,72=20,74=-5/1,2,3;
 4//1;
 5/5=2,38=5,53=20/2;
 6/7=2,8=2,9=2,10=2,28=1/1;
 7//1,2,3,16;
 1/18=20,19=15,26=3/3(2);
 2/9=110/2;
 99//99;
 2/9=110/2;
 3/5=1,6=6,7=1,11=2,25=1,30=1,70=2205,71=1,72=20,74=-5/1,2,3;
 4/5=5,16=3,69=1/1;
 5/5=2,38=5,53=20/2;
 7//1,2,3,16;
 1/18=20,19=15,26=3/3(-5);
 2/9=110/2;
 6/7=2,8=2,9=2,10=2,19=2,28=1/1;
 99/9=1/99;
 Leave Link    1 at Fri May 24 08:32:03 2019, MaxMem=   402653184 cpu:               0.3 elap:               0.1
 (Enter /n/sw/g16_nehalem/g16/l101.exe)
 -----
 title
 -----
 Symbolic Z-matrix:
 Charge =  1 Multiplicity = 1
 6                    -0.92717   0.64069  -0.70165 
 6                    -1.16888   0.74503   0.8485 
 6                    -0.4468   -0.29198   1.64717 
 6                     1.06772  -0.84293  -0.1483 
 6                    -0.17439  -0.65606  -1.0284 
 1                    -0.76957  -0.50456   2.66814 
 1                    -0.63851   1.66365   1.16549 
 1                    -1.90728   0.5994   -1.19114 
 1                     1.48845  -1.84217  -0.25857 
 1                     0.14467  -0.63313  -2.07815 
 8                     0.58935  -0.9048    1.28883 
 8                    -2.48496   0.90935   1.29225 
 8                    -0.16288   1.7181   -1.18084 
 8                    -1.10554  -1.6873   -0.77477 
 6                     2.19228   0.17303  -0.23995 
 1                     1.86088   1.16686   0.08767 
 1                     2.47004   0.25853  -1.30314 
 8                     3.25411  -0.31411   0.54558 
 6                    -3.37105  -0.20272   1.07931 
 1                    -3.46064  -0.45574   0.01885 
 1                    -3.04102  -1.0907    1.63341 
 1                    -4.3387    0.12016   1.46377 
 6                    -0.89344   2.93848  -1.3292 
 1                    -0.19361   3.66706  -1.74025 
 1                    -1.73681   2.80402  -2.01798 
 1                    -1.27192   3.30583  -0.36617 
 6                    -0.83194  -2.94419  -1.40233 
 1                    -0.73213  -2.8198   -2.48729 
 1                     0.07493  -3.41519  -1.00459 
 1                    -1.68831  -3.58339  -1.18396 
 6                     4.38178   0.5538    0.539 
 1                     4.1266    1.54396   0.94263 
 1                     4.78504   0.67708  -0.47606 
 1                     5.13851   0.08947   1.17409 
 
 ITRead=  0  0  0  0  0  0  0  0  0  0  0  0  0  0  0  0  0  0  0  0
 ITRead=  0  0  0  0  0  0  0  0  0  0  0  0  0  0
 MicOpt= -1 -1 -1 -1 -1 -1 -1 -1 -1 -1 -1 -1 -1 -1 -1 -1 -1 -1 -1 -1
 MicOpt= -1 -1 -1 -1 -1 -1 -1 -1 -1 -1 -1 -1 -1 -1
 NAtoms=     34 NQM=       34 NQMF=       0 NMMI=      0 NMMIF=      0
                NMic=       0 NMicF=      0.
                    Isotopes and Nuclear Properties:
 (Nuclear quadrupole moments (NQMom) in fm**2, nuclear magnetic moments (NMagM)
  in nuclear magnetons)

  Atom         1           2           3           4           5           6           7           8           9          10
 IAtWgt=          12          12          12          12          12           1           1           1           1           1
 AtmWgt=  12.0000000  12.0000000  12.0000000  12.0000000  12.0000000   1.0078250   1.0078250   1.0078250   1.0078250   1.0078250
 NucSpn=           0           0           0           0           0           1           1           1           1           1
 AtZEff=   0.0000000   0.0000000   0.0000000   0.0000000   0.0000000   0.0000000   0.0000000   0.0000000   0.0000000   0.0000000
 NQMom=    0.0000000   0.0000000   0.0000000   0.0000000   0.0000000   0.0000000   0.0000000   0.0000000   0.0000000   0.0000000
 NMagM=    0.0000000   0.0000000   0.0000000   0.0000000   0.0000000   2.7928460   2.7928460   2.7928460   2.7928460   2.7928460
 AtZNuc=   6.0000000   6.0000000   6.0000000   6.0000000   6.0000000   1.0000000   1.0000000   1.0000000   1.0000000   1.0000000

  Atom        11          12          13          14          15          16          17          18          19          20
 IAtWgt=          16          16          16          16          12           1           1          16          12           1
 AtmWgt=  15.9949146  15.9949146  15.9949146  15.9949146  12.0000000   1.0078250   1.0078250  15.9949146  12.0000000   1.0078250
 NucSpn=           0           0           0           0           0           1           1           0           0           1
 AtZEff=   0.0000000   0.0000000   0.0000000   0.0000000   0.0000000   0.0000000   0.0000000   0.0000000   0.0000000   0.0000000
 NQMom=    0.0000000   0.0000000   0.0000000   0.0000000   0.0000000   0.0000000   0.0000000   0.0000000   0.0000000   0.0000000
 NMagM=    0.0000000   0.0000000   0.0000000   0.0000000   0.0000000   2.7928460   2.7928460   0.0000000   0.0000000   2.7928460
 AtZNuc=   8.0000000   8.0000000   8.0000000   8.0000000   6.0000000   1.0000000   1.0000000   8.0000000   6.0000000   1.0000000

  Atom        21          22          23          24          25          26          27          28          29          30
 IAtWgt=           1           1          12           1           1           1          12           1           1           1
 AtmWgt=   1.0078250   1.0078250  12.0000000   1.0078250   1.0078250   1.0078250  12.0000000   1.0078250   1.0078250   1.0078250
 NucSpn=           1           1           0           1           1           1           0           1           1           1
 AtZEff=   0.0000000   0.0000000   0.0000000   0.0000000   0.0000000   0.0000000   0.0000000   0.0000000   0.0000000   0.0000000
 NQMom=    0.0000000   0.0000000   0.0000000   0.0000000   0.0000000   0.0000000   0.0000000   0.0000000   0.0000000   0.0000000
 NMagM=    2.7928460   2.7928460   0.0000000   2.7928460   2.7928460   2.7928460   0.0000000   2.7928460   2.7928460   2.7928460
 AtZNuc=   1.0000000   1.0000000   6.0000000   1.0000000   1.0000000   1.0000000   6.0000000   1.0000000   1.0000000   1.0000000

  Atom        31          32          33          34
 IAtWgt=          12           1           1           1
 AtmWgt=  12.0000000   1.0078250   1.0078250   1.0078250
 NucSpn=           0           1           1           1
 AtZEff=   0.0000000   0.0000000   0.0000000   0.0000000
 NQMom=    0.0000000   0.0000000   0.0000000   0.0000000
 NMagM=    0.0000000   2.7928460   2.7928460   2.7928460
 AtZNuc=   6.0000000   1.0000000   1.0000000   1.0000000
 Leave Link  101 at Fri May 24 08:32:04 2019, MaxMem=   402653184 cpu:               0.6 elap:               0.2
 (Enter /n/sw/g16_nehalem/g16/l103.exe)

 GradGradGradGradGradGradGradGradGradGradGradGradGradGradGradGradGradGrad
 Berny optimization.
 Initialization pass.
                           ----------------------------
                           !    Initial Parameters    !
                           ! (Angstroms and Degrees)  !
 --------------------------                            --------------------------
 ! Name  Definition              Value          Derivative Info.                !
 --------------------------------------------------------------------------------
 ! R1    R(1,2)                  1.5723         estimate D2E/DX2                !
 ! R2    R(1,5)                  1.5346         estimate D2E/DX2                !
 ! R3    R(1,8)                  1.0963         estimate D2E/DX2                !
 ! R4    R(1,13)                 1.4052         estimate D2E/DX2                !
 ! R5    R(2,3)                  1.4949         estimate D2E/DX2                !
 ! R6    R(2,7)                  1.1071         estimate D2E/DX2                !
 ! R7    R(2,12)                 1.3986         estimate D2E/DX2                !
 ! R8    R(3,6)                  1.0917         estimate D2E/DX2                !
 ! R9    R(3,11)                 1.256          estimate D2E/DX2                !
 ! R10   R(4,5)                  1.5337         estimate D2E/DX2                !
 ! R11   R(4,9)                  1.0898         estimate D2E/DX2                !
 ! R12   R(4,11)                 1.5159         estimate D2E/DX2                !
 ! R13   R(4,15)                 1.5183         estimate D2E/DX2                !
 ! R14   R(5,10)                 1.0974         estimate D2E/DX2                !
 ! R15   R(5,14)                 1.4124         estimate D2E/DX2                !
 ! R16   R(12,19)                1.4378         estimate D2E/DX2                !
 ! R17   R(13,23)                1.43           estimate D2E/DX2                !
 ! R18   R(14,27)                1.4312         estimate D2E/DX2                !
 ! R19   R(15,16)                1.0977         estimate D2E/DX2                !
 ! R20   R(15,17)                1.1022         estimate D2E/DX2                !
 ! R21   R(15,18)                1.4078         estimate D2E/DX2                !
 ! R22   R(18,31)                1.423          estimate D2E/DX2                !
 ! R23   R(19,20)                1.0939         estimate D2E/DX2                !
 ! R24   R(19,21)                1.0975         estimate D2E/DX2                !
 ! R25   R(19,22)                1.0901         estimate D2E/DX2                !
 ! R26   R(23,24)                1.0907         estimate D2E/DX2                !
 ! R27   R(23,25)                1.0972         estimate D2E/DX2                !
 ! R28   R(23,26)                1.098          estimate D2E/DX2                !
 ! R29   R(27,28)                1.0966         estimate D2E/DX2                !
 ! R30   R(27,29)                1.0966         estimate D2E/DX2                !
 ! R31   R(27,30)                1.0907         estimate D2E/DX2                !
 ! R32   R(31,32)                1.0993         estimate D2E/DX2                !
 ! R33   R(31,33)                1.0992         estimate D2E/DX2                !
 ! R34   R(31,34)                1.0916         estimate D2E/DX2                !
 ! A1    A(2,1,5)              109.9622         estimate D2E/DX2                !
 ! A2    A(2,1,8)              107.7727         estimate D2E/DX2                !
 ! A3    A(2,1,13)             111.6499         estimate D2E/DX2                !
 ! A4    A(5,1,8)              108.1584         estimate D2E/DX2                !
 ! A5    A(5,1,13)             107.9679         estimate D2E/DX2                !
 ! A6    A(8,1,13)             111.2767         estimate D2E/DX2                !
 ! A7    A(1,2,3)              113.9814         estimate D2E/DX2                !
 ! A8    A(1,2,7)              105.2896         estimate D2E/DX2                !
 ! A9    A(1,2,12)             117.7277         estimate D2E/DX2                !
 ! A10   A(3,2,7)              101.0244         estimate D2E/DX2                !
 ! A11   A(3,2,12)             111.502          estimate D2E/DX2                !
 ! A12   A(7,2,12)             105.2171         estimate D2E/DX2                !
 ! A13   A(2,3,6)              119.4679         estimate D2E/DX2                !
 ! A14   A(2,3,11)             125.7692         estimate D2E/DX2                !
 ! A15   A(6,3,11)             114.5648         estimate D2E/DX2                !
 ! A16   A(5,4,9)              111.4883         estimate D2E/DX2                !
 ! A17   A(5,4,11)             107.0621         estimate D2E/DX2                !
 ! A18   A(5,4,15)             118.9256         estimate D2E/DX2                !
 ! A19   A(9,4,11)             100.3892         estimate D2E/DX2                !
 ! A20   A(9,4,15)             108.7531         estimate D2E/DX2                !
 ! A21   A(11,4,15)            108.5586         estimate D2E/DX2                !
 ! A22   A(1,5,4)              112.2125         estimate D2E/DX2                !
 ! A23   A(1,5,10)             109.1863         estimate D2E/DX2                !
 ! A24   A(1,5,14)             104.794          estimate D2E/DX2                !
 ! A25   A(4,5,10)             108.4207         estimate D2E/DX2                !
 ! A26   A(4,5,14)             109.9933         estimate D2E/DX2                !
 ! A27   A(10,5,14)            112.2541         estimate D2E/DX2                !
 ! A28   A(3,11,4)             120.7229         estimate D2E/DX2                !
 ! A29   A(2,12,19)            116.2367         estimate D2E/DX2                !
 ! A30   A(1,13,23)            114.3203         estimate D2E/DX2                !
 ! A31   A(5,14,27)            115.8764         estimate D2E/DX2                !
 ! A32   A(4,15,16)            111.359          estimate D2E/DX2                !
 ! A33   A(4,15,17)            107.2648         estimate D2E/DX2                !
 ! A34   A(4,15,18)            107.0632         estimate D2E/DX2                !
 ! A35   A(16,15,17)           107.0831         estimate D2E/DX2                !
 ! A36   A(16,15,18)           111.9922         estimate D2E/DX2                !
 ! A37   A(17,15,18)           112.0253         estimate D2E/DX2                !
 ! A38   A(15,18,31)           112.5869         estimate D2E/DX2                !
 ! A39   A(12,19,20)           111.8976         estimate D2E/DX2                !
 ! A40   A(12,19,21)           111.4516         estimate D2E/DX2                !
 ! A41   A(12,19,22)           105.4107         estimate D2E/DX2                !
 ! A42   A(20,19,21)           109.0824         estimate D2E/DX2                !
 ! A43   A(20,19,22)           109.7367         estimate D2E/DX2                !
 ! A44   A(21,19,22)           109.1784         estimate D2E/DX2                !
 ! A45   A(13,23,24)           106.3425         estimate D2E/DX2                !
 ! A46   A(13,23,25)           110.6853         estimate D2E/DX2                !
 ! A47   A(13,23,26)           111.7535         estimate D2E/DX2                !
 ! A48   A(24,23,25)           109.7851         estimate D2E/DX2                !
 ! A49   A(24,23,26)           109.1612         estimate D2E/DX2                !
 ! A50   A(25,23,26)           109.0654         estimate D2E/DX2                !
 ! A51   A(14,27,28)           110.5847         estimate D2E/DX2                !
 ! A52   A(14,27,29)           112.1013         estimate D2E/DX2                !
 ! A53   A(14,27,30)           106.0675         estimate D2E/DX2                !
 ! A54   A(28,27,29)           109.4095         estimate D2E/DX2                !
 ! A55   A(28,27,30)           109.6345         estimate D2E/DX2                !
 ! A56   A(29,27,30)           108.9653         estimate D2E/DX2                !
 ! A57   A(18,31,32)           111.3283         estimate D2E/DX2                !
 ! A58   A(18,31,33)           111.3098         estimate D2E/DX2                !
 ! A59   A(18,31,34)           106.6919         estimate D2E/DX2                !
 ! A60   A(32,31,33)           108.8577         estimate D2E/DX2                !
 ! A61   A(32,31,34)           109.2955         estimate D2E/DX2                !
 ! A62   A(33,31,34)           109.3089         estimate D2E/DX2                !
 ! D1    D(5,1,2,3)              9.032          estimate D2E/DX2                !
 ! D2    D(5,1,2,7)            118.8225         estimate D2E/DX2                !
 ! D3    D(5,1,2,12)          -124.3632         estimate D2E/DX2                !
 ! D4    D(8,1,2,3)            126.717          estimate D2E/DX2                !
 ! D5    D(8,1,2,7)           -123.4925         estimate D2E/DX2                !
 ! D6    D(8,1,2,12)            -6.6781         estimate D2E/DX2                !
 ! D7    D(13,1,2,3)          -110.7888         estimate D2E/DX2                !
 ! D8    D(13,1,2,7)            -0.9983         estimate D2E/DX2                !
 ! D9    D(13,1,2,12)          115.816          estimate D2E/DX2                !
 ! D10   D(2,1,5,4)            -49.7525         estimate D2E/DX2                !
 ! D11   D(2,1,5,10)          -169.9835         estimate D2E/DX2                !
 ! D12   D(2,1,5,14)            69.5766         estimate D2E/DX2                !
 ! D13   D(8,1,5,4)           -167.1979         estimate D2E/DX2                !
 ! D14   D(8,1,5,10)            72.5711         estimate D2E/DX2                !
 ! D15   D(8,1,5,14)           -47.8688         estimate D2E/DX2                !
 ! D16   D(13,1,5,4)            72.2823         estimate D2E/DX2                !
 ! D17   D(13,1,5,10)          -47.9487         estimate D2E/DX2                !
 ! D18   D(13,1,5,14)         -168.3886         estimate D2E/DX2                !
 ! D19   D(2,1,13,23)          -77.3958         estimate D2E/DX2                !
 ! D20   D(5,1,13,23)          161.6155         estimate D2E/DX2                !
 ! D21   D(8,1,13,23)           43.0687         estimate D2E/DX2                !
 ! D22   D(1,2,3,6)           -161.5572         estimate D2E/DX2                !
 ! D23   D(1,2,3,11)            23.8485         estimate D2E/DX2                !
 ! D24   D(7,2,3,6)             86.0656         estimate D2E/DX2                !
 ! D25   D(7,2,3,11)           -88.5287         estimate D2E/DX2                !
 ! D26   D(12,2,3,6)           -25.2907         estimate D2E/DX2                !
 ! D27   D(12,2,3,11)          160.1151         estimate D2E/DX2                !
 ! D28   D(1,2,12,19)           67.153          estimate D2E/DX2                !
 ! D29   D(3,2,12,19)          -67.321          estimate D2E/DX2                !
 ! D30   D(7,2,12,19)         -175.9936         estimate D2E/DX2                !
 ! D31   D(2,3,11,4)           -12.4835         estimate D2E/DX2                !
 ! D32   D(6,3,11,4)           172.6906         estimate D2E/DX2                !
 ! D33   D(9,4,5,1)            169.5806         estimate D2E/DX2                !
 ! D34   D(9,4,5,10)           -69.745          estimate D2E/DX2                !
 ! D35   D(9,4,5,14)            53.3444         estimate D2E/DX2                !
 ! D36   D(11,4,5,1)            60.7028         estimate D2E/DX2                !
 ! D37   D(11,4,5,10)         -178.6229         estimate D2E/DX2                !
 ! D38   D(11,4,5,14)          -55.5335         estimate D2E/DX2                !
 ! D39   D(15,4,5,1)           -62.6633         estimate D2E/DX2                !
 ! D40   D(15,4,5,10)           58.011          estimate D2E/DX2                !
 ! D41   D(15,4,5,14)         -178.8996         estimate D2E/DX2                !
 ! D42   D(5,4,11,3)           -29.7171         estimate D2E/DX2                !
 ! D43   D(9,4,11,3)          -146.1937         estimate D2E/DX2                !
 ! D44   D(15,4,11,3)           99.8318         estimate D2E/DX2                !
 ! D45   D(5,4,15,16)           63.8134         estimate D2E/DX2                !
 ! D46   D(5,4,15,17)          -53.0488         estimate D2E/DX2                !
 ! D47   D(5,4,15,18)         -173.4589         estimate D2E/DX2                !
 ! D48   D(9,4,15,16)         -167.1656         estimate D2E/DX2                !
 ! D49   D(9,4,15,17)           75.9722         estimate D2E/DX2                !
 ! D50   D(9,4,15,18)          -44.4379         estimate D2E/DX2                !
 ! D51   D(11,4,15,16)         -58.8123         estimate D2E/DX2                !
 ! D52   D(11,4,15,17)        -175.6745         estimate D2E/DX2                !
 ! D53   D(11,4,15,18)          63.9154         estimate D2E/DX2                !
 ! D54   D(1,5,14,27)          160.0599         estimate D2E/DX2                !
 ! D55   D(4,5,14,27)          -79.1316         estimate D2E/DX2                !
 ! D56   D(10,5,14,27)          41.6789         estimate D2E/DX2                !
 ! D57   D(2,12,19,20)         -59.4866         estimate D2E/DX2                !
 ! D58   D(2,12,19,21)          62.9601         estimate D2E/DX2                !
 ! D59   D(2,12,19,22)        -178.7173         estimate D2E/DX2                !
 ! D60   D(1,13,23,24)        -177.8508         estimate D2E/DX2                !
 ! D61   D(1,13,23,25)         -58.6569         estimate D2E/DX2                !
 ! D62   D(1,13,23,26)          63.1185         estimate D2E/DX2                !
 ! D63   D(5,14,27,28)         -55.7588         estimate D2E/DX2                !
 ! D64   D(5,14,27,29)          66.6292         estimate D2E/DX2                !
 ! D65   D(5,14,27,30)        -174.5552         estimate D2E/DX2                !
 ! D66   D(4,15,18,31)         179.8047         estimate D2E/DX2                !
 ! D67   D(16,15,18,31)        -57.8622         estimate D2E/DX2                !
 ! D68   D(17,15,18,31)         62.478          estimate D2E/DX2                !
 ! D69   D(15,18,31,32)         60.648          estimate D2E/DX2                !
 ! D70   D(15,18,31,33)        -61.0038         estimate D2E/DX2                !
 ! D71   D(15,18,31,34)        179.8192         estimate D2E/DX2                !
 --------------------------------------------------------------------------------
 Trust Radius=3.00D-01 FncErr=1.00D-07 GrdErr=1.00D-06 EigMax=2.50D+02 EigMin=1.00D-04
 Number of steps in this run=    177 maximum allowed number of steps=    204.
 GradGradGradGradGradGradGradGradGradGradGradGradGradGradGradGradGradGrad

 Leave Link  103 at Fri May 24 08:32:04 2019, MaxMem=   402653184 cpu:               0.2 elap:               0.1
 (Enter /n/sw/g16_nehalem/g16/l202.exe)
                          Input orientation:                          
 ---------------------------------------------------------------------
 Center     Atomic      Atomic             Coordinates (Angstroms)
 Number     Number       Type             X           Y           Z
 ---------------------------------------------------------------------
      1          6           0       -0.927167    0.640691   -0.701650
      2          6           0       -1.168884    0.745027    0.848498
      3          6           0       -0.446803   -0.291983    1.647170
      4          6           0        1.067724   -0.842931   -0.148300
      5          6           0       -0.174390   -0.656057   -1.028402
      6          1           0       -0.769569   -0.504557    2.668135
      7          1           0       -0.638509    1.663649    1.165488
      8          1           0       -1.907278    0.599397   -1.191135
      9          1           0        1.488452   -1.842169   -0.258573
     10          1           0        0.144673   -0.633126   -2.078145
     11          8           0        0.589345   -0.904804    1.288831
     12          8           0       -2.484957    0.909348    1.292246
     13          8           0       -0.162882    1.718099   -1.180837
     14          8           0       -1.105536   -1.687302   -0.774770
     15          6           0        2.192282    0.173028   -0.239953
     16          1           0        1.860878    1.166862    0.087668
     17          1           0        2.470036    0.258527   -1.303141
     18          8           0        3.254111   -0.314113    0.545579
     19          6           0       -3.371051   -0.202718    1.079310
     20          1           0       -3.460639   -0.455737    0.018851
     21          1           0       -3.041020   -1.090704    1.633409
     22          1           0       -4.338703    0.120156    1.463770
     23          6           0       -0.893437    2.938475   -1.329198
     24          1           0       -0.193606    3.667063   -1.740248
     25          1           0       -1.736811    2.804015   -2.017983
     26          1           0       -1.271920    3.305834   -0.366168
     27          6           0       -0.831938   -2.944194   -1.402334
     28          1           0       -0.732134   -2.819799   -2.487286
     29          1           0        0.074931   -3.415191   -1.004590
     30          1           0       -1.688310   -3.583389   -1.183963
     31          6           0        4.381783    0.553801    0.539000
     32          1           0        4.126603    1.543956    0.942633
     33          1           0        4.785040    0.677083   -0.476060
     34          1           0        5.138509    0.089468    1.174086
 ---------------------------------------------------------------------
                    Distance matrix (angstroms):
                    1          2          3          4          5
     1  C    0.000000
     2  C    1.572346   0.000000
     3  C    2.572467   1.494880   0.000000
     4  C    2.546943   2.918498   2.412685   0.000000
     5  C    1.534599   2.544564   2.713935   1.533737   0.000000
     6  H    3.562567   2.243210   1.091666   3.379711   3.747209
     7  H    2.148481   1.107089   2.023182   3.304575   3.226391
     8  H    1.096320   2.174060   3.314140   3.466764   2.146054
     9  H    3.492295   3.870481   3.127322   1.089793   2.182783
    10  H    2.160136   3.491415   3.787373   2.149498   1.097400
    11  O    2.941153   2.450960   1.256009   1.515922   2.452496
    12  O    2.544505   1.398557   2.392329   4.215115   3.629686
    13  O    1.405190   2.465179   3.481187   3.023144   2.379072
    14  O    2.335961   2.924934   2.871696   2.414226   1.412384
    15  C    3.187920   3.579015   3.277535   1.518290   2.628720
    16  H    2.945008   3.152184   3.144148   2.173486   2.951434
    17  H    3.471142   4.255346   4.185134   2.124464   2.811571
    18  O    4.466578   4.558116   3.861445   2.354019   3.788002
    19  C    3.139383   2.408534   2.980211   4.649691   3.855724
    20  H    2.853026   2.717037   3.429496   4.547959   3.454895
    21  H    3.594246   2.736948   2.714426   4.485271   3.935953
    22  H    4.074135   3.288887   3.917956   5.723265   4.914767
    23  C    2.382177   3.103135   4.415213   4.420374   3.678066
    24  H    3.282640   4.023813   5.216585   4.946241   4.381377
    25  H    2.658614   3.574729   4.968166   4.966019   3.923331
    26  H    2.708208   2.836153   4.204597   4.767982   4.164097
    27  C    3.653960   4.334758   4.059806   3.097842   2.409931
    28  H    3.898913   4.901652   4.854379   3.552232   2.668558
    29  H    4.188813   4.721062   4.130190   2.887108   2.770478
    30  H    4.319122   4.809978   4.515530   4.022242   3.299307
    31  C    5.452679   5.562577   5.025797   3.661452   4.967818
    32  H    5.390746   5.356242   4.978261   4.030398   5.217622
    33  H    5.716776   6.099859   5.728820   4.029430   5.165103
    34  H    6.372963   6.349722   5.618276   4.380567   5.799453
                    6          7          8          9         10
     6  H    0.000000
     7  H    2.641258   0.000000
     8  H    4.172177   2.880291   0.000000
     9  H    3.931092   4.340815   4.285079   0.000000
    10  H    4.835240   4.050889   2.552725   2.564833   0.000000
    11  O    1.977201   2.849524   3.827006   2.020274   3.407062
    12  O    2.614336   1.998601   2.568456   5.075812   4.544636
    13  O    4.485850   2.394666   2.072322   4.031499   2.535352
    14  O    3.655866   3.900204   2.458687   2.649380   2.091195
    15  C    4.205789   3.494366   4.230004   2.134653   2.867322
    16  H    4.046196   2.766845   4.019497   3.051696   3.297888
    17  H    5.181541   4.210885   4.391994   2.543138   2.608254
    18  O    4.553187   4.410025   5.521831   2.469649   4.080968
    19  C    3.063198   3.310217   2.817967   5.300236   4.745007
    20  H    3.776632   3.710929   2.233899   5.147102   4.174582
    21  H    2.563926   3.684762   3.481359   4.965925   4.912601
    22  H    3.818308   4.020296   3.631807   6.385368   5.763094
    23  C    5.277166   2.813117   2.553081   5.447402   3.794065
    24  H    6.096555   3.557374   3.556511   5.947799   4.326688
    25  H    5.817380   3.555445   2.360737   5.923248   3.918870
    26  H    4.896778   2.333228   2.899836   5.842360   4.522500
    27  C    4.745992   5.278574   3.709178   2.811914   2.598370
    28  H    5.651558   5.783842   3.840817   3.294529   2.391177
    29  H    4.761710   5.568918   4.481168   2.242539   2.982829
    30  H    5.016169   5.844092   4.188520   3.738985   3.586564
    31  C    5.673602   5.179535   6.522862   3.840333   5.119702
    32  H    5.580884   4.771822   6.469380   4.457418   5.451656
    33  H    6.491218   5.751772   6.730861   4.154687   5.080977
    34  H    6.122943   5.987659   7.449659   4.371115   6.003128
                   11         12         13         14         15
    11  O    0.000000
    12  O    3.569663   0.000000
    13  O    3.680316   3.487442   0.000000
    14  O    2.782692   3.594155   3.556718   0.000000
    15  C    2.463394   4.976582   2.969731   3.823933   0.000000
    16  H    2.711344   4.517035   2.451239   4.205908   1.097666
    17  H    3.407148   5.631302   3.012900   4.104892   1.102191
    18  O    2.828837   5.915342   4.334310   4.757677   1.407781
    19  C    4.027600   1.437774   4.369228   3.282402   5.729949
    20  H    4.268124   2.106406   4.127955   2.773643   5.693667
    21  H    3.651417   2.103760   4.908465   3.146642   5.700347
    22  H    5.036547   2.022033   5.194694   4.327971   6.749758
    23  C    4.880933   3.677263   1.430049   4.663710   4.284369
    24  H    5.539883   4.695881   2.027892   5.516610   4.489056
    25  H    5.486471   3.886785   2.087410   4.702767   5.051857
    26  H    4.892116   3.156729   2.101084   5.012589   4.672376
    27  C    3.663540   4.984277   4.715260   1.431248   4.496010
    28  H    4.435377   5.591403   4.756404   2.086789   4.749708
    29  H    3.438960   5.525407   5.141817   2.105213   4.235937
    30  H    4.298516   5.191430   5.516585   2.025391   5.482775
    31  C    4.131871   6.917074   4.996740   6.071178   2.354925
    32  H    4.316071   6.651141   4.789481   6.384809   2.649444
    33  H    4.818824   7.485567   5.105130   6.354402   2.651832
    34  H    4.657965   7.668337   6.025184   6.778130   3.269058
                   16         17         18         19         20
    16  H    0.000000
    17  H    1.769321   0.000000
    18  O    2.084243   2.088170   0.000000
    19  C    5.498380   6.325118   6.647560   0.000000
    20  H    5.563821   6.118067   6.736866   1.093900   0.000000
    21  H    5.613780   6.388700   6.435460   1.097481   1.784954
    22  H    6.436152   7.350773   7.660450   1.090141   1.786180
    23  C    3.568245   4.300669   5.594307   4.669751   4.464128
    24  H    3.716610   4.347892   5.741212   5.746414   5.546658
    25  H    4.478549   4.968709   6.419024   4.615670   4.212631
    26  H    3.820418   4.915916   5.866878   4.336553   4.368998
    27  C    5.135382   4.601119   5.235216   4.485682   3.888734
    28  H    5.408102   4.596975   5.600614   5.151078   4.394798
    29  H    5.037643   4.395664   4.703923   5.151448   4.722929
    30  H    6.064542   5.662717   6.173087   4.402608   3.790794
    31  C    2.633345   2.671226   1.423012   7.808373   7.924223
    32  H    2.450852   3.072465   2.090769   7.699634   7.900531
    33  H    3.018012   2.493691   2.090445   8.349554   8.337832
    34  H    3.617174   3.644994   2.027031   8.515102   8.693513
                   21         22         23         24         25
    21  H    0.000000
    22  H    1.782958   0.000000
    23  C    5.442742   5.254850   0.000000
    24  H    6.490429   6.326777   1.090672   0.000000
    25  H    5.495677   5.108380   1.097171   1.789824   0.000000
    26  H    5.143692   4.785643   1.098011   1.783632   1.787859
    27  C    4.187028   5.468290   5.883445   6.650592   5.851472
    28  H    5.029995   6.104221   5.875790   6.551905   5.732094
    29  H    4.698024   6.170222   6.435229   7.125421   6.556516
    30  H    3.997610   5.267952   6.571729   7.423789   6.441807
    31  C    7.681154   8.780098   6.083155   5.985111   7.002772
    32  H    7.667687   8.600011   5.683898   5.510866   6.688245
    33  H    8.295911   9.344292   6.171454   5.943490   7.031067
    34  H    8.276985   9.481688   7.125142   7.051523   8.051590
                   26         27         28         29         30
    26  H    0.000000
    27  C    6.350596   0.000000
    28  H    6.504913   1.096611   0.000000
    29  H    6.884313   1.096563   1.790037   0.000000
    30  H    6.950076   1.090701   1.787734   1.780304   0.000000
    31  C    6.352745   6.571730   6.833135   6.056777   7.545262
    32  H    5.827626   7.087277   7.376586   6.693345   8.038986
    33  H    6.603724   6.747005   6.834649   6.261883   7.781838
    34  H    7.335598   7.175464   7.505593   6.532158   8.102822
                   31         32         33         34
    31  C    0.000000
    32  H    1.099292   0.000000
    33  H    1.099164   1.788211   0.000000
    34  H    1.091592   1.786913   1.786957   0.000000
 Stoichiometry    C10H19O5(1+)
 Framework group  C1[X(C10H19O5)]
 Deg. of freedom    96
 Full point group                 C1      NOp   1
 Largest Abelian subgroup         C1      NOp   1
 Largest concise Abelian subgroup C1      NOp   1
                         Standard orientation:                         
 ---------------------------------------------------------------------
 Center     Atomic      Atomic             Coordinates (Angstroms)
 Number     Number       Type             X           Y           Z
 ---------------------------------------------------------------------
      1          6           0       -0.927167    0.640691   -0.701650
      2          6           0       -1.168884    0.745027    0.848498
      3          6           0       -0.446803   -0.291983    1.647170
      4          6           0        1.067724   -0.842931   -0.148300
      5          6           0       -0.174390   -0.656057   -1.028402
      6          1           0       -0.769569   -0.504557    2.668135
      7          1           0       -0.638509    1.663649    1.165488
      8          1           0       -1.907278    0.599397   -1.191135
      9          1           0        1.488452   -1.842169   -0.258573
     10          1           0        0.144673   -0.633126   -2.078145
     11          8           0        0.589345   -0.904804    1.288831
     12          8           0       -2.484957    0.909348    1.292246
     13          8           0       -0.162882    1.718099   -1.180837
     14          8           0       -1.105536   -1.687302   -0.774770
     15          6           0        2.192282    0.173028   -0.239953
     16          1           0        1.860878    1.166862    0.087668
     17          1           0        2.470036    0.258527   -1.303141
     18          8           0        3.254111   -0.314113    0.545579
     19          6           0       -3.371051   -0.202718    1.079310
     20          1           0       -3.460639   -0.455736    0.018851
     21          1           0       -3.041020   -1.090704    1.633409
     22          1           0       -4.338703    0.120157    1.463770
     23          6           0       -0.893436    2.938475   -1.329198
     24          1           0       -0.193605    3.667063   -1.740248
     25          1           0       -1.736810    2.804015   -2.017983
     26          1           0       -1.271919    3.305834   -0.366168
     27          6           0       -0.831938   -2.944194   -1.402334
     28          1           0       -0.732134   -2.819799   -2.487286
     29          1           0        0.074931   -3.415191   -1.004590
     30          1           0       -1.688310   -3.583389   -1.183963
     31          6           0        4.381783    0.553800    0.539000
     32          1           0        4.126603    1.543955    0.942633
     33          1           0        4.785040    0.677082   -0.476060
     34          1           0        5.138509    0.089467    1.174086
 ---------------------------------------------------------------------
 Rotational constants (GHZ):           0.7331548           0.4343469           0.3748098
 Leave Link  202 at Fri May 24 08:32:04 2019, MaxMem=   402653184 cpu:               0.3 elap:               0.2
 (Enter /n/sw/g16_nehalem/g16/l301.exe)
 Standard basis: 6-31G(d) (6D, 7F)
 Ernie: Thresh=  0.10000D-02 Tol=  0.10000D-05 Strict=F.
 There are   263 symmetry adapted cartesian basis functions of A   symmetry.
 There are   263 symmetry adapted basis functions of A   symmetry.
   263 basis functions,   496 primitive gaussians,   263 cartesian basis functions
    59 alpha electrons       59 beta electrons
       nuclear repulsion energy      1168.6537131301 Hartrees.
 IExCor=  402 DFT=T Ex+Corr=B3LYP ExCW=0 ScaHFX=  0.200000
 ScaDFX=  0.800000  0.720000  1.000000  0.810000 ScalE2=  1.000000  1.000000
 IRadAn=      5 IRanWt=     -1 IRanGd=            0 ICorTp=0 IEmpDi=  4
 NAtoms=   34 NActive=   34 NUniq=   34 SFac= 1.00D+00 NAtFMM=   60 NAOKFM=F Big=F
 Integral buffers will be    131072 words long.
 Raffenetti 2 integral format.
 Two-electron integral symmetry is turned on.
 ------------------------------------------------------------------------------
 Polarizable Continuum Model (PCM)
 =================================
 Model                : PCM.
 Atomic radii         : UFF (Universal Force Field).
 Polarization charges : Total charges.
 Charge compensation  : None.
 Solution method      : On-the-fly selection.
 Cavity type          : Scaled VdW (van der Waals Surface) (Alpha=1.100).
 Cavity algorithm     : GePol (No added spheres)
                        Default sphere list used, NSphG=   34.
                        Lebedev-Laikov grids with approx.  5.0 points / Ang**2.
                        Smoothing algorithm: York/Karplus (Gamma=1.0000).
                        Polarization charges: spherical gaussians, with
                                              point-specific exponents (IZeta= 3).
                        Self-potential: point-specific (ISelfS= 7).
                        Self-field    : sphere-specific E.n sum rule (ISelfD= 2).
 1st derivatives      : Analytical E(r).r(x)/FMM algorithm (CHGder, D1EAlg=3).
                        Cavity 1st derivative terms included.
 Solvent              : TetraHydroFuran, Eps=   7.425700 Eps(inf)=   1.974025
 ------------------------------------------------------------------------------
 GePol: Number of generator spheres                  =      34
 GePol: Total number of spheres                      =      34
 GePol: Number of exposed spheres                    =      34 (100.00%)
 GePol: Number of points                             =    2296
 GePol: Average weight of points                     =       0.13
 GePol: Minimum weight of points                     =   0.23D-09
 GePol: Maximum weight of points                     =    0.20577
 GePol: Number of points with low weight             =     145
 GePol: Fraction of low-weight points (<1% of avg)   =       6.32%
 GePol: Cavity surface area                          =    300.825 Ang**2
 GePol: Cavity volume                                =    320.736 Ang**3
 Leave Link  301 at Fri May 24 08:32:04 2019, MaxMem=   402653184 cpu:               0.3 elap:               0.1
 (Enter /n/sw/g16_nehalem/g16/l302.exe)
 NPDir=0 NMtPBC=     1 NCelOv=     1 NCel=       1 NClECP=     1 NCelD=      1
         NCelK=      1 NCelE2=     1 NClLst=     1 CellRange=     0.0.
 One-electron integrals computed using PRISM.
 One-electron integral symmetry used in STVInt
 NBasis=   263 RedAO= T EigKep=  1.61D-03  NBF=   263
 NBsUse=   263 1.00D-06 EigRej= -1.00D+00 NBFU=   263
 Precomputing XC quadrature grid using
 IXCGrd= 4 IRadAn=           5 IRanWt=          -1 IRanGd=           0 AccXCQ= 0.00D+00.
 Generated NRdTot=       0 NPtTot=           0 NUsed=           0 NTot=          32
 NSgBfM=   262   262   262   262   262 MxSgAt=    34 MxSgA2=    34.
 Leave Link  302 at Fri May 24 08:32:05 2019, MaxMem=   402653184 cpu:               2.9 elap:               0.8
 (Enter /n/sw/g16_nehalem/g16/l303.exe)
 DipDrv:  MaxL=1.
 Leave Link  303 at Fri May 24 08:32:05 2019, MaxMem=   402653184 cpu:               0.5 elap:               0.2
 (Enter /n/sw/g16_nehalem/g16/l401.exe)
 ExpMin= 1.61D-01 ExpMax= 5.48D+03 ExpMxC= 8.25D+02 IAcc=3 IRadAn=         5 AccDes= 0.00D+00
 Harris functional with IExCor=  402 and IRadAn=       5 diagonalized for initial guess.
 HarFok:  IExCor=  402 AccDes= 0.00D+00 IRadAn=         5 IDoV= 1 UseB2=F ITyADJ=14
 ICtDFT=  3500011 ScaDFX=  1.000000  1.000000  1.000000  1.000000
 FoFCou: FMM=F IPFlag=           0 FMFlag=      100000 FMFlg1=           0
         NFxFlg=           0 DoJE=T BraDBF=F KetDBF=T FulRan=T
         wScrn=  0.000000 ICntrl=       500 IOpCl=  0 I1Cent=   200000004 NGrid=           0
         NMat0=    1 NMatS0=      1 NMatT0=    0 NMatD0=    1 NMtDS0=    0 NMtDT0=    0
 Petite list used in FoFCou.
 Harris En= -768.258903545307    
 JPrj=0 DoOrth=F DoCkMO=F.
 Leave Link  401 at Fri May 24 08:32:11 2019, MaxMem=   402653184 cpu:              20.8 elap:               5.3
 (Enter /n/sw/g16_nehalem/g16/l502.exe)
 Integral symmetry usage will be decided dynamically.
 Closed shell SCF:
 Using DIIS extrapolation, IDIIS=  1040.
 NGot=   402653184 LenX=   402510103 LenY=   402440493
 Requested convergence on RMS density matrix=1.00D-08 within 128 cycles.
 Requested convergence on MAX density matrix=1.00D-06.
 Requested convergence on             energy=1.00D-06.
 No special actions if energy rises.
 Fock matrices will be formed incrementally for  20 cycles.

 Cycle   1  Pass 1  IDiag  1:
 FoFJK:  IHMeth= 1 ICntrl=       0 DoSepK=F KAlg= 0 I1Cent=           0 FoldK=F
 IRaf= 880000000 NMat=       1 IRICut=       1 DoRegI=T DoRafI=F ISym2E= 0 IDoP0=0 IntGTp=1.
 FoFCou: FMM=F IPFlag=           0 FMFlag=      100000 FMFlg1=           0
         NFxFlg=           0 DoJE=F BraDBF=F KetDBF=F FulRan=T
         wScrn=  0.000000 ICntrl=         0 IOpCl=  0 I1Cent=           0 NGrid=           0
         NMat0=    1 NMatS0=      1 NMatT0=    0 NMatD0=    1 NMtDS0=    0 NMtDT0=    0
 Symmetry not used in FoFCou.
 Inv3:  Mode=1 IEnd=    15814848.
 Iteration    1 A*A^-1 deviation from unit magnitude is 3.44D-15 for   2296.
 Iteration    1 A*A^-1 deviation from orthogonality  is 1.93D-15 for   1335    664.
 Iteration    1 A^-1*A deviation from unit magnitude is 3.44D-15 for   2296.
 Iteration    1 A^-1*A deviation from orthogonality  is 1.46D-15 for   1714   1143.
 E= -768.094795622537    
 DIIS: error= 1.79D-02 at cycle   1 NSaved=   1.
 NSaved= 1 IEnMin= 1 EnMin= -768.094795622537     IErMin= 1 ErrMin= 1.79D-02
 ErrMax= 1.79D-02  0.00D+00 EMaxC= 1.00D-01 BMatC= 2.53D-01 BMatP= 2.53D-01
 IDIUse=3 WtCom= 8.21D-01 WtEn= 1.79D-01
 Coeff-Com:  0.100D+01
 Coeff-En:   0.100D+01
 Coeff:      0.100D+01
 Gap=     0.044 Goal=   None    Shift=    0.000
 GapD=    0.044 DampG=0.250 DampE=0.500 DampFc=0.2500 IDamp=-1.
 Damping current iteration by 2.50D-01
 RMSDP=4.10D-03 MaxDP=1.04D-01              OVMax= 1.57D-01

 Cycle   2  Pass 1  IDiag  1:
 RMSU=  1.02D-03    CP:  9.96D-01
 E= -768.176996220610     Delta-E=       -0.082200598072 Rises=F Damp=T
 DIIS: error= 8.88D-03 at cycle   2 NSaved=   2.
 NSaved= 2 IEnMin= 2 EnMin= -768.176996220610     IErMin= 2 ErrMin= 8.88D-03
 ErrMax= 8.88D-03  0.00D+00 EMaxC= 1.00D-01 BMatC= 7.31D-02 BMatP= 2.53D-01
 IDIUse=3 WtCom= 9.11D-01 WtEn= 8.88D-02
 Coeff-Com: -0.912D+00 0.191D+01
 Coeff-En:   0.000D+00 0.100D+01
 Coeff:     -0.831D+00 0.183D+01
 Gap=     0.155 Goal=   None    Shift=    0.000
 RMSDP=1.21D-03 MaxDP=2.76D-02 DE=-8.22D-02 OVMax= 1.39D-01

 Cycle   3  Pass 1  IDiag  1:
 RMSU=  8.86D-04    CP:  9.87D-01  1.78D+00
 E= -768.322541067576     Delta-E=       -0.145544846966 Rises=F Damp=F
 DIIS: error= 2.59D-03 at cycle   3 NSaved=   3.
 NSaved= 3 IEnMin= 3 EnMin= -768.322541067576     IErMin= 3 ErrMin= 2.59D-03
 ErrMax= 2.59D-03  0.00D+00 EMaxC= 1.00D-01 BMatC= 9.56D-03 BMatP= 7.31D-02
 IDIUse=3 WtCom= 9.74D-01 WtEn= 2.59D-02
 Coeff-Com: -0.421D+00 0.784D+00 0.638D+00
 Coeff-En:   0.000D+00 0.000D+00 0.100D+01
 Coeff:     -0.410D+00 0.763D+00 0.647D+00
 Gap=     0.136 Goal=   None    Shift=    0.000
 RMSDP=4.37D-04 MaxDP=1.43D-02 DE=-1.46D-01 OVMax= 1.45D-02

 Cycle   4  Pass 1  IDiag  1:
 RMSU=  3.00D-04    CP:  9.90D-01  1.90D+00  6.74D-01
 E= -768.328517152231     Delta-E=       -0.005976084655 Rises=F Damp=F
 DIIS: error= 1.47D-03 at cycle   4 NSaved=   4.
 NSaved= 4 IEnMin= 4 EnMin= -768.328517152231     IErMin= 4 ErrMin= 1.47D-03
 ErrMax= 1.47D-03  0.00D+00 EMaxC= 1.00D-01 BMatC= 2.15D-03 BMatP= 9.56D-03
 IDIUse=3 WtCom= 9.85D-01 WtEn= 1.47D-02
 Coeff-Com: -0.128D+00 0.218D+00 0.342D+00 0.567D+00
 Coeff-En:   0.000D+00 0.000D+00 0.157D+00 0.843D+00
 Coeff:     -0.126D+00 0.215D+00 0.340D+00 0.571D+00
 Gap=     0.137 Goal=   None    Shift=    0.000
 RMSDP=1.56D-04 MaxDP=5.97D-03 DE=-5.98D-03 OVMax= 5.10D-03

 Cycle   5  Pass 1  IDiag  1:
 RMSU=  8.28D-05    CP:  9.89D-01  1.90D+00  7.52D-01  6.30D-01
 E= -768.330209081726     Delta-E=       -0.001691929495 Rises=F Damp=F
 DIIS: error= 2.66D-04 at cycle   5 NSaved=   5.
 NSaved= 5 IEnMin= 5 EnMin= -768.330209081726     IErMin= 5 ErrMin= 2.66D-04
 ErrMax= 2.66D-04  0.00D+00 EMaxC= 1.00D-01 BMatC= 8.23D-05 BMatP= 2.15D-03
 IDIUse=3 WtCom= 9.97D-01 WtEn= 2.66D-03
 Coeff-Com: -0.235D-01 0.349D-01 0.894D-01 0.234D+00 0.665D+00
 Coeff-En:   0.000D+00 0.000D+00 0.000D+00 0.000D+00 0.100D+01
 Coeff:     -0.234D-01 0.348D-01 0.892D-01 0.233D+00 0.666D+00
 Gap=     0.139 Goal=   None    Shift=    0.000
 RMSDP=3.56D-05 MaxDP=1.40D-03 DE=-1.69D-03 OVMax= 2.55D-03

 Cycle   6  Pass 1  IDiag  1:
 RMSU=  2.69D-05    CP:  9.89D-01  1.89D+00  7.56D-01  6.66D-01  7.56D-01
 E= -768.330268913006     Delta-E=       -0.000059831280 Rises=F Damp=F
 DIIS: error= 1.09D-04 at cycle   6 NSaved=   6.
 NSaved= 6 IEnMin= 6 EnMin= -768.330268913006     IErMin= 6 ErrMin= 1.09D-04
 ErrMax= 1.09D-04  0.00D+00 EMaxC= 1.00D-01 BMatC= 9.25D-06 BMatP= 8.23D-05
 IDIUse=3 WtCom= 9.99D-01 WtEn= 1.09D-03
 Coeff-Com: -0.585D-02 0.721D-02 0.293D-01 0.971D-01 0.365D+00 0.507D+00
 Coeff-En:   0.000D+00 0.000D+00 0.000D+00 0.000D+00 0.000D+00 0.100D+01
 Coeff:     -0.584D-02 0.720D-02 0.292D-01 0.970D-01 0.364D+00 0.508D+00
 Gap=     0.139 Goal=   None    Shift=    0.000
 RMSDP=1.10D-05 MaxDP=6.41D-04 DE=-5.98D-05 OVMax= 4.91D-04

 Cycle   7  Pass 1  IDiag  1:
 RMSU=  7.42D-06    CP:  9.89D-01  1.89D+00  7.57D-01  6.76D-01  8.02D-01
                    CP:  7.68D-01
 E= -768.330276177919     Delta-E=       -0.000007264913 Rises=F Damp=F
 DIIS: error= 4.02D-05 at cycle   7 NSaved=   7.
 NSaved= 7 IEnMin= 7 EnMin= -768.330276177919     IErMin= 7 ErrMin= 4.02D-05
 ErrMax= 4.02D-05  0.00D+00 EMaxC= 1.00D-01 BMatC= 7.49D-07 BMatP= 9.25D-06
 IDIUse=1 WtCom= 1.00D+00 WtEn= 0.00D+00
 Coeff-Com: -0.173D-02 0.165D-02 0.966D-02 0.377D-01 0.159D+00 0.281D+00
 Coeff-Com:  0.513D+00
 Coeff:     -0.173D-02 0.165D-02 0.966D-02 0.377D-01 0.159D+00 0.281D+00
 Coeff:      0.513D+00
 Gap=     0.139 Goal=   None    Shift=    0.000
 RMSDP=3.39D-06 MaxDP=2.35D-04 DE=-7.26D-06 OVMax= 2.45D-04

 Cycle   8  Pass 1  IDiag  1:
 RMSU=  2.90D-06    CP:  9.89D-01  1.89D+00  7.57D-01  6.79D-01  8.12D-01
                    CP:  7.89D-01  8.61D-01
 E= -768.330276747998     Delta-E=       -0.000000570079 Rises=F Damp=F
 DIIS: error= 1.51D-05 at cycle   8 NSaved=   8.
 NSaved= 8 IEnMin= 8 EnMin= -768.330276747998     IErMin= 8 ErrMin= 1.51D-05
 ErrMax= 1.51D-05  0.00D+00 EMaxC= 1.00D-01 BMatC= 1.16D-07 BMatP= 7.49D-07
 IDIUse=1 WtCom= 1.00D+00 WtEn= 0.00D+00
 Coeff-Com:  0.975D-04-0.330D-03-0.105D-02 0.140D-03 0.116D-01 0.388D-01
 Coeff-Com:  0.290D+00 0.661D+00
 Coeff:      0.975D-04-0.330D-03-0.105D-02 0.140D-03 0.116D-01 0.388D-01
 Coeff:      0.290D+00 0.661D+00
 Gap=     0.139 Goal=   None    Shift=    0.000
 RMSDP=1.72D-06 MaxDP=7.35D-05 DE=-5.70D-07 OVMax= 2.09D-04

 Cycle   9  Pass 1  IDiag  1:
 RMSU=  1.03D-06    CP:  9.89D-01  1.89D+00  7.57D-01  6.80D-01  8.19D-01
                    CP:  8.21D-01  9.53D-01  8.74D-01
 E= -768.330276861762     Delta-E=       -0.000000113763 Rises=F Damp=F
 DIIS: error= 2.43D-06 at cycle   9 NSaved=   9.
 NSaved= 9 IEnMin= 9 EnMin= -768.330276861762     IErMin= 9 ErrMin= 2.43D-06
 ErrMax= 2.43D-06  0.00D+00 EMaxC= 1.00D-01 BMatC= 8.59D-09 BMatP= 1.16D-07
 IDIUse=1 WtCom= 1.00D+00 WtEn= 0.00D+00
 Coeff-Com:  0.135D-03-0.210D-03-0.132D-02-0.318D-02-0.891D-02-0.105D-01
 Coeff-Com:  0.769D-01 0.287D+00 0.660D+00
 Coeff:      0.135D-03-0.210D-03-0.132D-02-0.318D-02-0.891D-02-0.105D-01
 Coeff:      0.769D-01 0.287D+00 0.660D+00
 Gap=     0.139 Goal=   None    Shift=    0.000
 RMSDP=6.12D-07 MaxDP=1.79D-05 DE=-1.14D-07 OVMax= 7.01D-05

 Cycle  10  Pass 1  IDiag  1:
 RMSU=  3.65D-07    CP:  9.89D-01  1.89D+00  7.57D-01  6.80D-01  8.22D-01
                    CP:  8.32D-01  9.85D-01  9.35D-01  8.34D-01
 E= -768.330276870740     Delta-E=       -0.000000008978 Rises=F Damp=F
 DIIS: error= 1.19D-06 at cycle  10 NSaved=  10.
 NSaved=10 IEnMin=10 EnMin= -768.330276870740     IErMin=10 ErrMin= 1.19D-06
 ErrMax= 1.19D-06  0.00D+00 EMaxC= 1.00D-01 BMatC= 1.88D-09 BMatP= 8.59D-09
 IDIUse=1 WtCom= 1.00D+00 WtEn= 0.00D+00
 Coeff-Com:  0.589D-04-0.678D-04-0.641D-03-0.187D-02-0.672D-02-0.119D-01
 Coeff-Com:  0.202D-02 0.635D-01 0.365D+00 0.591D+00
 Coeff:      0.589D-04-0.678D-04-0.641D-03-0.187D-02-0.672D-02-0.119D-01
 Coeff:      0.202D-02 0.635D-01 0.365D+00 0.591D+00
 Gap=     0.139 Goal=   None    Shift=    0.000
 RMSDP=2.44D-07 MaxDP=5.73D-06 DE=-8.98D-09 OVMax= 2.63D-05

 Cycle  11  Pass 1  IDiag  1:
 RMSU=  1.11D-07    CP:  9.89D-01  1.89D+00  7.57D-01  6.81D-01  8.22D-01
                    CP:  8.34D-01  9.97D-01  9.62D-01  9.23D-01  7.44D-01
 E= -768.330276872600     Delta-E=       -0.000000001860 Rises=F Damp=F
 DIIS: error= 2.51D-07 at cycle  11 NSaved=  11.
 NSaved=11 IEnMin=11 EnMin= -768.330276872600     IErMin=11 ErrMin= 2.51D-07
 ErrMax= 2.51D-07  0.00D+00 EMaxC= 1.00D-01 BMatC= 8.06D-11 BMatP= 1.88D-09
 IDIUse=1 WtCom= 1.00D+00 WtEn= 0.00D+00
 Coeff-Com:  0.516D-05-0.135D-06-0.106D-03-0.363D-03-0.150D-02-0.342D-02
 Coeff-Com: -0.611D-02-0.500D-02 0.719D-01 0.217D+00 0.728D+00
 Coeff:      0.516D-05-0.135D-06-0.106D-03-0.363D-03-0.150D-02-0.342D-02
 Coeff:     -0.611D-02-0.500D-02 0.719D-01 0.217D+00 0.728D+00
 Gap=     0.139 Goal=   None    Shift=    0.000
 RMSDP=6.55D-08 MaxDP=1.80D-06 DE=-1.86D-09 OVMax= 7.72D-06

 Cycle  12  Pass 1  IDiag  1:
 RMSU=  3.66D-08    CP:  9.89D-01  1.89D+00  7.57D-01  6.81D-01  8.22D-01
                    CP:  8.35D-01  1.00D+00  9.67D-01  9.46D-01  8.09D-01
                    CP:  9.29D-01
 E= -768.330276872697     Delta-E=       -0.000000000097 Rises=F Damp=F
 DIIS: error= 1.20D-07 at cycle  12 NSaved=  12.
 NSaved=12 IEnMin=12 EnMin= -768.330276872697     IErMin=12 ErrMin= 1.20D-07
 ErrMax= 1.20D-07  0.00D+00 EMaxC= 1.00D-01 BMatC= 1.78D-11 BMatP= 8.06D-11
 IDIUse=1 WtCom= 1.00D+00 WtEn= 0.00D+00
 Coeff-Com: -0.400D-05 0.783D-05 0.239D-04 0.374D-04 0.515D-04-0.390D-03
 Coeff-Com: -0.345D-02-0.111D-01-0.754D-02 0.392D-01 0.375D+00 0.608D+00
 Coeff:     -0.400D-05 0.783D-05 0.239D-04 0.374D-04 0.515D-04-0.390D-03
 Coeff:     -0.345D-02-0.111D-01-0.754D-02 0.392D-01 0.375D+00 0.608D+00
 Gap=     0.139 Goal=   None    Shift=    0.000
 RMSDP=2.15D-08 MaxDP=5.76D-07 DE=-9.73D-11 OVMax= 1.94D-06

 Cycle  13  Pass 1  IDiag  1:
 RMSU=  1.15D-08    CP:  9.89D-01  1.89D+00  7.57D-01  6.81D-01  8.22D-01
                    CP:  8.35D-01  1.00D+00  9.69D-01  9.51D-01  8.27D-01
                    CP:  1.01D+00  7.97D-01
 E= -768.330276872703     Delta-E=       -0.000000000006 Rises=F Damp=F
 DIIS: error= 3.21D-08 at cycle  13 NSaved=  13.
 NSaved=13 IEnMin=13 EnMin= -768.330276872703     IErMin=13 ErrMin= 3.21D-08
 ErrMax= 3.21D-08  0.00D+00 EMaxC= 1.00D-01 BMatC= 7.02D-13 BMatP= 1.78D-11
 IDIUse=1 WtCom= 1.00D+00 WtEn= 0.00D+00
 Coeff-Com: -0.150D-05 0.216D-05 0.177D-04 0.454D-04 0.166D-03 0.178D-03
 Coeff-Com: -0.365D-03-0.296D-02-0.786D-02-0.764D-02 0.544D-01 0.196D+00
 Coeff-Com:  0.768D+00
 Coeff:     -0.150D-05 0.216D-05 0.177D-04 0.454D-04 0.166D-03 0.178D-03
 Coeff:     -0.365D-03-0.296D-02-0.786D-02-0.764D-02 0.544D-01 0.196D+00
 Coeff:      0.768D+00
 Gap=     0.139 Goal=   None    Shift=    0.000
 RMSDP=5.32D-09 MaxDP=2.12D-07 DE=-5.68D-12 OVMax= 3.87D-07

 Error on total polarization charges =  0.01217
 SCF Done:  E(RB3LYP) =  -768.330276873     A.U. after   13 cycles
            NFock= 13  Conv=0.53D-08     -V/T= 2.0091
 KE= 7.614099352135D+02 PE=-4.112140855440D+03 EE= 1.413746930224D+03
 Leave Link  502 at Fri May 24 08:34:19 2019, MaxMem=   402653184 cpu:             514.6 elap:             128.8
 (Enter /n/sw/g16_nehalem/g16/l601.exe)
 Copying SCF densities to generalized density rwf, IOpCl= 0 IROHF=0.

 **********************************************************************

            Population analysis using the SCF density.

 **********************************************************************

 Orbital symmetries:
       Occupied  (A) (A) (A) (A) (A) (A) (A) (A) (A) (A) (A) (A)
                 (A) (A) (A) (A) (A) (A) (A) (A) (A) (A) (A) (A)
                 (A) (A) (A) (A) (A) (A) (A) (A) (A) (A) (A) (A)
                 (A) (A) (A) (A) (A) (A) (A) (A) (A) (A) (A) (A)
                 (A) (A) (A) (A) (A) (A) (A) (A) (A) (A) (A)
       Virtual   (A) (A) (A) (A) (A) (A) (A) (A) (A) (A) (A) (A)
                 (A) (A) (A) (A) (A) (A) (A) (A) (A) (A) (A) (A)
                 (A) (A) (A) (A) (A) (A) (A) (A) (A) (A) (A) (A)
                 (A) (A) (A) (A) (A) (A) (A) (A) (A) (A) (A) (A)
                 (A) (A) (A) (A) (A) (A) (A) (A) (A) (A) (A) (A)
                 (A) (A) (A) (A) (A) (A) (A) (A) (A) (A) (A) (A)
                 (A) (A) (A) (A) (A) (A) (A) (A) (A) (A) (A) (A)
                 (A) (A) (A) (A) (A) (A) (A) (A) (A) (A) (A) (A)
                 (A) (A) (A) (A) (A) (A) (A) (A) (A) (A) (A) (A)
                 (A) (A) (A) (A) (A) (A) (A) (A) (A) (A) (A) (A)
                 (A) (A) (A) (A) (A) (A) (A) (A) (A) (A) (A) (A)
                 (A) (A) (A) (A) (A) (A) (A) (A) (A) (A) (A) (A)
                 (A) (A) (A) (A) (A) (A) (A) (A) (A) (A) (A) (A)
                 (A) (A) (A) (A) (A) (A) (A) (A) (A) (A) (A) (A)
                 (A) (A) (A) (A) (A) (A) (A) (A) (A) (A) (A) (A)
                 (A) (A) (A) (A) (A) (A) (A) (A) (A) (A) (A) (A)
                 (A) (A) (A) (A) (A) (A) (A) (A) (A) (A) (A) (A)
 The electronic state is 1-A.
 Alpha  occ. eigenvalues --  -19.32455 -19.20784 -19.20296 -19.19897 -19.18231
 Alpha  occ. eigenvalues --  -10.39496 -10.31903 -10.31855 -10.30084 -10.29858
 Alpha  occ. eigenvalues --  -10.27907 -10.25938 -10.25843 -10.25599 -10.24607
 Alpha  occ. eigenvalues --   -1.21313  -1.09658  -1.08590  -1.07691  -1.06652
 Alpha  occ. eigenvalues --   -0.87113  -0.85347  -0.78309  -0.74717  -0.73895
 Alpha  occ. eigenvalues --   -0.71304  -0.69979  -0.68001  -0.66495  -0.61929
 Alpha  occ. eigenvalues --   -0.58971  -0.58820  -0.56755  -0.54510  -0.53931
 Alpha  occ. eigenvalues --   -0.52948  -0.51488  -0.50979  -0.50321  -0.49417
 Alpha  occ. eigenvalues --   -0.48334  -0.47767  -0.47176  -0.46181  -0.45712
 Alpha  occ. eigenvalues --   -0.45343  -0.43056  -0.42072  -0.41248  -0.40967
 Alpha  occ. eigenvalues --   -0.39898  -0.37074  -0.36526  -0.36232  -0.35067
 Alpha  occ. eigenvalues --   -0.33182  -0.30805  -0.29445  -0.28724
 Alpha virt. eigenvalues --   -0.14848   0.01103   0.03423   0.04441   0.05976
 Alpha virt. eigenvalues --    0.06745   0.08038   0.08352   0.09878   0.10579
 Alpha virt. eigenvalues --    0.10767   0.11606   0.12344   0.12492   0.13115
 Alpha virt. eigenvalues --    0.13753   0.14003   0.14182   0.14696   0.15052
 Alpha virt. eigenvalues --    0.15536   0.16008   0.16496   0.16751   0.18092
 Alpha virt. eigenvalues --    0.18185   0.19190   0.20540   0.20819   0.22355
 Alpha virt. eigenvalues --    0.23998   0.24967   0.27226   0.29421   0.30954
 Alpha virt. eigenvalues --    0.43595   0.44652   0.46422   0.47265   0.48003
 Alpha virt. eigenvalues --    0.48544   0.49756   0.50459   0.51069   0.52088
 Alpha virt. eigenvalues --    0.52361   0.53472   0.53778   0.54910   0.55201
 Alpha virt. eigenvalues --    0.55524   0.56592   0.58401   0.60486   0.61789
 Alpha virt. eigenvalues --    0.63323   0.64588   0.67240   0.69188   0.69611
 Alpha virt. eigenvalues --    0.72032   0.74426   0.76169   0.77344   0.77969
 Alpha virt. eigenvalues --    0.78793   0.80469   0.81138   0.81637   0.82378
 Alpha virt. eigenvalues --    0.83241   0.83601   0.84167   0.84773   0.85231
 Alpha virt. eigenvalues --    0.85622   0.87242   0.87753   0.88293   0.90316
 Alpha virt. eigenvalues --    0.90611   0.91601   0.93015   0.93445   0.93871
 Alpha virt. eigenvalues --    0.95211   0.96042   0.96894   0.99558   1.00040
 Alpha virt. eigenvalues --    1.03843   1.04863   1.07498   1.09351   1.10206
 Alpha virt. eigenvalues --    1.14275   1.16153   1.16742   1.18403   1.21543
 Alpha virt. eigenvalues --    1.22305   1.26989   1.30063   1.31128   1.32623
 Alpha virt. eigenvalues --    1.34394   1.36780   1.38298   1.40132   1.41951
 Alpha virt. eigenvalues --    1.43610   1.46263   1.46974   1.48722   1.50470
 Alpha virt. eigenvalues --    1.51995   1.53256   1.54256   1.55007   1.57207
 Alpha virt. eigenvalues --    1.61724   1.64134   1.66991   1.68016   1.71920
 Alpha virt. eigenvalues --    1.72306   1.74638   1.75907   1.76581   1.81966
 Alpha virt. eigenvalues --    1.84156   1.84978   1.86249   1.88209   1.90776
 Alpha virt. eigenvalues --    1.92080   1.94481   1.96241   1.99117   2.00032
 Alpha virt. eigenvalues --    2.00108   2.00205   2.02318   2.02880   2.05369
 Alpha virt. eigenvalues --    2.06472   2.06996   2.08340   2.08993   2.09953
 Alpha virt. eigenvalues --    2.11664   2.11936   2.14433   2.15614   2.17139
 Alpha virt. eigenvalues --    2.20737   2.22247   2.23158   2.24124   2.25818
 Alpha virt. eigenvalues --    2.26803   2.27360   2.30069   2.33262   2.35256
 Alpha virt. eigenvalues --    2.36398   2.37864   2.41595   2.44828   2.46415
 Alpha virt. eigenvalues --    2.50480   2.51561   2.53098   2.55505   2.61494
 Alpha virt. eigenvalues --    2.65851   2.67057   2.70582   2.73893   2.77263
 Alpha virt. eigenvalues --    2.79686   2.81038   2.84103   2.89538   2.93738
 Alpha virt. eigenvalues --    2.95520   2.97156   3.01007   3.04784   3.84709
 Alpha virt. eigenvalues --    3.89899   3.92171   4.00121   4.06703   4.12237
 Alpha virt. eigenvalues --    4.20545   4.22500   4.24018   4.24889   4.27051
 Alpha virt. eigenvalues --    4.35258   4.49821   4.65130   4.68023
          Condensed to atoms (all electrons):
               1          2          3          4          5          6
     1  C    4.985992   0.243896  -0.040637  -0.026647   0.331933   0.002991
     2  C    0.243896   5.115413   0.269552  -0.023378  -0.025447  -0.043659
     3  C   -0.040637   0.269552   4.857744  -0.048933   0.000721   0.358473
     4  C   -0.026647  -0.023378  -0.048933   5.136744   0.278157   0.002906
     5  C    0.331933  -0.025447   0.000721   0.278157   5.001178   0.000031
     6  H    0.002991  -0.043659   0.358473   0.002906   0.000031   0.434683
     7  H   -0.038570   0.360097  -0.036675   0.001311   0.001352  -0.000524
     8  H    0.372209  -0.058925   0.002626   0.005060  -0.036447  -0.000155
     9  H    0.003855   0.000038   0.001903   0.370228  -0.031046  -0.000097
    10  H   -0.028260   0.004558   0.000853  -0.052389   0.361411   0.000021
    11  O   -0.007035  -0.019945   0.367893   0.134352  -0.022703  -0.034765
    12  O   -0.028384   0.239208  -0.030459   0.000228   0.002029   0.003594
    13  O    0.198202  -0.040560   0.002947  -0.000189  -0.040399  -0.000073
    14  O   -0.050529   0.000937   0.013694  -0.044719   0.195239  -0.000076
    15  C   -0.007223   0.001447   0.000722   0.323220  -0.027863  -0.000193
    16  H    0.001682  -0.001719   0.002514  -0.024588  -0.004898  -0.000064
    17  H   -0.000920   0.000023  -0.000023  -0.040477   0.003142   0.000007
    18  O   -0.000104  -0.000023   0.000269  -0.041578   0.002217   0.000004
    19  C   -0.005845  -0.049080  -0.004728   0.000075  -0.000818  -0.000254
    20  H    0.005732  -0.003845  -0.000775   0.000038  -0.001682   0.000271
    21  H   -0.000786  -0.007132   0.008046  -0.000027   0.000068  -0.000258
    22  H   -0.000022   0.005096  -0.000088   0.000000  -0.000002  -0.000092
    23  C   -0.036949  -0.002833   0.000277  -0.000079   0.004810  -0.000001
    24  H    0.004793  -0.000143   0.000006   0.000023  -0.000174   0.000000
    25  H   -0.006964  -0.001699   0.000002  -0.000003  -0.000016   0.000000
    26  H   -0.006973   0.008118  -0.000039  -0.000054  -0.000050   0.000011
    27  C    0.004818  -0.000223  -0.000232  -0.003107  -0.036812  -0.000001
    28  H    0.000008  -0.000014   0.000070  -0.001004  -0.007452   0.000000
    29  H   -0.000073   0.000003  -0.000179   0.003236  -0.005697  -0.000001
    30  H   -0.000202   0.000024  -0.000011  -0.000094   0.004884   0.000000
    31  C   -0.000002   0.000002  -0.000018   0.004576  -0.000121   0.000000
    32  H    0.000001   0.000000   0.000000   0.000262   0.000009   0.000000
    33  H   -0.000001   0.000000   0.000001  -0.000112   0.000016   0.000000
    34  H    0.000000   0.000000   0.000001  -0.000250   0.000001   0.000000
               7          8          9         10         11         12
     1  C   -0.038570   0.372209   0.003855  -0.028260  -0.007035  -0.028384
     2  C    0.360097  -0.058925   0.000038   0.004558  -0.019945   0.239208
     3  C   -0.036675   0.002626   0.001903   0.000853   0.367893  -0.030459
     4  C    0.001311   0.005060   0.370228  -0.052389   0.134352   0.000228
     5  C    0.001352  -0.036447  -0.031046   0.361411  -0.022703   0.002029
     6  H   -0.000524  -0.000155  -0.000097   0.000021  -0.034765   0.003594
     7  H    0.466735   0.002149  -0.000012  -0.000093  -0.000691  -0.030440
     8  H    0.002149   0.535659  -0.000111  -0.005510   0.000011   0.001545
     9  H   -0.000012  -0.000111   0.481364  -0.001653  -0.033898   0.000003
    10  H   -0.000093  -0.005510  -0.001653   0.529279   0.002359  -0.000073
    11  O   -0.000691   0.000011  -0.033898   0.002359   7.949688   0.001563
    12  O   -0.030440   0.001545   0.000003  -0.000073   0.001563   8.176990
    13  O    0.001066  -0.028731  -0.000076   0.003881   0.000010   0.001328
    14  O    0.000262   0.003350  -0.004601  -0.026918  -0.006213  -0.000355
    15  C    0.000491   0.000130  -0.035514   0.001206  -0.032461  -0.000007
    16  H    0.001475   0.000198   0.005333  -0.000305  -0.005216   0.000020
    17  H   -0.000042  -0.000034  -0.003638   0.003150   0.002884   0.000000
    18  O   -0.000008   0.000001   0.004838  -0.000032   0.002807   0.000000
    19  C    0.005082   0.000673   0.000000   0.000010  -0.000052   0.234824
    20  H   -0.000191   0.003243  -0.000001   0.000080   0.000044  -0.035031
    21  H   -0.000121   0.000280   0.000000  -0.000002  -0.000568  -0.036631
    22  H   -0.000136  -0.000096   0.000000   0.000001   0.000001  -0.029962
    23  C    0.002103  -0.005410   0.000005   0.000062  -0.000009  -0.000030
    24  H   -0.000278   0.000005   0.000000  -0.000025   0.000000   0.000016
    25  H    0.000298   0.011023   0.000000  -0.000069   0.000000   0.000115
    26  H    0.000944  -0.001515   0.000000   0.000036  -0.000001   0.000019
    27  C    0.000001   0.000160   0.003159  -0.005024   0.000355   0.000008
    28  H    0.000001  -0.000052  -0.000069   0.009825  -0.000007   0.000000
    29  H   -0.000001   0.000025   0.003934  -0.001184   0.000424   0.000000
    30  H    0.000000  -0.000037  -0.000161   0.000018  -0.000014  -0.000001
    31  C    0.000002   0.000000  -0.000053   0.000002  -0.000003   0.000000
    32  H    0.000000   0.000000   0.000069   0.000000  -0.000023   0.000000
    33  H    0.000000   0.000000  -0.000054   0.000000   0.000005   0.000000
    34  H    0.000000   0.000000  -0.000019   0.000000   0.000003   0.000000
              13         14         15         16         17         18
     1  C    0.198202  -0.050529  -0.007223   0.001682  -0.000920  -0.000104
     2  C   -0.040560   0.000937   0.001447  -0.001719   0.000023  -0.000023
     3  C    0.002947   0.013694   0.000722   0.002514  -0.000023   0.000269
     4  C   -0.000189  -0.044719   0.323220  -0.024588  -0.040477  -0.041578
     5  C   -0.040399   0.195239  -0.027863  -0.004898   0.003142   0.002217
     6  H   -0.000073  -0.000076  -0.000193  -0.000064   0.000007   0.000004
     7  H    0.001066   0.000262   0.000491   0.001475  -0.000042  -0.000008
     8  H   -0.028731   0.003350   0.000130   0.000198  -0.000034   0.000001
     9  H   -0.000076  -0.004601  -0.035514   0.005333  -0.003638   0.004838
    10  H    0.003881  -0.026918   0.001206  -0.000305   0.003150  -0.000032
    11  O    0.000010  -0.006213  -0.032461  -0.005216   0.002884   0.002807
    12  O    0.001328  -0.000355  -0.000007   0.000020   0.000000   0.000000
    13  O    8.247594   0.001329  -0.000386   0.011771   0.000853   0.000085
    14  O    0.001329   8.266559   0.002993  -0.000035   0.000006  -0.000012
    15  C   -0.000386   0.002993   4.918528   0.344156   0.360704   0.220791
    16  H    0.011771  -0.000035   0.344156   0.578634  -0.046205  -0.038828
    17  H    0.000853   0.000006   0.360704  -0.046205   0.573077  -0.036683
    18  O    0.000085  -0.000012   0.220791  -0.038828  -0.036683   8.225160
    19  C    0.000057   0.000979   0.000002   0.000001   0.000000   0.000000
    20  H   -0.000015   0.004000  -0.000002   0.000000   0.000000   0.000000
    21  H   -0.000001   0.000440   0.000000   0.000000   0.000000   0.000000
    22  H    0.000001   0.000128   0.000000   0.000000   0.000000   0.000000
    23  C    0.233935  -0.000063  -0.000068   0.000083  -0.000039  -0.000002
    24  H   -0.030357   0.000001  -0.000012  -0.000036  -0.000005   0.000000
    25  H   -0.034467  -0.000006   0.000002   0.000056   0.000000   0.000000
    26  H   -0.035963   0.000003   0.000068  -0.000187   0.000004   0.000000
    27  C   -0.000051   0.232857   0.000099  -0.000004   0.000003  -0.000002
    28  H   -0.000007  -0.034192   0.000038   0.000001   0.000004   0.000000
    29  H    0.000003  -0.035416  -0.000302  -0.000003   0.000007   0.000004
    30  H    0.000001  -0.030629   0.000002   0.000000   0.000000   0.000000
    31  C    0.000009   0.000000  -0.041130  -0.003976  -0.003736   0.243765
    32  H   -0.000010   0.000000  -0.007554   0.011441  -0.002152  -0.036034
    33  H    0.000000   0.000000  -0.007594  -0.002291   0.010792  -0.036068
    34  H    0.000000   0.000000   0.005542  -0.000136  -0.000115  -0.031416
              19         20         21         22         23         24
     1  C   -0.005845   0.005732  -0.000786  -0.000022  -0.036949   0.004793
     2  C   -0.049080  -0.003845  -0.007132   0.005096  -0.002833  -0.000143
     3  C   -0.004728  -0.000775   0.008046  -0.000088   0.000277   0.000006
     4  C    0.000075   0.000038  -0.000027   0.000000  -0.000079   0.000023
     5  C   -0.000818  -0.001682   0.000068  -0.000002   0.004810  -0.000174
     6  H   -0.000254   0.000271  -0.000258  -0.000092  -0.000001   0.000000
     7  H    0.005082  -0.000191  -0.000121  -0.000136   0.002103  -0.000278
     8  H    0.000673   0.003243   0.000280  -0.000096  -0.005410   0.000005
     9  H    0.000000  -0.000001   0.000000   0.000000   0.000005   0.000000
    10  H    0.000010   0.000080  -0.000002   0.000001   0.000062  -0.000025
    11  O   -0.000052   0.000044  -0.000568   0.000001  -0.000009   0.000000
    12  O    0.234824  -0.035031  -0.036631  -0.029962  -0.000030   0.000016
    13  O    0.000057  -0.000015  -0.000001   0.000001   0.233935  -0.030357
    14  O    0.000979   0.004000   0.000440   0.000128  -0.000063   0.000001
    15  C    0.000002  -0.000002   0.000000   0.000000  -0.000068  -0.000012
    16  H    0.000001   0.000000   0.000000   0.000000   0.000083  -0.000036
    17  H    0.000000   0.000000   0.000000   0.000000  -0.000039  -0.000005
    18  O    0.000000   0.000000   0.000000   0.000000  -0.000002   0.000000
    19  C    4.944484   0.364368   0.367594   0.383211   0.000003   0.000000
    20  H    0.364368   0.554393  -0.042970  -0.026927  -0.000019   0.000000
    21  H    0.367594  -0.042970   0.575508  -0.028672   0.000000   0.000000
    22  H    0.383211  -0.026927  -0.028672   0.501401   0.000001   0.000000
    23  C    0.000003  -0.000019   0.000000   0.000001   4.911296   0.385853
    24  H    0.000000   0.000000   0.000000   0.000000   0.385853   0.508394
    25  H    0.000005  -0.000014   0.000000   0.000001   0.370889  -0.027725
    26  H   -0.000031   0.000013   0.000002  -0.000005   0.365002  -0.029983
    27  C    0.000004  -0.000111   0.000025  -0.000004   0.000003   0.000000
    28  H    0.000009  -0.000016   0.000003   0.000000   0.000000   0.000000
    29  H    0.000000   0.000019  -0.000006   0.000000   0.000000   0.000000
    30  H    0.000014   0.000000   0.000017  -0.000002   0.000000   0.000000
    31  C    0.000000   0.000000   0.000000   0.000000   0.000000   0.000000
    32  H    0.000000   0.000000   0.000000   0.000000   0.000001   0.000000
    33  H    0.000000   0.000000   0.000000   0.000000   0.000000   0.000000
    34  H    0.000000   0.000000   0.000000   0.000000   0.000000   0.000000
              25         26         27         28         29         30
     1  C   -0.006964  -0.006973   0.004818   0.000008  -0.000073  -0.000202
     2  C   -0.001699   0.008118  -0.000223  -0.000014   0.000003   0.000024
     3  C    0.000002  -0.000039  -0.000232   0.000070  -0.000179  -0.000011
     4  C   -0.000003  -0.000054  -0.003107  -0.001004   0.003236  -0.000094
     5  C   -0.000016  -0.000050  -0.036812  -0.007452  -0.005697   0.004884
     6  H    0.000000   0.000011  -0.000001   0.000000  -0.000001   0.000000
     7  H    0.000298   0.000944   0.000001   0.000001  -0.000001   0.000000
     8  H    0.011023  -0.001515   0.000160  -0.000052   0.000025  -0.000037
     9  H    0.000000   0.000000   0.003159  -0.000069   0.003934  -0.000161
    10  H   -0.000069   0.000036  -0.005024   0.009825  -0.001184   0.000018
    11  O    0.000000  -0.000001   0.000355  -0.000007   0.000424  -0.000014
    12  O    0.000115   0.000019   0.000008   0.000000   0.000000  -0.000001
    13  O   -0.034467  -0.035963  -0.000051  -0.000007   0.000003   0.000001
    14  O   -0.000006   0.000003   0.232857  -0.034192  -0.035416  -0.030629
    15  C    0.000002   0.000068   0.000099   0.000038  -0.000302   0.000002
    16  H    0.000056  -0.000187  -0.000004   0.000001  -0.000003   0.000000
    17  H    0.000000   0.000004   0.000003   0.000004   0.000007   0.000000
    18  O    0.000000   0.000000  -0.000002   0.000000   0.000004   0.000000
    19  C    0.000005  -0.000031   0.000004   0.000009   0.000000   0.000014
    20  H   -0.000014   0.000013  -0.000111  -0.000016   0.000019   0.000000
    21  H    0.000000   0.000002   0.000025   0.000003  -0.000006   0.000017
    22  H    0.000001  -0.000005  -0.000004   0.000000   0.000000  -0.000002
    23  C    0.370889   0.365002   0.000003   0.000000   0.000000   0.000000
    24  H   -0.027725  -0.029983   0.000000   0.000000   0.000000   0.000000
    25  H    0.560964  -0.042906   0.000000   0.000000   0.000000   0.000000
    26  H   -0.042906   0.577413   0.000000   0.000000   0.000000   0.000000
    27  C    0.000000   0.000000   4.905635   0.371997   0.366501   0.386121
    28  H    0.000000   0.000000   0.371997   0.557436  -0.042038  -0.027132
    29  H    0.000000   0.000000   0.366501  -0.042038   0.573491  -0.030504
    30  H    0.000000   0.000000   0.386121  -0.027132  -0.030504   0.506011
    31  C    0.000000   0.000000   0.000000   0.000000   0.000000   0.000000
    32  H    0.000000   0.000000   0.000000   0.000000   0.000000   0.000000
    33  H    0.000000   0.000000   0.000000   0.000000   0.000000   0.000000
    34  H    0.000000   0.000000   0.000000   0.000000   0.000000   0.000000
              31         32         33         34
     1  C   -0.000002   0.000001  -0.000001   0.000000
     2  C    0.000002   0.000000   0.000000   0.000000
     3  C   -0.000018   0.000000   0.000001   0.000001
     4  C    0.004576   0.000262  -0.000112  -0.000250
     5  C   -0.000121   0.000009   0.000016   0.000001
     6  H    0.000000   0.000000   0.000000   0.000000
     7  H    0.000002   0.000000   0.000000   0.000000
     8  H    0.000000   0.000000   0.000000   0.000000
     9  H   -0.000053   0.000069  -0.000054  -0.000019
    10  H    0.000002   0.000000   0.000000   0.000000
    11  O   -0.000003  -0.000023   0.000005   0.000003
    12  O    0.000000   0.000000   0.000000   0.000000
    13  O    0.000009  -0.000010   0.000000   0.000000
    14  O    0.000000   0.000000   0.000000   0.000000
    15  C   -0.041130  -0.007554  -0.007594   0.005542
    16  H   -0.003976   0.011441  -0.002291  -0.000136
    17  H   -0.003736  -0.002152   0.010792  -0.000115
    18  O    0.243765  -0.036034  -0.036068  -0.031416
    19  C    0.000000   0.000000   0.000000   0.000000
    20  H    0.000000   0.000000   0.000000   0.000000
    21  H    0.000000   0.000000   0.000000   0.000000
    22  H    0.000000   0.000000   0.000000   0.000000
    23  C    0.000000   0.000001   0.000000   0.000000
    24  H    0.000000   0.000000   0.000000   0.000000
    25  H    0.000000   0.000000   0.000000   0.000000
    26  H    0.000000   0.000000   0.000000   0.000000
    27  C    0.000000   0.000000   0.000000   0.000000
    28  H    0.000000   0.000000   0.000000   0.000000
    29  H    0.000000   0.000000   0.000000   0.000000
    30  H    0.000000   0.000000   0.000000   0.000000
    31  C    4.891874   0.366128   0.368525   0.386267
    32  H    0.366128   0.589969  -0.045259  -0.030523
    33  H    0.368525  -0.045259   0.586071  -0.030358
    34  H    0.386267  -0.030523  -0.030358   0.521918
 Mulliken charges:
               1
     1  C    0.130014
     2  C    0.030212
     3  C    0.274485
     4  C    0.047214
     5  C    0.054430
     6  H    0.277221
     7  H    0.264413
     8  H    0.198677
     9  H    0.236276
    10  H    0.204785
    11  O   -0.298795
    12  O   -0.470117
    13  O   -0.491783
    14  O   -0.489014
    15  C   -0.019832
    16  H    0.171126
    17  H    0.179415
    18  O   -0.479151
    19  C   -0.240589
    20  H    0.179396
    21  H    0.165191
    22  H    0.196170
    23  C   -0.228821
    24  H    0.189650
    25  H    0.170513
    26  H    0.166075
    27  C   -0.226175
    28  H    0.172591
    29  H    0.167756
    30  H    0.191696
    31  C   -0.212113
    32  H    0.153674
    33  H    0.156326
    34  H    0.179086
 Sum of Mulliken charges =   1.00000
 Mulliken charges with hydrogens summed into heavy atoms:
               1
     1  C    0.328691
     2  C    0.294625
     3  C    0.551706
     4  C    0.283489
     5  C    0.259215
    11  O   -0.298795
    12  O   -0.470117
    13  O   -0.491783
    14  O   -0.489014
    15  C    0.330709
    18  O   -0.479151
    19  C    0.300168
    23  C    0.297416
    27  C    0.305868
    31  C    0.276974
 Electronic spatial extent (au):  <R**2>=           3457.0170
 Charge=              1.0000 electrons
 Dipole moment (field-independent basis, Debye):
    X=             -1.0448    Y=             -0.6079    Z=              0.3080  Tot=              1.2474
 Quadrupole moment (field-independent basis, Debye-Ang):
   XX=            -68.8324   YY=            -71.4624   ZZ=            -74.9075
   XY=              5.2058   XZ=             -2.3229   YZ=              1.2043
 Traceless Quadrupole moment (field-independent basis, Debye-Ang):
   XX=              2.9017   YY=              0.2717   ZZ=             -3.1734
   XY=              5.2058   XZ=             -2.3229   YZ=              1.2043
 Octapole moment (field-independent basis, Debye-Ang**2):
[...]
 151899,-0.00014680,0.00046142,0.00000567,0.00013255,0.00006004,0.00001
 363,-0.00000550,-0.00000583,-0.00000829,-0.00012399,-0.00004411,-0.000
 01492,0.00013405,0.00002171,0.00013170,-0.00016842,0.00007555,-0.00008
 575,-0.00001260,-0.00001048,0.00005095,-0.00000239,-0.00005660,-0.0000
 7086,-0.00020503,0.00015530,-0.00004500,0.00002324,-0.00005967,0.00001
 440,0.00003442,0.00000254,0.00000521,0.00003089,-0.00003271,-0.0000107
 7,0.07912166,-0.09004919,0.04040481,0.00420615,0.00053060,0.00350806,-
 0.09704255,0.10650851,-0.00016144,0.00005344,0.00016418,-0.00004635,0.
 00004873,0.00007010,0.00009669,-0.00010830,-0.00001741,-0.00055126,-0.
 00026482,0.00015597,0.00106188,0.00111030,0.00040170,0.00002269,0.0000
 1385,-0.00000056,-0.00000275,0.00000149,-0.00000313,-0.00007354,0.0000
 5537,-0.00003256,-0.00020655,-0.00071013,-0.00013712,-0.00030833,-0.00
 027362,-0.00032498,0.00009687,0.00005455,-0.00010817,0.00004748,0.0000
 1716,-0.00004668,-0.00001851,-0.00031025,-0.00001999,0.01751490,-0.012
 78347,0.00793364,0.00016413,0.00023416,0.00006585,-0.00000344,-0.00002
 510,-0.00001687,-0.00000147,0.00000511,-0.00001376,-0.00011177,-0.0000
 5519,-0.00003622,0.00004460,-0.00002292,0.00004772,-0.00006430,0.00002
 572,-0.00003477,-0.00000162,0.00000281,0.00001706,0.00000009,-0.000017
 63,-0.00003290,-0.00009446,0.00007740,-0.00002647,0.00000961,-0.000024
 86,0.00000527,0.00002021,-0.00000443,0.00000394,0.00001466,-0.00001556
 ,-0.00000420,-0.08672875,0.04141797,-0.09508897,-0.02759174,0.01239612
 ,-0.01046309,0.09031474,-0.03795382,0.09383186,0.00029781,0.00022903,-
 0.00009426,-0.00005810,-0.00005035,0.00003846,-0.00004583,0.00011311,0
 .00006350,-0.00007791,0.00036224,0.00015901,0.00114731,0.00275317,0.00
 039331,0.00002069,-0.00000803,0.00000204,0.00001708,-0.00000329,-0.000
 00387,-0.00000717,-0.00000762,-0.00001930,0.00037741,0.00004558,0.0001
 4904,-0.00006250,0.00004653,-0.00007702,0.00009799,-0.00014610,-0.0001
 1628,0.00004453,-0.00000201,-0.00003090,-0.00006654,0.00006297,0.00001
 847,0.00941210,0.00585554,-0.00224914,0.00018119,-0.00010045,0.0000263
 6,-0.00006516,-0.00003395,-0.00001029,-0.00000379,0.00000566,-0.000005
 17,-0.00005325,-0.00000989,-0.00002268,0.00004148,-0.00002197,0.000049
 87,-0.00003385,0.00002926,-0.00004832,-0.00000467,0.00000911,0.0000195
 0,-0.00000209,-0.00001593,-0.00001805,-0.00000668,0.00005285,-0.000010
 32,-0.00000404,0.00000212,0.00000058,0.00000232,-0.00000037,0.00000107
 ,0.00000215,0.00000060,0.00000042,-0.23192963,-0.13016668,0.04729830,0
 .00014362,0.00050067,-0.00020889,-0.01944430,-0.01489617,0.00654845,0.
 24005080,-0.00155994,-0.00007417,0.00019126,-0.00019712,0.00001182,0.0
 0015373,0.00007216,0.00001057,0.00027954,0.00017454,-0.00068297,0.0003
 8337,0.00296727,-0.00293173,-0.00358982,0.00000600,0.00002369,-0.00000
 151,0.00001142,-0.00000356,0.00002058,0.00000977,0.00000319,0.00002762
 ,-0.00024613,0.00002706,-0.00013012,0.00010284,0.00007851,0.00005819,-
 0.00015668,0.00006655,-0.00010442,0.00027200,0.00009539,-0.00012837,0.
 00035836,-0.00103795,0.00004932,-0.02438859,-0.03130429,0.00239590,0.0
 0001888,0.00026884,-0.00016138,0.00003133,0.00001237,-0.00000389,0.000
 00230,0.00000804,0.00000076,-0.00028720,-0.00012208,-0.00004154,-0.000
 09927,-0.00012170,-0.00003829,-0.00002967,-0.00000089,0.00002731,0.000
 00552,0.00001254,-0.00001262,0.00001610,0.00001014,-0.00000398,-0.0002
 9022,0.00018375,-0.00003843,0.00003304,-0.00008470,0.00001952,0.000043
 35,-0.00001692,0.00001491,0.00003980,-0.00004226,-0.00002011,-0.119117
 14,-0.13254530,0.03318866,-0.00327491,-0.00062123,0.00179672,0.0100853
 7,0.01039888,-0.00296388,0.13537850,0.15832704,-0.00070874,-0.00007930
 ,0.00041985,-0.00009008,0.00007642,0.00003258,-0.00005604,-0.00001891,
 0.00004516,0.00002992,-0.00028097,0.00033359,0.00041035,-0.00230671,-0
 .00136865,0.00000856,-0.00000582,-0.00000741,0.00000583,0.00000370,0.0
 0002549,0.00002886,-0.00001333,0.00000170,0.00015819,0.00017923,0.0000
 5335,-0.00019680,-0.00031373,0.00030414,0.00005402,-0.00004789,-0.0000
 1373,0.00008528,0.00004587,-0.00002956,0.00019720,-0.00044034,0.000017
 01,-0.01329498,-0.01502068,0.00259432,0.00008241,0.00010003,-0.0000908
 3,-0.00001828,-0.00000831,0.00000187,-0.00000162,-0.00000045,0.0000062
 6,-0.00012600,-0.00005342,-0.00001460,-0.00004978,-0.00007327,0.000021
 18,0.00000329,-0.00001304,0.00002608,-0.00000012,0.00001076,-0.0000487
 2,0.00000479,0.00002285,0.00000064,-0.00010292,0.00004916,-0.00000598,
 0.00001329,-0.00003323,0.00000577,0.00001486,-0.00000791,0.00000391,0.
 00001387,-0.00001729,-0.00000817,0.05122253,0.03928432,-0.06581543,0.0
 2566549,0.01795166,-0.00359860,-0.01150162,-0.00765817,0.00371670,-0.0
 5185729,-0.03135030,0.06340266,-0.00016272,0.00013387,-0.00002492,-0.0
 0062537,-0.00029755,0.00021833,-0.00160430,0.00078760,0.00031511,-0.00
 338471,0.00056818,-0.00085926,-0.00039737,-0.00092469,-0.00051296,0.00
 005643,-0.00014122,-0.00002826,0.00008543,0.00015232,0.00015516,0.0001
 3441,-0.00009398,0.00003346,-0.00037596,-0.00033299,-0.00014393,-0.000
 02697,0.00003094,-0.00011372,0.00156874,-0.00021757,-0.00081552,0.0006
 4970,0.00011450,-0.00006467,0.00092266,-0.00086265,0.00053051,0.000578
 59,0.00070149,0.00023976,-0.04692551,-0.01744986,-0.00849042,0.0041406
 6,-0.00250635,0.00177152,0.00595844,-0.00082258,0.00373480,-0.16179641
 ,-0.05458619,-0.01253338,-0.00019081,-0.00024913,-0.00005682,-0.000015
 05,0.00003643,0.00000977,-0.00000482,0.00002909,0.00002586,0.00005322,
 0.00001693,-0.00001132,-0.00016403,0.00075989,-0.00009687,-0.00001437,
 -0.00007120,0.00002372,0.00013754,-0.00013008,0.00005124,0.00006591,-0
 .00008396,-0.00002669,0.00003028,-0.00041650,-0.00029959,-0.00002682,0
 .00002651,0.00007523,-0.00003751,-0.00002886,0.00003014,0.00004389,0.0
 0006110,0.00002865,0.52489783,-0.00030039,0.00033567,-0.00007427,-0.00
 055397,-0.00020235,0.00021906,-0.00124355,0.00087811,0.00024537,0.0026
 2068,-0.00256696,0.00329042,-0.00055862,0.00091951,-0.00114429,0.00007
 221,-0.00012393,-0.00002535,0.00010172,0.00008768,0.00012169,0.0001167
 1,-0.00009587,0.00001544,-0.00047617,0.00021780,-0.00003339,-0.0000583
 0,-0.00001540,-0.00006596,0.00129245,-0.00029547,-0.00058375,0.0004969
 0,0.00004019,-0.00009682,0.00061156,-0.00089975,0.00035838,0.00148837,
 0.00092717,0.00054496,0.00557002,0.00557423,-0.00366298,0.00558643,0.0
 0167779,0.00267984,0.00306373,-0.00010527,0.00241048,-0.08821076,-0.13
 997016,0.00504909,-0.00013487,-0.00015959,-0.00003362,-0.00002566,0.00
 003130,-0.00000283,-0.00000191,0.00001498,0.00003117,0.00004203,0.0000
 0614,-0.00001245,-0.00014306,0.00064367,-0.00005526,-0.00000248,-0.000
 07294,0.00004648,0.00010192,-0.00011547,0.00002913,0.00008203,-0.00007
 427,-0.00003083,0.00011989,-0.00058301,-0.00035731,-0.00003404,0.00004
 941,0.00008581,-0.00006016,0.00000429,0.00004095,0.00003097,0.00009323
 ,0.00003981,-0.07454076,0.54218893,0.00005042,-0.00010121,-0.00005960,
 0.00007526,-0.00007652,-0.00000386,-0.00013312,0.00018185,0.00019737,-
 0.00377632,0.00085085,-0.00303112,-0.00022061,-0.00043433,0.00077738,0
 .00000565,0.00001302,-0.00000632,0.00003929,-0.00002158,-0.00001322,-0
 .00002403,0.00002833,0.00001075,-0.00001603,0.00016645,-0.00006364,0.0
 0005025,-0.00003805,0.00000614,0.00020177,-0.00002024,-0.00007999,-0.0
 0006062,-0.00002427,-0.00000174,-0.00005942,0.00007286,-0.00010527,-0.
 00056889,-0.00022247,-0.00021199,-0.02262656,-0.01466010,-0.00609828,0
 .00123524,0.00069630,0.00113007,-0.00333212,-0.00154876,0.00156344,0.0
 0883625,0.02168661,-0.07241101,0.00002120,0.00003267,0.00001017,0.0000
 0588,-0.00000467,-0.00000256,0.00000057,-0.00000146,-0.00000223,-0.000
 00565,-0.00000251,0.00000386,0.00003413,-0.00005457,0.00004108,-0.0000
 0015,0.00001640,0.00000979,-0.00001523,0.00000353,-0.00000689,0.000004
 84,0.00000927,-0.00000712,-0.00002703,0.00015939,0.00012946,-0.0000006
 1,-0.00000874,-0.00002712,0.00001536,-0.00001496,-0.00000521,0.0000023
 0,-0.00002691,-0.00001560,0.02353664,-0.01654584,0.59324354,-0.0000624
 6,-0.00006124,-0.00002684,0.00001878,0.00001186,-0.00001646,0.00006816
 ,-0.00006533,-0.00001034,-0.00009278,-0.00021660,-0.00001181,0.0000046
 3,0.00013276,0.00015909,-0.00000804,0.00000934,0.00000300,-0.00001501,
 -0.00000134,-0.00000390,-0.00000779,0.00002185,0.00000039,-0.00004275,
 0.00026848,-0.00002610,0.00001165,-0.00000248,0.00000377,-0.00006057,0
 .00005287,0.00001716,-0.00002630,-0.00000003,0.00000484,0.00000621,0.0
 0002135,-0.00000253,-0.00004129,-0.00004704,-0.00001472,0.00568205,-0.
 00497938,0.00122473,0.00096973,0.00180615,0.00070480,-0.00068604,0.000
 37877,-0.00016936,-0.00305083,-0.03557621,-0.01342321,0.00000818,0.000
 00818,0.00000272,0.00000154,-0.00000128,-0.00000023,-0.00000010,-0.000
 00073,-0.00000175,-0.00000193,-0.00000003,0.00000070,0.00001371,-0.000
 00695,0.00001089,-0.00000055,0.00000370,-0.00000122,0.00000063,-0.0000
 0164,0.00000089,-0.00000293,0.00000181,-0.00000039,0.00000475,0.000024
 68,0.00002761,0.00000021,-0.00000117,-0.00000621,-0.00000005,0.0000015
 0,-0.00000399,-0.00000312,-0.00000396,-0.00000356,-0.07353291,0.067140
 82,0.02659006,0.07558487,0.00000840,-0.00008562,-0.00002141,0.00010983
 ,0.00006139,-0.00005385,0.00026534,-0.00020519,-0.00007017,-0.00022129
 ,0.00059897,-0.00032185,0.00012698,0.00004341,0.00029119,-0.00002092,0
 .00002373,0.00000750,-0.00003989,-0.00001553,-0.00002971,-0.00002661,0
 .00003110,-0.00000012,0.00035319,0.00024717,0.00003690,0.00001073,-0.0
 0000139,0.00001285,-0.00023725,0.00007664,0.00012451,-0.00010245,-0.00
 000525,0.00002521,-0.00014510,0.00019458,-0.00007574,-0.00022999,-0.00
 016774,-0.00007232,0.00395611,0.00021942,0.00323031,-0.00157951,0.0004
 7609,-0.00065506,-0.00032675,0.00006060,-0.00058547,-0.01271100,-0.026
 14757,-0.00707551,0.00002565,0.00002902,0.00000530,0.00000585,-0.00000
 607,0.00000163,0.00000026,-0.00000297,-0.00000736,-0.00000896,-0.00000
 097,0.00000235,0.00003119,-0.00013853,0.00000575,0.00000083,0.00001558
 ,-0.00001110,-0.00001997,0.00002628,-0.00000521,-0.00001903,0.00001574
 ,0.00000819,-0.00000306,0.00009138,0.00006857,0.00000657,-0.00000774,-
 0.00001536,0.00000772,0.00000248,-0.00001187,-0.00000947,-0.00001573,-
 0.00000784,0.06290372,-0.24520349,-0.08262538,-0.05768881,0.27558940,-
 0.00003795,-0.00005861,0.00002793,-0.00000743,0.00001787,-0.00000633,0
 .00001175,-0.00002798,0.00001446,-0.00016268,0.00020327,0.00004822,-0.
 00003636,-0.00003520,-0.00001181,0.00000302,0.00000233,-0.00000079,-0.
 00001207,0.00000393,0.00001149,0.00000910,0.00000376,-0.00000356,0.000
 05632,0.00007715,-0.00003303,0.00000519,-0.00000098,0.00000188,-0.0000
 0511,-0.00000193,-0.00001258,0.00001316,0.00000852,-0.00000749,0.00006
 742,0.00001041,0.00002556,0.00000239,0.00002456,0.00000437,0.00085662,
 -0.00126674,0.00031486,-0.00027843,0.00031345,0.00034571,0.00026183,-0
 .00005683,-0.00028648,-0.00419423,0.00138736,0.00437279,-0.00000327,-0
 .00000897,0.00000068,-0.00000032,0.00000023,-0.00000008,-0.00000046,0.
 00000163,-0.00000065,0.00000134,0.00000085,-0.00000003,-0.00001688,0.0
 0002293,0.00000530,-0.00000393,0.00000491,-0.00000719,0.00001115,-0.00
 000144,0.00000248,-0.00000019,-0.00000271,-0.00000373,0.00000513,-0.00
 001293,-0.00000942,0.00000116,0.00000004,0.00000273,-0.00000202,-0.000
 00002,-0.00000176,0.00000027,0.00000172,0.00000144,0.02638230,-0.08316
 721,-0.09059577,-0.02777968,0.09245011,0.08731668,-0.00000471,-0.00004
 701,0.00004042,0.00009380,0.00008622,-0.00002796,0.00025861,-0.0001332
 4,-0.00010885,0.00008290,0.00005496,-0.00024316,0.00013030,-0.00003926
 ,0.00019764,-0.00001006,-0.00000282,-0.00000451,-0.00002521,-0.0000148
 7,-0.00001616,-0.00001341,0.00001361,-0.00000456,0.00010185,0.00009536
 ,0.00003151,-0.00001148,0.00000251,-0.00002348,-0.00008219,0.00019618,
 -0.00009641,-0.00007885,-0.00001392,0.00000422,-0.00006815,0.00010593,
 -0.00007464,-0.00013489,-0.00012192,-0.00007436,0.00414806,-0.00158862
 ,0.00581484,-0.00053622,0.00030219,-0.00026562,0.00039737,0.00036836,-
 0.00143853,-0.02487870,-0.01431870,0.02393933,0.00002253,0.00002738,0.
 00000743,0.00000178,-0.00000519,-0.00000091,-0.00000023,-0.00000330,-0
 .00000406,-0.00000607,-0.00000160,0.00000136,0.00001399,-0.00007201,0.
 00000965,-0.00000063,0.00001212,-0.00000348,-0.00001233,0.00001303,-0.
 00000540,-0.00000445,0.00000645,-0.00000100,-0.00001237,0.00006671,0.0
 0004443,0.00000171,-0.00000658,-0.00001418,0.00000523,-0.00000012,-0.0
 0000426,-0.00000371,-0.00001037,-0.00000580,-0.07953792,-0.00335932,0.
 07435888,-0.00096427,0.00098881,0.00936253,0.09053829,0.00001322,-0.00
 003422,0.00000292,0.00009268,0.00005646,-0.00003246,0.00025104,-0.0001
 6762,-0.00009125,0.00017232,0.00010412,-0.00019043,0.00016670,0.000008
 32,0.00017203,-0.00001514,0.00000952,0.00000137,-0.00002472,-0.0000090
 6,-0.00002117,-0.00002034,0.00001679,-0.00000204,0.00004836,0.00004015
 ,0.00003606,-0.00000470,0.00000528,0.00000292,-0.00018459,0.00008816,0
 .00006058,-0.00008444,-0.00000973,0.00001508,-0.00009751,0.00011295,-0
 .00004791,-0.00015900,-0.00014759,-0.00006333,0.00327892,-0.00060297,0
 .00196472,-0.00041954,-0.00004711,-0.00048457,-0.00026097,0.00035412,-
 0.00100279,-0.02040261,-0.00704140,0.02177730,0.00002442,0.00002847,0.
 00000620,0.00000319,-0.00000476,-0.00000004,-0.00000001,-0.00000337,-0
 .00000456,-0.00000684,-0.00000114,0.00000159,0.00002929,-0.00008684,0.
 00000606,0.00000228,0.00000648,-0.00000376,-0.00001667,0.00001330,-0.0
 0000464,-0.00001132,0.00000987,0.00000514,-0.00001660,0.00008872,0.000
 05313,0.00000286,-0.00000661,-0.00001534,0.00000738,-0.00000257,-0.000
 00406,-0.00000458,-0.00001282,-0.00000628,-0.00387679,-0.05395617,0.01
 571162,0.01025970,0.00444104,-0.02760880,0.01608400,0.05679945,-0.0000
 2055,0.00004771,-0.00000417,-0.00007783,-0.00001783,0.00001572,-0.0001
 9811,0.00006930,0.00004736,0.00019054,-0.00021289,0.00046834,-0.000098
 45,0.00000770,-0.00016944,0.00000893,-0.00000449,0.00000101,-0.0000048
 3,0.00001887,0.00001252,0.00001576,-0.00001654,0.00000276,-0.00005145,
 -0.00004863,-0.00002773,-0.00000061,0.00000360,-0.00000963,0.00005421,
 -0.00005647,-0.00008950,0.00008064,0.00001320,-0.00000220,0.00007108,-
 0.00009797,0.00006662,0.00015745,0.00011803,0.00006570,-0.00201915,0.0
 0017248,0.00272744,0.00012985,-0.00031161,-0.00036352,0.00227574,0.000
 05620,0.00034532,0.00400449,0.00503060,0.00719097,-0.00002581,-0.00003
 127,-0.00000990,-0.00000218,0.00000485,0.00000240,0.00000021,0.0000030
 0,0.00000332,0.00000621,0.00000202,-0.00000215,-0.00001899,0.00007979,
 -0.00002555,-0.00000029,-0.00001229,0.00000156,0.00001430,-0.00001180,
 0.00000629,0.00000453,-0.00000987,0.00000093,0.00001099,-0.00007710,-0
 .00005529,-0.00000209,0.00000456,0.00001499,-0.00000630,0.00000117,0.0
 0000227,0.00000310,0.00001130,0.00000526,0.07733216,0.01851703,-0.2760
 4299,0.00291717,0.00091072,-0.01056800,-0.09092241,-0.02414398,0.29190
 494,0.00005642,-0.00008725,-0.00001234,0.00013962,0.00003407,-0.000050
 80,0.00026273,-0.00017101,-0.00003783,-0.00102105,0.00085179,-0.001546
 81,0.00019654,-0.00030096,0.00049540,-0.00002544,0.00003424,0.00000392
 ,-0.00001599,-0.00001998,-0.00003132,-0.00003369,0.00002929,0.00000074
 ,0.00007230,0.00002317,0.00003866,0.00001755,0.00000457,0.00000259,-0.
 00026897,0.00010869,0.00013287,-0.00013165,-0.00001944,0.00002891,-0.0
 0013963,0.00018737,-0.00008309,-0.00046768,-0.00028291,-0.00017014,-0.
 00168415,-0.00455333,0.00175398,0.00000100,0.00012155,0.00013973,-0.00
 010020,-0.00001010,-0.00040957,-0.02976786,0.00676668,-0.01801775,0.00
 003659,0.00004966,0.00000597,0.00000740,-0.00000873,0.00000116,0.00000
 136,-0.00000545,-0.00000682,-0.00001112,-0.00000185,0.00000362,0.00004
 669,-0.00014055,0.00001855,0.00000129,0.00001563,-0.00000449,-0.000025
 57,0.00002053,-0.00000873,-0.00001444,0.00001698,0.00000646,-0.0000406
 4,0.00018957,0.00011362,0.00000934,-0.00001680,-0.00002518,0.00002340,
 -0.00000521,-0.00001261,-0.00000805,-0.00002843,-0.00001374,-0.1705001
 7,0.08116560,-0.10419762,-0.00377541,0.00458885,-0.00450967,0.01058944
 ,-0.00482999,0.00617171,0.19657005,0.00002785,-0.00006363,0.00000162,0
 .00004482,0.00000832,-0.00001820,0.00004995,-0.00005051,0.00001333,-0.
 00107010,0.00069351,-0.00071024,0.00002870,-0.00021976,0.00024320,-0.0
 0000526,0.00001182,0.00000111,-0.00000859,-0.00000564,-0.00000682,-0.0
 0001012,0.00001279,0.00000111,0.00011913,0.00004659,-0.00000978,0.0000
 1632,0.00000074,0.00000145,-0.00005590,0.00001768,-0.00000999,-0.00003
 466,-0.00000099,0.00000789,-0.00002819,0.00010065,-0.00002928,-0.00023
 680,-0.00012332,-0.00008200,-0.00330741,-0.00200179,-0.00014234,-0.000
 48016,0.00027282,0.00001758,-0.00000736,-0.00010606,-0.00008053,-0.022
 44014,0.00924423,-0.01585353,0.00000928,0.00001042,0.00000243,0.000003
 26,-0.00000269,0.00000062,-0.00000002,-0.00000035,-0.00000282,-0.00000
 280,0.00000002,0.00000154,0.00000486,-0.00004977,0.00000848,-0.0000018
 9,0.00001041,-0.00000692,-0.00000589,0.00001105,-0.00000128,-0.0000082
 2,0.00000694,0.00000071,-0.00002142,0.00008131,0.00004838,0.00000356,-
 0.00000766,-0.00001109,0.00000869,-0.00000612,-0.00000520,-0.00000104,
 -0.00001330,-0.00000663,0.09131033,-0.10924999,0.07680345,0.01851043,-
 0.01024021,0.01771531,0.00131502,-0.00004923,-0.00001938,-0.08372627,0
 .11166173,-0.00000175,-0.00001456,0.00000361,0.00003964,0.00001156,-0.
 00001730,0.00008151,-0.00006722,0.00000934,-0.00001003,0.00023773,0.00
 019272,0.00006186,0.00002137,0.00003528,0.00000141,0.00002222,0.000005
 92,-0.00000873,-0.00000562,-0.00000770,-0.00000637,0.00000640,-0.00000
 312,0.00001722,0.00001790,0.00001727,-0.00000525,0.00000318,-0.0000012
 0,-0.00018128,-0.00004588,0.00005973,-0.00004024,-0.00000628,0.0000032
 4,-0.00002942,0.00003059,-0.00001161,-0.00004464,-0.00005760,-0.000021
 98,0.00122644,-0.00064801,0.00138249,-0.00017362,0.00016370,-0.0000675
 3,0.00030412,0.00002978,0.00031660,-0.00041261,-0.00238689,0.00166695,
 0.00001360,0.00001609,0.00000402,0.00000089,-0.00000215,-0.00000090,0.
 00000040,-0.00000173,-0.00000142,-0.00000319,-0.00000073,0.00000073,0.
 00001542,-0.00002978,0.00000423,0.00000127,0.00000085,-0.00000113,-0.0
 0000583,0.00000301,-0.00000235,-0.00000367,0.00000298,0.00000230,-0.00
 000759,0.00003762,0.00001925,0.00000185,-0.00000270,-0.00000518,0.0000
 0424,-0.00000088,-0.00000143,-0.00000224,-0.00000483,-0.00000168,-0.11
 041602,0.07216707,-0.14833152,0.00983449,-0.00553575,0.00905211,-0.020
 47251,0.01391070,-0.01551567,0.12022064,-0.07787216,0.15121594\\0.0000
 1679,-0.00001996,-0.00003427,-0.00000622,0.00000625,0.00003233,-0.0000
 0072,-0.00000080,-0.00000736,0.00001528,0.00000229,-0.00000555,-0.0000
 1586,0.00002030,0.00000543,-0.00000849,-0.00000110,-0.00000258,-0.0000
 0868,-0.00000920,-0.00001599,0.00000281,0.00000353,0.00000018,0.000003
 45,0.00000455,0.00000387,0.00001009,-0.00000260,0.00000131,-0.00000509
 ,-0.00000417,0.00001557,-0.00000582,-0.00000123,-0.00001181,0.00000539
 ,0.00000083,0.00001459,-0.00000852,-0.00000159,-0.00001272,0.00000045,
 -0.00001602,0.00000950,0.00000016,0.00000634,0.00000494,0.00000672,0.0
 0000680,0.00001056,-0.00000591,0.00000305,0.00000810,-0.00000666,0.000
 00737,-0.00000973,0.00000197,-0.00000433,-0.00001227,-0.00000928,-0.00
 000723,-0.00001387,-0.00000395,-0.00000557,-0.00001482,-0.00000834,0.0
 0001500,-0.00000799,0.00000316,0.00000189,0.00000100,0.00000762,-0.000
 00209,-0.00000496,0.00000502,-0.00000182,-0.00000016,0.00000520,-0.000
 01068,-0.00000356,0.00000920,0.00000224,-0.00000461,-0.00000062,0.0000
 0097,-0.00000609,0.00000731,-0.00000002,-0.00000659,0.00000121,-0.0000
 0025,0.00001894,-0.00000468,0.00000170,0.00001618,0.00000059,0.0000036
 3,0.00001670,-0.00000357,0.00000193,0.00001571\\\@


 NOTHING MAKES A PERSON MORE PRODUCTIVE THAN THE LAST MINUTE.
 Job cpu time:       0 days  1 hours 17 minutes 10.4 seconds.
 Elapsed time:       0 days  0 hours 19 minutes 50.1 seconds.
 File lengths (MBytes):  RWF=    377 Int=      0 D2E=      0 Chk=     16 Scr=      1
 Normal termination of Gaussian 16 at Fri May 24 08:54:44 2019.
