 Entering Gaussian System, Link 0=g16
 Input=clay-glucose_cation-157-b3lyp_d3bj-631gd-pcm_thf.gjf
 Output=clay-glucose_cation-157-b3lyp_d3bj-631gd-pcm_thf.out
 Initial command:
 /n/sw/g16_nehalem/g16/l1.exe "/scratch/Gau-183488.inp" -scrdir="/scratch/"
 Entering Link 1 = /n/sw/g16_nehalem/g16/l1.exe PID=    183497.
  
 Copyright (c) 1988,1990,1992,1993,1995,1998,2003,2009,2016,
            Gaussian, Inc.  All Rights Reserved.
  
 This is part of the Gaussian(R) 16 program.  It is based on
 the Gaussian(R) 09 system (copyright 2009, Gaussian, Inc.),
 the Gaussian(R) 03 system (copyright 2003, Gaussian, Inc.),
 the Gaussian(R) 98 system (copyright 1998, Gaussian, Inc.),
 the Gaussian(R) 94 system (copyright 1995, Gaussian, Inc.),
 the Gaussian 92(TM) system (copyright 1992, Gaussian, Inc.),
 the Gaussian 90(TM) system (copyright 1990, Gaussian, Inc.),
 the Gaussian 88(TM) system (copyright 1988, Gaussian, Inc.),
 the Gaussian 86(TM) system (copyright 1986, Carnegie Mellon
 University), and the Gaussian 82(TM) system (copyright 1983,
 Carnegie Mellon University). Gaussian is a federally registered
 trademark of Gaussian, Inc.
  
 This software contains proprietary and confidential information,
 including trade secrets, belonging to Gaussian, Inc.
  
 This software is provided under written license and may be
 used, copied, transmitted, or stored only in accord with that
 written license.
  
 The following legend is applicable only to US Government
 contracts under FAR:
  
                    RESTRICTED RIGHTS LEGEND
  
 Use, reproduction and disclosure by the US Government is
 subject to restrictions as set forth in subparagraphs (a)
 and (c) of the Commercial Computer Software - Restricted
 Rights clause in FAR 52.227-19.
  
 Gaussian, Inc.
 340 Quinnipiac St., Bldg. 40, Wallingford CT 06492
  
  
 ---------------------------------------------------------------
 Warning -- This program may not be used in any manner that
 competes with the business of Gaussian, Inc. or will provide
 assistance to any competitor of Gaussian, Inc.  The licensee
 of this program is prohibited from giving any competitor of
 Gaussian, Inc. access to this program.  By using this program,
 the user acknowledges that Gaussian, Inc. is engaged in the
 business of creating and licensing software in the field of
 computational chemistry and represents and warrants to the
 licensee that it is not a competitor of Gaussian, Inc. and that
 it will not use this program in any manner prohibited above.
 ---------------------------------------------------------------
  

 Cite this work as:
 Gaussian 16, Revision A.03,
 M. J. Frisch, G. W. Trucks, H. B. Schlegel, G. E. Scuseria, 
 M. A. Robb, J. R. Cheeseman, G. Scalmani, V. Barone, 
 G. A. Petersson, H. Nakatsuji, X. Li, M. Caricato, A. V. Marenich, 
 J. Bloino, B. G. Janesko, R. Gomperts, B. Mennucci, H. P. Hratchian, 
 J. V. Ortiz, A. F. Izmaylov, J. L. Sonnenberg, D. Williams-Young, 
 F. Ding, F. Lipparini, F. Egidi, J. Goings, B. Peng, A. Petrone, 
 T. Henderson, D. Ranasinghe, V. G. Zakrzewski, J. Gao, N. Rega, 
 G. Zheng, W. Liang, M. Hada, M. Ehara, K. Toyota, R. Fukuda, 
 J. Hasegawa, M. Ishida, T. Nakajima, Y. Honda, O. Kitao, H. Nakai, 
 T. Vreven, K. Throssell, J. A. Montgomery, Jr., J. E. Peralta, 
 F. Ogliaro, M. J. Bearpark, J. J. Heyd, E. N. Brothers, K. N. Kudin, 
 V. N. Staroverov, T. A. Keith, R. Kobayashi, J. Normand, 
 K. Raghavachari, A. P. Rendell, J. C. Burant, S. S. Iyengar, 
 J. Tomasi, M. Cossi, J. M. Millam, M. Klene, C. Adamo, R. Cammi, 
 J. W. Ochterski, R. L. Martin, K. Morokuma, O. Farkas, 
 J. B. Foresman, and D. J. Fox, Gaussian, Inc., Wallingford CT, 2016.
 
 ******************************************
 Gaussian 16:  ES64L-G16RevA.03 25-Dec-2016
                24-May-2019 
 ******************************************
 %nprocshared=4
 Will use up to    4 processors via shared memory.
 %mem=3GB
 -------------------------------------------------------------------
 #p b3lyp 6-31g* opt freq=noraman scrf=(pcm,solvent=tetrahydrofuran)
 -------------------------------------------------------------------
 1/18=20,19=15,26=3,38=1/1,3;
 2/9=110,12=2,17=6,18=5,40=1/2;
 3/5=1,6=6,7=1,11=2,25=1,30=1,70=2201,71=1,72=20,74=-5/1,2,3;
 4//1;
 5/5=2,38=5,53=20/2;
 6/7=2,8=2,9=2,10=2,28=1/1;
 7//1,2,3,16;
 1/18=20,19=15,26=3/3(2);
 2/9=110/2;
 99//99;
 2/9=110/2;
 3/5=1,6=6,7=1,11=2,25=1,30=1,70=2205,71=1,72=20,74=-5/1,2,3;
 4/5=5,16=3,69=1/1;
 5/5=2,38=5,53=20/2;
 7//1,2,3,16;
 1/18=20,19=15,26=3/3(-5);
 2/9=110/2;
 6/7=2,8=2,9=2,10=2,19=2,28=1/1;
 99/9=1/99;
 Leave Link    1 at Fri May 24 08:32:03 2019, MaxMem=   402653184 cpu:               0.4 elap:               0.1
 (Enter /n/sw/g16_nehalem/g16/l101.exe)
 -----
 title
 -----
 Symbolic Z-matrix:
 Charge =  1 Multiplicity = 1
 6                    -0.85271   0.41377  -0.77516 
 6                    -1.26899   0.58792   0.71003 
 6                    -0.33165  -0.05904   1.68433 
 6                     1.19034  -0.89567  -0.01674 
 6                    -0.03141  -0.88207  -0.92849 
 1                    -0.5869   -0.05411   2.7447 
 1                    -1.25621   1.66282   0.9462 
 1                    -1.77498   0.3415   -1.3634 
 1                     1.57545  -1.91247   0.05786 
 1                     0.3186   -0.967    -1.96635 
 8                     0.72901  -0.67258   1.41373 
 8                    -2.5132   -0.00754   1.01096 
 8                    -0.04698   1.4812   -1.21599 
 8                    -0.78754  -2.00667  -0.52848 
 6                     2.33551   0.06508  -0.28226 
 1                     2.02408   1.10402  -0.12065 
 1                     2.6103   -0.03631  -1.3448 
 8                     3.39236  -0.30918   0.57087 
 6                    -3.52672   0.89573   1.48209 
 1                    -3.25181   1.3371    2.44694 
 1                    -3.70316   1.69181   0.74895 
 1                    -4.42921   0.29532   1.60035 
 6                    -0.76737   2.63675  -1.6494 
 1                    -1.34692   3.08679  -0.83195 
 1                    -0.02105   3.35429  -1.99292 
 1                    -1.44563   2.38419  -2.47374 
 6                    -1.80631  -2.4248   -1.44041 
 1                    -2.13952  -3.40336  -1.09082 
 1                    -2.65997  -1.73803  -1.44191 
 1                    -1.40618  -2.51843  -2.45786 
 6                     4.52754   0.53623   0.43359 
 1                     4.93312   0.49808  -0.58749 
 1                     4.28157   1.57951   0.67837 
 1                     5.27987   0.16904   1.13426 
 
 ITRead=  0  0  0  0  0  0  0  0  0  0  0  0  0  0  0  0  0  0  0  0
 ITRead=  0  0  0  0  0  0  0  0  0  0  0  0  0  0
 MicOpt= -1 -1 -1 -1 -1 -1 -1 -1 -1 -1 -1 -1 -1 -1 -1 -1 -1 -1 -1 -1
 MicOpt= -1 -1 -1 -1 -1 -1 -1 -1 -1 -1 -1 -1 -1 -1
 NAtoms=     34 NQM=       34 NQMF=       0 NMMI=      0 NMMIF=      0
                NMic=       0 NMicF=      0.
                    Isotopes and Nuclear Properties:
 (Nuclear quadrupole moments (NQMom) in fm**2, nuclear magnetic moments (NMagM)
  in nuclear magnetons)

  Atom         1           2           3           4           5           6           7           8           9          10
 IAtWgt=          12          12          12          12          12           1           1           1           1           1
 AtmWgt=  12.0000000  12.0000000  12.0000000  12.0000000  12.0000000   1.0078250   1.0078250   1.0078250   1.0078250   1.0078250
 NucSpn=           0           0           0           0           0           1           1           1           1           1
 AtZEff=   0.0000000   0.0000000   0.0000000   0.0000000   0.0000000   0.0000000   0.0000000   0.0000000   0.0000000   0.0000000
 NQMom=    0.0000000   0.0000000   0.0000000   0.0000000   0.0000000   0.0000000   0.0000000   0.0000000   0.0000000   0.0000000
 NMagM=    0.0000000   0.0000000   0.0000000   0.0000000   0.0000000   2.7928460   2.7928460   2.7928460   2.7928460   2.7928460
 AtZNuc=   6.0000000   6.0000000   6.0000000   6.0000000   6.0000000   1.0000000   1.0000000   1.0000000   1.0000000   1.0000000

  Atom        11          12          13          14          15          16          17          18          19          20
 IAtWgt=          16          16          16          16          12           1           1          16          12           1
 AtmWgt=  15.9949146  15.9949146  15.9949146  15.9949146  12.0000000   1.0078250   1.0078250  15.9949146  12.0000000   1.0078250
 NucSpn=           0           0           0           0           0           1           1           0           0           1
 AtZEff=   0.0000000   0.0000000   0.0000000   0.0000000   0.0000000   0.0000000   0.0000000   0.0000000   0.0000000   0.0000000
 NQMom=    0.0000000   0.0000000   0.0000000   0.0000000   0.0000000   0.0000000   0.0000000   0.0000000   0.0000000   0.0000000
 NMagM=    0.0000000   0.0000000   0.0000000   0.0000000   0.0000000   2.7928460   2.7928460   0.0000000   0.0000000   2.7928460
 AtZNuc=   8.0000000   8.0000000   8.0000000   8.0000000   6.0000000   1.0000000   1.0000000   8.0000000   6.0000000   1.0000000

  Atom        21          22          23          24          25          26          27          28          29          30
 IAtWgt=           1           1          12           1           1           1          12           1           1           1
 AtmWgt=   1.0078250   1.0078250  12.0000000   1.0078250   1.0078250   1.0078250  12.0000000   1.0078250   1.0078250   1.0078250
 NucSpn=           1           1           0           1           1           1           0           1           1           1
 AtZEff=   0.0000000   0.0000000   0.0000000   0.0000000   0.0000000   0.0000000   0.0000000   0.0000000   0.0000000   0.0000000
 NQMom=    0.0000000   0.0000000   0.0000000   0.0000000   0.0000000   0.0000000   0.0000000   0.0000000   0.0000000   0.0000000
 NMagM=    2.7928460   2.7928460   0.0000000   2.7928460   2.7928460   2.7928460   0.0000000   2.7928460   2.7928460   2.7928460
 AtZNuc=   1.0000000   1.0000000   6.0000000   1.0000000   1.0000000   1.0000000   6.0000000   1.0000000   1.0000000   1.0000000

  Atom        31          32          33          34
 IAtWgt=          12           1           1           1
 AtmWgt=  12.0000000   1.0078250   1.0078250   1.0078250
 NucSpn=           0           1           1           1
 AtZEff=   0.0000000   0.0000000   0.0000000   0.0000000
 NQMom=    0.0000000   0.0000000   0.0000000   0.0000000
 NMagM=    0.0000000   2.7928460   2.7928460   2.7928460
 AtZNuc=   6.0000000   1.0000000   1.0000000   1.0000000
 Leave Link  101 at Fri May 24 08:32:04 2019, MaxMem=   402653184 cpu:               0.7 elap:               0.2
 (Enter /n/sw/g16_nehalem/g16/l103.exe)

 GradGradGradGradGradGradGradGradGradGradGradGradGradGradGradGradGradGrad
 Berny optimization.
 Initialization pass.
                           ----------------------------
                           !    Initial Parameters    !
                           ! (Angstroms and Degrees)  !
 --------------------------                            --------------------------
 ! Name  Definition              Value          Derivative Info.                !
 --------------------------------------------------------------------------------
 ! R1    R(1,2)                  1.5522         estimate D2E/DX2                !
 ! R2    R(1,5)                  1.5418         estimate D2E/DX2                !
 ! R3    R(1,8)                  1.0963         estimate D2E/DX2                !
 ! R4    R(1,13)                 1.4082         estimate D2E/DX2                !
 ! R5    R(2,3)                  1.4988         estimate D2E/DX2                !
 ! R6    R(2,7)                  1.1006         estimate D2E/DX2                !
 ! R7    R(2,12)                 1.4118         estimate D2E/DX2                !
 ! R8    R(3,6)                  1.0907         estimate D2E/DX2                !
 ! R9    R(3,11)                 1.2548         estimate D2E/DX2                !
 ! R10   R(4,5)                  1.5245         estimate D2E/DX2                !
 ! R11   R(4,9)                  1.0898         estimate D2E/DX2                !
 ! R12   R(4,11)                 1.5195         estimate D2E/DX2                !
 ! R13   R(4,15)                 1.5182         estimate D2E/DX2                !
 ! R14   R(5,10)                 1.0986         estimate D2E/DX2                !
 ! R15   R(5,14)                 1.413          estimate D2E/DX2                !
 ! R16   R(12,19)                1.437          estimate D2E/DX2                !
 ! R17   R(13,23)                1.429          estimate D2E/DX2                !
 ! R18   R(14,27)                1.4298         estimate D2E/DX2                !
 ! R19   R(15,16)                1.0966         estimate D2E/DX2                !
 ! R20   R(15,17)                1.1022         estimate D2E/DX2                !
 ! R21   R(15,18)                1.4088         estimate D2E/DX2                !
 ! R22   R(18,31)                1.422          estimate D2E/DX2                !
 ! R23   R(19,20)                1.096          estimate D2E/DX2                !
 ! R24   R(19,21)                1.0965         estimate D2E/DX2                !
 ! R25   R(19,22)                1.0904         estimate D2E/DX2                !
 ! R26   R(23,24)                1.0985         estimate D2E/DX2                !
 ! R27   R(23,25)                1.0908         estimate D2E/DX2                !
 ! R28   R(23,26)                1.097          estimate D2E/DX2                !
 ! R29   R(27,28)                1.0912         estimate D2E/DX2                !
 ! R30   R(27,29)                1.0956         estimate D2E/DX2                !
 ! R31   R(27,30)                1.0973         estimate D2E/DX2                !
 ! R32   R(31,32)                1.0993         estimate D2E/DX2                !
 ! R33   R(31,33)                1.0995         estimate D2E/DX2                !
 ! R34   R(31,34)                1.0917         estimate D2E/DX2                !
 ! A1    A(2,1,5)              109.4085         estimate D2E/DX2                !
 ! A2    A(2,1,8)              107.1685         estimate D2E/DX2                !
 ! A3    A(2,1,13)             111.5881         estimate D2E/DX2                !
 ! A4    A(5,1,8)              109.838          estimate D2E/DX2                !
 ! A5    A(5,1,13)             107.5279         estimate D2E/DX2                !
 ! A6    A(8,1,13)             111.3067         estimate D2E/DX2                !
 ! A7    A(1,2,3)              113.9432         estimate D2E/DX2                !
 ! A8    A(1,2,7)              108.1662         estimate D2E/DX2                !
 ! A9    A(1,2,12)             113.1398         estimate D2E/DX2                !
 ! A10   A(3,2,7)              105.951          estimate D2E/DX2                !
 ! A11   A(3,2,12)             103.328          estimate D2E/DX2                !
 ! A12   A(7,2,12)             112.1117         estimate D2E/DX2                !
 ! A13   A(2,3,6)              118.9257         estimate D2E/DX2                !
 ! A14   A(2,3,11)             126.8323         estimate D2E/DX2                !
 ! A15   A(6,3,11)             114.185          estimate D2E/DX2                !
 ! A16   A(5,4,9)              109.4171         estimate D2E/DX2                !
 ! A17   A(5,4,11)             108.5663         estimate D2E/DX2                !
 ! A18   A(5,4,15)             119.6202         estimate D2E/DX2                !
 ! A19   A(9,4,11)             100.3596         estimate D2E/DX2                !
 ! A20   A(9,4,15)             109.6235         estimate D2E/DX2                !
 ! A21   A(11,4,15)            107.5025         estimate D2E/DX2                !
 ! A22   A(1,5,4)              112.0186         estimate D2E/DX2                !
 ! A23   A(1,5,10)             109.1862         estimate D2E/DX2                !
 ! A24   A(1,5,14)             110.8376         estimate D2E/DX2                !
 ! A25   A(4,5,10)             107.9986         estimate D2E/DX2                !
 ! A26   A(4,5,14)             104.6224         estimate D2E/DX2                !
 ! A27   A(10,5,14)            112.1119         estimate D2E/DX2                !
 ! A28   A(3,11,4)             122.1016         estimate D2E/DX2                !
 ! A29   A(2,12,19)            115.2348         estimate D2E/DX2                !
 ! A30   A(1,13,23)            114.801          estimate D2E/DX2                !
 ! A31   A(5,14,27)            115.6894         estimate D2E/DX2                !
 ! A32   A(4,15,16)            111.0734         estimate D2E/DX2                !
 ! A33   A(4,15,17)            107.3642         estimate D2E/DX2                !
 ! A34   A(4,15,18)            106.967          estimate D2E/DX2                !
 ! A35   A(16,15,17)           107.46           estimate D2E/DX2                !
 ! A36   A(16,15,18)           112.0541         estimate D2E/DX2                !
 ! A37   A(17,15,18)           111.8583         estimate D2E/DX2                !
 ! A38   A(15,18,31)           112.485          estimate D2E/DX2                !
 ! A39   A(12,19,20)           111.3968         estimate D2E/DX2                !
 ! A40   A(12,19,21)           110.5259         estimate D2E/DX2                !
 ! A41   A(12,19,22)           105.8541         estimate D2E/DX2                !
 ! A42   A(20,19,21)           109.6682         estimate D2E/DX2                !
 ! A43   A(20,19,22)           109.503          estimate D2E/DX2                !
 ! A44   A(21,19,22)           109.8217         estimate D2E/DX2                !
 ! A45   A(13,23,24)           111.8122         estimate D2E/DX2                !
 ! A46   A(13,23,25)           106.4112         estimate D2E/DX2                !
 ! A47   A(13,23,26)           110.6977         estimate D2E/DX2                !
 ! A48   A(24,23,25)           109.0158         estimate D2E/DX2                !
 ! A49   A(24,23,26)           109.1067         estimate D2E/DX2                !
 ! A50   A(25,23,26)           109.7443         estimate D2E/DX2                !
 ! A51   A(14,27,28)           105.9908         estimate D2E/DX2                !
 ! A52   A(14,27,29)           111.8843         estimate D2E/DX2                !
 ! A53   A(14,27,30)           110.8864         estimate D2E/DX2                !
 ! A54   A(28,27,29)           108.9434         estimate D2E/DX2                !
 ! A55   A(28,27,30)           109.3824         estimate D2E/DX2                !
 ! A56   A(29,27,30)           109.6533         estimate D2E/DX2                !
 ! A57   A(18,31,32)           111.3183         estimate D2E/DX2                !
 ! A58   A(18,31,33)           111.3483         estimate D2E/DX2                !
 ! A59   A(18,31,34)           106.751          estimate D2E/DX2                !
 ! A60   A(32,31,33)           108.799          estimate D2E/DX2                !
 ! A61   A(32,31,34)           109.2817         estimate D2E/DX2                !
 ! A62   A(33,31,34)           109.295          estimate D2E/DX2                !
 ! D1    D(5,1,2,3)             27.2814         estimate D2E/DX2                !
 ! D2    D(5,1,2,7)            144.8085         estimate D2E/DX2                !
 ! D3    D(5,1,2,12)           -90.3682         estimate D2E/DX2                !
 ! D4    D(8,1,2,3)            146.3226         estimate D2E/DX2                !
 ! D5    D(8,1,2,7)            -96.1504         estimate D2E/DX2                !
 ! D6    D(8,1,2,12)            28.673          estimate D2E/DX2                !
 ! D7    D(13,1,2,3)           -91.5879         estimate D2E/DX2                !
 ! D8    D(13,1,2,7)            25.9391         estimate D2E/DX2                !
 ! D9    D(13,1,2,12)          150.7625         estimate D2E/DX2                !
 ! D10   D(2,1,5,4)            -56.6341         estimate D2E/DX2                !
 ! D11   D(2,1,5,10)          -176.2133         estimate D2E/DX2                !
 ! D12   D(2,1,5,14)            59.8078         estimate D2E/DX2                !
 ! D13   D(8,1,5,4)           -174.0095         estimate D2E/DX2                !
 ! D14   D(8,1,5,10)            66.4113         estimate D2E/DX2                !
 ! D15   D(8,1,5,14)           -57.5676         estimate D2E/DX2                !
 ! D16   D(13,1,5,4)            64.7229         estimate D2E/DX2                !
 ! D17   D(13,1,5,10)          -54.8563         estimate D2E/DX2                !
 ! D18   D(13,1,5,14)         -178.8352         estimate D2E/DX2                !
 ! D19   D(2,1,13,23)          -83.8753         estimate D2E/DX2                !
 ! D20   D(5,1,13,23)          156.1418         estimate D2E/DX2                !
 ! D21   D(8,1,13,23)           35.7987         estimate D2E/DX2                !
 ! D22   D(1,2,3,6)           -175.2743         estimate D2E/DX2                !
 ! D23   D(1,2,3,11)             1.8099         estimate D2E/DX2                !
 ! D24   D(7,2,3,6)             65.9288         estimate D2E/DX2                !
 ! D25   D(7,2,3,11)          -116.987          estimate D2E/DX2                !
 ! D26   D(12,2,3,6)           -52.1078         estimate D2E/DX2                !
 ! D27   D(12,2,3,11)          124.9764         estimate D2E/DX2                !
 ! D28   D(1,2,12,19)         -119.2013         estimate D2E/DX2                !
 ! D29   D(3,2,12,19)          117.102          estimate D2E/DX2                !
 ! D30   D(7,2,12,19)            3.4553         estimate D2E/DX2                !
 ! D31   D(2,3,11,4)            -2.6484         estimate D2E/DX2                !
 ! D32   D(6,3,11,4)           174.5541         estimate D2E/DX2                !
 ! D33   D(9,4,5,1)            164.1072         estimate D2E/DX2                !
 ! D34   D(9,4,5,10)           -75.6196         estimate D2E/DX2                !
 ! D35   D(9,4,5,14)            43.9708         estimate D2E/DX2                !
 ! D36   D(11,4,5,1)            55.4724         estimate D2E/DX2                !
 ! D37   D(11,4,5,10)          175.7456         estimate D2E/DX2                !
 ! D38   D(11,4,5,14)          -64.6639         estimate D2E/DX2                !
 ! D39   D(15,4,5,1)           -68.3013         estimate D2E/DX2                !
 ! D40   D(15,4,5,10)           51.9719         estimate D2E/DX2                !
 ! D41   D(15,4,5,14)          171.5623         estimate D2E/DX2                !
 ! D42   D(5,4,11,3)           -25.9628         estimate D2E/DX2                !
 ! D43   D(9,4,11,3)          -140.6654         estimate D2E/DX2                !
 ! D44   D(15,4,11,3)          104.7761         estimate D2E/DX2                !
 ! D45   D(5,4,15,16)           66.3337         estimate D2E/DX2                !
 ! D46   D(5,4,15,17)          -50.8852         estimate D2E/DX2                !
 ! D47   D(5,4,15,18)         -171.1002         estimate D2E/DX2                !
 ! D48   D(9,4,15,16)         -166.17           estimate D2E/DX2                !
 ! D49   D(9,4,15,17)           76.611          estimate D2E/DX2                !
 ! D50   D(9,4,15,18)          -43.6039         estimate D2E/DX2                !
 ! D51   D(11,4,15,16)         -57.953          estimate D2E/DX2                !
 ! D52   D(11,4,15,17)        -175.1719         estimate D2E/DX2                !
 ! D53   D(11,4,15,18)          64.6131         estimate D2E/DX2                !
 ! D54   D(1,5,14,27)           74.5375         estimate D2E/DX2                !
 ! D55   D(4,5,14,27)         -164.5401         estimate D2E/DX2                !
 ! D56   D(10,5,14,27)         -47.7521         estimate D2E/DX2                !
 ! D57   D(2,12,19,20)         -64.7863         estimate D2E/DX2                !
 ! D58   D(2,12,19,21)          57.4013         estimate D2E/DX2                !
 ! D59   D(2,12,19,22)         176.2649         estimate D2E/DX2                !
 ! D60   D(1,13,23,24)          63.189          estimate D2E/DX2                !
 ! D61   D(1,13,23,25)        -177.8813         estimate D2E/DX2                !
 ! D62   D(1,13,23,26)         -58.6886         estimate D2E/DX2                !
 ! D63   D(5,14,27,28)         168.3367         estimate D2E/DX2                !
 ! D64   D(5,14,27,29)         -73.0409         estimate D2E/DX2                !
 ! D65   D(5,14,27,30)          49.7255         estimate D2E/DX2                !
 ! D66   D(4,15,18,31)        -178.9916         estimate D2E/DX2                !
 ! D67   D(16,15,18,31)        -57.0395         estimate D2E/DX2                !
 ! D68   D(17,15,18,31)         63.7124         estimate D2E/DX2                !
 ! D69   D(15,18,31,32)        -61.137          estimate D2E/DX2                !
 ! D70   D(15,18,31,33)         60.4595         estimate D2E/DX2                !
 ! D71   D(15,18,31,34)        179.6777         estimate D2E/DX2                !
 --------------------------------------------------------------------------------
 Trust Radius=3.00D-01 FncErr=1.00D-07 GrdErr=1.00D-06 EigMax=2.50D+02 EigMin=1.00D-04
 Number of steps in this run=    177 maximum allowed number of steps=    204.
 GradGradGradGradGradGradGradGradGradGradGradGradGradGradGradGradGradGrad

 Leave Link  103 at Fri May 24 08:32:04 2019, MaxMem=   402653184 cpu:               0.1 elap:               0.1
 (Enter /n/sw/g16_nehalem/g16/l202.exe)
                          Input orientation:                          
 ---------------------------------------------------------------------
 Center     Atomic      Atomic             Coordinates (Angstroms)
 Number     Number       Type             X           Y           Z
 ---------------------------------------------------------------------
      1          6           0       -0.852708    0.413772   -0.775163
      2          6           0       -1.268987    0.587923    0.710027
      3          6           0       -0.331647   -0.059043    1.684334
      4          6           0        1.190339   -0.895667   -0.016736
      5          6           0       -0.031408   -0.882070   -0.928493
      6          1           0       -0.586902   -0.054108    2.744695
      7          1           0       -1.256207    1.662816    0.946199
      8          1           0       -1.774979    0.341501   -1.363397
      9          1           0        1.575451   -1.912469    0.057862
     10          1           0        0.318596   -0.967004   -1.966349
     11          8           0        0.729005   -0.672578    1.413734
     12          8           0       -2.513201   -0.007541    1.010963
     13          8           0       -0.046983    1.481202   -1.215988
     14          8           0       -0.787541   -2.006671   -0.528478
     15          6           0        2.335508    0.065081   -0.282257
     16          1           0        2.024085    1.104024   -0.120646
     17          1           0        2.610301   -0.036314   -1.344803
     18          8           0        3.392358   -0.309180    0.570870
     19          6           0       -3.526718    0.895728    1.482088
     20          1           0       -3.251812    1.337099    2.446935
     21          1           0       -3.703164    1.691811    0.748946
     22          1           0       -4.429205    0.295318    1.600349
     23          6           0       -0.767367    2.636746   -1.649399
     24          1           0       -1.346918    3.086793   -0.831951
     25          1           0       -0.021049    3.354287   -1.992924
     26          1           0       -1.445633    2.384188   -2.473744
     27          6           0       -1.806313   -2.424799   -1.440407
     28          1           0       -2.139519   -3.403360   -1.090821
     29          1           0       -2.659969   -1.738029   -1.441912
     30          1           0       -1.406181   -2.518427   -2.457864
     31          6           0        4.527539    0.536225    0.433586
     32          1           0        4.933124    0.498075   -0.587491
     33          1           0        4.281570    1.579509    0.678369
     34          1           0        5.279874    0.169042    1.134262
 ---------------------------------------------------------------------
                    Distance matrix (angstroms):
                    1          2          3          4          5
     1  C    0.000000
     2  C    1.552226   0.000000
     3  C    2.558160   1.498815   0.000000
     4  C    2.542417   2.962686   2.431053   0.000000
     5  C    1.541833   2.525318   2.755791   1.524517   0.000000
     6  H    3.560753   2.239937   1.090663   3.390031   3.806101
     7  H    2.164719   1.100607   2.089127   3.668606   3.389845
     8  H    1.096278   2.148450   3.395925   3.483847   2.174007
     9  H    3.464287   3.842929   3.117310   1.089845   2.148631
    10  H    2.167353   3.478679   3.817682   2.136824   1.098573
    11  O    2.910883   2.464962   1.254844   1.519487   2.471466
    12  O    2.474871   1.411810   2.283694   3.944761   3.268882
    13  O    1.408164   2.449648   3.296249   2.935758   2.380746
    14  O    2.433854   2.915065   2.982890   2.325558   1.412967
    15  C    3.244883   3.774967   3.316113   1.518206   2.630020
    16  H    3.029980   3.435215   3.187499   2.169031   2.970225
    17  H    3.538290   4.434058   4.222706   2.125686   2.804861
    18  O    4.511657   4.748926   3.894943   2.353324   3.781331
    19  C    3.532392   2.405862   3.340804   5.263668   4.603114
    20  H    4.121911   2.740385   3.325378   5.548660   5.166162
    21  H    3.475830   2.673070   3.912489   5.588173   4.787531
    22  H    4.295162   3.296251   4.113710   5.967636   5.207869
    23  C    2.390227   3.164836   4.309397   4.356161   3.666525
    24  H    2.718917   2.937366   4.154365   4.791893   4.182315
    25  H    3.289563   4.063996   5.026880   4.840960   4.368048
    26  H    2.668197   3.659805   4.949743   4.872647   3.880242
    27  C    3.067474   3.740265   4.187535   3.653082   2.406731
    28  H    4.040547   4.464439   4.706840   4.304665   3.290499
    29  H    2.888078   3.460596   4.244230   4.191130   2.811689
    30  H    3.425727   4.438892   4.935686   3.915913   2.628049
    31  C    5.515716   5.803344   5.052762   3.659236   4.964959
    32  H    5.789489   6.337019   5.761023   4.034441   5.164074
    33  H    5.461914   5.638522   4.997858   4.020619   5.219498
    34  H    6.427625   6.575942   5.643028   4.379806   5.793920
                    6          7          8          9         10
     6  H    0.000000
     7  H    2.574953   0.000000
     8  H    4.294701   2.710947   0.000000
     9  H    3.917697   4.646514   4.280857   0.000000
    10  H    4.883364   4.228344   2.541415   2.563400   0.000000
    11  O    1.971186   3.100600   3.874371   2.022916   3.417614
    12  O    2.592031   2.091488   2.510854   4.610231   4.219482
    13  O    4.282020   2.484001   2.075239   3.971396   2.586581
    14  O    3.816598   3.982393   2.680678   2.436473   2.090914
    15  C    4.209171   4.118529   4.259269   2.145710   2.822995
    16  H    4.045825   3.494384   4.069245   3.054892   3.256450
    17  H    5.190994   4.804749   4.401565   2.560926   2.550375
    18  O    4.541485   5.063477   5.555731   2.476866   4.039582
    19  C    3.337497   2.455773   3.387114   5.995542   5.490713
    20  H    3.020904   2.518082   4.206053   6.290455   6.126482
    21  H    4.091740   2.455066   3.162788   6.429013   5.533234
    22  H    4.024291   3.516515   3.978799   6.580994   6.070948
    23  C    5.155708   2.815072   2.522940   5.394339   3.777140
    24  H    4.820299   2.279859   2.828834   5.858722   4.527037
    25  H    5.863649   3.609035   3.542521   5.873096   4.334700
    26  H    5.823642   3.500324   2.348172   5.830715   3.821052
    27  C    4.962078   4.765197   2.767549   3.734116   2.630023
    28  H    5.323466   5.531350   3.772422   4.164520   3.569973
    29  H    4.965972   4.386270   2.261375   4.496502   3.121116
    30  H    5.814697   5.393786   3.084325   3.947935   2.371362
    31  C    5.643335   5.914702   6.556584   3.853842   5.072927
    32  H    6.471403   6.482025   6.754642   4.183440   5.034042
    33  H    5.535380   5.544876   6.510243   4.461168   5.402261
    34  H    6.087886   6.707241   7.485920   4.383386   5.959754
                   11         12         13         14         15
    11  O    0.000000
    12  O    3.334126   0.000000
    13  O    3.486598   3.641140   0.000000
    14  O    2.802125   3.056845   3.631302   0.000000
    15  C    2.449771   5.018732   2.924639   3.755824   0.000000
    16  H    2.681020   4.806566   2.373049   4.212836   1.096588
    17  H    3.399064   5.639214   3.062778   4.011736   1.102178
    18  O    2.817078   5.929612   4.269355   4.643447   1.408840
    19  C    4.536015   1.437035   4.441953   4.468712   6.178073
    20  H    4.577468   2.101337   4.869158   5.109453   6.347020
    21  H    5.067189   2.091043   4.156078   4.879697   6.338390
    22  H    5.251550   2.027356   5.342466   4.805494   7.025564
    23  C    4.751162   4.137356   1.429014   4.776839   4.255628
    24  H    4.846177   3.785690   2.101247   5.133067   4.795119
    25  H    5.327621   5.151315   2.027992   5.609990   4.393019
    26  H    5.402347   4.359272   2.086518   4.847349   4.947515
    27  C    4.200504   3.514547   4.289808   1.429805   4.969456
    28  H    4.685979   4.011075   5.315385   2.023565   5.719242
    29  H    4.557965   3.005449   4.152371   2.100599   5.436064
    30  H    4.791184   4.422986   4.403034   2.089770   5.040636
    31  C    4.104967   7.085271   4.953819   5.970089   2.353595
    32  H    4.801036   7.632723   5.114979   6.245258   2.651087
    33  H    4.270056   6.985575   4.725952   6.325587   2.646404
    34  H    4.636468   7.796050   5.968320   6.656723   3.269040
                   16         17         18         19         20
    16  H    0.000000
    17  H    1.772732   0.000000
    18  O    2.085069   2.087073   0.000000
    19  C    5.781311   6.820778   7.082071   0.000000
    20  H    5.872128   7.115329   7.097524   1.096044   0.000000
    21  H    5.822634   6.872412   7.374423   1.096530   1.792402
    22  H    6.727613   7.637967   7.912148   1.090395   1.785573
    23  C    3.532496   4.318179   5.559801   4.522319   4.964021
    24  H    3.975046   5.067188   5.996772   3.860968   4.176260
    25  H    3.570950   4.340534   5.625422   5.514520   5.849720
    26  H    4.383473   4.856330   6.319024   4.711161   5.345256
    27  C    5.372738   5.022000   5.962152   4.746227   5.599355
    28  H    6.212354   5.827718   6.552620   5.198686   6.018710
    29  H    5.635900   5.539044   6.536326   4.029604   4.992977
    30  H    5.509216   4.850971   6.089333   5.628175   6.506035
    31  C    2.626186   2.676989   1.422038   8.130169   8.075474
    32  H    3.007927   2.500920   2.089837   8.718384   8.769543
    33  H    2.441465   3.081761   2.090311   7.879269   7.741992
    34  H    3.612360   3.648911   2.027023   8.843366   8.710748
                   21         22         23         24         25
    21  H    0.000000
    22  H    1.789473   0.000000
    23  C    3.906900   5.426989   0.000000
    24  H    3.161820   4.817563   1.098473   0.000000
    25  H    4.882586   6.457611   1.090809   1.782509   0.000000
    26  H    3.995192   5.464734   1.096984   1.788542   1.789335
    27  C    5.033665   4.850237   5.171298   5.564073   6.073737
    28  H    5.638306   5.115201   6.219139   6.543494   7.139152
    29  H    4.201418   4.064486   4.771127   5.037367   5.761874
    30  H    5.769390   5.790071   5.257139   5.836574   6.051738
    31  C    8.317410   9.035631   6.065232   6.528110   5.875294
    32  H    8.820235   9.616702   6.180385   6.797069   5.888720
    33  H    7.985836   8.853067   5.659330   6.019373   5.366393
    34  H    9.119335   9.721080   7.099821   7.502909   6.929997
                   26         27         28         29         30
    26  H    0.000000
    27  C    4.931960   0.000000
    28  H    5.990798   1.091246   0.000000
    29  H    4.419498   1.095620   1.779736   0.000000
    30  H    4.902799   1.097311   1.785972   1.792530   0.000000
    31  C    6.895384   7.238591   7.892643   7.768526   7.273267
    32  H    6.914037   7.395314   8.093010   7.961486   7.265285
    33  H    6.586667   7.588545   8.318017   7.980389   7.679814
    34  H    7.947139   7.973141   8.529973   8.562400   8.051658
                   31         32         33         34
    31  C    0.000000
    32  H    1.099342   0.000000
    33  H    1.099482   1.787854   0.000000
    34  H    1.091686   1.786878   1.787139   0.000000
 Stoichiometry    C10H19O5(1+)
 Framework group  C1[X(C10H19O5)]
 Deg. of freedom    96
 Full point group                 C1      NOp   1
 Largest Abelian subgroup         C1      NOp   1
 Largest concise Abelian subgroup C1      NOp   1
                         Standard orientation:                         
 ---------------------------------------------------------------------
 Center     Atomic      Atomic             Coordinates (Angstroms)
 Number     Number       Type             X           Y           Z
 ---------------------------------------------------------------------
      1          6           0       -0.852708    0.413772   -0.775163
      2          6           0       -1.268987    0.587923    0.710027
      3          6           0       -0.331647   -0.059043    1.684334
      4          6           0        1.190339   -0.895667   -0.016736
      5          6           0       -0.031408   -0.882070   -0.928493
      6          1           0       -0.586902   -0.054108    2.744695
      7          1           0       -1.256207    1.662816    0.946199
      8          1           0       -1.774979    0.341501   -1.363397
      9          1           0        1.575451   -1.912469    0.057862
     10          1           0        0.318596   -0.967004   -1.966349
     11          8           0        0.729005   -0.672578    1.413734
     12          8           0       -2.513201   -0.007541    1.010963
     13          8           0       -0.046983    1.481202   -1.215988
     14          8           0       -0.787541   -2.006671   -0.528478
     15          6           0        2.335508    0.065081   -0.282257
     16          1           0        2.024085    1.104024   -0.120646
     17          1           0        2.610301   -0.036314   -1.344803
     18          8           0        3.392358   -0.309180    0.570870
     19          6           0       -3.526718    0.895728    1.482088
     20          1           0       -3.251812    1.337099    2.446935
     21          1           0       -3.703164    1.691811    0.748946
     22          1           0       -4.429205    0.295318    1.600349
     23          6           0       -0.767367    2.636746   -1.649399
     24          1           0       -1.346918    3.086793   -0.831951
     25          1           0       -0.021049    3.354287   -1.992924
     26          1           0       -1.445633    2.384188   -2.473744
     27          6           0       -1.806313   -2.424799   -1.440407
     28          1           0       -2.139519   -3.403360   -1.090821
     29          1           0       -2.659969   -1.738029   -1.441912
     30          1           0       -1.406181   -2.518427   -2.457864
     31          6           0        4.527539    0.536225    0.433586
     32          1           0        4.933124    0.498075   -0.587491
     33          1           0        4.281570    1.579509    0.678369
     34          1           0        5.279874    0.169042    1.134262
 ---------------------------------------------------------------------
 Rotational constants (GHZ):           0.7916240           0.3941740           0.3679799
 Leave Link  202 at Fri May 24 08:32:04 2019, MaxMem=   402653184 cpu:               0.4 elap:               0.2
 (Enter /n/sw/g16_nehalem/g16/l301.exe)
 Standard basis: 6-31G(d) (6D, 7F)
 Ernie: Thresh=  0.10000D-02 Tol=  0.10000D-05 Strict=F.
 There are   263 symmetry adapted cartesian basis functions of A   symmetry.
 There are   263 symmetry adapted basis functions of A   symmetry.
   263 basis functions,   496 primitive gaussians,   263 cartesian basis functions
    59 alpha electrons       59 beta electrons
       nuclear repulsion energy      1163.0098391884 Hartrees.
 IExCor=  402 DFT=T Ex+Corr=B3LYP ExCW=0 ScaHFX=  0.200000
 ScaDFX=  0.800000  0.720000  1.000000  0.810000 ScalE2=  1.000000  1.000000
 IRadAn=      5 IRanWt=     -1 IRanGd=            0 ICorTp=0 IEmpDi=  4
 NAtoms=   34 NActive=   34 NUniq=   34 SFac= 1.00D+00 NAtFMM=   60 NAOKFM=F Big=F
 Integral buffers will be    131072 words long.
 Raffenetti 2 integral format.
 Two-electron integral symmetry is turned on.
 ------------------------------------------------------------------------------
 Polarizable Continuum Model (PCM)
 =================================
 Model                : PCM.
 Atomic radii         : UFF (Universal Force Field).
 Polarization charges : Total charges.
 Charge compensation  : None.
 Solution method      : On-the-fly selection.
 Cavity type          : Scaled VdW (van der Waals Surface) (Alpha=1.100).
 Cavity algorithm     : GePol (No added spheres)
                        Default sphere list used, NSphG=   34.
                        Lebedev-Laikov grids with approx.  5.0 points / Ang**2.
                        Smoothing algorithm: York/Karplus (Gamma=1.0000).
                        Polarization charges: spherical gaussians, with
                                              point-specific exponents (IZeta= 3).
                        Self-potential: point-specific (ISelfS= 7).
                        Self-field    : sphere-specific E.n sum rule (ISelfD= 2).
 1st derivatives      : Analytical E(r).r(x)/FMM algorithm (CHGder, D1EAlg=3).
                        Cavity 1st derivative terms included.
 Solvent              : TetraHydroFuran, Eps=   7.425700 Eps(inf)=   1.974025
 ------------------------------------------------------------------------------
 GePol: Number of generator spheres                  =      34
 GePol: Total number of spheres                      =      34
 GePol: Number of exposed spheres                    =      34 (100.00%)
 GePol: Number of points                             =    2318
 GePol: Average weight of points                     =       0.13
 GePol: Minimum weight of points                     =   0.66D-10
 GePol: Maximum weight of points                     =    0.20577
 GePol: Number of points with low weight             =     147
 GePol: Fraction of low-weight points (<1% of avg)   =       6.34%
 GePol: Cavity surface area                          =    307.954 Ang**2
 GePol: Cavity volume                                =    322.919 Ang**3
 Leave Link  301 at Fri May 24 08:32:04 2019, MaxMem=   402653184 cpu:               0.3 elap:               0.1
 (Enter /n/sw/g16_nehalem/g16/l302.exe)
 NPDir=0 NMtPBC=     1 NCelOv=     1 NCel=       1 NClECP=     1 NCelD=      1
         NCelK=      1 NCelE2=     1 NClLst=     1 CellRange=     0.0.
 One-electron integrals computed using PRISM.
 One-electron integral symmetry used in STVInt
 NBasis=   263 RedAO= T EigKep=  2.00D-03  NBF=   263
 NBsUse=   263 1.00D-06 EigRej= -1.00D+00 NBFU=   263
 Precomputing XC quadrature grid using
 IXCGrd= 4 IRadAn=           5 IRanWt=          -1 IRanGd=           0 AccXCQ= 0.00D+00.
 Generated NRdTot=       0 NPtTot=           0 NUsed=           0 NTot=          32
 NSgBfM=   262   262   262   262   262 MxSgAt=    34 MxSgA2=    34.
 Leave Link  302 at Fri May 24 08:32:06 2019, MaxMem=   402653184 cpu:               5.1 elap:               1.6
 (Enter /n/sw/g16_nehalem/g16/l303.exe)
 DipDrv:  MaxL=1.
 Leave Link  303 at Fri May 24 08:32:06 2019, MaxMem=   402653184 cpu:               0.7 elap:               0.3
 (Enter /n/sw/g16_nehalem/g16/l401.exe)
 ExpMin= 1.61D-01 ExpMax= 5.48D+03 ExpMxC= 8.25D+02 IAcc=3 IRadAn=         5 AccDes= 0.00D+00
 Harris functional with IExCor=  402 and IRadAn=       5 diagonalized for initial guess.
 HarFok:  IExCor=  402 AccDes= 0.00D+00 IRadAn=         5 IDoV= 1 UseB2=F ITyADJ=14
 ICtDFT=  3500011 ScaDFX=  1.000000  1.000000  1.000000  1.000000
 FoFCou: FMM=F IPFlag=           0 FMFlag=      100000 FMFlg1=           0
         NFxFlg=           0 DoJE=T BraDBF=F KetDBF=T FulRan=T
         wScrn=  0.000000 ICntrl=       500 IOpCl=  0 I1Cent=   200000004 NGrid=           0
         NMat0=    1 NMatS0=      1 NMatT0=    0 NMatD0=    1 NMtDS0=    0 NMtDT0=    0
 Petite list used in FoFCou.
 Harris En= -768.261011536889    
 JPrj=0 DoOrth=F DoCkMO=F.
 Leave Link  401 at Fri May 24 08:32:11 2019, MaxMem=   402653184 cpu:              20.0 elap:               5.0
 (Enter /n/sw/g16_nehalem/g16/l502.exe)
 Integral symmetry usage will be decided dynamically.
 Closed shell SCF:
 Using DIIS extrapolation, IDIIS=  1040.
 NGot=   402653184 LenX=   402510103 LenY=   402440493
 Requested convergence on RMS density matrix=1.00D-08 within 128 cycles.
 Requested convergence on MAX density matrix=1.00D-06.
 Requested convergence on             energy=1.00D-06.
 No special actions if energy rises.
 Fock matrices will be formed incrementally for  20 cycles.

 Cycle   1  Pass 1  IDiag  1:
 FoFJK:  IHMeth= 1 ICntrl=       0 DoSepK=F KAlg= 0 I1Cent=           0 FoldK=F
 IRaf= 880000000 NMat=       1 IRICut=       1 DoRegI=T DoRafI=F ISym2E= 0 IDoP0=0 IntGTp=1.
 FoFCou: FMM=F IPFlag=           0 FMFlag=      100000 FMFlg1=           0
         NFxFlg=           0 DoJE=F BraDBF=F KetDBF=F FulRan=T
         wScrn=  0.000000 ICntrl=         0 IOpCl=  0 I1Cent=           0 NGrid=           0
         NMat0=    1 NMatS0=      1 NMatT0=    0 NMatD0=    1 NMtDS0=    0 NMtDT0=    0
 Symmetry not used in FoFCou.
 Inv3:  Mode=1 IEnd=    16119372.
 Iteration    1 A*A^-1 deviation from unit magnitude is 7.55D-15 for   2315.
 Iteration    1 A*A^-1 deviation from orthogonality  is 1.89D-15 for   2028    224.
 Iteration    1 A^-1*A deviation from unit magnitude is 7.55D-15 for   2315.
 Iteration    1 A^-1*A deviation from orthogonality  is 4.15D-15 for   2061   2020.
 E= -768.098677547949    
 DIIS: error= 2.25D-02 at cycle   1 NSaved=   1.
 NSaved= 1 IEnMin= 1 EnMin= -768.098677547949     IErMin= 1 ErrMin= 2.25D-02
 ErrMax= 2.25D-02  0.00D+00 EMaxC= 1.00D-01 BMatC= 2.50D-01 BMatP= 2.50D-01
 IDIUse=3 WtCom= 7.75D-01 WtEn= 2.25D-01
 Coeff-Com:  0.100D+01
 Coeff-En:   0.100D+01
 Coeff:      0.100D+01
 Gap=     0.055 Goal=   None    Shift=    0.000
 GapD=    0.055 DampG=0.500 DampE=0.500 DampFc=0.2500 IDamp=-1.
 Damping current iteration by 2.50D-01
 RMSDP=4.11D-03 MaxDP=1.12D-01              OVMax= 2.07D-01

 Cycle   2  Pass 1  IDiag  1:
 RMSU=  1.02D-03    CP:  9.95D-01
 E= -768.178750319354     Delta-E=       -0.080072771405 Rises=F Damp=T
 DIIS: error= 1.12D-02 at cycle   2 NSaved=   2.
 NSaved= 2 IEnMin= 2 EnMin= -768.178750319354     IErMin= 2 ErrMin= 1.12D-02
 ErrMax= 1.12D-02  0.00D+00 EMaxC= 1.00D-01 BMatC= 7.14D-02 BMatP= 2.50D-01
 IDIUse=3 WtCom= 8.88D-01 WtEn= 1.12D-01
 Coeff-Com: -0.851D+00 0.185D+01
 Coeff-En:   0.000D+00 0.100D+01
 Coeff:     -0.756D+00 0.176D+01
 Gap=     0.147 Goal=   None    Shift=    0.000
 RMSDP=1.26D-03 MaxDP=3.00D-02 DE=-8.01D-02 OVMax= 1.91D-01

 Cycle   3  Pass 1  IDiag  1:
 RMSU=  1.03D-03    CP:  9.87D-01  1.68D+00
 E= -768.316673308322     Delta-E=       -0.137922988968 Rises=F Damp=F
 DIIS: error= 6.17D-03 at cycle   3 NSaved=   3.
 NSaved= 3 IEnMin= 3 EnMin= -768.316673308322     IErMin= 3 ErrMin= 6.17D-03
 ErrMax= 6.17D-03  0.00D+00 EMaxC= 1.00D-01 BMatC= 1.98D-02 BMatP= 7.14D-02
 IDIUse=3 WtCom= 9.38D-01 WtEn= 6.17D-02
 Coeff-Com: -0.486D+00 0.940D+00 0.546D+00
 Coeff-En:   0.000D+00 0.000D+00 0.100D+01
 Coeff:     -0.456D+00 0.882D+00 0.574D+00
 Gap=     0.141 Goal=   None    Shift=    0.000
 RMSDP=5.99D-04 MaxDP=3.02D-02 DE=-1.38D-01 OVMax= 3.69D-02

 Cycle   4  Pass 1  IDiag  1:
 RMSU=  4.09D-04    CP:  9.90D-01  1.81D+00  5.99D-01
 E= -768.330108289332     Delta-E=       -0.013434981009 Rises=F Damp=F
 DIIS: error= 2.34D-03 at cycle   4 NSaved=   4.
 NSaved= 4 IEnMin= 4 EnMin= -768.330108289332     IErMin= 4 ErrMin= 2.34D-03
 ErrMax= 2.34D-03  0.00D+00 EMaxC= 1.00D-01 BMatC= 3.48D-03 BMatP= 1.98D-02
 IDIUse=3 WtCom= 9.77D-01 WtEn= 2.34D-02
 Coeff-Com: -0.161D+00 0.276D+00 0.308D+00 0.577D+00
 Coeff-En:   0.000D+00 0.000D+00 0.115D+00 0.885D+00
 Coeff:     -0.158D+00 0.270D+00 0.304D+00 0.584D+00
 Gap=     0.138 Goal=   None    Shift=    0.000
 RMSDP=2.15D-04 MaxDP=1.26D-02 DE=-1.34D-02 OVMax= 1.57D-02

 Cycle   5  Pass 1  IDiag  1:
 RMSU=  1.23D-04    CP:  9.89D-01  1.82D+00  6.87D-01  6.36D-01
 E= -768.332608826103     Delta-E=       -0.002500536772 Rises=F Damp=F
 DIIS: error= 7.23D-04 at cycle   5 NSaved=   5.
 NSaved= 5 IEnMin= 5 EnMin= -768.332608826103     IErMin= 5 ErrMin= 7.23D-04
 ErrMax= 7.23D-04  0.00D+00 EMaxC= 1.00D-01 BMatC= 3.61D-04 BMatP= 3.48D-03
 IDIUse=3 WtCom= 9.93D-01 WtEn= 7.23D-03
 Coeff-Com: -0.550D-01 0.869D-01 0.110D+00 0.319D+00 0.539D+00
 Coeff-En:   0.000D+00 0.000D+00 0.000D+00 0.199D-01 0.980D+00
 Coeff:     -0.546D-01 0.863D-01 0.109D+00 0.316D+00 0.543D+00
 Gap=     0.141 Goal=   None    Shift=    0.000
 RMSDP=6.91D-05 MaxDP=3.43D-03 DE=-2.50D-03 OVMax= 3.18D-03

 Cycle   6  Pass 1  IDiag  1:
 RMSU=  4.76D-05    CP:  9.89D-01  1.82D+00  6.88D-01  7.01D-01  6.57D-01
 E= -768.332848637989     Delta-E=       -0.000239811886 Rises=F Damp=F
 DIIS: error= 2.58D-04 at cycle   6 NSaved=   6.
 NSaved= 6 IEnMin= 6 EnMin= -768.332848637989     IErMin= 6 ErrMin= 2.58D-04
 ErrMax= 2.58D-04  0.00D+00 EMaxC= 1.00D-01 BMatC= 5.08D-05 BMatP= 3.61D-04
 IDIUse=3 WtCom= 9.97D-01 WtEn= 2.58D-03
 Coeff-Com: -0.152D-01 0.202D-01 0.254D-01 0.126D+00 0.330D+00 0.513D+00
 Coeff-En:   0.000D+00 0.000D+00 0.000D+00 0.000D+00 0.595D-01 0.941D+00
 Coeff:     -0.152D-01 0.201D-01 0.253D-01 0.126D+00 0.330D+00 0.515D+00
 Gap=     0.141 Goal=   None    Shift=    0.000
 RMSDP=2.18D-05 MaxDP=1.59D-03 DE=-2.40D-04 OVMax= 1.25D-03

 Cycle   7  Pass 1  IDiag  1:
 RMSU=  1.58D-05    CP:  9.89D-01  1.82D+00  6.87D-01  7.08D-01  7.17D-01
                    CP:  7.34D-01
 E= -768.332884786640     Delta-E=       -0.000036148651 Rises=F Damp=F
 DIIS: error= 8.46D-05 at cycle   7 NSaved=   7.
 NSaved= 7 IEnMin= 7 EnMin= -768.332884786640     IErMin= 7 ErrMin= 8.46D-05
 ErrMax= 8.46D-05  0.00D+00 EMaxC= 1.00D-01 BMatC= 4.01D-06 BMatP= 5.08D-05
 IDIUse=1 WtCom= 1.00D+00 WtEn= 0.00D+00
 Coeff-Com: -0.444D-02 0.473D-02 0.318D-02 0.452D-01 0.144D+00 0.295D+00
 Coeff-Com:  0.512D+00
 Coeff:     -0.444D-02 0.473D-02 0.318D-02 0.452D-01 0.144D+00 0.295D+00
 Coeff:      0.512D+00
 Gap=     0.140 Goal=   None    Shift=    0.000
 RMSDP=7.37D-06 MaxDP=3.94D-04 DE=-3.61D-05 OVMax= 3.40D-04

 Cycle   8  Pass 1  IDiag  1:
 RMSU=  5.05D-06    CP:  9.89D-01  1.82D+00  6.87D-01  7.14D-01  7.39D-01
                    CP:  7.58D-01  7.67D-01
 E= -768.332887994699     Delta-E=       -0.000003208059 Rises=F Damp=F
 DIIS: error= 2.63D-05 at cycle   8 NSaved=   8.
 NSaved= 8 IEnMin= 8 EnMin= -768.332887994699     IErMin= 8 ErrMin= 2.63D-05
 ErrMax= 2.63D-05  0.00D+00 EMaxC= 1.00D-01 BMatC= 2.58D-07 BMatP= 4.01D-06
 IDIUse=1 WtCom= 1.00D+00 WtEn= 0.00D+00
 Coeff-Com: -0.221D-03-0.131D-03-0.311D-02 0.733D-03 0.111D-01 0.453D-01
 Coeff-Com:  0.200D+00 0.746D+00
 Coeff:     -0.221D-03-0.131D-03-0.311D-02 0.733D-03 0.111D-01 0.453D-01
 Coeff:      0.200D+00 0.746D+00
 Gap=     0.140 Goal=   None    Shift=    0.000
 RMSDP=2.70D-06 MaxDP=8.59D-05 DE=-3.21D-06 OVMax= 2.89D-04

 Cycle   9  Pass 1  IDiag  1:
 RMSU=  1.76D-06    CP:  9.89D-01  1.82D+00  6.87D-01  7.17D-01  7.45D-01
                    CP:  7.81D-01  8.30D-01  9.44D-01
 E= -768.332888205749     Delta-E=       -0.000000211050 Rises=F Damp=F
 DIIS: error= 8.00D-06 at cycle   9 NSaved=   9.
 NSaved= 9 IEnMin= 9 EnMin= -768.332888205749     IErMin= 9 ErrMin= 8.00D-06
 ErrMax= 8.00D-06  0.00D+00 EMaxC= 1.00D-01 BMatC= 6.53D-08 BMatP= 2.58D-07
 IDIUse=1 WtCom= 1.00D+00 WtEn= 0.00D+00
 Coeff-Com:  0.847D-04-0.173D-03-0.199D-02-0.400D-02-0.965D-02-0.823D-02
 Coeff-Com:  0.490D-01 0.428D+00 0.547D+00
 Coeff:      0.847D-04-0.173D-03-0.199D-02-0.400D-02-0.965D-02-0.823D-02
 Coeff:      0.490D-01 0.428D+00 0.547D+00
 Gap=     0.140 Goal=   None    Shift=    0.000
 RMSDP=1.04D-06 MaxDP=3.93D-05 DE=-2.11D-07 OVMax= 1.08D-04

 Cycle  10  Pass 1  IDiag  1:
 RMSU=  5.53D-07    CP:  9.89D-01  1.82D+00  6.87D-01  7.17D-01  7.47D-01
                    CP:  7.88D-01  8.60D-01  1.01D+00  7.04D-01
 E= -768.332888259716     Delta-E=       -0.000000053967 Rises=F Damp=F
 DIIS: error= 2.13D-06 at cycle  10 NSaved=  10.
 NSaved=10 IEnMin=10 EnMin= -768.332888259716     IErMin=10 ErrMin= 2.13D-06
 ErrMax= 2.13D-06  0.00D+00 EMaxC= 1.00D-01 BMatC= 3.05D-09 BMatP= 6.53D-08
 IDIUse=1 WtCom= 1.00D+00 WtEn= 0.00D+00
 Coeff-Com:  0.435D-04-0.442D-04-0.580D-03-0.171D-02-0.538D-02-0.793D-02
 Coeff-Com: -0.417D-02 0.813D-01 0.195D+00 0.744D+00
 Coeff:      0.435D-04-0.442D-04-0.580D-03-0.171D-02-0.538D-02-0.793D-02
 Coeff:     -0.417D-02 0.813D-01 0.195D+00 0.744D+00
 Gap=     0.140 Goal=   None    Shift=    0.000
 RMSDP=3.17D-07 MaxDP=8.18D-06 DE=-5.40D-08 OVMax= 3.36D-05

 Cycle  11  Pass 1  IDiag  1:
 RMSU=  1.36D-07    CP:  9.89D-01  1.82D+00  6.87D-01  7.17D-01  7.48D-01
                    CP:  7.90D-01  8.67D-01  1.03D+00  7.61D-01  9.04D-01
 E= -768.332888262979     Delta-E=       -0.000000003263 Rises=F Damp=F
 DIIS: error= 4.43D-07 at cycle  11 NSaved=  11.
 NSaved=11 IEnMin=11 EnMin= -768.332888262979     IErMin=11 ErrMin= 4.43D-07
 ErrMax= 4.43D-07  0.00D+00 EMaxC= 1.00D-01 BMatC= 2.33D-10 BMatP= 3.05D-09
 IDIUse=1 WtCom= 1.00D+00 WtEn= 0.00D+00
 Coeff-Com:  0.813D-05-0.203D-05-0.124D-03-0.439D-03-0.166D-02-0.263D-02
 Coeff-Com: -0.572D-02 0.393D-02 0.434D-01 0.297D+00 0.666D+00
 Coeff:      0.813D-05-0.203D-05-0.124D-03-0.439D-03-0.166D-02-0.263D-02
 Coeff:     -0.572D-02 0.393D-02 0.434D-01 0.297D+00 0.666D+00
 Gap=     0.140 Goal=   None    Shift=    0.000
 RMSDP=8.13D-08 MaxDP=2.33D-06 DE=-3.26D-09 OVMax= 7.06D-06

 Cycle  12  Pass 1  IDiag  1:
 RMSU=  5.10D-08    CP:  9.89D-01  1.82D+00  6.87D-01  7.17D-01  7.48D-01
                    CP:  7.91D-01  8.68D-01  1.04D+00  7.69D-01  9.43D-01
                    CP:  8.41D-01
 E= -768.332888263175     Delta-E=       -0.000000000197 Rises=F Damp=F
 DIIS: error= 1.82D-07 at cycle  12 NSaved=  12.
 NSaved=12 IEnMin=12 EnMin= -768.332888263175     IErMin=12 ErrMin= 1.82D-07
 ErrMax= 1.82D-07  0.00D+00 EMaxC= 1.00D-01 BMatC= 3.73D-11 BMatP= 2.33D-10
 IDIUse=1 WtCom= 1.00D+00 WtEn= 0.00D+00
 Coeff-Com: -0.462D-05 0.909D-05 0.117D-04 0.122D-04-0.131D-03-0.193D-03
 Coeff-Com: -0.243D-02-0.825D-02-0.317D-02 0.480D-01 0.339D+00 0.627D+00
 Coeff:     -0.462D-05 0.909D-05 0.117D-04 0.122D-04-0.131D-03-0.193D-03
 Coeff:     -0.243D-02-0.825D-02-0.317D-02 0.480D-01 0.339D+00 0.627D+00
 Gap=     0.140 Goal=   None    Shift=    0.000
 RMSDP=3.02D-08 MaxDP=9.27D-07 DE=-1.97D-10 OVMax= 2.47D-06

 Cycle  13  Pass 1  IDiag  1:
 RMSU=  1.56D-08    CP:  9.89D-01  1.82D+00  6.87D-01  7.17D-01  7.48D-01
                    CP:  7.91D-01  8.68D-01  1.04D+00  7.74D-01  9.60D-01
                    CP:  9.23D-01  7.40D-01
 E= -768.332888263243     Delta-E=       -0.000000000068 Rises=F Damp=F
 DIIS: error= 7.76D-08 at cycle  13 NSaved=  13.
 NSaved=13 IEnMin=13 EnMin= -768.332888263243     IErMin=13 ErrMin= 7.76D-08
 ErrMax= 7.76D-08  0.00D+00 EMaxC= 1.00D-01 BMatC= 3.14D-12 BMatP= 3.73D-11
 IDIUse=1 WtCom= 1.00D+00 WtEn= 0.00D+00
 Coeff-Com: -0.257D-05 0.428D-05 0.158D-04 0.400D-04 0.561D-04 0.115D-03
 Coeff-Com: -0.879D-03-0.468D-02-0.511D-02 0.162D-02 0.123D+00 0.318D+00
 Coeff-Com:  0.568D+00
 Coeff:     -0.257D-05 0.428D-05 0.158D-04 0.400D-04 0.561D-04 0.115D-03
 Coeff:     -0.879D-03-0.468D-02-0.511D-02 0.162D-02 0.123D+00 0.318D+00
 Coeff:      0.568D+00
 Gap=     0.140 Goal=   None    Shift=    0.000
 RMSDP=8.18D-09 MaxDP=2.19D-07 DE=-6.75D-11 OVMax= 3.91D-07

 Error on total polarization charges =  0.01286
 SCF Done:  E(RB3LYP) =  -768.332888263     A.U. after   13 cycles
            NFock= 13  Conv=0.82D-08     -V/T= 2.0091
 KE= 7.614120414490D+02 PE=-4.101296247727D+03 EE= 1.408541478827D+03
 Leave Link  502 at Fri May 24 08:34:18 2019, MaxMem=   402653184 cpu:             507.4 elap:             126.9
 (Enter /n/sw/g16_nehalem/g16/l601.exe)
 Copying SCF densities to generalized density rwf, IOpCl= 0 IROHF=0.

 **********************************************************************

            Population analysis using the SCF density.

 **********************************************************************

 Orbital symmetries:
       Occupied  (A) (A) (A) (A) (A) (A) (A) (A) (A) (A) (A) (A)
                 (A) (A) (A) (A) (A) (A) (A) (A) (A) (A) (A) (A)
                 (A) (A) (A) (A) (A) (A) (A) (A) (A) (A) (A) (A)
                 (A) (A) (A) (A) (A) (A) (A) (A) (A) (A) (A) (A)
                 (A) (A) (A) (A) (A) (A) (A) (A) (A) (A) (A)
       Virtual   (A) (A) (A) (A) (A) (A) (A) (A) (A) (A) (A) (A)
                 (A) (A) (A) (A) (A) (A) (A) (A) (A) (A) (A) (A)
                 (A) (A) (A) (A) (A) (A) (A) (A) (A) (A) (A) (A)
                 (A) (A) (A) (A) (A) (A) (A) (A) (A) (A) (A) (A)
                 (A) (A) (A) (A) (A) (A) (A) (A) (A) (A) (A) (A)
                 (A) (A) (A) (A) (A) (A) (A) (A) (A) (A) (A) (A)
                 (A) (A) (A) (A) (A) (A) (A) (A) (A) (A) (A) (A)
                 (A) (A) (A) (A) (A) (A) (A) (A) (A) (A) (A) (A)
                 (A) (A) (A) (A) (A) (A) (A) (A) (A) (A) (A) (A)
                 (A) (A) (A) (A) (A) (A) (A) (A) (A) (A) (A) (A)
                 (A) (A) (A) (A) (A) (A) (A) (A) (A) (A) (A) (A)
                 (A) (A) (A) (A) (A) (A) (A) (A) (A) (A) (A) (A)
                 (A) (A) (A) (A) (A) (A) (A) (A) (A) (A) (A) (A)
                 (A) (A) (A) (A) (A) (A) (A) (A) (A) (A) (A) (A)
                 (A) (A) (A) (A) (A) (A) (A) (A) (A) (A) (A) (A)
                 (A) (A) (A) (A) (A) (A) (A) (A) (A) (A) (A) (A)
                 (A) (A) (A) (A) (A) (A) (A) (A) (A) (A) (A) (A)
 The electronic state is 1-A.
 Alpha  occ. eigenvalues --  -19.32140 -19.21487 -19.19959 -19.19458 -19.17966
 Alpha  occ. eigenvalues --  -10.39053 -10.31505 -10.31502 -10.29602 -10.29382
 Alpha  occ. eigenvalues --  -10.27469 -10.26242 -10.25751 -10.25214 -10.24456
 Alpha  occ. eigenvalues --   -1.20852  -1.09722  -1.08304  -1.07357  -1.06386
 Alpha  occ. eigenvalues --   -0.86919  -0.85122  -0.77367  -0.74516  -0.74080
 Alpha  occ. eigenvalues --   -0.70569  -0.69429  -0.68750  -0.65769  -0.61367
 Alpha  occ. eigenvalues --   -0.58990  -0.58469  -0.56628  -0.53968  -0.53746
 Alpha  occ. eigenvalues --   -0.52914  -0.51311  -0.50752  -0.49751  -0.49360
 Alpha  occ. eigenvalues --   -0.48164  -0.47577  -0.47122  -0.46215  -0.45865
 Alpha  occ. eigenvalues --   -0.44259  -0.43426  -0.41850  -0.41281  -0.40092
 Alpha  occ. eigenvalues --   -0.39530  -0.37398  -0.37023  -0.35517  -0.34794
 Alpha  occ. eigenvalues --   -0.32670  -0.30470  -0.29593  -0.28470
 Alpha virt. eigenvalues --   -0.14432   0.01156   0.03667   0.04516   0.06586
 Alpha virt. eigenvalues --    0.06975   0.08111   0.09190   0.09366   0.10301
 Alpha virt. eigenvalues --    0.11382   0.11904   0.12129   0.12367   0.13602
 Alpha virt. eigenvalues --    0.13708   0.14102   0.14259   0.14531   0.15020
 Alpha virt. eigenvalues --    0.15720   0.16660   0.16969   0.17447   0.17864
 Alpha virt. eigenvalues --    0.18835   0.19335   0.20786   0.21338   0.22349
 Alpha virt. eigenvalues --    0.23051   0.24538   0.27272   0.28695   0.29652
 Alpha virt. eigenvalues --    0.44531   0.44661   0.47407   0.48253   0.48941
 Alpha virt. eigenvalues --    0.49248   0.49740   0.51097   0.51586   0.51817
 Alpha virt. eigenvalues --    0.52806   0.53402   0.53657   0.54838   0.55325
 Alpha virt. eigenvalues --    0.55755   0.56918   0.58484   0.59599   0.60887
 Alpha virt. eigenvalues --    0.62674   0.64214   0.66292   0.68037   0.68390
 Alpha virt. eigenvalues --    0.71277   0.73608   0.75317   0.76646   0.78633
 Alpha virt. eigenvalues --    0.79683   0.79890   0.80379   0.81814   0.82863
 Alpha virt. eigenvalues --    0.83189   0.84136   0.84439   0.84852   0.85217
 Alpha virt. eigenvalues --    0.85745   0.86894   0.87176   0.88797   0.90307
 Alpha virt. eigenvalues --    0.91429   0.91727   0.92315   0.93622   0.94848
 Alpha virt. eigenvalues --    0.95857   0.96134   0.98933   0.99408   1.00655
 Alpha virt. eigenvalues --    1.03112   1.04960   1.05642   1.08420   1.09080
 Alpha virt. eigenvalues --    1.14640   1.15569   1.16883   1.19691   1.22276
 Alpha virt. eigenvalues --    1.24562   1.27319   1.29927   1.30953   1.32864
 Alpha virt. eigenvalues --    1.34094   1.35808   1.38153   1.39627   1.41612
 Alpha virt. eigenvalues --    1.44557   1.46433   1.46867   1.48357   1.48970
 Alpha virt. eigenvalues --    1.50705   1.51731   1.54299   1.56494   1.60422
 Alpha virt. eigenvalues --    1.62619   1.65941   1.67303   1.67910   1.70790
 Alpha virt. eigenvalues --    1.73328   1.74114   1.78485   1.80431   1.82503
 Alpha virt. eigenvalues --    1.84159   1.85556   1.86438   1.89171   1.91012
 Alpha virt. eigenvalues --    1.92668   1.95995   1.97198   1.98645   2.00586
 Alpha virt. eigenvalues --    2.00934   2.01573   2.02077   2.03780   2.04810
 Alpha virt. eigenvalues --    2.05327   2.07576   2.08412   2.08987   2.10372
 Alpha virt. eigenvalues --    2.10925   2.11420   2.14073   2.15061   2.16975
 Alpha virt. eigenvalues --    2.18299   2.21644   2.23050   2.23768   2.25225
 Alpha virt. eigenvalues --    2.27458   2.30246   2.33075   2.34147   2.34605
 Alpha virt. eigenvalues --    2.35940   2.36863   2.38312   2.44375   2.48870
 Alpha virt. eigenvalues --    2.50807   2.52348   2.56374   2.57759   2.62658
 Alpha virt. eigenvalues --    2.64319   2.65929   2.68447   2.72395   2.76277
 Alpha virt. eigenvalues --    2.79206   2.81376   2.84445   2.89674   2.93867
 Alpha virt. eigenvalues --    2.96081   2.99972   3.03036   3.07944   3.80811
 Alpha virt. eigenvalues --    3.91004   3.94193   3.96322   4.05883   4.14544
 Alpha virt. eigenvalues --    4.22011   4.22928   4.25039   4.26276   4.29154
 Alpha virt. eigenvalues --    4.33517   4.53660   4.63410   4.66149
          Condensed to atoms (all electrons):
               1          2          3          4          5          6
     1  C    5.056889   0.259859  -0.041818  -0.018165   0.292477   0.002810
     2  C    0.259859   5.143101   0.304096  -0.030729  -0.019491  -0.043870
     3  C   -0.041818   0.304096   4.745365  -0.035094  -0.010222   0.364580
     4  C   -0.018165  -0.030729  -0.035094   5.057358   0.313452   0.002883
     5  C    0.292477  -0.019491  -0.010222   0.313452   4.989959  -0.000059
     6  H    0.002810  -0.043870   0.364580   0.002883  -0.000059   0.437880
     7  H   -0.039484   0.349088  -0.033706   0.000797   0.002824  -0.000989
     8  H    0.378223  -0.061557   0.004183   0.004615  -0.037745  -0.000117
     9  H    0.005002  -0.000007   0.001395   0.367399  -0.034385  -0.000111
    10  H   -0.050578   0.005859   0.000648  -0.040161   0.366326   0.000017
    11  O   -0.007177  -0.024435   0.402410   0.130156  -0.021158  -0.036685
    12  O   -0.027119   0.150415  -0.026673   0.000509  -0.001118   0.001861
    13  O    0.175619  -0.041181   0.005771  -0.000324  -0.036213  -0.000075
    14  O   -0.053363   0.004731   0.008599  -0.045032   0.202665  -0.000024
    15  C   -0.004371   0.001533   0.000415   0.329844  -0.030777  -0.000186
    16  H   -0.000454  -0.000564   0.002816  -0.021008  -0.003916  -0.000054
    17  H   -0.000536  -0.000029  -0.000025  -0.041447   0.002654   0.000007
    18  O   -0.000098  -0.000015   0.000236  -0.039959   0.002535   0.000009
    19  C    0.001628  -0.023933   0.001256  -0.000030  -0.000030   0.000944
    20  H   -0.000174  -0.006679   0.000683   0.000003  -0.000013  -0.000039
    21  H    0.000633  -0.005513   0.000095   0.000000  -0.000029   0.000038
    22  H   -0.000143   0.004984  -0.000232   0.000000   0.000012  -0.000036
    23  C   -0.032168  -0.004207   0.000161  -0.000022   0.003937  -0.000004
    24  H   -0.004899   0.004962  -0.000142  -0.000074  -0.000051   0.000009
    25  H    0.004756  -0.000104   0.000001   0.000021  -0.000156   0.000000
    26  H   -0.008989  -0.001147   0.000018   0.000030  -0.000051   0.000000
    27  C   -0.002778  -0.000849  -0.000169   0.004802  -0.036263   0.000001
    28  H   -0.000035  -0.000011   0.000009  -0.000233   0.004806  -0.000001
    29  H    0.003530  -0.001293  -0.000031   0.000045  -0.005232  -0.000001
    30  H   -0.001926   0.000148   0.000028   0.000077  -0.008255   0.000000
    31  C    0.000000   0.000002  -0.000015   0.004577  -0.000142  -0.000001
    32  H   -0.000001   0.000000   0.000001  -0.000135   0.000019   0.000000
    33  H    0.000000   0.000000   0.000000   0.000307   0.000011   0.000000
    34  H    0.000000   0.000000   0.000000  -0.000253   0.000001   0.000000
               7          8          9         10         11         12
     1  C   -0.039484   0.378223   0.005002  -0.050578  -0.007177  -0.027119
     2  C    0.349088  -0.061557  -0.000007   0.005859  -0.024435   0.150415
     3  C   -0.033706   0.004183   0.001395   0.000648   0.402410  -0.026673
     4  C    0.000797   0.004615   0.367399  -0.040161   0.130156   0.000509
     5  C    0.002824  -0.037745  -0.034385   0.366326  -0.021158  -0.001118
     6  H   -0.000989  -0.000117  -0.000111   0.000017  -0.036685   0.001861
     7  H    0.501983   0.000001   0.000006  -0.000099   0.001004  -0.020263
     8  H    0.000001   0.539957  -0.000096  -0.005728  -0.000027   0.004662
     9  H    0.000006  -0.000096   0.478175  -0.001725  -0.031946   0.000012
    10  H   -0.000099  -0.005728  -0.001725   0.543541   0.002372  -0.000129
    11  O    0.001004  -0.000027  -0.031946   0.002372   7.926011   0.000693
    12  O   -0.020263   0.004662   0.000012  -0.000129   0.000693   8.252852
    13  O   -0.000724  -0.027312  -0.000098   0.004741  -0.000511   0.001450
    14  O    0.000194  -0.001916   0.003344  -0.029358  -0.002952   0.001015
    15  C    0.000025   0.000046  -0.031964   0.000058  -0.034002  -0.000009
    16  H    0.000083   0.000171   0.005020  -0.000215  -0.005110   0.000009
    17  H   -0.000005  -0.000025  -0.003219   0.003456   0.002908   0.000000
    18  O    0.000000   0.000001   0.003115   0.000012   0.003079   0.000000
    19  C   -0.007173   0.000566   0.000000   0.000007  -0.000022   0.217279
    20  H    0.003064   0.000058   0.000000   0.000000  -0.000015  -0.031859
    21  H    0.004162   0.000145   0.000000   0.000000   0.000001  -0.034142
    22  H    0.000048  -0.000080   0.000000   0.000000   0.000002  -0.029560
    23  C    0.002978  -0.004744   0.000006  -0.000063  -0.000016   0.000040
    24  H    0.003416  -0.001604   0.000000   0.000037   0.000005  -0.000480
    25  H   -0.000199  -0.000035   0.000000  -0.000007   0.000000   0.000001
    26  H    0.000074   0.010974   0.000000  -0.000096   0.000000   0.000039
    27  C   -0.000024   0.002843  -0.000024  -0.005042   0.000040  -0.000248
    28  H    0.000000  -0.000070  -0.000060   0.000005   0.000005  -0.000027
    29  H    0.000014   0.003782   0.000041  -0.001514   0.000004   0.003586
    30  H    0.000003  -0.000039  -0.000033   0.010880  -0.000005   0.000039
    31  C    0.000000   0.000000   0.000020   0.000000  -0.000003   0.000000
    32  H    0.000000   0.000000  -0.000045   0.000000   0.000006   0.000000
    33  H    0.000000   0.000000   0.000061   0.000000  -0.000028   0.000000
    34  H    0.000000   0.000000  -0.000020   0.000000   0.000003   0.000000
              13         14         15         16         17         18
     1  C    0.175619  -0.053363  -0.004371  -0.000454  -0.000536  -0.000098
     2  C   -0.041181   0.004731   0.001533  -0.000564  -0.000029  -0.000015
     3  C    0.005771   0.008599   0.000415   0.002816  -0.000025   0.000236
     4  C   -0.000324  -0.045032   0.329844  -0.021008  -0.041447  -0.039959
     5  C   -0.036213   0.202665  -0.030777  -0.003916   0.002654   0.002535
     6  H   -0.000075  -0.000024  -0.000186  -0.000054   0.000007   0.000009
     7  H   -0.000724   0.000194   0.000025   0.000083  -0.000005   0.000000
     8  H   -0.027312  -0.001916   0.000046   0.000171  -0.000025   0.000001
     9  H   -0.000098   0.003344  -0.031964   0.005020  -0.003219   0.003115
    10  H    0.004741  -0.029358   0.000058  -0.000215   0.003456   0.000012
    11  O   -0.000511  -0.002952  -0.034002  -0.005110   0.002908   0.003079
    12  O    0.001450   0.001015  -0.000009   0.000009   0.000000   0.000000
    13  O    8.259753   0.001436  -0.003605   0.014396   0.000625   0.000099
    14  O    0.001436   8.262135   0.002919  -0.000047  -0.000004  -0.000012
    15  C   -0.003605   0.002919   4.916255   0.340420   0.360631   0.222510
    16  H    0.014396  -0.000047   0.340420   0.571574  -0.044967  -0.038006
    17  H    0.000625  -0.000004   0.360631  -0.044967   0.576851  -0.036699
    18  O    0.000099  -0.000012   0.222510  -0.038006  -0.036699   8.222588
    19  C   -0.000057   0.000133   0.000000   0.000000   0.000000   0.000000
    20  H    0.000011  -0.000001   0.000000   0.000000   0.000000   0.000000
    21  H   -0.000116  -0.000002   0.000000   0.000000   0.000000   0.000000
    22  H    0.000000  -0.000002   0.000000   0.000000   0.000000   0.000000
    23  C    0.232608  -0.000066   0.000073   0.000012  -0.000054  -0.000002
    24  H   -0.037127   0.000003   0.000059  -0.000105   0.000002   0.000000
    25  H   -0.030224   0.000001   0.000000  -0.000039  -0.000003   0.000000
    26  H   -0.033959  -0.000002  -0.000017   0.000075   0.000001   0.000000
    27  C    0.000008   0.234640  -0.000125   0.000002   0.000004   0.000000
    28  H    0.000000  -0.031576   0.000001   0.000000   0.000000   0.000000
    29  H   -0.000082  -0.036045   0.000010   0.000000   0.000000   0.000000
    30  H    0.000011  -0.033360   0.000009   0.000001   0.000000   0.000000
    31  C    0.000009   0.000000  -0.041456  -0.004638  -0.003621   0.245190
    32  H    0.000000   0.000000  -0.007668  -0.002299   0.010731  -0.036261
    33  H   -0.000013   0.000000  -0.007331   0.011616  -0.002170  -0.036328
    34  H    0.000000   0.000000   0.005563  -0.000122  -0.000119  -0.031589
              19         20         21         22         23         24
     1  C    0.001628  -0.000174   0.000633  -0.000143  -0.032168  -0.004899
     2  C   -0.023933  -0.006679  -0.005513   0.004984  -0.004207   0.004962
     3  C    0.001256   0.000683   0.000095  -0.000232   0.000161  -0.000142
     4  C   -0.000030   0.000003   0.000000   0.000000  -0.000022  -0.000074
     5  C   -0.000030  -0.000013  -0.000029   0.000012   0.003937  -0.000051
     6  H    0.000944  -0.000039   0.000038  -0.000036  -0.000004   0.000009
     7  H   -0.007173   0.003064   0.004162   0.000048   0.002978   0.003416
     8  H    0.000566   0.000058   0.000145  -0.000080  -0.004744  -0.001604
     9  H    0.000000   0.000000   0.000000   0.000000   0.000006   0.000000
    10  H    0.000007   0.000000   0.000000   0.000000  -0.000063   0.000037
    11  O   -0.000022  -0.000015   0.000001   0.000002  -0.000016   0.000005
    12  O    0.217279  -0.031859  -0.034142  -0.029560   0.000040  -0.000480
    13  O   -0.000057   0.000011  -0.000116   0.000000   0.232608  -0.037127
    14  O    0.000133  -0.000001  -0.000002  -0.000002  -0.000066   0.000003
    15  C    0.000000   0.000000   0.000000   0.000000   0.000073   0.000059
    16  H    0.000000   0.000000   0.000000   0.000000   0.000012  -0.000105
    17  H    0.000000   0.000000   0.000000   0.000000  -0.000054   0.000002
    18  O    0.000000   0.000000   0.000000   0.000000  -0.000002   0.000000
    19  C    4.917564   0.370039   0.370198   0.385378  -0.000105   0.000039
    20  H    0.370039   0.557359  -0.040550  -0.028900   0.000003  -0.000038
    21  H    0.370198  -0.040550   0.553466  -0.027087   0.000028   0.000957
    22  H    0.385378  -0.028900  -0.027087   0.498110   0.000001  -0.000004
    23  C   -0.000105   0.000003   0.000028   0.000001   4.908624   0.362341
    24  H    0.000039  -0.000038   0.000957  -0.000004   0.362341   0.585788
    25  H    0.000002   0.000000  -0.000001   0.000000   0.386148  -0.030067
    26  H   -0.000007   0.000000   0.000006   0.000000   0.371908  -0.043728
    27  C    0.000020   0.000000   0.000005   0.000001   0.000001   0.000001
    28  H    0.000001   0.000000   0.000000   0.000000   0.000000   0.000000
    29  H   -0.000144   0.000010  -0.000011  -0.000007   0.000018  -0.000002
    30  H    0.000000   0.000000   0.000000   0.000000  -0.000002   0.000000
    31  C    0.000000   0.000000   0.000000   0.000000   0.000000   0.000000
    32  H    0.000000   0.000000   0.000000   0.000000   0.000000   0.000000
    33  H    0.000000   0.000000   0.000000   0.000000   0.000001   0.000000
    34  H    0.000000   0.000000   0.000000   0.000000   0.000000   0.000000
              25         26         27         28         29         30
     1  C    0.004756  -0.008989  -0.002778  -0.000035   0.003530  -0.001926
     2  C   -0.000104  -0.001147  -0.000849  -0.000011  -0.001293   0.000148
     3  C    0.000001   0.000018  -0.000169   0.000009  -0.000031   0.000028
     4  C    0.000021   0.000030   0.004802  -0.000233   0.000045   0.000077
     5  C   -0.000156  -0.000051  -0.036263   0.004806  -0.005232  -0.008255
     6  H    0.000000   0.000000   0.000001  -0.000001  -0.000001   0.000000
     7  H   -0.000199   0.000074  -0.000024   0.000000   0.000014   0.000003
     8  H   -0.000035   0.010974   0.002843  -0.000070   0.003782  -0.000039
     9  H    0.000000   0.000000  -0.000024  -0.000060   0.000041  -0.000033
    10  H   -0.000007  -0.000096  -0.005042   0.000005  -0.001514   0.010880
    11  O    0.000000   0.000000   0.000040   0.000005   0.000004  -0.000005
    12  O    0.000001   0.000039  -0.000248  -0.000027   0.003586   0.000039
    13  O   -0.030224  -0.033959   0.000008   0.000000  -0.000082   0.000011
    14  O    0.000001  -0.000002   0.234640  -0.031576  -0.036045  -0.033360
    15  C    0.000000  -0.000017  -0.000125   0.000001   0.000010   0.000009
    16  H   -0.000039   0.000075   0.000002   0.000000   0.000000   0.000001
    17  H   -0.000003   0.000001   0.000004   0.000000   0.000000   0.000000
    18  O    0.000000   0.000000   0.000000   0.000000   0.000000   0.000000
    19  C    0.000002  -0.000007   0.000020   0.000001  -0.000144   0.000000
    20  H    0.000000   0.000000   0.000000   0.000000   0.000010   0.000000
    21  H   -0.000001   0.000006   0.000005   0.000000  -0.000011   0.000000
    22  H    0.000000   0.000000   0.000001   0.000000  -0.000007   0.000000
    23  C    0.386148   0.371908   0.000001   0.000000   0.000018  -0.000002
    24  H   -0.030067  -0.043728   0.000001   0.000000  -0.000002   0.000000
    25  H    0.507405  -0.027715   0.000000   0.000000   0.000000   0.000000
    26  H   -0.027715   0.561412  -0.000008   0.000000   0.000003   0.000002
    27  C    0.000000  -0.000008   4.903975   0.386467   0.365809   0.368171
    28  H    0.000000   0.000000   0.386467   0.512837  -0.031729  -0.027244
    29  H    0.000000   0.000003   0.365809  -0.031729   0.575469  -0.042007
    30  H    0.000000   0.000002   0.368171  -0.027244  -0.042007   0.569205
    31  C    0.000000   0.000000   0.000000   0.000000   0.000000   0.000000
    32  H    0.000000   0.000000   0.000000   0.000000   0.000000   0.000000
    33  H    0.000000   0.000000   0.000000   0.000000   0.000000   0.000000
    34  H    0.000000   0.000000   0.000000   0.000000   0.000000   0.000000
              31         32         33         34
     1  C    0.000000  -0.000001   0.000000   0.000000
     2  C    0.000002   0.000000   0.000000   0.000000
     3  C   -0.000015   0.000001   0.000000   0.000000
     4  C    0.004577  -0.000135   0.000307  -0.000253
     5  C   -0.000142   0.000019   0.000011   0.000001
     6  H   -0.000001   0.000000   0.000000   0.000000
     7  H    0.000000   0.000000   0.000000   0.000000
     8  H    0.000000   0.000000   0.000000   0.000000
     9  H    0.000020  -0.000045   0.000061  -0.000020
    10  H    0.000000   0.000000   0.000000   0.000000
    11  O   -0.000003   0.000006  -0.000028   0.000003
    12  O    0.000000   0.000000   0.000000   0.000000
    13  O    0.000009   0.000000  -0.000013   0.000000
    14  O    0.000000   0.000000   0.000000   0.000000
    15  C   -0.041456  -0.007668  -0.007331   0.005563
    16  H   -0.004638  -0.002299   0.011616  -0.000122
    17  H   -0.003621   0.010731  -0.002170  -0.000119
    18  O    0.245190  -0.036261  -0.036328  -0.031589
    19  C    0.000000   0.000000   0.000000   0.000000
    20  H    0.000000   0.000000   0.000000   0.000000
    21  H    0.000000   0.000000   0.000000   0.000000
    22  H    0.000000   0.000000   0.000000   0.000000
    23  C    0.000000   0.000000   0.000001   0.000000
    24  H    0.000000   0.000000   0.000000   0.000000
    25  H    0.000000   0.000000   0.000000   0.000000
    26  H    0.000000   0.000000   0.000000   0.000000
    27  C    0.000000   0.000000   0.000000   0.000000
    28  H    0.000000   0.000000   0.000000   0.000000
    29  H    0.000000   0.000000   0.000000   0.000000
    30  H    0.000000   0.000000   0.000000   0.000000
    31  C    4.890728   0.368237   0.365487   0.386312
    32  H    0.368237   0.589011  -0.045719  -0.030615
    33  H    0.365487  -0.045719   0.592896  -0.030681
    34  H    0.386312  -0.030615  -0.030681   0.523583
 Mulliken charges:
               1
     1  C    0.112851
     2  C    0.036835
     3  C    0.305358
     4  C    0.055788
     5  C    0.063630
     6  H    0.271213
     7  H    0.232902
     8  H    0.190868
     9  H    0.240140
    10  H    0.196756
    11  O   -0.304605
    12  O   -0.462835
    13  O   -0.484918
    14  O   -0.488054
    15  C   -0.018862
    16  H    0.175351
    17  H    0.175054
    18  O   -0.480405
    19  C   -0.233552
    20  H    0.177039
    21  H    0.177715
    22  H    0.197515
    23  C   -0.227434
    24  H    0.160703
    25  H    0.190217
    26  H    0.171178
    27  C   -0.221259
    28  H    0.186854
    29  H    0.165778
    30  H    0.164298
    31  C   -0.210686
    32  H    0.154737
    33  H    0.151890
    34  H    0.177936
 Sum of Mulliken charges =   1.00000
 Mulliken charges with hydrogens summed into heavy atoms:
               1
     1  C    0.303719
     2  C    0.269737
     3  C    0.576572
     4  C    0.295928
     5  C    0.260386
    11  O   -0.304605
    12  O   -0.462835
    13  O   -0.484918
    14  O   -0.488054
    15  C    0.331544
    18  O   -0.480405
    19  C    0.318717
    23  C    0.294664
    27  C    0.295671
    31  C    0.273878
 Electronic spatial extent (au):  <R**2>=           3560.2325
 Charge=              1.0000 electrons
 Dipole moment (field-independent basis, Debye):
    X=             -3.1055    Y=              3.4473    Z=              0.5981  Tot=              4.6782
 Quadrupole moment (field-independent basis, Debye-Ang):
   XX=            -61.7305   YY=            -75.9735   ZZ=            -71.3353
   XY=             -2.2689   XZ=             -4.3503   YZ=              5.0032
 Traceless Quadrupole moment (field-independent basis, Debye-Ang):
   XX=              7.9493   YY=             -6.2938   ZZ=             -1.6555
   XY=             -2.2689   XZ=             -4.3503   YZ=              5.0032
 Octapole moment (field-independent basis, Debye-Ang**2):
[...]
 044380,-0.00033063,0.00053153,0.00169964,0.00310101,-0.00044047,0.0000
 0655,0.00001618,-0.00002051,0.00009678,0.00003917,-0.00001030,-0.00010
 178,-0.00011611,0.00023013,0.00020847,-0.00006592,0.00006667,-0.000322
 95,-0.00059576,-0.00009006,0.00029058,-0.00029760,-0.00011765,0.000277
 16,0.00024890,0.00016676,0.00008801,-0.00035755,-0.00000313,-0.0280363
 6,0.01086160,-0.00495655,0.00015139,-0.00000976,-0.00025699,-0.0000461
 4,-0.00004930,0.00000607,0.00001074,0.00002004,-0.00000714,-0.00022269
 ,-0.00009798,-0.00003075,0.00033987,-0.00008953,0.00002369,-0.00008295
 ,0.00007888,0.00004967,-0.00001973,0.00004661,-0.00000742,-0.00000301,
 -0.00002690,-0.00001063,-0.00009692,0.00007935,-0.00003393,0.00002200,
 -0.00002689,-0.00000593,0.00000394,-0.00003946,0.00001105,0.00001280,-
 0.00000612,0.00000935,0.01133651,-0.00723661,-0.05290627,-0.00860669,0
 .00818239,0.00170297,0.00146749,0.00651490,0.05387545,-0.00059000,-0.0
 0003309,0.00031112,-0.00030806,0.00000496,-0.00003751,-0.00010482,0.00
 046229,0.00033636,0.00042348,0.00041876,-0.00029204,0.00419406,0.00277
 853,-0.00404616,-0.00000614,-0.00001854,-0.00000275,0.00005706,0.00000
 452,0.00002194,-0.00004766,-0.00004329,0.00010830,0.00005006,0.0000114
 2,-0.00001010,0.00027957,0.00096567,0.00142286,-0.00026459,-0.00036199
 ,-0.00007973,0.00018677,0.00023173,0.00022712,0.00019108,-0.00023029,0
 .00004762,0.00289354,-0.00816148,-0.03367655,0.00005868,0.00000542,0.0
 0001757,-0.00000958,0.00000221,0.00000108,-0.00001133,-0.00001027,0.00
 001402,-0.00001390,0.00000183,0.00000301,0.00004766,-0.00004646,0.0000
 1565,-0.00000927,0.00001643,0.00001280,0.00000706,0.00000010,-0.000013
 68,0.00001589,-0.00001074,-0.00001617,-0.00004091,-0.00002909,0.000009
 68,0.00000210,-0.00000574,-0.00000700,0.00001028,-0.00001488,0.0000073
 6,-0.00000841,0.00000156,0.00001074,-0.09685891,0.00796647,0.10051765,
 -0.00253900,0.00211127,0.00736166,-0.00736340,0.00039919,0.02298731,0.
 09975260,-0.00015170,-0.00018058,0.00011907,0.00013240,0.00015850,0.00
 004962,0.00004718,0.00015527,0.00021234,0.00004086,0.00009914,-0.00022
 955,0.00232903,0.00174044,-0.00347568,-0.00000467,-0.00001798,0.000001
 23,0.00000593,-0.00001567,0.00001533,0.00013021,0.00001875,-0.00003052
 ,0.00005816,-0.00000697,0.00004729,0.00034075,0.00034703,0.00103854,-0
 .00018357,-0.00010857,0.00007570,-0.00005112,-0.00015867,-0.00019175,0
 .00003129,-0.00011750,0.00006733,-0.00305953,-0.00182740,-0.01285591,0
 .00001288,0.00000137,-0.00001451,-0.00000535,0.00000052,0.00000101,-0.
 00001872,-0.00000421,0.00001796,0.00001333,-0.00000255,0.00001821,-0.0
 0010593,0.00004583,0.00003159,0.00001580,-0.00002256,-0.00001421,0.000
 01356,-0.00001187,-0.00000036,0.00000491,0.00000117,0.00000571,-0.0000
 4918,-0.00001502,-0.00001132,0.00000197,0.00000835,0.00000636,0.000006
 66,-0.00001141,0.00000771,0.00001403,-0.00000304,-0.00000337,0.0088207
 5,-0.05633363,-0.01480834,-0.01133286,0.00540710,0.02683593,0.00936070
 ,-0.00009198,-0.01979625,-0.00641896,0.05094466,-0.00042113,0.00009212
 ,-0.00021924,-0.00009489,0.00017514,0.00019403,0.00013745,0.00059235,0
 .00052749,-0.00005086,-0.00000712,0.00031836,0.00275508,0.00414153,0.0
 0089176,0.00000050,0.00000561,-0.00000077,0.00004360,-0.00000884,0.000
 00863,0.00004510,-0.00008323,-0.00006197,0.00012041,-0.00001614,0.0000
 2573,-0.00145307,-0.00123866,0.00031991,-0.00018340,-0.00019941,0.0001
 3360,0.00020340,-0.00011551,-0.00009480,0.00015000,-0.00062614,0.00015
 356,-0.00722274,-0.00843590,-0.02818330,0.00019103,0.00006311,-0.00016
 821,-0.00003027,-0.00002710,-0.00000242,-0.00001018,0.00000063,0.00000
 232,-0.00023107,-0.00008722,-0.00001613,-0.00016745,0.00010541,0.00008
 517,0.00001396,-0.00002930,-0.00001864,0.00002818,-0.00003618,-0.00000
 884,0.00002458,-0.00000707,-0.00000818,-0.00018290,0.00013677,-0.00009
 263,0.00002902,-0.00002248,0.00000826,0.00001562,-0.00005395,0.0000272
 6,0.00003739,-0.00001343,0.00002056,0.09511032,-0.01715998,-0.26254597
 ,0.00474673,-0.00075561,-0.00708199,0.00161656,0.00068743,0.00172592,-
 0.09525628,0.02287911,0.29408049,-0.00012472,0.00011848,0.00005826,-0.
 00027728,-0.00018319,0.00005072,-0.00182303,0.00077523,0.00034415,-0.0
 0353308,0.00044375,-0.00113411,-0.00014311,-0.00095989,-0.00031282,0.0
 0009191,-0.00013453,-0.00000685,0.00007897,0.00003058,0.00001148,0.000
 15341,-0.00008296,0.00002472,-0.00033681,-0.00036105,-0.00009069,-0.00
 000893,0.00001238,-0.00011106,0.00162302,-0.00035239,-0.00073742,0.000
 65431,-0.00010002,-0.00008439,0.00095959,-0.00075701,0.00058261,0.0006
 8985,0.00053272,0.00028402,-0.04724099,-0.01818951,-0.00575493,0.00393
 855,-0.00215115,0.00223993,0.00595267,-0.00028284,0.00388739,-0.164242
 42,-0.05624437,-0.00437379,-0.00030941,0.00025805,0.00019422,-0.000001
 45,-0.00004304,-0.00003133,0.00005358,-0.00005018,-0.00001706,0.000060
 58,-0.00002648,-0.00001446,-0.00012241,0.00074377,-0.00024090,0.000092
 44,-0.00010107,0.00000609,-0.00002612,-0.00006291,0.00001994,0.0001291
 5,-0.00012240,0.00009288,-0.00035004,-0.00015808,-0.00038051,0.0000639
 2,0.00005985,0.00003521,0.00006519,-0.00001936,0.00005923,0.00001126,0
 .00000037,0.00007958,0.52482836,-0.00021706,0.00030885,-0.00004889,-0.
 00024490,-0.00015885,0.00009038,-0.00148413,0.00084050,0.00023088,0.00
 195056,-0.00218780,0.00322398,-0.00030471,0.00064171,-0.00117619,0.000
 09810,-0.00011606,-0.00001443,0.00009416,0.00000461,0.00000466,0.00013
 081,-0.00009367,0.00001523,-0.00045897,0.00027089,-0.00010894,-0.00004
 901,0.00000541,-0.00007699,0.00137178,-0.00041072,-0.00063075,0.000506
 63,-0.00012759,-0.00009510,0.00060351,-0.00085871,0.00042882,0.0013147
 7,0.00069380,0.00067921,0.00258590,0.00263767,-0.00489893,0.00563158,0
 .00225628,0.00257373,0.00241325,0.00006713,0.00269007,-0.08638967,-0.1
 3305406,0.01481787,-0.00025311,0.00022113,0.00016625,0.00000217,-0.000
 03552,-0.00003383,0.00004500,-0.00004032,-0.00000825,0.00004730,-0.000
 02463,-0.00001304,-0.00009581,0.00061489,-0.00018750,0.00009696,-0.000
 08860,0.00000335,-0.00000955,-0.00006889,0.00005184,0.00009063,-0.0001
 0632,0.00006420,-0.00031429,-0.00007708,-0.00049746,0.00010255,0.00007
 139,0.00006597,0.00009348,-0.00001304,0.00007412,0.00000663,0.00000047
 ,0.00008095,-0.06889186,0.53921474,0.00005513,-0.00013127,-0.00009065,
 0.00010136,-0.00006086,-0.00000668,0.00017991,0.00003704,0.00015420,-0
 .00397972,0.00079305,-0.00372315,-0.00026137,-0.00037561,0.00098954,-0
 .00001491,0.00002987,-0.00000396,0.00001142,-0.00000874,0.00001383,-0.
 00004584,0.00005153,0.00000414,0.00005075,0.00008322,-0.00005860,0.000
 03847,-0.00004102,0.00004315,-0.00009165,0.00009645,0.00004467,-0.0001
 3695,0.00002765,0.00002809,-0.00015757,0.00019620,-0.00017644,-0.00063
 349,-0.00030301,-0.00037353,-0.02350541,-0.01584186,-0.00311313,0.0003
 7086,0.00049483,0.00062431,-0.00365349,-0.00108336,0.00133686,0.022144
 34,0.03130107,-0.07773197,0.00006392,-0.00005375,-0.00003231,-0.000000
 30,0.00000789,0.00000325,-0.00000916,0.00001284,0.00000177,-0.00001248
 ,0.00000479,0.00000308,0.00004274,-0.00015470,0.00007843,-0.00001349,0
 .00002380,-0.00000794,0.00000174,0.00002686,0.00000429,-0.00003311,0.0
 0002117,-0.00001886,0.00006982,0.00001923,0.00025190,-0.00004757,-0.00
 002815,-0.00003356,-0.00003829,-0.00000233,-0.00003408,0.00000348,0.00
 000288,-0.00003703,0.03496295,-0.00912424,0.59627624,-0.00000533,-0.00
 004252,0.00002124,0.00003828,0.00007545,-0.00001639,0.00030318,-0.0001
 5177,-0.00012190,0.00016603,0.00006240,-0.00023619,0.00006779,0.000003
 33,0.00022107,-0.00001499,-0.00000253,-0.00000233,-0.00002012,-0.00000
 374,-0.00000330,-0.00002060,0.00001716,-0.00000359,0.00009779,0.000100
 27,0.00001153,-0.00000522,-0.00000357,-0.00001929,-0.00011045,0.000153
 53,-0.00008556,-0.00008347,0.00000891,0.00000389,-0.00008918,0.0001120
 8,-0.00009181,-0.00014160,-0.00009211,-0.00009980,0.00410038,-0.000799
 61,0.00593829,-0.00052371,0.00025327,-0.00029939,0.00046415,0.00009010
 ,-0.00152336,-0.02526490,-0.01027764,0.02617496,0.00004473,-0.00003437
 ,-0.00002601,0.00000024,0.00000602,0.00000411,-0.00000762,0.00000685,0
 .00000270,-0.00000818,0.00000309,0.00000199,0.00001359,-0.00008474,0.0
 0002743,-0.00000716,0.00000982,-0.00000367,0.00000128,0.00001203,-0.00
 000262,-0.00001571,0.00001368,-0.00001148,0.00004903,0.00001683,0.0000
 6952,-0.00001344,-0.00000932,-0.00000849,-0.00001093,0.00000179,-0.000
 00991,-0.00000204,-0.00000073,-0.00001321,-0.07969058,0.00842130,0.073
 98158,0.09103146,0.00000707,-0.00002821,-0.00000596,0.00003201,0.00004
 554,-0.00001605,0.00024196,-0.00014691,-0.00007889,0.00023674,0.000056
 85,-0.00010643,0.00009283,0.00003932,0.00014315,-0.00001740,0.00000791
 ,0.00000208,-0.00002000,0.00000097,-0.00000642,-0.00002048,0.00001566,
 -0.00000142,0.00003412,0.00003839,0.00002427,-0.00000231,0.00000280,0.
 00000262,-0.00018848,0.00007284,0.00005391,-0.00007361,0.00001427,0.00
 001503,-0.00009041,0.00009059,-0.00003987,-0.00013455,-0.00009382,-0.0
 0006667,0.00287036,-0.00020783,0.00235530,-0.00037442,-0.00018631,-0.0
 0052925,0.00008489,0.00002987,-0.00097910,-0.01940142,-0.00227697,0.02
 302527,0.00003736,-0.00003160,-0.00002582,-0.00000036,0.00000560,0.000
 00520,-0.00000639,0.00000523,0.00000218,-0.00000730,0.00000355,0.00000
 202,0.00002408,-0.00007105,0.00001868,-0.00001455,0.00000969,0.0000021
 5,0.00000405,0.00000155,-0.00000502,-0.00001260,0.00001098,-0.00000819
 ,0.00004740,0.00001898,0.00006172,-0.00001268,-0.00000926,-0.00000673,
 -0.00000983,0.00000132,-0.00001011,-0.00000258,0.00000129,-0.00001220,
 0.00834080,-0.05439314,-0.01956824,0.00157820,0.05539863,-0.00001665,0
 .00004761,0.00000715,-0.00003952,-0.00002611,0.00000415,-0.00027645,0.
 00012229,0.00006323,0.00013795,-0.00015224,0.00051118,-0.00006665,-0.0
 0002985,-0.00019093,0.00001483,-0.00000777,-0.00000053,0.00000422,0.00
 000440,-0.00000275,0.00002198,-0.00002023,0.00000302,-0.00005677,-0.00
 005879,-0.00002512,-0.00000139,0.00000269,-0.00001455,0.00010558,-0.00
 010321,-0.00008817,0.00008969,-0.00001231,-0.00000833,0.00008900,-0.00
 010065,0.00008459,0.00017334,0.00011138,0.00009287,-0.00254511,0.00067
 981,0.00236540,0.00016286,-0.00033833,-0.00023283,0.00228035,0.0000148
 6,0.00022952,0.00727898,0.00652517,0.00281961,-0.00004355,0.00003445,0
 .00002211,-0.00000041,-0.00000511,-0.00000246,0.00000696,-0.00000782,-
 0.00000198,0.00000846,-0.00000287,-0.00000201,-0.00001985,0.00008948,-
 0.00004286,0.00000836,-0.00001296,0.00000393,-0.00000171,-0.00001207,0
 .00000036,0.00001709,-0.00001216,0.00001181,-0.00005335,-0.00002406,-0
 .00008494,0.00001503,0.00001030,0.00000874,0.00001281,-0.00000086,0.00
 001207,0.00000092,-0.00000095,0.00001601,0.07703679,-0.01681732,-0.275
 13543,-0.09251381,0.01367159,0.29308191,-0.00006021,-0.00006462,-0.000
 02262,0.00001200,0.00000891,-0.00000806,0.00009653,-0.00005588,-0.0000
 0210,-0.00004402,-0.00023258,0.00005196,-0.00003018,0.00014437,0.00012
 517,-0.00000849,0.00001132,0.00000160,-0.00000689,-0.00000048,-0.00000
 056,-0.00000782,0.00002534,-0.00000103,-0.00004925,0.00025908,-0.00007
 703,0.00001042,-0.00000145,0.00000628,-0.00008441,0.00005338,0.0000125
 0,-0.00003554,0.00000772,0.00000451,-0.00000115,0.00001096,-0.00000727
 ,-0.00003842,-0.00002731,-0.00002094,0.00561779,-0.00479846,0.00200205
 ,0.00035924,0.00188402,0.00062575,-0.00067429,0.00038506,-0.00023781,-
 0.00337421,-0.03739422,-0.00788584,0.00001663,-0.00001344,-0.00001094,
 0.00000007,0.00000222,0.00000160,-0.00000303,0.00000268,0.00000102,-0.
 00000347,0.00000146,0.00000082,0.00001685,-0.00000490,0.00001265,-0.00
 000280,0.00000116,-0.00000067,0.00000079,0.00000144,-0.00000050,0.0000
 0006,-0.00000188,0.00000035,0.00002513,0.00001252,0.00003231,-0.000005
 90,-0.00000455,-0.00000312,-0.00000456,0.00000062,-0.00000486,-0.00000
 108,0.00000059,-0.00000623,-0.07235490,0.06860610,0.01529577,-0.000887
 54,0.01068064,0.00130704,0.07509442,-0.00001909,-0.00009544,-0.0000234
 3,0.00004820,0.00003494,-0.00002544,0.00030232,-0.00017022,-0.00005223
 ,-0.00018268,0.00058996,-0.00038705,0.00003864,0.00007771,0.00026160,-
 0.00002609,0.00002232,0.00000492,-0.00002781,0.00000071,-0.00000273,-0
 .00002704,0.00003398,-0.00000048,0.00035360,0.00023781,-0.00002177,0.0
 0000913,-0.00000406,0.00001827,-0.00024562,0.00008077,0.00012812,-0.00
 010692,0.00003199,0.00002128,-0.00013728,0.00018623,-0.00008793,-0.000
 20428,-0.00011591,-0.00009843,0.00404849,0.00057195,0.00325441,-0.0016
 4624,0.00027487,-0.00091814,-0.00028045,-0.00006133,-0.00063630,-0.013
 49047,-0.02605605,-0.00227073,0.00005379,-0.00004952,-0.00003885,-0.00
 000086,0.00000799,0.00000890,-0.00000975,0.00000832,0.00000128,-0.0000
 0965,0.00000585,0.00000310,0.00001711,-0.00013073,0.00003307,-0.000022
 08,0.00001851,-0.00000004,0.00000258,0.00001616,-0.00001307,-0.0000167
 9,0.00002524,-0.00001245,0.00007423,0.00002102,0.00009363,-0.00001698,
 -0.00001331,-0.00001154,-0.00001790,0.00000482,-0.00001339,-0.00000126
 ,-0.00000092,-0.00001392,0.06446259,-0.26736108,-0.05481656,0.00248034
 ,-0.00017208,-0.00079466,-0.05921059,0.30010728,-0.00002998,-0.0000374
 2,0.00003104,-0.00001643,0.00000634,0.00000211,-0.00004210,0.00000713,
 0.00002201,-0.00012580,0.00011689,0.00006223,-0.00003730,-0.00004378,-
 0.00004279,0.00000666,-0.00000168,-0.00000157,0.00000001,0.00000049,0.
 00000352,0.00001289,0.00000095,-0.00000219,0.00000199,0.00002552,-0.00
 004084,0.00000437,-0.00000048,0.00000043,0.00003287,-0.00002057,-0.000
 02421,0.00002632,-0.00000262,-0.00001283,0.00008234,-0.00001986,0.0000
 3294,0.00003831,0.00003606,0.00001654,0.00022034,-0.00135546,-0.000031
 38,0.00012265,0.00013345,0.00006164,0.00028816,-0.00008669,-0.00016784
 ,-0.00222267,0.00612052,0.00454654,-0.00001061,0.00001087,0.00000863,0
 .00000045,-0.00000224,-0.00000177,0.00000103,-0.00000140,-0.00000105,0
 .00000258,-0.00000136,-0.00000078,-0.00001547,0.00004203,-0.00000525,0
 .00000731,-0.00000577,-0.00000289,-0.00000400,0.00000316,-0.00000325,0
 .00001210,-0.00000672,0.00000585,-0.00001217,-0.00000880,-0.00002071,0
 .00000367,0.00000337,0.00000188,0.00000242,-0.00000021,0.00000414,0.00
 000095,-0.00000075,0.00000447,0.01577168,-0.05537394,-0.06883677,0.008
 87102,-0.02933387,-0.00615641,-0.01799121,0.05933593,0.06382147,0.0000
 3701,-0.00008555,-0.00002989,0.00007259,0.00002547,-0.00002234,0.00033
 456,-0.00016292,-0.00003286,-0.00095705,0.00066361,-0.00171528,0.00008
 823,-0.00020419,0.00054607,-0.00003185,0.00003402,0.00000204,-0.000017
 06,-0.00000230,-0.00000041,-0.00003908,0.00003507,-0.00000009,0.000069
 59,0.00002338,0.00003615,0.00001748,-0.00000720,0.00001287,-0.00029712
 ,0.00014258,0.00014182,-0.00013789,0.00002628,0.00003354,-0.00014239,0
 .00018132,-0.00010128,-0.00042178,-0.00022611,-0.00022839,-0.00176473,
 -0.00427797,0.00246610,0.00002613,0.00012493,0.00013058,-0.00010444,-0
 .00007039,-0.00042152,-0.02993068,0.00428357,-0.01903132,0.00006598,-0
 .00005681,-0.00004389,-0.00000035,0.00001056,0.00000783,-0.00001071,0.
 00001033,0.00000385,-0.00001356,0.00000612,0.00000296,0.00003989,-0.00
 013900,0.00004926,-0.00002041,0.00002031,0.00000014,0.00000325,0.00001
 396,-0.00000526,-0.00002425,0.00001982,-0.00001656,0.00008612,0.000029
 51,0.00016416,-0.00003388,-0.00002242,-0.00002170,-0.00002891,0.000001
 03,-0.00002502,-0.00000204,0.00000094,-0.00002481,-0.16886149,0.064499
 89,-0.11473941,0.01054483,-0.00392315,0.00686297,-0.00357175,0.0038088
 3,-0.00500241,0.19502575,0.00001488,-0.00006019,-0.00000346,0.00002607
 ,0.00000570,-0.00001045,0.00008832,-0.00004982,0.00001673,-0.00100911,
 0.00066156,-0.00079440,-0.00001545,-0.00016115,0.00027782,-0.00000711,
 0.00001471,0.00000114,-0.00000792,0.00000007,0.00000208,-0.00001310,0.
 00001674,0.00000004,0.00011930,0.00003098,-0.00001333,0.00001585,-0.00
 000484,0.00000750,-0.00009655,0.00001522,0.00002102,-0.00004105,0.0000
 1228,0.00000889,-0.00003404,0.00010350,-0.00004352,-0.00019307,-0.0000
 9226,-0.00010970,-0.00302859,-0.00200620,0.00040148,-0.00049273,0.0003
 1534,-0.00004606,0.00003706,-0.00009538,-0.00000981,-0.02186194,0.0064
 5547,-0.01643757,0.00002072,-0.00001790,-0.00001249,-0.00000022,0.0000
 0269,0.00000231,-0.00000365,0.00000358,0.00000031,-0.00000407,0.000002
 10,0.00000105,0.00000277,-0.00005217,0.00002188,-0.00000839,0.00000892
 ,-0.00000250,-0.00000107,0.00001068,-0.00000706,-0.00000662,0.00000987
 ,-0.00000478,0.00002913,0.00000143,0.00007193,-0.00001659,-0.00000917,
 -0.00001110,-0.00001166,-0.00000008,-0.00000973,-0.00000030,0.00000064
 ,-0.00001078,0.07349572,-0.08863339,0.06836333,-0.00192377,0.00174536,
 -0.00277370,0.01971074,-0.00812780,0.02046096,-0.06478353,0.08989352,-
 0.00000057,-0.00000547,0.00000074,0.00001564,0.00000769,-0.00000164,0.
 00008949,-0.00004877,0.00000951,0.00015436,0.00016334,0.00027016,0.000
 05199,0.00005082,-0.00000678,-0.00000209,0.00001899,0.00000115,-0.0000
 0474,-0.00000120,-0.00000182,-0.00000557,0.00000412,-0.00000218,-0.000
 00137,0.00001626,0.00001542,-0.00000518,0.00000254,-0.00000298,-0.0001
 8018,-0.00003372,0.00007149,-0.00003771,0.00000432,0.00000515,-0.00002
 547,0.00001037,-0.00000708,-0.00002148,-0.00002874,-0.00001294,0.00171
 129,-0.00013273,0.00145395,-0.00008536,0.00010984,-0.00009114,0.000280
 98,0.00008729,0.00030176,0.00292174,-0.00318416,0.00463176,0.00001697,
 -0.00001303,-0.00001095,0.00000035,0.00000220,0.00000131,-0.00000317,0
 .00000255,0.00000143,-0.00000360,0.00000133,0.00000062,0.00001382,-0.0
 0002138,0.00000708,-0.00000374,0.00000206,0.00000165,0.00000192,-0.000
 00189,-0.00000054,-0.00000362,0.00000185,-0.00000335,0.00001909,0.0000
 1140,0.00001649,-0.00000288,-0.00000298,-0.00000038,-0.00000244,0.0000
 0065,-0.00000268,-0.00000120,0.00000053,-0.00000341,-0.12245151,0.0638
 4428,-0.17044367,-0.02023724,0.01141507,-0.01734836,0.00679940,-0.0029
 2536,0.00672712,0.13100210,-0.06935805,0.17442310\\0.00000533,-0.00000
 173,-0.00000494,-0.00000779,-0.00000685,0.00000613,-0.00001422,-0.0000
 1528,-0.00000515,-0.00000083,0.00000848,-0.00000027,-0.00000443,-0.000
 01380,0.00000220,-0.00000812,-0.00000645,-0.00000135,-0.00000562,-0.00
 000594,-0.00000263,0.00000611,0.00000344,-0.00000504,0.00000396,0.0000
 0121,0.00000205,0.00000855,0.00000776,-0.00000246,-0.00000090,0.000003
 90,-0.00000700,0.00000614,-0.00000735,-0.00000472,0.00000385,0.0000029
 3,0.00000857,0.00001348,0.00000836,-0.00000802,-0.00000345,0.00000364,
 0.00000387,-0.00000069,0.00000066,0.00000916,0.00000443,0.00000862,0.0
 0000822,0.00000019,0.00000269,0.00001153,-0.00001085,-0.00000326,-0.00
 000890,-0.00000953,-0.00001402,-0.00000817,-0.00000508,-0.00000969,-0.
 00000713,-0.00000626,-0.00001168,-0.00001437,-0.00000125,0.00000878,0.
 00000143,-0.00000214,-0.00000042,0.00000359,0.00000067,0.00000534,0.00
 000942,0.00000490,0.00000390,0.00000294,0.00000461,-0.00000238,-0.0000
 1529,0.00000904,0.00000137,-0.00001670,0.00000800,-0.00000100,-0.00001
 515,0.00001292,0.00000511,-0.00001144,-0.00000255,0.00000562,0.0000161
 3,0.00000067,0.00000905,0.00001736,-0.00000513,0.00000402,0.00001840,-
 0.00000402,0.00000498,0.00001775\\\@


 THE ENLIGHTENED ONE, BECAUSE HE SAW MANKIND DROWNING  
 IN THE GREAT SEA OF BIRTH, DEATH, AND SORROW, LONGED TO SAVE 
 THEM, FOR THIS HE WAS MOVED TO PITY.                         
 BECAUSE HE SAW MEN OF THE WORLD STRAYING IN FALSE PATHS, AND 
 NONE TO GUIDE THEM, FOR THIS HE WAS MOVED TO PITY.           
                     ..................                       
 BECAUSE HE SAW THE MEN OF THE WORLD PLOUGHING THEIR FIELDS,  
 SOWING THE SEED, TRAFFICKING, HUCKSTERING, BUYING, SELLING,  
 AND AT THE END WINNOWING NOTHING BUT BITTERNESS,             
 FOR THIS HE WAS MOVED TO PITY......                   
                   BUDAH'S PITY - UPSAKA SILA SUTRA           
 Job cpu time:       0 days  1 hours 15 minutes 29.1 seconds.
 Elapsed time:       0 days  0 hours 19 minutes  8.4 seconds.
 File lengths (MBytes):  RWF=    379 Int=      0 D2E=      0 Chk=     16 Scr=      1
 Normal termination of Gaussian 16 at Fri May 24 08:54:34 2019.
