 Entering Gaussian System, Link 0=g16
 Input=clay-glucose_cation-180-b3lyp_d3bj-631gd-pcm_thf.gjf
 Output=clay-glucose_cation-180-b3lyp_d3bj-631gd-pcm_thf.out
 Initial command:
 /n/sw/g16_nehalem/g16/l1.exe "/scratch/Gau-192574.inp" -scrdir="/scratch/"
 Entering Link 1 = /n/sw/g16_nehalem/g16/l1.exe PID=    192576.
  
 Copyright (c) 1988,1990,1992,1993,1995,1998,2003,2009,2016,
            Gaussian, Inc.  All Rights Reserved.
  
 This is part of the Gaussian(R) 16 program.  It is based on
 the Gaussian(R) 09 system (copyright 2009, Gaussian, Inc.),
 the Gaussian(R) 03 system (copyright 2003, Gaussian, Inc.),
 the Gaussian(R) 98 system (copyright 1998, Gaussian, Inc.),
 the Gaussian(R) 94 system (copyright 1995, Gaussian, Inc.),
 the Gaussian 92(TM) system (copyright 1992, Gaussian, Inc.),
 the Gaussian 90(TM) system (copyright 1990, Gaussian, Inc.),
 the Gaussian 88(TM) system (copyright 1988, Gaussian, Inc.),
 the Gaussian 86(TM) system (copyright 1986, Carnegie Mellon
 University), and the Gaussian 82(TM) system (copyright 1983,
 Carnegie Mellon University). Gaussian is a federally registered
 trademark of Gaussian, Inc.
  
 This software contains proprietary and confidential information,
 including trade secrets, belonging to Gaussian, Inc.
  
 This software is provided under written license and may be
 used, copied, transmitted, or stored only in accord with that
 written license.
  
 The following legend is applicable only to US Government
 contracts under FAR:
  
                    RESTRICTED RIGHTS LEGEND
  
 Use, reproduction and disclosure by the US Government is
 subject to restrictions as set forth in subparagraphs (a)
 and (c) of the Commercial Computer Software - Restricted
 Rights clause in FAR 52.227-19.
  
 Gaussian, Inc.
 340 Quinnipiac St., Bldg. 40, Wallingford CT 06492
  
  
 ---------------------------------------------------------------
 Warning -- This program may not be used in any manner that
 competes with the business of Gaussian, Inc. or will provide
 assistance to any competitor of Gaussian, Inc.  The licensee
 of this program is prohibited from giving any competitor of
 Gaussian, Inc. access to this program.  By using this program,
 the user acknowledges that Gaussian, Inc. is engaged in the
 business of creating and licensing software in the field of
 computational chemistry and represents and warrants to the
 licensee that it is not a competitor of Gaussian, Inc. and that
 it will not use this program in any manner prohibited above.
 ---------------------------------------------------------------
  

 Cite this work as:
 Gaussian 16, Revision A.03,
 M. J. Frisch, G. W. Trucks, H. B. Schlegel, G. E. Scuseria, 
 M. A. Robb, J. R. Cheeseman, G. Scalmani, V. Barone, 
 G. A. Petersson, H. Nakatsuji, X. Li, M. Caricato, A. V. Marenich, 
 J. Bloino, B. G. Janesko, R. Gomperts, B. Mennucci, H. P. Hratchian, 
 J. V. Ortiz, A. F. Izmaylov, J. L. Sonnenberg, D. Williams-Young, 
 F. Ding, F. Lipparini, F. Egidi, J. Goings, B. Peng, A. Petrone, 
 T. Henderson, D. Ranasinghe, V. G. Zakrzewski, J. Gao, N. Rega, 
 G. Zheng, W. Liang, M. Hada, M. Ehara, K. Toyota, R. Fukuda, 
 J. Hasegawa, M. Ishida, T. Nakajima, Y. Honda, O. Kitao, H. Nakai, 
 T. Vreven, K. Throssell, J. A. Montgomery, Jr., J. E. Peralta, 
 F. Ogliaro, M. J. Bearpark, J. J. Heyd, E. N. Brothers, K. N. Kudin, 
 V. N. Staroverov, T. A. Keith, R. Kobayashi, J. Normand, 
 K. Raghavachari, A. P. Rendell, J. C. Burant, S. S. Iyengar, 
 J. Tomasi, M. Cossi, J. M. Millam, M. Klene, C. Adamo, R. Cammi, 
 J. W. Ochterski, R. L. Martin, K. Morokuma, O. Farkas, 
 J. B. Foresman, and D. J. Fox, Gaussian, Inc., Wallingford CT, 2016.
 
 ******************************************
 Gaussian 16:  ES64L-G16RevA.03 25-Dec-2016
                24-May-2019 
 ******************************************
 %nprocshared=4
 Will use up to    4 processors via shared memory.
 %mem=3GB
 -------------------------------------------------------------------
 #p b3lyp 6-31g* opt freq=noraman scrf=(pcm,solvent=tetrahydrofuran)
 -------------------------------------------------------------------
 1/18=20,19=15,26=3,38=1/1,3;
 2/9=110,12=2,17=6,18=5,40=1/2;
 3/5=1,6=6,7=1,11=2,25=1,30=1,70=2201,71=1,72=20,74=-5/1,2,3;
 4//1;
 5/5=2,38=5,53=20/2;
 6/7=2,8=2,9=2,10=2,28=1/1;
 7//1,2,3,16;
 1/18=20,19=15,26=3/3(2);
 2/9=110/2;
 99//99;
 2/9=110/2;
 3/5=1,6=6,7=1,11=2,25=1,30=1,70=2205,71=1,72=20,74=-5/1,2,3;
 4/5=5,16=3,69=1/1;
 5/5=2,38=5,53=20/2;
 7//1,2,3,16;
 1/18=20,19=15,26=3/3(-5);
 2/9=110/2;
 6/7=2,8=2,9=2,10=2,19=2,28=1/1;
 99/9=1/99;
 Leave Link    1 at Fri May 24 08:32:11 2019, MaxMem=   402653184 cpu:               0.3 elap:               0.1
 (Enter /n/sw/g16_nehalem/g16/l101.exe)
 -----
 title
 -----
 Symbolic Z-matrix:
 Charge =  1 Multiplicity = 1
 6                     1.08544   0.38005  -0.04202 
 6                     0.65062  -1.0882    0.28372 
 6                    -0.24815  -1.03993   1.46885 
 6                    -1.35936   0.94008   0.65697 
 6                    -0.18611   1.20202  -0.33055 
 1                    -0.15001  -1.76535   2.27846 
 1                     0.07729  -1.45766  -0.58097 
 1                     1.63326   0.76877   0.82654 
 1                    -1.56041   1.81898   1.26706 
 1                    -0.51884   0.88303  -1.32212 
 8                    -1.05747  -0.10534   1.70227 
 8                     1.76533  -1.87685   0.587 
 8                     1.8735    0.41338  -1.1954 
 8                     0.02212   2.5907   -0.46072 
 6                    -2.63401   0.45473  -0.0121 
 1                    -2.96186   1.24413  -0.70599 
 1                    -3.4242    0.3062    0.7376 
 8                    -2.32373  -0.74731  -0.6799 
 6                     1.69699  -3.22416   0.09931 
 1                     1.56873  -3.23416  -0.9897 
 1                     2.64615  -3.69036   0.36474 
 1                     0.8753   -3.77901   0.56864 
 6                     3.2897    0.40427  -0.98333 
 1                     3.61551  -0.525    -0.50771 
 1                     3.74043   0.49101  -1.97348 
 1                     3.59841   1.2605   -0.36992 
 6                     0.69389   3.26374   0.60425 
 1                     0.57473   4.32964   0.40336 
 1                     0.25595   3.04053   1.58676 
 1                     1.76339   3.0246    0.62603 
 6                    -3.45164  -1.35212  -1.31174 
 1                    -4.22726  -1.60056  -0.57538 
 1                    -3.87699  -0.68807  -2.0749 
 1                    -3.09172  -2.26681  -1.78521 
 
 ITRead=  0  0  0  0  0  0  0  0  0  0  0  0  0  0  0  0  0  0  0  0
 ITRead=  0  0  0  0  0  0  0  0  0  0  0  0  0  0
 MicOpt= -1 -1 -1 -1 -1 -1 -1 -1 -1 -1 -1 -1 -1 -1 -1 -1 -1 -1 -1 -1
 MicOpt= -1 -1 -1 -1 -1 -1 -1 -1 -1 -1 -1 -1 -1 -1
 NAtoms=     34 NQM=       34 NQMF=       0 NMMI=      0 NMMIF=      0
                NMic=       0 NMicF=      0.
                    Isotopes and Nuclear Properties:
 (Nuclear quadrupole moments (NQMom) in fm**2, nuclear magnetic moments (NMagM)
  in nuclear magnetons)

  Atom         1           2           3           4           5           6           7           8           9          10
 IAtWgt=          12          12          12          12          12           1           1           1           1           1
 AtmWgt=  12.0000000  12.0000000  12.0000000  12.0000000  12.0000000   1.0078250   1.0078250   1.0078250   1.0078250   1.0078250
 NucSpn=           0           0           0           0           0           1           1           1           1           1
 AtZEff=   0.0000000   0.0000000   0.0000000   0.0000000   0.0000000   0.0000000   0.0000000   0.0000000   0.0000000   0.0000000
 NQMom=    0.0000000   0.0000000   0.0000000   0.0000000   0.0000000   0.0000000   0.0000000   0.0000000   0.0000000   0.0000000
 NMagM=    0.0000000   0.0000000   0.0000000   0.0000000   0.0000000   2.7928460   2.7928460   2.7928460   2.7928460   2.7928460
 AtZNuc=   6.0000000   6.0000000   6.0000000   6.0000000   6.0000000   1.0000000   1.0000000   1.0000000   1.0000000   1.0000000

  Atom        11          12          13          14          15          16          17          18          19          20
 IAtWgt=          16          16          16          16          12           1           1          16          12           1
 AtmWgt=  15.9949146  15.9949146  15.9949146  15.9949146  12.0000000   1.0078250   1.0078250  15.9949146  12.0000000   1.0078250
 NucSpn=           0           0           0           0           0           1           1           0           0           1
 AtZEff=   0.0000000   0.0000000   0.0000000   0.0000000   0.0000000   0.0000000   0.0000000   0.0000000   0.0000000   0.0000000
 NQMom=    0.0000000   0.0000000   0.0000000   0.0000000   0.0000000   0.0000000   0.0000000   0.0000000   0.0000000   0.0000000
 NMagM=    0.0000000   0.0000000   0.0000000   0.0000000   0.0000000   2.7928460   2.7928460   0.0000000   0.0000000   2.7928460
 AtZNuc=   8.0000000   8.0000000   8.0000000   8.0000000   6.0000000   1.0000000   1.0000000   8.0000000   6.0000000   1.0000000

  Atom        21          22          23          24          25          26          27          28          29          30
 IAtWgt=           1           1          12           1           1           1          12           1           1           1
 AtmWgt=   1.0078250   1.0078250  12.0000000   1.0078250   1.0078250   1.0078250  12.0000000   1.0078250   1.0078250   1.0078250
 NucSpn=           1           1           0           1           1           1           0           1           1           1
 AtZEff=   0.0000000   0.0000000   0.0000000   0.0000000   0.0000000   0.0000000   0.0000000   0.0000000   0.0000000   0.0000000
 NQMom=    0.0000000   0.0000000   0.0000000   0.0000000   0.0000000   0.0000000   0.0000000   0.0000000   0.0000000   0.0000000
 NMagM=    2.7928460   2.7928460   0.0000000   2.7928460   2.7928460   2.7928460   0.0000000   2.7928460   2.7928460   2.7928460
 AtZNuc=   1.0000000   1.0000000   6.0000000   1.0000000   1.0000000   1.0000000   6.0000000   1.0000000   1.0000000   1.0000000

  Atom        31          32          33          34
 IAtWgt=          12           1           1           1
 AtmWgt=  12.0000000   1.0078250   1.0078250   1.0078250
 NucSpn=           0           1           1           1
 AtZEff=   0.0000000   0.0000000   0.0000000   0.0000000
 NQMom=    0.0000000   0.0000000   0.0000000   0.0000000
 NMagM=    0.0000000   2.7928460   2.7928460   2.7928460
 AtZNuc=   6.0000000   1.0000000   1.0000000   1.0000000
 Leave Link  101 at Fri May 24 08:32:12 2019, MaxMem=   402653184 cpu:               0.6 elap:               0.2
 (Enter /n/sw/g16_nehalem/g16/l103.exe)

 GradGradGradGradGradGradGradGradGradGradGradGradGradGradGradGradGradGrad
 Berny optimization.
 Initialization pass.
                           ----------------------------
                           !    Initial Parameters    !
                           ! (Angstroms and Degrees)  !
 --------------------------                            --------------------------
 ! Name  Definition              Value          Derivative Info.                !
 --------------------------------------------------------------------------------
 ! R1    R(1,2)                  1.5655         estimate D2E/DX2                !
 ! R2    R(1,5)                  1.5413         estimate D2E/DX2                !
 ! R3    R(1,8)                  1.098          estimate D2E/DX2                !
 ! R4    R(1,13)                 1.3973         estimate D2E/DX2                !
 ! R5    R(2,3)                  1.4882         estimate D2E/DX2                !
 ! R6    R(2,7)                  1.1013         estimate D2E/DX2                !
 ! R7    R(2,12)                 1.3988         estimate D2E/DX2                !
 ! R8    R(3,6)                  1.0915         estimate D2E/DX2                !
 ! R9    R(3,11)                 1.2582         estimate D2E/DX2                !
 ! R10   R(4,5)                  1.5557         estimate D2E/DX2                !
 ! R11   R(4,9)                  1.0886         estimate D2E/DX2                !
 ! R12   R(4,11)                 1.5089         estimate D2E/DX2                !
 ! R13   R(4,15)                 1.5192         estimate D2E/DX2                !
 ! R14   R(5,10)                 1.0935         estimate D2E/DX2                !
 ! R15   R(5,14)                 1.4102         estimate D2E/DX2                !
 ! R16   R(12,19)                1.4345         estimate D2E/DX2                !
 ! R17   R(13,23)                1.432          estimate D2E/DX2                !
 ! R18   R(14,27)                1.4277         estimate D2E/DX2                !
 ! R19   R(15,16)                1.101          estimate D2E/DX2                !
 ! R20   R(15,17)                1.0993         estimate D2E/DX2                !
 ! R21   R(15,18)                1.4097         estimate D2E/DX2                !
 ! R22   R(18,31)                1.4273         estimate D2E/DX2                !
 ! R23   R(19,20)                1.0966         estimate D2E/DX2                !
 ! R24   R(19,21)                1.0903         estimate D2E/DX2                !
 ! R25   R(19,22)                1.0969         estimate D2E/DX2                !
 ! R26   R(23,24)                1.0936         estimate D2E/DX2                !
 ! R27   R(23,25)                1.0914         estimate D2E/DX2                !
 ! R28   R(23,26)                1.0976         estimate D2E/DX2                !
 ! R29   R(27,28)                1.0912         estimate D2E/DX2                !
 ! R30   R(27,29)                1.0986         estimate D2E/DX2                !
 ! R31   R(27,30)                1.0961         estimate D2E/DX2                !
 ! R32   R(31,32)                1.098          estimate D2E/DX2                !
 ! R33   R(31,33)                1.0974         estimate D2E/DX2                !
 ! R34   R(31,34)                1.091          estimate D2E/DX2                !
 ! A1    A(2,1,5)              108.057          estimate D2E/DX2                !
 ! A2    A(2,1,8)              107.8186         estimate D2E/DX2                !
 ! A3    A(2,1,13)             110.5335         estimate D2E/DX2                !
 ! A4    A(5,1,8)              111.7696         estimate D2E/DX2                !
 ! A5    A(5,1,13)             107.3396         estimate D2E/DX2                !
 ! A6    A(8,1,13)             111.2924         estimate D2E/DX2                !
 ! A7    A(1,2,3)              107.6388         estimate D2E/DX2                !
 ! A8    A(1,2,7)              107.2087         estimate D2E/DX2                !
 ! A9    A(1,2,12)             110.6438         estimate D2E/DX2                !
 ! A10   A(3,2,7)              108.7676         estimate D2E/DX2                !
 ! A11   A(3,2,12)             109.0817         estimate D2E/DX2                !
 ! A12   A(7,2,12)             113.3261         estimate D2E/DX2                !
 ! A13   A(2,3,6)              120.987          estimate D2E/DX2                !
 ! A14   A(2,3,11)             124.079          estimate D2E/DX2                !
 ! A15   A(6,3,11)             114.4516         estimate D2E/DX2                !
 ! A16   A(5,4,9)              111.0439         estimate D2E/DX2                !
 ! A17   A(5,4,11)             113.9235         estimate D2E/DX2                !
 ! A18   A(5,4,15)             114.0156         estimate D2E/DX2                !
 ! A19   A(9,4,11)             102.0096         estimate D2E/DX2                !
 ! A20   A(9,4,15)             110.4745         estimate D2E/DX2                !
 ! A21   A(11,4,15)            104.5733         estimate D2E/DX2                !
 ! A22   A(1,5,4)              114.4267         estimate D2E/DX2                !
 ! A23   A(1,5,10)             105.3788         estimate D2E/DX2                !
 ! A24   A(1,5,14)             114.8725         estimate D2E/DX2                !
 ! A25   A(4,5,10)             107.2783         estimate D2E/DX2                !
 ! A26   A(4,5,14)             109.6181         estimate D2E/DX2                !
 ! A27   A(10,5,14)            104.3887         estimate D2E/DX2                !
 ! A28   A(3,11,4)             120.9871         estimate D2E/DX2                !
 ! A29   A(2,12,19)            114.7005         estimate D2E/DX2                !
 ! A30   A(1,13,23)            115.8081         estimate D2E/DX2                !
 ! A31   A(5,14,27)            117.6988         estimate D2E/DX2                !
 ! A32   A(4,15,16)            107.359          estimate D2E/DX2                !
 ! A33   A(4,15,17)            110.2378         estimate D2E/DX2                !
 ! A34   A(4,15,18)            107.2401         estimate D2E/DX2                !
 ! A35   A(16,15,17)           108.2186         estimate D2E/DX2                !
 ! A36   A(16,15,18)           112.2329         estimate D2E/DX2                !
 ! A37   A(17,15,18)           111.4737         estimate D2E/DX2                !
 ! A38   A(15,18,31)           113.3971         estimate D2E/DX2                !
 ! A39   A(12,19,20)           110.596          estimate D2E/DX2                !
 ! A40   A(12,19,21)           106.1034         estimate D2E/DX2                !
 ! A41   A(12,19,22)           111.4259         estimate D2E/DX2                !
 ! A42   A(20,19,21)           109.8579         estimate D2E/DX2                !
 ! A43   A(20,19,22)           109.4309         estimate D2E/DX2                !
 ! A44   A(21,19,22)           109.3697         estimate D2E/DX2                !
 ! A45   A(13,23,24)           111.3738         estimate D2E/DX2                !
 ! A46   A(13,23,25)           105.8766         estimate D2E/DX2                !
 ! A47   A(13,23,26)           110.8525         estimate D2E/DX2                !
 ! A48   A(24,23,25)           109.8206         estimate D2E/DX2                !
 ! A49   A(24,23,26)           109.6354         estimate D2E/DX2                !
 ! A50   A(25,23,26)           109.2007         estimate D2E/DX2                !
 ! A51   A(14,27,28)           105.7697         estimate D2E/DX2                !
 ! A52   A(14,27,29)           112.5663         estimate D2E/DX2                !
 ! A53   A(14,27,30)           111.7808         estimate D2E/DX2                !
 ! A54   A(28,27,29)           108.6378         estimate D2E/DX2                !
 ! A55   A(28,27,30)           108.8635         estimate D2E/DX2                !
 ! A56   A(29,27,30)           109.0781         estimate D2E/DX2                !
 ! A57   A(18,31,32)           110.93           estimate D2E/DX2                !
 ! A58   A(18,31,33)           110.961          estimate D2E/DX2                !
 ! A59   A(18,31,34)           106.6582         estimate D2E/DX2                !
 ! A60   A(32,31,33)           109.2387         estimate D2E/DX2                !
 ! A61   A(32,31,34)           109.5347         estimate D2E/DX2                !
 ! A62   A(33,31,34)           109.4744         estimate D2E/DX2                !
 ! D1    D(5,1,2,3)            -59.4614         estimate D2E/DX2                !
 ! D2    D(5,1,2,7)             57.4045         estimate D2E/DX2                !
 ! D3    D(5,1,2,12)          -178.564          estimate D2E/DX2                !
 ! D4    D(8,1,2,3)             61.5049         estimate D2E/DX2                !
 ! D5    D(8,1,2,7)            178.3708         estimate D2E/DX2                !
 ! D6    D(8,1,2,12)           -57.5977         estimate D2E/DX2                !
 ! D7    D(13,1,2,3)          -176.6455         estimate D2E/DX2                !
 ! D8    D(13,1,2,7)           -59.7797         estimate D2E/DX2                !
 ! D9    D(13,1,2,12)           64.2518         estimate D2E/DX2                !
 ! D10   D(2,1,5,4)             43.5292         estimate D2E/DX2                !
 ! D11   D(2,1,5,10)           -74.0677         estimate D2E/DX2                !
 ! D12   D(2,1,5,14)           171.6277         estimate D2E/DX2                !
 ! D13   D(8,1,5,4)            -74.9455         estimate D2E/DX2                !
 ! D14   D(8,1,5,10)           167.4576         estimate D2E/DX2                !
 ! D15   D(8,1,5,14)            53.1529         estimate D2E/DX2                !
 ! D16   D(13,1,5,4)           162.7568         estimate D2E/DX2                !
 ! D17   D(13,1,5,10)           45.1599         estimate D2E/DX2                !
 ! D18   D(13,1,5,14)          -69.1447         estimate D2E/DX2                !
 ! D19   D(2,1,13,23)          -95.7998         estimate D2E/DX2                !
 ! D20   D(5,1,13,23)          146.5745         estimate D2E/DX2                !
 ! D21   D(8,1,13,23)           23.9807         estimate D2E/DX2                !
 ! D22   D(1,2,3,6)           -136.9147         estimate D2E/DX2                !
 ! D23   D(1,2,3,11)            34.6678         estimate D2E/DX2                !
 ! D24   D(7,2,3,6)            107.2411         estimate D2E/DX2                !
 ! D25   D(7,2,3,11)           -81.1764         estimate D2E/DX2                !
 ! D26   D(12,2,3,6)           -16.8186         estimate D2E/DX2                !
 ! D27   D(12,2,3,11)          154.7639         estimate D2E/DX2                !
 ! D28   D(1,2,12,19)         -142.6707         estimate D2E/DX2                !
 ! D29   D(3,2,12,19)           99.1027         estimate D2E/DX2                !
 ! D30   D(7,2,12,19)          -22.223          estimate D2E/DX2                !
 ! D31   D(2,3,11,4)            11.058          estimate D2E/DX2                !
 ! D32   D(6,3,11,4)          -176.8659         estimate D2E/DX2                !
 ! D33   D(9,4,5,1)            112.8151         estimate D2E/DX2                !
 ! D34   D(9,4,5,10)          -130.6777         estimate D2E/DX2                !
 ! D35   D(9,4,5,14)           -17.9004         estimate D2E/DX2                !
 ! D36   D(11,4,5,1)            -1.6779         estimate D2E/DX2                !
 ! D37   D(11,4,5,10)          114.8293         estimate D2E/DX2                !
 ! D38   D(11,4,5,14)         -132.3934         estimate D2E/DX2                !
 ! D39   D(15,4,5,1)          -121.6127         estimate D2E/DX2                !
 ! D40   D(15,4,5,10)           -5.1055         estimate D2E/DX2                !
 ! D41   D(15,4,5,14)          107.6718         estimate D2E/DX2                !
 ! D42   D(5,4,11,3)           -28.8185         estimate D2E/DX2                !
 ! D43   D(9,4,11,3)          -148.5539         estimate D2E/DX2                !
 ! D44   D(15,4,11,3)           96.3073         estimate D2E/DX2                !
 ! D45   D(5,4,15,16)          -61.3772         estimate D2E/DX2                !
 ! D46   D(5,4,15,17)         -179.0461         estimate D2E/DX2                !
 ! D47   D(5,4,15,18)           59.4254         estimate D2E/DX2                !
 ! D48   D(9,4,15,16)           64.4951         estimate D2E/DX2                !
 ! D49   D(9,4,15,17)          -53.1738         estimate D2E/DX2                !
 ! D50   D(9,4,15,18)         -174.7023         estimate D2E/DX2                !
 ! D51   D(11,4,15,16)         173.5553         estimate D2E/DX2                !
 ! D52   D(11,4,15,17)          55.8864         estimate D2E/DX2                !
 ! D53   D(11,4,15,18)         -65.6421         estimate D2E/DX2                !
 ! D54   D(1,5,14,27)          -54.0225         estimate D2E/DX2                !
 ! D55   D(4,5,14,27)           76.4544         estimate D2E/DX2                !
 ! D56   D(10,5,14,27)        -168.9021         estimate D2E/DX2                !
 ! D57   D(2,12,19,20)          58.0218         estimate D2E/DX2                !
 ! D58   D(2,12,19,21)         177.1126         estimate D2E/DX2                !
 ! D59   D(2,12,19,22)         -63.9321         estimate D2E/DX2                !
 ! D60   D(1,13,23,24)          63.8173         estimate D2E/DX2                !
 ! D61   D(1,13,23,25)        -176.8506         estimate D2E/DX2                !
 ! D62   D(1,13,23,26)         -58.5417         estimate D2E/DX2                !
 ! D63   D(5,14,27,28)        -169.0065         estimate D2E/DX2                !
 ! D64   D(5,14,27,29)         -50.5185         estimate D2E/DX2                !
 ! D65   D(5,14,27,30)          72.6582         estimate D2E/DX2                !
 ! D66   D(4,15,18,31)         177.4613         estimate D2E/DX2                !
 ! D67   D(16,15,18,31)        -64.8717         estimate D2E/DX2                !
 ! D68   D(17,15,18,31)         56.7121         estimate D2E/DX2                !
 ! D69   D(15,18,31,32)        -60.4999         estimate D2E/DX2                !
 ! D70   D(15,18,31,33)         61.121          estimate D2E/DX2                !
 ! D71   D(15,18,31,34)       -179.7172         estimate D2E/DX2                !
 --------------------------------------------------------------------------------
 Trust Radius=3.00D-01 FncErr=1.00D-07 GrdErr=1.00D-06 EigMax=2.50D+02 EigMin=1.00D-04
 Number of steps in this run=    177 maximum allowed number of steps=    204.
 GradGradGradGradGradGradGradGradGradGradGradGradGradGradGradGradGradGrad

 Leave Link  103 at Fri May 24 08:32:12 2019, MaxMem=   402653184 cpu:               0.1 elap:               0.1
 (Enter /n/sw/g16_nehalem/g16/l202.exe)
                          Input orientation:                          
 ---------------------------------------------------------------------
 Center     Atomic      Atomic             Coordinates (Angstroms)
 Number     Number       Type             X           Y           Z
 ---------------------------------------------------------------------
      1          6           0        1.085441    0.380053   -0.042021
      2          6           0        0.650623   -1.088202    0.283719
      3          6           0       -0.248150   -1.039928    1.468851
      4          6           0       -1.359355    0.940083    0.656972
      5          6           0       -0.186113    1.202024   -0.330548
      6          1           0       -0.150010   -1.765345    2.278457
      7          1           0        0.077285   -1.457664   -0.580965
      8          1           0        1.633257    0.768771    0.826537
      9          1           0       -1.560406    1.818975    1.267064
     10          1           0       -0.518843    0.883025   -1.322120
     11          8           0       -1.057472   -0.105338    1.702267
     12          8           0        1.765326   -1.876852    0.587002
     13          8           0        1.873495    0.413375   -1.195404
     14          8           0        0.022120    2.590696   -0.460722
     15          6           0       -2.634011    0.454734   -0.012095
     16          1           0       -2.961862    1.244127   -0.705988
     17          1           0       -3.424199    0.306203    0.737600
     18          8           0       -2.323725   -0.747310   -0.679900
     19          6           0        1.696986   -3.224155    0.099308
     20          1           0        1.568729   -3.234165   -0.989695
     21          1           0        2.646152   -3.690363    0.364738
     22          1           0        0.875303   -3.779005    0.568640
     23          6           0        3.289696    0.404274   -0.983327
     24          1           0        3.615507   -0.524996   -0.507706
     25          1           0        3.740426    0.491009   -1.973481
     26          1           0        3.598406    1.260502   -0.369924
     27          6           0        0.693889    3.263737    0.604253
     28          1           0        0.574733    4.329642    0.403358
     29          1           0        0.255946    3.040528    1.586763
     30          1           0        1.763393    3.024595    0.626030
     31          6           0       -3.451640   -1.352119   -1.311741
     32          1           0       -4.227257   -1.600556   -0.575379
     33          1           0       -3.876992   -0.688067   -2.074898
     34          1           0       -3.091718   -2.266808   -1.785206
 ---------------------------------------------------------------------
                    Distance matrix (angstroms):
                    1          2          3          4          5
     1  C    0.000000
     2  C    1.565550   0.000000
     3  C    2.465268   1.488174   0.000000
     4  C    2.603700   2.879804   2.411300   0.000000
     5  C    1.541342   2.514475   2.875419   1.555733   0.000000
     6  H    3.393183   2.253556   1.091478   3.378027   3.951391
     7  H    2.164265   1.101316   2.117111   3.057060   2.684404
     8  H    1.097997   2.169924   2.687685   3.002304   2.199241
     9  H    3.284008   3.782498   3.152152   1.088616   2.195831
    10  H    2.113140   2.798590   3.400080   2.150935   1.093474
    11  O    2.805391   2.428145   1.258151   1.508867   2.569202
    12  O    2.439577   1.398754   2.352060   4.207571   3.758921
    13  O    1.397294   2.436792   3.702934   3.762982   2.368951
    14  O    2.488555   3.805719   4.120404   2.425332   1.410218
    15  C    3.720322   3.641013   3.181124   1.519198   2.579159
    16  H    4.191436   4.412406   4.160657   2.125590   2.801341
    17  H    4.577130   4.330652   3.526200   2.161454   3.525427
    18  O    3.646951   3.145078   3.001794   2.358926   2.913990
    19  C    3.658453   2.385619   3.229559   5.195487   4.829275
    20  H    3.767522   2.658883   3.763001   5.358128   4.815986
    21  H    4.378305   3.280235   4.076868   6.129479   5.695665
    22  H    4.208899   2.715158   3.094361   5.222192   5.171633
    23  C    2.396953   3.285970   4.540402   4.958966   3.625434
    24  H    2.727125   3.119951   4.370329   5.315278   4.179270
    25  H    3.285087   4.139534   5.486543   5.755755   4.315377
    26  H    2.682854   3.825321   4.844488   5.073123   3.785176
    27  C    2.981043   4.363942   4.489599   3.101283   2.428769
    28  H    4.007298   5.419696   5.535765   3.910771   3.301439
    29  H    3.227867   4.347425   4.113166   2.808127   2.692878
    30  H    2.810607   4.274404   4.612700   3.754691   2.835027
    31  C    5.019732   4.409502   4.253411   3.675279   4.260288
    32  H    5.694914   4.979384   4.508489   4.024723   4.923946
    33  H    5.468017   5.120789   5.084335   4.056166   4.498643
    34  H    5.243398   4.435615   4.492216   4.387421   4.753038
                    6          7          8          9         10
     6  H    0.000000
     7  H    2.884896   0.000000
     8  H    3.421967   3.059268   0.000000
     9  H    3.982397   4.102878   3.390645   0.000000
    10  H    4.484870   2.526560   3.043241   2.943591   0.000000
    11  O    1.977651   2.886106   2.961586   2.036007   3.227057
    12  O    2.557727   2.095077   2.659726   5.018178   4.059445
    13  O    4.572647   2.665463   2.066946   4.453216   2.441293
    14  O    5.148575   4.050521   2.751765   2.466817   1.987659
    15  C    4.042974   3.366304   4.360218   2.156393   2.524586
    16  H    5.086290   4.068380   4.867208   2.487461   2.545261
    17  H    4.169636   4.136451   5.079344   2.458157   3.607806
    18  O    3.809634   2.505841   4.497284   3.310460   2.515559
    19  C    3.207524   2.491324   4.059111   6.116160   4.878451
    20  H    3.973954   2.355296   4.396176   6.357568   4.628144
    21  H    3.896991   3.532475   4.595986   6.990145   5.811933
    22  H    2.833649   2.710544   4.617713   6.144742   5.220454
    23  C    5.213258   3.734741   2.480374   5.530744   3.853434
    24  H    4.845646   3.659816   2.717233   5.952654   4.442819
    25  H    6.189152   4.376646   3.515311   6.353223   4.326583
    26  H    5.497299   4.453230   2.352685   5.441044   4.242747
    27  C    5.367196   4.906788   2.675197   2.758351   3.293846
    28  H    6.417953   5.891456   3.738898   3.407089   4.006539
    29  H    4.872336   4.996468   2.763297   2.212133   3.703609
    30  H    5.416193   4.938668   2.268453   3.593339   3.686490
    31  C    4.895001   3.605341   5.909872   4.503647   3.687448
    32  H    4.979506   4.306917   6.474929   4.711675   4.525277
    33  H    5.831177   4.296559   6.395588   4.777085   3.783143
    34  H    5.041673   3.485325   6.193652   5.324931   4.093358
                   11         12         13         14         15
    11  O    0.000000
    12  O    3.514295   0.000000
    13  O    4.154050   2.904103   0.000000
    14  O    3.621138   4.908714   2.950945   0.000000
    15  C    2.395453   5.014915   4.660423   3.437824   0.000000
    16  H    3.353722   5.810219   4.930553   3.282918   1.100961
    17  H    2.588696   5.632014   5.640350   4.304881   1.099318
    18  O    2.773129   4.427329   4.385156   4.085745   1.409663
    19  C    4.459096   1.434483   3.865108   6.077113   5.683676
    20  H    4.892152   2.089718   3.666026   6.049861   5.676857
    21  H    5.325244   2.028319   4.457769   6.857013   6.723389
    22  H    4.303087   2.100158   4.656639   6.508502   5.529655
    23  C    5.135172   3.161198   1.432021   3.966183   6.003011
    24  H    5.186215   2.539502   2.094773   4.756277   6.345233
    25  H    6.073432   4.007974   2.024071   4.530223   6.669468
    26  H    5.276049   3.757510   2.091497   3.816737   6.294468
    27  C    3.952666   5.251088   3.571386   1.427736   4.398329
    28  H    4.901051   6.322326   4.424926   2.018898   5.048124
    29  H    3.410994   5.240074   4.154377   2.109317   4.194583
    30  H    4.348798   4.901603   3.185626   2.097935   5.133084
    31  C    4.046078   5.576496   5.611378   5.323254   2.371142
    32  H    4.179819   6.110525   6.454419   5.969669   2.660815
    33  H    4.749341   6.350958   5.920708   5.344055   2.665737
    34  H    4.579583   5.419438   5.673146   5.919932   3.280276
                   16         17         18         19         20
    16  H    0.000000
    17  H    1.782527   0.000000
    18  O    2.091344   2.080923   0.000000
    19  C    6.505299   6.252790   4.786235   0.000000
    20  H    6.376664   6.359802   4.629430   1.096575   0.000000
    21  H    7.546222   7.277412   5.869626   1.090284   1.789817
    22  H    6.448284   5.933228   4.580809   1.096948   1.790558
    23  C    6.313814   6.931637   5.738354   4.107836   4.024923
    24  H    6.814022   7.197162   5.945885   3.366697   3.429462
    25  H    6.862535   7.662634   6.323030   4.719592   4.422785
    26  H    6.568891   7.173164   6.260913   4.893641   4.970487
    27  C    4.377222   5.071828   5.181075   6.584369   6.747499
    28  H    4.822712   5.682538   5.945582   7.642758   7.754986
    29  H    4.340282   4.662733   5.112747   6.598134   6.908930
    30  H    5.222296   5.857748   5.712902   6.271262   6.466880
    31  C    2.710593   2.636396   1.427308   5.657201   5.371212
    32  H    3.116168   2.450417   2.088633   6.179638   6.036041
    33  H    2.538651   3.017240   2.088580   6.498319   6.108695
    34  H    3.675356   3.618768   2.029874   5.234462   4.825804
                   21         22         23         24         25
    21  H    0.000000
    22  H    1.784752   0.000000
    23  C    4.358610   5.073235   0.000000
    24  H    3.423501   4.388145   1.093577   0.000000
    25  H    4.914120   5.736229   1.091369   1.787839   0.000000
    26  H    5.094858   5.804552   1.097584   1.790888   1.784288
    27  C    7.226908   7.045168   4.175542   4.911904   4.859436
    28  H    8.283281   8.115899   4.970154   5.800332   5.514171
    29  H    7.246470   6.922876   4.770622   5.327890   5.596158
    30  H    6.777772   6.861557   3.433033   4.161163   4.133422
    31  C    6.742480   5.305473   6.974122   7.160668   7.453914
    32  H    7.245334   5.664851   7.790401   7.916461   8.355436
    33  H    7.583997   6.255118   7.331177   7.656385   7.708798
    34  H    6.290622   4.854337   6.964204   7.046473   7.370156
                   26         27         28         29         30
    26  H    0.000000
    27  C    3.660354   0.000000
    28  H    4.377235   1.091197   0.000000
    29  H    4.262529   1.098609   1.778732   0.000000
    30  H    2.733353   1.096130   1.779225   1.787640   0.000000
    31  C    7.577332   6.493271   7.171865   6.437613   7.078640
    32  H    8.334798   7.019299   7.693132   6.805412   7.663112
    33  H    7.911096   6.609656   7.151015   6.662684   7.272745
    34  H    7.694329   7.115284   7.857851   7.123542   7.575296
                   31         32         33         34
    31  C    0.000000
    32  H    1.097967   0.000000
    33  H    1.097405   1.789938   0.000000
    34  H    1.091040   1.788022   1.786897   0.000000
 Stoichiometry    C10H19O5(1+)
 Framework group  C1[X(C10H19O5)]
 Deg. of freedom    96
 Full point group                 C1      NOp   1
 Largest Abelian subgroup         C1      NOp   1
 Largest concise Abelian subgroup C1      NOp   1
                         Standard orientation:                         
 ---------------------------------------------------------------------
 Center     Atomic      Atomic             Coordinates (Angstroms)
 Number     Number       Type             X           Y           Z
 ---------------------------------------------------------------------
      1          6           0        1.085441    0.380053   -0.042021
      2          6           0        0.650623   -1.088202    0.283719
      3          6           0       -0.248150   -1.039928    1.468851
      4          6           0       -1.359355    0.940083    0.656972
      5          6           0       -0.186113    1.202024   -0.330548
      6          1           0       -0.150009   -1.765345    2.278457
      7          1           0        0.077285   -1.457664   -0.580965
      8          1           0        1.633257    0.768772    0.826537
      9          1           0       -1.560407    1.818975    1.267064
     10          1           0       -0.518843    0.883025   -1.322120
     11          8           0       -1.057472   -0.105338    1.702267
     12          8           0        1.765327   -1.876851    0.587002
     13          8           0        1.873495    0.413376   -1.195404
     14          8           0        0.022119    2.590696   -0.460722
     15          6           0       -2.634011    0.454733   -0.012095
     16          1           0       -2.961862    1.244126   -0.705988
     17          1           0       -3.424199    0.306202    0.737600
     18          8           0       -2.323725   -0.747311   -0.679900
     19          6           0        1.696987   -3.224154    0.099308
     20          1           0        1.568730   -3.234164   -0.989695
     21          1           0        2.646153   -3.690362    0.364738
     22          1           0        0.875304   -3.779005    0.568640
     23          6           0        3.289696    0.404275   -0.983327
     24          1           0        3.615507   -0.524995   -0.507706
     25          1           0        3.740426    0.491010   -1.973481
     26          1           0        3.598406    1.260503   -0.369924
     27          6           0        0.693888    3.263737    0.604253
     28          1           0        0.574732    4.329642    0.403358
     29          1           0        0.255945    3.040528    1.586763
     30          1           0        1.763392    3.024596    0.626030
     31          6           0       -3.451640   -1.352120   -1.311741
     32          1           0       -4.227256   -1.600557   -0.575379
     33          1           0       -3.876992   -0.688068   -2.074898
     34          1           0       -3.091717   -2.266809   -1.785206
 ---------------------------------------------------------------------
 Rotational constants (GHZ):           0.6378732           0.5291090           0.3656655
 Leave Link  202 at Fri May 24 08:32:12 2019, MaxMem=   402653184 cpu:               0.2 elap:               0.1
 (Enter /n/sw/g16_nehalem/g16/l301.exe)
 Standard basis: 6-31G(d) (6D, 7F)
 Ernie: Thresh=  0.10000D-02 Tol=  0.10000D-05 Strict=F.
 There are   263 symmetry adapted cartesian basis functions of A   symmetry.
 There are   263 symmetry adapted basis functions of A   symmetry.
   263 basis functions,   496 primitive gaussians,   263 cartesian basis functions
    59 alpha electrons       59 beta electrons
       nuclear repulsion energy      1168.8669670241 Hartrees.
 IExCor=  402 DFT=T Ex+Corr=B3LYP ExCW=0 ScaHFX=  0.200000
 ScaDFX=  0.800000  0.720000  1.000000  0.810000 ScalE2=  1.000000  1.000000
 IRadAn=      5 IRanWt=     -1 IRanGd=            0 ICorTp=0 IEmpDi=  4
 NAtoms=   34 NActive=   34 NUniq=   34 SFac= 1.00D+00 NAtFMM=   60 NAOKFM=F Big=F
 Integral buffers will be    131072 words long.
 Raffenetti 2 integral format.
 Two-electron integral symmetry is turned on.
 ------------------------------------------------------------------------------
 Polarizable Continuum Model (PCM)
 =================================
 Model                : PCM.
 Atomic radii         : UFF (Universal Force Field).
 Polarization charges : Total charges.
 Charge compensation  : None.
 Solution method      : On-the-fly selection.
 Cavity type          : Scaled VdW (van der Waals Surface) (Alpha=1.100).
 Cavity algorithm     : GePol (No added spheres)
                        Default sphere list used, NSphG=   34.
                        Lebedev-Laikov grids with approx.  5.0 points / Ang**2.
                        Smoothing algorithm: York/Karplus (Gamma=1.0000).
                        Polarization charges: spherical gaussians, with
                                              point-specific exponents (IZeta= 3).
                        Self-potential: point-specific (ISelfS= 7).
                        Self-field    : sphere-specific E.n sum rule (ISelfD= 2).
 1st derivatives      : Analytical E(r).r(x)/FMM algorithm (CHGder, D1EAlg=3).
                        Cavity 1st derivative terms included.
 Solvent              : TetraHydroFuran, Eps=   7.425700 Eps(inf)=   1.974025
 ------------------------------------------------------------------------------
 GePol: Number of generator spheres                  =      34
 GePol: Total number of spheres                      =      34
 GePol: Number of exposed spheres                    =      34 (100.00%)
 GePol: Number of points                             =    2327
 GePol: Average weight of points                     =       0.13
 GePol: Minimum weight of points                     =   0.18D-10
 GePol: Maximum weight of points                     =    0.20577
 GePol: Number of points with low weight             =     173
 GePol: Fraction of low-weight points (<1% of avg)   =       7.43%
 GePol: Cavity surface area                          =    303.408 Ang**2
 GePol: Cavity volume                                =    321.382 Ang**3
 Leave Link  301 at Fri May 24 08:32:12 2019, MaxMem=   402653184 cpu:               0.4 elap:               0.1
 (Enter /n/sw/g16_nehalem/g16/l302.exe)
 NPDir=0 NMtPBC=     1 NCelOv=     1 NCel=       1 NClECP=     1 NCelD=      1
         NCelK=      1 NCelE2=     1 NClLst=     1 CellRange=     0.0.
 One-electron integrals computed using PRISM.
 One-electron integral symmetry used in STVInt
 NBasis=   263 RedAO= T EigKep=  1.51D-03  NBF=   263
 NBsUse=   263 1.00D-06 EigRej= -1.00D+00 NBFU=   263
 Precomputing XC quadrature grid using
 IXCGrd= 4 IRadAn=           5 IRanWt=          -1 IRanGd=           0 AccXCQ= 0.00D+00.
 Generated NRdTot=       0 NPtTot=           0 NUsed=           0 NTot=          32
 NSgBfM=   262   262   262   262   262 MxSgAt=    34 MxSgA2=    34.
 Leave Link  302 at Fri May 24 08:32:13 2019, MaxMem=   402653184 cpu:               2.5 elap:               0.7
 (Enter /n/sw/g16_nehalem/g16/l303.exe)
 DipDrv:  MaxL=1.
 Leave Link  303 at Fri May 24 08:32:13 2019, MaxMem=   402653184 cpu:               0.3 elap:               0.1
 (Enter /n/sw/g16_nehalem/g16/l401.exe)
 ExpMin= 1.61D-01 ExpMax= 5.48D+03 ExpMxC= 8.25D+02 IAcc=3 IRadAn=         5 AccDes= 0.00D+00
 Harris functional with IExCor=  402 and IRadAn=       5 diagonalized for initial guess.
 HarFok:  IExCor=  402 AccDes= 0.00D+00 IRadAn=         5 IDoV= 1 UseB2=F ITyADJ=14
 ICtDFT=  3500011 ScaDFX=  1.000000  1.000000  1.000000  1.000000
 FoFCou: FMM=F IPFlag=           0 FMFlag=      100000 FMFlg1=           0
         NFxFlg=           0 DoJE=T BraDBF=F KetDBF=T FulRan=T
         wScrn=  0.000000 ICntrl=       500 IOpCl=  0 I1Cent=   200000004 NGrid=           0
         NMat0=    1 NMatS0=      1 NMatT0=    0 NMatD0=    1 NMtDS0=    0 NMtDT0=    0
 Petite list used in FoFCou.
 Harris En= -768.259800161818    
 JPrj=0 DoOrth=F DoCkMO=F.
 Leave Link  401 at Fri May 24 08:32:18 2019, MaxMem=   402653184 cpu:              20.1 elap:               5.1
 (Enter /n/sw/g16_nehalem/g16/l502.exe)
 Integral symmetry usage will be decided dynamically.
 Closed shell SCF:
 Using DIIS extrapolation, IDIIS=  1040.
 NGot=   402653184 LenX=   402510103 LenY=   402440493
 Requested convergence on RMS density matrix=1.00D-08 within 128 cycles.
 Requested convergence on MAX density matrix=1.00D-06.
 Requested convergence on             energy=1.00D-06.
 No special actions if energy rises.
 Fock matrices will be formed incrementally for  20 cycles.

 Cycle   1  Pass 1  IDiag  1:
 FoFJK:  IHMeth= 1 ICntrl=       0 DoSepK=F KAlg= 0 I1Cent=           0 FoldK=F
 IRaf= 880000000 NMat=       1 IRICut=       1 DoRegI=T DoRafI=F ISym2E= 0 IDoP0=0 IntGTp=1.
 FoFCou: FMM=F IPFlag=           0 FMFlag=      100000 FMFlg1=           0
         NFxFlg=           0 DoJE=F BraDBF=F KetDBF=F FulRan=T
         wScrn=  0.000000 ICntrl=         0 IOpCl=  0 I1Cent=           0 NGrid=           0
         NMat0=    1 NMatS0=      1 NMatT0=    0 NMatD0=    1 NMtDS0=    0 NMtDT0=    0
 Symmetry not used in FoFCou.
 Inv3:  Mode=1 IEnd=    16244787.
 Iteration    1 A*A^-1 deviation from unit magnitude is 4.44D-15 for   2306.
 Iteration    1 A*A^-1 deviation from orthogonality  is 2.32D-15 for   1816   1065.
 Iteration    1 A^-1*A deviation from unit magnitude is 4.44D-15 for   2306.
 Iteration    1 A^-1*A deviation from orthogonality  is 2.14D-15 for   2316   1267.
 E= -768.092416317345    
 DIIS: error= 2.02D-02 at cycle   1 NSaved=   1.
 NSaved= 1 IEnMin= 1 EnMin= -768.092416317345     IErMin= 1 ErrMin= 2.02D-02
 ErrMax= 2.02D-02  0.00D+00 EMaxC= 1.00D-01 BMatC= 2.54D-01 BMatP= 2.54D-01
 IDIUse=3 WtCom= 7.98D-01 WtEn= 2.02D-01
 Coeff-Com:  0.100D+01
 Coeff-En:   0.100D+01
 Coeff:      0.100D+01
 Gap=     0.029 Goal=   None    Shift=    0.000
 GapD=    0.029 DampG=0.250 DampE=0.500 DampFc=0.2500 IDamp=-1.
 Damping current iteration by 2.50D-01
 RMSDP=4.74D-03 MaxDP=1.55D-01              OVMax= 3.89D-01

 Cycle   2  Pass 1  IDiag  1:
 RMSU=  1.18D-03    CP:  9.95D-01
 E= -768.167420030266     Delta-E=       -0.075003712921 Rises=F Damp=T
 DIIS: error= 9.55D-03 at cycle   2 NSaved=   2.
 NSaved= 2 IEnMin= 2 EnMin= -768.167420030266     IErMin= 2 ErrMin= 9.55D-03
 ErrMax= 9.55D-03  0.00D+00 EMaxC= 1.00D-01 BMatC= 6.88D-02 BMatP= 2.54D-01
 IDIUse=3 WtCom= 9.05D-01 WtEn= 9.55D-02
 Coeff-Com: -0.690D+00 0.169D+01
 Coeff-En:   0.000D+00 0.100D+01
 Coeff:     -0.624D+00 0.162D+01
 Gap=     0.137 Goal=   None    Shift=    0.000
 RMSDP=1.42D-03 MaxDP=3.16D-02 DE=-7.50D-02 OVMax= 3.61D-01

 Cycle   3  Pass 1  IDiag  1:
 RMSU=  1.38D-03    CP:  9.86D-01  1.21D+00
 E= -768.292602098543     Delta-E=       -0.125182068277 Rises=F Damp=F
 DIIS: error= 7.06D-03 at cycle   3 NSaved=   3.
 NSaved= 3 IEnMin= 3 EnMin= -768.292602098543     IErMin= 3 ErrMin= 7.06D-03
 ErrMax= 7.06D-03  0.00D+00 EMaxC= 1.00D-01 BMatC= 4.43D-02 BMatP= 6.88D-02
 IDIUse=3 WtCom= 9.29D-01 WtEn= 7.06D-02
 Coeff-Com: -0.511D+00 0.103D+01 0.480D+00
 Coeff-En:   0.000D+00 0.000D+00 0.100D+01
 Coeff:     -0.475D+00 0.959D+00 0.516D+00
 Gap=     0.158 Goal=   None    Shift=    0.000
 RMSDP=8.82D-04 MaxDP=3.26D-02 DE=-1.25D-01 OVMax= 5.90D-02

 Cycle   4  Pass 1  IDiag  1:
 RMSU=  5.98D-04    CP:  9.89D-01  1.47D+00  5.90D-01
 E= -768.328518766570     Delta-E=       -0.035916668027 Rises=F Damp=F
 DIIS: error= 1.95D-03 at cycle   4 NSaved=   4.
 NSaved= 4 IEnMin= 4 EnMin= -768.328518766570     IErMin= 4 ErrMin= 1.95D-03
 ErrMax= 1.95D-03  0.00D+00 EMaxC= 1.00D-01 BMatC= 2.91D-03 BMatP= 4.43D-02
 IDIUse=3 WtCom= 9.80D-01 WtEn= 1.95D-02
 Coeff-Com: -0.211D+00 0.355D+00 0.217D+00 0.639D+00
 Coeff-En:   0.000D+00 0.000D+00 0.000D+00 0.100D+01
 Coeff:     -0.207D+00 0.348D+00 0.212D+00 0.646D+00
 Gap=     0.141 Goal=   None    Shift=    0.000
 RMSDP=2.17D-04 MaxDP=8.71D-03 DE=-3.59D-02 OVMax= 1.08D-02

 Cycle   5  Pass 1  IDiag  1:
 RMSU=  1.80D-04    CP:  9.89D-01  1.50D+00  6.46D-01  8.60D-01
 E= -768.330494122221     Delta-E=       -0.001975355651 Rises=F Damp=F
 DIIS: error= 8.72D-04 at cycle   5 NSaved=   5.
 NSaved= 5 IEnMin= 5 EnMin= -768.330494122221     IErMin= 5 ErrMin= 8.72D-04
 ErrMax= 8.72D-04  0.00D+00 EMaxC= 1.00D-01 BMatC= 7.55D-04 BMatP= 2.91D-03
 IDIUse=3 WtCom= 9.91D-01 WtEn= 8.72D-03
 Coeff-Com: -0.864D-01 0.129D+00 0.510D-01 0.359D+00 0.547D+00
 Coeff-En:   0.000D+00 0.000D+00 0.000D+00 0.124D+00 0.876D+00
 Coeff:     -0.856D-01 0.128D+00 0.505D-01 0.357D+00 0.550D+00
 Gap=     0.141 Goal=   None    Shift=    0.000
 RMSDP=9.09D-05 MaxDP=4.89D-03 DE=-1.98D-03 OVMax= 5.53D-03

 Cycle   6  Pass 1  IDiag  1:
 RMSU=  6.39D-05    CP:  9.89D-01  1.52D+00  6.42D-01  9.30D-01  7.53D-01
 E= -768.330987863070     Delta-E=       -0.000493740849 Rises=F Damp=F
 DIIS: error= 3.69D-04 at cycle   6 NSaved=   6.
 NSaved= 6 IEnMin= 6 EnMin= -768.330987863070     IErMin= 6 ErrMin= 3.69D-04
 ErrMax= 3.69D-04  0.00D+00 EMaxC= 1.00D-01 BMatC= 1.05D-04 BMatP= 7.55D-04
 IDIUse=3 WtCom= 9.96D-01 WtEn= 3.69D-03
 Coeff-Com: -0.304D-01 0.392D-01-0.515D-02 0.138D+00 0.337D+00 0.522D+00
 Coeff-En:   0.000D+00 0.000D+00 0.000D+00 0.000D+00 0.000D+00 0.100D+01
 Coeff:     -0.303D-01 0.390D-01-0.513D-02 0.138D+00 0.335D+00 0.523D+00
 Gap=     0.140 Goal=   None    Shift=    0.000
 RMSDP=3.35D-05 MaxDP=1.82D-03 DE=-4.94D-04 OVMax= 1.97D-03

 Cycle   7  Pass 1  IDiag  1:
 RMSU=  2.43D-05    CP:  9.89D-01  1.52D+00  6.38D-01  9.55D-01  8.14D-01
                    CP:  8.17D-01
 E= -768.331065363961     Delta-E=       -0.000077500891 Rises=F Damp=F
 DIIS: error= 1.26D-04 at cycle   7 NSaved=   7.
 NSaved= 7 IEnMin= 7 EnMin= -768.331065363961     IErMin= 7 ErrMin= 1.26D-04
 ErrMax= 1.26D-04  0.00D+00 EMaxC= 1.00D-01 BMatC= 9.78D-06 BMatP= 1.05D-04
 IDIUse=3 WtCom= 9.99D-01 WtEn= 1.26D-03
 Coeff-Com: -0.787D-02 0.820D-02-0.127D-01 0.316D-01 0.124D+00 0.287D+00
 Coeff-Com:  0.570D+00
 Coeff-En:   0.000D+00 0.000D+00 0.000D+00 0.000D+00 0.000D+00 0.000D+00
 Coeff-En:   0.100D+01
 Coeff:     -0.786D-02 0.819D-02-0.127D-01 0.316D-01 0.123D+00 0.287D+00
 Coeff:      0.571D+00
 Gap=     0.140 Goal=   None    Shift=    0.000
 RMSDP=1.23D-05 MaxDP=5.79D-04 DE=-7.75D-05 OVMax= 4.74D-04

 Cycle   8  Pass 1  IDiag  1:
 RMSU=  7.23D-06    CP:  9.89D-01  1.53D+00  6.37D-01  9.65D-01  8.38D-01
                    CP:  8.63D-01  7.84D-01
 E= -768.331073714346     Delta-E=       -0.000008350385 Rises=F Damp=F
 DIIS: error= 2.83D-05 at cycle   8 NSaved=   8.
 NSaved= 8 IEnMin= 8 EnMin= -768.331073714346     IErMin= 8 ErrMin= 2.83D-05
 ErrMax= 2.83D-05  0.00D+00 EMaxC= 1.00D-01 BMatC= 6.80D-07 BMatP= 9.78D-06
 IDIUse=1 WtCom= 1.00D+00 WtEn= 0.00D+00
 Coeff-Com: -0.123D-03-0.370D-03-0.509D-02-0.613D-02 0.367D-02 0.371D-01
 Coeff-Com:  0.223D+00 0.748D+00
 Coeff:     -0.123D-03-0.370D-03-0.509D-02-0.613D-02 0.367D-02 0.371D-01
 Coeff:      0.223D+00 0.748D+00
 Gap=     0.140 Goal=   None    Shift=    0.000
 RMSDP=4.50D-06 MaxDP=1.49D-04 DE=-8.35D-06 OVMax= 4.70D-04

 Cycle   9  Pass 1  IDiag  1:
 RMSU=  2.48D-06    CP:  9.89D-01  1.53D+00  6.37D-01  9.69D-01  8.47D-01
                    CP:  8.85D-01  8.58D-01  9.71D-01
 E= -768.331074277959     Delta-E=       -0.000000563613 Rises=F Damp=F
 DIIS: error= 1.59D-05 at cycle   9 NSaved=   9.
 NSaved= 9 IEnMin= 9 EnMin= -768.331074277959     IErMin= 9 ErrMin= 1.59D-05
 ErrMax= 1.59D-05  0.00D+00 EMaxC= 1.00D-01 BMatC= 1.18D-07 BMatP= 6.80D-07
 IDIUse=1 WtCom= 1.00D+00 WtEn= 0.00D+00
 Coeff-Com:  0.182D-03-0.285D-03-0.165D-02-0.515D-02-0.747D-02-0.391D-02
 Coeff-Com:  0.701D-01 0.419D+00 0.530D+00
 Coeff:      0.182D-03-0.285D-03-0.165D-02-0.515D-02-0.747D-02-0.391D-02
 Coeff:      0.701D-01 0.419D+00 0.530D+00
 Gap=     0.140 Goal=   None    Shift=    0.000
 RMSDP=1.37D-06 MaxDP=4.76D-05 DE=-5.64D-07 OVMax= 1.26D-04

 Cycle  10  Pass 1  IDiag  1:
 RMSU=  8.98D-07    CP:  9.89D-01  1.53D+00  6.37D-01  9.69D-01  8.48D-01
                    CP:  8.93D-01  8.73D-01  1.02D+00  7.41D-01
 E= -768.331074373127     Delta-E=       -0.000000095167 Rises=F Damp=F
 DIIS: error= 2.09D-06 at cycle  10 NSaved=  10.
 NSaved=10 IEnMin=10 EnMin= -768.331074373127     IErMin=10 ErrMin= 2.09D-06
 ErrMax= 2.09D-06  0.00D+00 EMaxC= 1.00D-01 BMatC= 5.04D-09 BMatP= 1.18D-07
 IDIUse=1 WtCom= 1.00D+00 WtEn= 0.00D+00
 Coeff-Com:  0.144D-03-0.172D-03-0.202D-03-0.151D-02-0.372D-02-0.564D-02
 Coeff-Com: -0.309D-03 0.661D-01 0.166D+00 0.779D+00
 Coeff:      0.144D-03-0.172D-03-0.202D-03-0.151D-02-0.372D-02-0.564D-02
 Coeff:     -0.309D-03 0.661D-01 0.166D+00 0.779D+00
 Gap=     0.140 Goal=   None    Shift=    0.000
 RMSDP=5.15D-07 MaxDP=1.35D-05 DE=-9.52D-08 OVMax= 4.88D-05

 Cycle  11  Pass 1  IDiag  1:
 RMSU=  2.22D-07    CP:  9.89D-01  1.53D+00  6.37D-01  9.70D-01  8.49D-01
                    CP:  8.96D-01  8.80D-01  1.04D+00  7.89D-01  9.65D-01
 E= -768.331074379011     Delta-E=       -0.000000005885 Rises=F Damp=F
 DIIS: error= 8.31D-07 at cycle  11 NSaved=  11.
 NSaved=11 IEnMin=11 EnMin= -768.331074379011     IErMin=11 ErrMin= 8.31D-07
 ErrMax= 8.31D-07  0.00D+00 EMaxC= 1.00D-01 BMatC= 4.97D-10 BMatP= 5.04D-09
 IDIUse=1 WtCom= 1.00D+00 WtEn= 0.00D+00
 Coeff-Com:  0.303D-04-0.298D-04 0.530D-05-0.267D-03-0.105D-02-0.183D-02
 Coeff-Com: -0.474D-02 0.201D-02 0.348D-01 0.334D+00 0.637D+00
 Coeff:      0.303D-04-0.298D-04 0.530D-05-0.267D-03-0.105D-02-0.183D-02
 Coeff:     -0.474D-02 0.201D-02 0.348D-01 0.334D+00 0.637D+00
 Gap=     0.140 Goal=   None    Shift=    0.000
 RMSDP=1.33D-07 MaxDP=3.91D-06 DE=-5.88D-09 OVMax= 1.53D-05

 Cycle  12  Pass 1  IDiag  1:
 RMSU=  8.52D-08    CP:  9.89D-01  1.53D+00  6.37D-01  9.70D-01  8.49D-01
                    CP:  8.96D-01  8.80D-01  1.05D+00  8.06D-01  1.02D+00
                    CP:  8.39D-01
 E= -768.331074379536     Delta-E=       -0.000000000525 Rises=F Damp=F
 DIIS: error= 3.07D-07 at cycle  12 NSaved=  12.
 NSaved=12 IEnMin=12 EnMin= -768.331074379536     IErMin=12 ErrMin= 3.07D-07
 ErrMax= 3.07D-07  0.00D+00 EMaxC= 1.00D-01 BMatC= 7.68D-11 BMatP= 4.97D-10
 IDIUse=1 WtCom= 1.00D+00 WtEn= 0.00D+00
 Coeff-Com:  0.124D-05 0.451D-06 0.298D-04 0.724D-04-0.166D-04-0.524D-04
 Coeff-Com: -0.259D-02-0.941D-02-0.917D-02 0.401D-01 0.307D+00 0.674D+00
 Coeff:      0.124D-05 0.451D-06 0.298D-04 0.724D-04-0.166D-04-0.524D-04
 Coeff:     -0.259D-02-0.941D-02-0.917D-02 0.401D-01 0.307D+00 0.674D+00
 Gap=     0.140 Goal=   None    Shift=    0.000
 RMSDP=4.78D-08 MaxDP=1.24D-06 DE=-5.25D-10 OVMax= 4.17D-06

 Cycle  13  Pass 1  IDiag  1:
 RMSU=  2.16D-08    CP:  9.89D-01  1.53D+00  6.37D-01  9.70D-01  8.49D-01
                    CP:  8.96D-01  8.81D-01  1.05D+00  8.09D-01  1.03D+00
                    CP:  9.40D-01  8.20D-01
 E= -768.331074379589     Delta-E=       -0.000000000053 Rises=F Damp=F
 DIIS: error= 5.41D-08 at cycle  13 NSaved=  13.
 NSaved=13 IEnMin=13 EnMin= -768.331074379589     IErMin=13 ErrMin= 5.41D-08
 ErrMax= 5.41D-08  0.00D+00 EMaxC= 1.00D-01 BMatC= 3.11D-12 BMatP= 7.68D-11
 IDIUse=1 WtCom= 1.00D+00 WtEn= 0.00D+00
 Coeff-Com: -0.222D-05 0.304D-05 0.933D-05 0.439D-04 0.601D-04 0.126D-03
 Coeff-Com: -0.618D-03-0.327D-02-0.548D-02-0.597D-02 0.773D-01 0.251D+00
 Coeff-Com:  0.687D+00
 Coeff:     -0.222D-05 0.304D-05 0.933D-05 0.439D-04 0.601D-04 0.126D-03
 Coeff:     -0.618D-03-0.327D-02-0.548D-02-0.597D-02 0.773D-01 0.251D+00
 Coeff:      0.687D+00
 Gap=     0.140 Goal=   None    Shift=    0.000
 RMSDP=1.01D-08 MaxDP=3.65D-07 DE=-5.30D-11 OVMax= 8.70D-07

 Cycle  14  Pass 1  IDiag  1:
 RMSU=  8.33D-09    CP:  9.89D-01  1.53D+00  6.37D-01  9.70D-01  8.49D-01
                    CP:  8.96D-01  8.81D-01  1.05D+00  8.09D-01  1.04D+00
                    CP:  9.51D-01  8.58D-01  9.34D-01
 E= -768.331074379592     Delta-E=       -0.000000000003 Rises=F Damp=F
 DIIS: error= 2.72D-08 at cycle  14 NSaved=  14.
 NSaved=14 IEnMin=14 EnMin= -768.331074379592     IErMin=14 ErrMin= 2.72D-08
 ErrMax= 2.72D-08  0.00D+00 EMaxC= 1.00D-01 BMatC= 7.92D-13 BMatP= 3.11D-12
 IDIUse=1 WtCom= 1.00D+00 WtEn= 0.00D+00
 Coeff-Com: -0.132D-05 0.158D-05 0.453D-06 0.103D-04 0.283D-04 0.677D-04
 Coeff-Com:  0.735D-04-0.195D-03-0.140D-02-0.858D-02-0.633D-02 0.255D-01
 Coeff-Com:  0.364D+00 0.627D+00
 Coeff:     -0.132D-05 0.158D-05 0.453D-06 0.103D-04 0.283D-04 0.677D-04
 Coeff:      0.735D-04-0.195D-03-0.140D-02-0.858D-02-0.633D-02 0.255D-01
 Coeff:      0.364D+00 0.627D+00
 Gap=     0.140 Goal=   None    Shift=    0.000
 RMSDP=3.98D-09 MaxDP=1.12D-07 DE=-3.18D-12 OVMax= 2.23D-07

 Error on total polarization charges =  0.01222
 SCF Done:  E(RB3LYP) =  -768.331074380     A.U. after   14 cycles
            NFock= 14  Conv=0.40D-08     -V/T= 2.0091
 KE= 7.614022833544D+02 PE=-4.112839870705D+03 EE= 1.414239545947D+03
 Leave Link  502 at Fri May 24 08:34:34 2019, MaxMem=   402653184 cpu:             544.0 elap:             136.0
 (Enter /n/sw/g16_nehalem/g16/l601.exe)
 Copying SCF densities to generalized density rwf, IOpCl= 0 IROHF=0.

 **********************************************************************

            Population analysis using the SCF density.

 **********************************************************************

 Orbital symmetries:
       Occupied  (A) (A) (A) (A) (A) (A) (A) (A) (A) (A) (A) (A)
                 (A) (A) (A) (A) (A) (A) (A) (A) (A) (A) (A) (A)
                 (A) (A) (A) (A) (A) (A) (A) (A) (A) (A) (A) (A)
                 (A) (A) (A) (A) (A) (A) (A) (A) (A) (A) (A) (A)
                 (A) (A) (A) (A) (A) (A) (A) (A) (A) (A) (A)
       Virtual   (A) (A) (A) (A) (A) (A) (A) (A) (A) (A) (A) (A)
                 (A) (A) (A) (A) (A) (A) (A) (A) (A) (A) (A) (A)
                 (A) (A) (A) (A) (A) (A) (A) (A) (A) (A) (A) (A)
                 (A) (A) (A) (A) (A) (A) (A) (A) (A) (A) (A) (A)
                 (A) (A) (A) (A) (A) (A) (A) (A) (A) (A) (A) (A)
                 (A) (A) (A) (A) (A) (A) (A) (A) (A) (A) (A) (A)
                 (A) (A) (A) (A) (A) (A) (A) (A) (A) (A) (A) (A)
                 (A) (A) (A) (A) (A) (A) (A) (A) (A) (A) (A) (A)
                 (A) (A) (A) (A) (A) (A) (A) (A) (A) (A) (A) (A)
                 (A) (A) (A) (A) (A) (A) (A) (A) (A) (A) (A) (A)
                 (A) (A) (A) (A) (A) (A) (A) (A) (A) (A) (A) (A)
                 (A) (A) (A) (A) (A) (A) (A) (A) (A) (A) (A) (A)
                 (A) (A) (A) (A) (A) (A) (A) (A) (A) (A) (A) (A)
                 (A) (A) (A) (A) (A) (A) (A) (A) (A) (A) (A) (A)
                 (A) (A) (A) (A) (A) (A) (A) (A) (A) (A) (A) (A)
                 (A) (A) (A) (A) (A) (A) (A) (A) (A) (A) (A) (A)
                 (A) (A) (A) (A) (A) (A) (A) (A) (A) (A) (A) (A)
 The electronic state is 1-A.
 Alpha  occ. eigenvalues --  -19.32540 -19.20877 -19.19650 -19.19181 -19.19133
 Alpha  occ. eigenvalues --  -10.39061 -10.32002 -10.31248 -10.29893 -10.29410
 Alpha  occ. eigenvalues --  -10.28342 -10.26013 -10.25364 -10.25307 -10.24741
 Alpha  occ. eigenvalues --   -1.21314  -1.09746  -1.08060  -1.07615  -1.06380
 Alpha  occ. eigenvalues --   -0.86927  -0.85682  -0.77478  -0.75248  -0.73586
 Alpha  occ. eigenvalues --   -0.71458  -0.69126  -0.67876  -0.65733  -0.62417
 Alpha  occ. eigenvalues --   -0.59544  -0.58669  -0.56408  -0.54349  -0.54012
 Alpha  occ. eigenvalues --   -0.52334  -0.51655  -0.51163  -0.50805  -0.48753
 Alpha  occ. eigenvalues --   -0.48300  -0.47933  -0.46586  -0.45993  -0.45536
 Alpha  occ. eigenvalues --   -0.43724  -0.43519  -0.42495  -0.41435  -0.40877
 Alpha  occ. eigenvalues --   -0.39796  -0.37588  -0.36297  -0.36035  -0.34549
 Alpha  occ. eigenvalues --   -0.32127  -0.30250  -0.29932  -0.28792
 Alpha virt. eigenvalues --   -0.14792   0.00356   0.04477   0.05144   0.05989
 Alpha virt. eigenvalues --    0.07023   0.07747   0.08885   0.09923   0.10494
 Alpha virt. eigenvalues --    0.11414   0.11442   0.12247   0.12488   0.12971
 Alpha virt. eigenvalues --    0.13556   0.13926   0.14363   0.14849   0.15157
 Alpha virt. eigenvalues --    0.15997   0.16336   0.16747   0.17395   0.18365
 Alpha virt. eigenvalues --    0.18718   0.19167   0.20573   0.20993   0.22569
 Alpha virt. eigenvalues --    0.24330   0.25127   0.25865   0.28278   0.29742
 Alpha virt. eigenvalues --    0.44680   0.45841   0.47525   0.48182   0.48233
 Alpha virt. eigenvalues --    0.48717   0.49712   0.50534   0.50569   0.51882
 Alpha virt. eigenvalues --    0.53027   0.53624   0.54840   0.54972   0.55899
 Alpha virt. eigenvalues --    0.56182   0.57223   0.58084   0.59664   0.61182
 Alpha virt. eigenvalues --    0.62259   0.63652   0.66317   0.68675   0.71241
 Alpha virt. eigenvalues --    0.72367   0.73832   0.75016   0.75971   0.78201
 Alpha virt. eigenvalues --    0.78873   0.79589   0.80282   0.81780   0.82217
 Alpha virt. eigenvalues --    0.82708   0.83542   0.84467   0.84776   0.85187
 Alpha virt. eigenvalues --    0.85937   0.86738   0.87904   0.88668   0.89320
 Alpha virt. eigenvalues --    0.90610   0.91482   0.92547   0.93395   0.94891
 Alpha virt. eigenvalues --    0.96577   0.96905   0.98633   1.00472   1.01425
 Alpha virt. eigenvalues --    1.04404   1.06242   1.07950   1.10124   1.12389
 Alpha virt. eigenvalues --    1.12479   1.16557   1.16790   1.18731   1.20508
 Alpha virt. eigenvalues --    1.23382   1.26135   1.29579   1.31213   1.33601
 Alpha virt. eigenvalues --    1.35074   1.36214   1.37996   1.39735   1.41187
 Alpha virt. eigenvalues --    1.45165   1.45976   1.46826   1.47191   1.48941
 Alpha virt. eigenvalues --    1.51783   1.55896   1.57162   1.59212   1.60572
 Alpha virt. eigenvalues --    1.62975   1.63709   1.66288   1.69208   1.70406
 Alpha virt. eigenvalues --    1.74419   1.75891   1.77144   1.79346   1.79849
 Alpha virt. eigenvalues --    1.80849   1.85190   1.87812   1.88178   1.90668
 Alpha virt. eigenvalues --    1.91916   1.95058   1.97107   1.99176   2.00917
 Alpha virt. eigenvalues --    2.00966   2.01406   2.03170   2.03638   2.05293
 Alpha virt. eigenvalues --    2.06198   2.06892   2.07869   2.10093   2.11063
 Alpha virt. eigenvalues --    2.12005   2.13534   2.14249   2.15572   2.17901
 Alpha virt. eigenvalues --    2.18834   2.21571   2.21781   2.23308   2.24393
 Alpha virt. eigenvalues --    2.28834   2.30419   2.31063   2.32779   2.34927
 Alpha virt. eigenvalues --    2.36501   2.40984   2.42573   2.44677   2.46978
 Alpha virt. eigenvalues --    2.50777   2.51319   2.53595   2.55018   2.59367
 Alpha virt. eigenvalues --    2.63650   2.66950   2.69025   2.73550   2.76590
 Alpha virt. eigenvalues --    2.78453   2.81335   2.85082   2.90572   2.91211
 Alpha virt. eigenvalues --    2.96249   2.97699   3.02109   3.08002   3.85771
 Alpha virt. eigenvalues --    3.89757   3.97582   4.00477   4.07845   4.15101
 Alpha virt. eigenvalues --    4.21612   4.23001   4.24066   4.25981   4.33836
 Alpha virt. eigenvalues --    4.40615   4.46905   4.50747   4.71507
          Condensed to atoms (all electrons):
               1          2          3          4          5          6
     1  C    4.984516   0.272144  -0.027880  -0.043765   0.299039   0.001962
     2  C    0.272144   5.179900   0.249980   0.002674  -0.043136  -0.037784
     3  C   -0.027880   0.249980   4.860586  -0.041620  -0.004411   0.359446
     4  C   -0.043765   0.002674  -0.041620   5.189594   0.242488   0.003189
     5  C    0.299039  -0.043136  -0.004411   0.242488   4.967422  -0.000294
     6  H    0.001962  -0.037784   0.359446   0.003189  -0.000294   0.426875
     7  H   -0.026489   0.335514  -0.041757  -0.000144  -0.004360   0.002301
     8  H    0.359690  -0.058894  -0.000868  -0.001552  -0.038812   0.000069
     9  H    0.000591   0.000078   0.002349   0.368721  -0.032297  -0.000119
    10  H   -0.037793  -0.006452   0.000419  -0.057028   0.379867   0.000006
    11  O   -0.001603  -0.028890   0.372171   0.122296  -0.021731  -0.034028
    12  O   -0.033709   0.185780  -0.031657   0.000065   0.002171   0.002582
    13  O    0.226659  -0.043536   0.003071   0.003191  -0.039780  -0.000048
    14  O   -0.031279   0.002362   0.000005  -0.035978   0.248361   0.000003
    15  C    0.001657  -0.000162  -0.003011   0.335694  -0.020552  -0.000240
    16  H    0.000419  -0.000092   0.000376  -0.037384  -0.005059   0.000008
    17  H   -0.000285   0.000127  -0.000380  -0.027154   0.004624  -0.000042
    18  O   -0.001170  -0.006321   0.013617  -0.052975  -0.004221   0.000127
    19  C    0.002931  -0.031467  -0.002459   0.000016  -0.000132   0.001395
    20  H    0.000209  -0.008782  -0.000376   0.000001   0.000004   0.000078
    21  H   -0.000146   0.004828  -0.000159   0.000000   0.000000  -0.000064
    22  H   -0.000102  -0.003386   0.003416  -0.000003   0.000016  -0.000078
    23  C   -0.030461  -0.001690  -0.000018  -0.000163   0.003872   0.000003
    24  H   -0.005750   0.001841  -0.000135   0.000020  -0.000099   0.000009
    25  H    0.005175  -0.000203   0.000003   0.000001  -0.000152   0.000000
    26  H   -0.010171  -0.000689   0.000070  -0.000011   0.000261  -0.000001
    27  C   -0.005898   0.000043   0.000025  -0.007147  -0.042446   0.000000
    28  H    0.000071  -0.000006   0.000001  -0.000063   0.004988   0.000000
    29  H   -0.001425   0.000059  -0.000040   0.007138  -0.005726  -0.000003
    30  H    0.003692  -0.000094   0.000004  -0.000693  -0.006670   0.000000
    31  C    0.000005   0.000173  -0.000334   0.005529   0.000124   0.000000
    32  H   -0.000004  -0.000004  -0.000066   0.000124   0.000025  -0.000001
    33  H    0.000001  -0.000013   0.000038  -0.000141  -0.000039   0.000000
    34  H    0.000005   0.000038   0.000004  -0.000251  -0.000006   0.000000
               7          8          9         10         11         12
     1  C   -0.026489   0.359690   0.000591  -0.037793  -0.001603  -0.033709
     2  C    0.335514  -0.058894   0.000078  -0.006452  -0.028890   0.185780
     3  C   -0.041757  -0.000868   0.002349   0.000419   0.372171  -0.031657
     4  C   -0.000144  -0.001552   0.368721  -0.057028   0.122296   0.000065
     5  C   -0.004360  -0.038812  -0.032297   0.379867  -0.021731   0.002171
     6  H    0.002301   0.000069  -0.000119   0.000006  -0.034028   0.002582
     7  H    0.493743   0.005334  -0.000002   0.005489   0.000590  -0.026382
     8  H    0.005334   0.579727   0.000108   0.005246   0.001549   0.000473
     9  H   -0.000002   0.000108   0.464799   0.003105  -0.025835   0.000003
    10  H    0.005489   0.005246   0.003105   0.520386   0.002158  -0.000063
    11  O    0.000590   0.001549  -0.025835   0.002158   7.956421   0.001584
    12  O   -0.026382   0.000473   0.000003  -0.000063   0.001584   8.239629
    13  O   -0.000919  -0.035975  -0.000040   0.001866   0.000032   0.002326
    14  O    0.000034  -0.004844  -0.001278  -0.035506   0.000997  -0.000007
    15  C   -0.000779   0.000083  -0.028615  -0.003840  -0.038388  -0.000012
    16  H    0.000006  -0.000006   0.001549  -0.001625   0.002825   0.000000
    17  H    0.000112   0.000003  -0.001949   0.000758  -0.001814   0.000000
    18  O    0.013444  -0.000016   0.002364   0.010897  -0.002894   0.000045
    19  C   -0.004312  -0.000243   0.000000  -0.000003  -0.000002   0.224845
    20  H    0.009939   0.000045   0.000000  -0.000001   0.000009  -0.033269
    21  H   -0.000035   0.000006   0.000000   0.000000   0.000001  -0.029587
    22  H   -0.000981   0.000002   0.000000  -0.000001  -0.000088  -0.034742
    23  C   -0.000418  -0.006088   0.000002  -0.000188   0.000003  -0.004160
    24  H    0.000268   0.000046   0.000000   0.000002  -0.000003   0.009183
    25  H   -0.000004  -0.000053   0.000000  -0.000018   0.000000   0.000124
    26  H    0.000013   0.009966   0.000000   0.000064   0.000000   0.000198
    27  C    0.000008   0.005174   0.002907   0.005216   0.000095   0.000000
    28  H    0.000000  -0.000028  -0.000310  -0.000128   0.000002   0.000000
    29  H   -0.000002   0.000108   0.003176  -0.000215  -0.000542   0.000000
    30  H   -0.000007   0.000543   0.000118  -0.000136   0.000038   0.000005
    31  C   -0.000281   0.000000  -0.000144  -0.000282   0.000084  -0.000001
    32  H    0.000059   0.000000   0.000005   0.000050   0.000012   0.000000
    33  H    0.000031   0.000000   0.000008  -0.000112  -0.000004   0.000000
    34  H   -0.000116   0.000000   0.000003   0.000003   0.000001  -0.000001
              13         14         15         16         17         18
     1  C    0.226659  -0.031279   0.001657   0.000419  -0.000285  -0.001170
     2  C   -0.043536   0.002362  -0.000162  -0.000092   0.000127  -0.006321
     3  C    0.003071   0.000005  -0.003011   0.000376  -0.000380   0.013617
     4  C    0.003191  -0.035978   0.335694  -0.037384  -0.027154  -0.052975
     5  C   -0.039780   0.248361  -0.020552  -0.005059   0.004624  -0.004221
     6  H   -0.000048   0.000003  -0.000240   0.000008  -0.000042   0.000127
     7  H   -0.000919   0.000034  -0.000779   0.000006   0.000112   0.013444
     8  H   -0.035975  -0.004844   0.000083  -0.000006   0.000003  -0.000016
     9  H   -0.000040  -0.001278  -0.028615   0.001549  -0.001949   0.002364
    10  H    0.001866  -0.035506  -0.003840  -0.001625   0.000758   0.010897
    11  O    0.000032   0.000997  -0.038388   0.002825  -0.001814  -0.002894
    12  O    0.002326  -0.000007  -0.000012   0.000000   0.000000   0.000045
    13  O    8.223352   0.002045  -0.000035  -0.000002   0.000000  -0.000003
    14  O    0.002045   8.199428   0.000373   0.001204  -0.000062   0.000106
    15  C   -0.000035   0.000373   4.887001   0.361340   0.357208   0.234784
    16  H   -0.000002   0.001204   0.361340   0.556967  -0.042724  -0.035390
    17  H    0.000000  -0.000062   0.357208  -0.042724   0.562137  -0.038891
    18  O   -0.000003   0.000106   0.234784  -0.035390  -0.038891   8.219315
    19  C   -0.000441   0.000000  -0.000002   0.000000   0.000000  -0.000013
    20  H    0.000259   0.000000   0.000000   0.000000   0.000000  -0.000009
    21  H   -0.000006   0.000000   0.000000   0.000000   0.000000   0.000000
    22  H    0.000012   0.000000   0.000001   0.000000   0.000000   0.000001
    23  C    0.234041  -0.000058   0.000001   0.000000   0.000000  -0.000001
    24  H   -0.033455   0.000001   0.000000   0.000000   0.000000   0.000000
    25  H   -0.031592  -0.000001   0.000000   0.000000   0.000000   0.000000
    26  H   -0.035124  -0.000012   0.000000   0.000000   0.000000   0.000000
    27  C   -0.000350   0.237025   0.000341  -0.000013  -0.000004  -0.000004
    28  H   -0.000026  -0.031430   0.000001  -0.000003   0.000000   0.000000
    29  H    0.000071  -0.036359   0.000023  -0.000032   0.000014  -0.000001
    30  H    0.000595  -0.035822  -0.000012   0.000004   0.000000   0.000000
    31  C    0.000000  -0.000001  -0.039919  -0.003083  -0.004183   0.239732
    32  H    0.000000   0.000000  -0.006873  -0.001763   0.010487  -0.035421
    33  H    0.000000  -0.000001  -0.006431   0.009102  -0.001983  -0.035221
    34  H    0.000000   0.000000   0.005330  -0.000121  -0.000108  -0.030974
              19         20         21         22         23         24
     1  C    0.002931   0.000209  -0.000146  -0.000102  -0.030461  -0.005750
     2  C   -0.031467  -0.008782   0.004828  -0.003386  -0.001690   0.001841
     3  C   -0.002459  -0.000376  -0.000159   0.003416  -0.000018  -0.000135
     4  C    0.000016   0.000001   0.000000  -0.000003  -0.000163   0.000020
     5  C   -0.000132   0.000004   0.000000   0.000016   0.003872  -0.000099
     6  H    0.001395   0.000078  -0.000064  -0.000078   0.000003   0.000009
     7  H   -0.004312   0.009939  -0.000035  -0.000981  -0.000418   0.000268
     8  H   -0.000243   0.000045   0.000006   0.000002  -0.006088   0.000046
     9  H    0.000000   0.000000   0.000000   0.000000   0.000002   0.000000
    10  H   -0.000003  -0.000001   0.000000  -0.000001  -0.000188   0.000002
    11  O   -0.000002   0.000009   0.000001  -0.000088   0.000003  -0.000003
    12  O    0.224845  -0.033269  -0.029587  -0.034742  -0.004160   0.009183
    13  O   -0.000441   0.000259  -0.000006   0.000012   0.234041  -0.033455
    14  O    0.000000   0.000000   0.000000   0.000000  -0.000058   0.000001
    15  C   -0.000002   0.000000   0.000000   0.000001   0.000001   0.000000
    16  H    0.000000   0.000000   0.000000   0.000000   0.000000   0.000000
    17  H    0.000000   0.000000   0.000000   0.000000   0.000000   0.000000
    18  O   -0.000013  -0.000009   0.000000   0.000001  -0.000001   0.000000
    19  C    4.916373   0.371971   0.386243   0.367225   0.000304  -0.000022
    20  H    0.371971   0.548651  -0.026203  -0.041572   0.000024  -0.000173
    21  H    0.386243  -0.026203   0.500062  -0.029794   0.000050  -0.000099
    22  H    0.367225  -0.041572  -0.029794   0.571002  -0.000008   0.000055
    23  C    0.000304   0.000024   0.000050  -0.000008   4.915519   0.366311
    24  H   -0.000022  -0.000173  -0.000099   0.000055   0.366311   0.559469
    25  H   -0.000010   0.000001  -0.000003   0.000000   0.383942  -0.029282
    26  H   -0.000014   0.000000   0.000000   0.000000   0.367370  -0.041652
    27  C    0.000000   0.000000   0.000000   0.000000  -0.000443   0.000006
    28  H    0.000000   0.000000   0.000000   0.000000   0.000000   0.000000
    29  H    0.000000   0.000000   0.000000   0.000000   0.000004   0.000000
    30  H    0.000000   0.000000   0.000000   0.000000   0.000484   0.000007
    31  C    0.000000   0.000001   0.000000   0.000001   0.000000   0.000000
    32  H    0.000000   0.000000   0.000000   0.000000   0.000000   0.000000
    33  H    0.000000   0.000000   0.000000   0.000000   0.000000   0.000000
    34  H    0.000001   0.000003   0.000000   0.000000   0.000000   0.000000
              25         26         27         28         29         30
     1  C    0.005175  -0.010171  -0.005898   0.000071  -0.001425   0.003692
     2  C   -0.000203  -0.000689   0.000043  -0.000006   0.000059  -0.000094
     3  C    0.000003   0.000070   0.000025   0.000001  -0.000040   0.000004
     4  C    0.000001  -0.000011  -0.007147  -0.000063   0.007138  -0.000693
     5  C   -0.000152   0.000261  -0.042446   0.004988  -0.005726  -0.006670
     6  H    0.000000  -0.000001   0.000000   0.000000  -0.000003   0.000000
     7  H   -0.000004   0.000013   0.000008   0.000000  -0.000002  -0.000007
     8  H   -0.000053   0.009966   0.005174  -0.000028   0.000108   0.000543
     9  H    0.000000   0.000000   0.002907  -0.000310   0.003176   0.000118
    10  H   -0.000018   0.000064   0.005216  -0.000128  -0.000215  -0.000136
    11  O    0.000000   0.000000   0.000095   0.000002  -0.000542   0.000038
    12  O    0.000124   0.000198   0.000000   0.000000   0.000000   0.000005
    13  O   -0.031592  -0.035124  -0.000350  -0.000026   0.000071   0.000595
    14  O   -0.000001  -0.000012   0.237025  -0.031430  -0.036359  -0.035822
    15  C    0.000000   0.000000   0.000341   0.000001   0.000023  -0.000012
    16  H    0.000000   0.000000  -0.000013  -0.000003  -0.000032   0.000004
    17  H    0.000000   0.000000  -0.000004   0.000000   0.000014   0.000000
    18  O    0.000000   0.000000  -0.000004   0.000000  -0.000001   0.000000
    19  C   -0.000010  -0.000014   0.000000   0.000000   0.000000   0.000000
    20  H    0.000001   0.000000   0.000000   0.000000   0.000000   0.000000
    21  H   -0.000003   0.000000   0.000000   0.000000   0.000000   0.000000
    22  H    0.000000   0.000000   0.000000   0.000000   0.000000   0.000000
    23  C    0.383942   0.367370  -0.000443   0.000000   0.000004   0.000484
    24  H   -0.029282  -0.041652   0.000006   0.000000   0.000000   0.000007
    25  H    0.518107  -0.028300   0.000011   0.000000   0.000000  -0.000024
    26  H   -0.028300   0.575076  -0.000064   0.000010  -0.000007   0.001196
    27  C    0.000011  -0.000064   4.931308   0.387727   0.357100   0.370109
    28  H    0.000000   0.000010   0.387727   0.507513  -0.028123  -0.031046
    29  H    0.000000  -0.000007   0.357100  -0.028123   0.593836  -0.045475
    30  H   -0.000024   0.001196   0.370109  -0.031046  -0.045475   0.573780
    31  C    0.000000   0.000000   0.000000   0.000000   0.000000   0.000000
    32  H    0.000000   0.000000   0.000000   0.000000   0.000000   0.000000
    33  H    0.000000   0.000000   0.000000   0.000000   0.000000   0.000000
    34  H    0.000000   0.000000   0.000000   0.000000   0.000000   0.000000
              31         32         33         34
     1  C    0.000005  -0.000004   0.000001   0.000005
     2  C    0.000173  -0.000004  -0.000013   0.000038
     3  C   -0.000334  -0.000066   0.000038   0.000004
     4  C    0.005529   0.000124  -0.000141  -0.000251
     5  C    0.000124   0.000025  -0.000039  -0.000006
     6  H    0.000000  -0.000001   0.000000   0.000000
     7  H   -0.000281   0.000059   0.000031  -0.000116
     8  H    0.000000   0.000000   0.000000   0.000000
     9  H   -0.000144   0.000005   0.000008   0.000003
    10  H   -0.000282   0.000050  -0.000112   0.000003
    11  O    0.000084   0.000012  -0.000004   0.000001
    12  O   -0.000001   0.000000   0.000000  -0.000001
    13  O    0.000000   0.000000   0.000000   0.000000
    14  O   -0.000001   0.000000  -0.000001   0.000000
    15  C   -0.039919  -0.006873  -0.006431   0.005330
    16  H   -0.003083  -0.001763   0.009102  -0.000121
    17  H   -0.004183   0.010487  -0.001983  -0.000108
    18  O    0.239732  -0.035421  -0.035221  -0.030974
    19  C    0.000000   0.000000   0.000000   0.000001
    20  H    0.000001   0.000000   0.000000   0.000003
    21  H    0.000000   0.000000   0.000000   0.000000
    22  H    0.000001   0.000000   0.000000   0.000000
    23  C    0.000000   0.000000   0.000000   0.000000
    24  H    0.000000   0.000000   0.000000   0.000000
    25  H    0.000000   0.000000   0.000000   0.000000
    26  H    0.000000   0.000000   0.000000   0.000000
    27  C    0.000000   0.000000   0.000000   0.000000
    28  H    0.000000   0.000000   0.000000   0.000000
    29  H    0.000000   0.000000   0.000000   0.000000
    30  H    0.000000   0.000000   0.000000   0.000000
    31  C    4.889690   0.369313   0.371846   0.385194
    32  H    0.369313   0.573362  -0.042699  -0.029862
    33  H    0.371846  -0.042699   0.568718  -0.029576
    34  H    0.385194  -0.029862  -0.029576   0.518007
 Mulliken charges:
               1
     1  C    0.099166
     2  C    0.036060
     3  C    0.289588
     4  C    0.025332
     5  C    0.116661
     6  H    0.274652
     7  H    0.240105
     8  H    0.179207
     9  H    0.240705
    10  H    0.207858
    11  O   -0.305046
    12  O   -0.475422
    13  O   -0.476190
    14  O   -0.479305
    15  C   -0.034968
    16  H    0.193498
    17  H    0.184110
    18  O   -0.490906
    19  C   -0.232186
    20  H    0.179191
    21  H    0.194904
    22  H    0.169023
    23  C   -0.228233
    24  H    0.173451
    25  H    0.182278
    26  H    0.161821
    27  C   -0.240726
    28  H    0.190848
    29  H    0.156420
    30  H    0.169405
    31  C   -0.213462
    32  H    0.163257
    33  H    0.166475
    34  H    0.182427
 Sum of Mulliken charges =   1.00000
 Mulliken charges with hydrogens summed into heavy atoms:
               1
     1  C    0.278373
     2  C    0.276165
[...]
 002414,0.00002322,0.00000269,-0.00003958,-0.00001211,0.00000079,0.0000
 0437,0.00000233,-0.00000224,0.00000504,0.00000104,0.00000387,0.0000043
 3,0.00000124,0.00003414,-0.00000886,-0.00000516,-0.00000317,-0.0000051
 7,-0.00000414,-0.00000883,-0.00000368,-0.00000028,-0.00003431,0.000025
 29,0.00000439,-0.02534498,-0.06891276,0.05326688,-0.01459495,-0.004087
 61,0.02765000,0.03061901,0.06602477,-0.00052142,-0.00043234,0.00003611
 ,0.00013058,-0.00001761,0.00007064,0.00015009,-0.00015497,-0.00024441,
 0.00094420,-0.00050913,0.00052717,0.00129052,0.00601003,-0.00003099,0.
 00005576,0.00003893,0.00003529,0.00003532,0.00007951,-0.00003540,-0.00
 005281,-0.00014582,0.00041987,-0.00066553,-0.00003926,-0.00039309,-0.0
 0019418,-0.00046024,0.00014613,-0.00050042,-0.00054641,0.00059822,0.00
 003610,-0.00028720,0.00005121,0.00010098,-0.00001324,0.00021386,-0.000
 74525,-0.00668946,-0.03261095,-0.00044462,0.00026097,0.00006295,0.0000
 2787,-0.00001429,-0.00000285,-0.00004850,-0.00003731,-0.00002667,0.000
 11479,0.00011296,0.00017430,0.00003151,0.00007860,0.00005437,-0.000006
 59,-0.00000399,-0.00000784,0.00000484,-0.00002335,-0.00000828,-0.00001
 394,-0.00001384,-0.00000157,-0.00015204,0.00001674,0.00001309,0.000030
 40,-0.00002273,0.00000843,0.00001797,0.00000126,-0.00000939,0.00001495
 ,-0.00001341,-0.00001042,0.09428465,0.05012480,-0.24041817,0.00348302,
 0.00211069,-0.00362837,-0.09887007,-0.05098669,0.27315148,-0.00086512,
 -0.00016617,-0.00069675,0.00055598,0.00003567,0.00032289,-0.00032598,0
 .00033953,0.00021882,0.00000063,0.00028183,-0.00026539,0.00027197,0.00
 446124,-0.00037710,0.00002665,-0.00004154,-0.00003663,0.00006563,0.000
 18853,-0.00005396,0.00059949,0.00018676,0.00080792,0.00023468,0.000084
 37,-0.00003918,0.00004012,-0.00037584,-0.00001121,0.00005049,-0.000642
 83,0.00032489,0.00007201,-0.00026945,-0.00000507,0.00022429,0.00022056
 ,0.00023637,-0.01538456,-0.00805314,-0.01351626,0.00015493,0.00009621,
 0.00010923,0.00005686,-0.00000534,0.00000648,-0.00006282,-0.00004754,-
 0.00002156,-0.00017499,-0.00020237,-0.00010664,0.00001607,0.00001342,0
 .00004079,-0.00000084,-0.00000195,-0.00000434,0.00000100,-0.00001861,-
 0.00000739,-0.00000321,-0.00000757,-0.00000122,0.00002185,0.00003734,-
 0.00012981,0.00003253,0.00000804,0.00002776,0.00001098,-0.00003542,-0.
 00001420,-0.00034124,0.00039350,-0.00005547,-0.29370649,0.06185226,0.0
 0781507,-0.00176034,0.00156056,0.00134598,-0.01173129,0.00481075,0.001
 46484,0.32185765,0.00031563,-0.00146225,0.00061159,0.00005498,0.000473
 86,0.00000580,-0.00024100,0.00007429,0.00014260,0.00003055,-0.00006269
 ,-0.00021852,-0.00199287,0.00294307,-0.00002242,0.00002340,-0.00000887
 ,-0.00000761,-0.00002233,0.00001629,-0.00001300,0.00015599,-0.00235097
 ,-0.00042776,0.00018542,0.00010297,0.00004251,0.00024910,-0.00009604,-
 0.00003217,0.00000321,-0.00017903,0.00010754,-0.00001439,0.00013757,-0
 .00003588,0.00000235,0.00054528,0.00004237,-0.02224409,0.00296444,-0.0
 0523183,0.00010573,-0.00001271,-0.00004974,0.00003900,0.00001022,0.000
 00174,0.00000278,-0.00000312,0.00000785,-0.00005011,-0.00005574,-0.000
 02405,-0.00001906,-0.00005540,-0.00002922,0.00000286,0.00000125,0.0000
 0483,-0.00000334,0.00001236,0.00000436,0.00000932,0.00000350,-0.000000
 16,0.00010467,-0.00043071,-0.00011253,-0.00002665,0.00005898,0.0000198
 1,0.00001139,0.00010457,0.00007539,0.00059298,-0.00015582,0.00019094,0
 .06470859,-0.07026668,0.00007918,0.03109055,-0.00519572,-0.00163079,-0
 .00833880,0.00281821,0.00150520,-0.06473091,0.07008112,0.00008035,-0.0
 0082269,0.00149561,0.00009313,0.00017553,-0.00002971,0.00007447,0.0000
 5705,-0.00011373,0.00048992,-0.00061138,-0.00038299,0.00013093,0.00469
 379,-0.00010736,0.00003285,0.00001443,0.00001270,0.00000279,0.00000645
 ,-0.00002211,0.00009208,-0.00028476,-0.00008983,-0.00023490,-0.0000803
 8,0.00003592,0.00006688,-0.00017850,-0.00004410,-0.00019133,-0.0002794
 8,0.00030768,0.00007966,-0.00027073,-0.00001159,0.00015676,0.00042870,
 -0.00034306,-0.03479468,-0.00233130,-0.00889913,-0.00018722,0.00018609
 ,0.00004909,0.00005563,-0.00000668,-0.00000187,-0.00004340,-0.00003759
 ,-0.00001270,-0.00003937,-0.00003248,0.00002449,0.00002488,0.00008601,
 0.00006044,-0.00000846,-0.00000932,-0.00001191,0.00000505,-0.00002314,
 -0.00000531,-0.00001201,-0.00001560,-0.00000313,-0.00004340,-0.0002643
 1,-0.00009699,0.00000757,0.00005353,0.00003531,0.00004281,0.00003313,0
 .00001913,0.00011324,0.00019923,-0.00048320,0.01015352,-0.00112043,-0.
 05141033,-0.00698611,0.00253085,0.00138800,0.02824399,-0.00713188,0.00
 182438,0.00257169,0.00498946,0.05676737,-0.00089162,-0.00031348,0.0002
 5756,-0.00030121,0.00112057,-0.00039116,-0.00258178,0.00071739,-0.0005
 2027,-0.00128511,0.00422642,0.00156003,-0.00091589,-0.00150401,0.00056
 239,-0.00003627,-0.00020506,-0.00019853,-0.00065795,0.00011077,0.00007
 755,0.00009844,0.00003583,0.00001624,0.00138227,0.00027904,0.00098550,
 -0.00041362,-0.00034715,0.00022903,0.00166896,-0.00002427,0.00016021,0
 .00081804,-0.00081595,-0.00001036,0.00110649,0.00009194,-0.00060119,0.
 00063220,0.00112767,0.00019752,0.00444069,-0.00603272,-0.00151472,0.00
 093169,0.00469600,0.00258491,0.00135479,0.00547520,0.00319388,-0.17744
 472,-0.05539597,-0.06055599,-0.00002520,0.00056077,0.00018469,-0.00001
 483,-0.00006151,-0.00002943,0.00004414,-0.00008084,-0.00001240,-0.0000
 6595,-0.00006200,-0.00002689,-0.00059731,-0.00009203,-0.00010203,0.000
 07999,-0.00000425,0.00004186,0.00010699,0.00001376,-0.00003206,0.00007
 383,0.00004346,0.00005531,-0.00041237,-0.00030535,-0.00037571,0.000052
 37,0.00011418,0.00003155,0.00004160,-0.00003617,-0.00001248,0.00012380
 ,0.00000417,0.00004646,0.50798782,-0.00068752,-0.00049072,0.00036974,0
 .00005289,0.00038324,-0.00061271,-0.00245326,0.00019093,-0.00203723,0.
 00118801,-0.00535632,-0.00205693,-0.00016656,-0.00063052,-0.00025157,-
 0.00012459,-0.00011084,-0.00008283,-0.00045595,0.00040361,0.00065191,0
 .00009927,0.00006653,-0.00000127,-0.00090052,0.00004613,-0.00031645,-0
 .00028007,-0.00024670,0.00040334,0.00122867,0.00172790,0.00101581,0.00
 093178,-0.00061360,0.00015823,0.00064270,0.00010571,-0.00041844,0.0003
 3818,0.00067644,0.00023994,-0.02940271,-0.02993398,-0.02232394,-0.0015
 4328,0.00265018,-0.00041922,-0.00024012,0.00335737,0.00197886,-0.01956
 183,-0.09754914,-0.02621179,-0.00001989,0.00063022,0.00020696,-0.00000
 691,-0.00004301,-0.00005360,0.00001688,-0.00008319,-0.00002346,-0.0000
 4669,-0.00007552,0.00000536,-0.00039499,-0.00004506,-0.00004628,0.0000
 4433,-0.00000179,0.00003177,0.00006470,0.00001517,-0.00002107,0.000052
 56,0.00002769,0.00003211,-0.00021116,-0.00015506,-0.00032675,0.0000217
 3,0.00005928,0.00004327,0.00001667,-0.00001297,0.00007049,0.00005010,-
 0.00000782,0.00005574,-0.06213810,0.59225465,-0.00073498,-0.00011313,0
 .00012474,-0.00020203,0.00022901,-0.00034744,-0.00074653,0.00059531,-0
 .00030778,0.00016602,-0.00114378,-0.00269544,-0.00053738,-0.00034068,0
 .00015763,-0.00005490,-0.00006989,-0.00005861,-0.00061566,0.00038408,0
 .00029336,0.00012884,0.00001710,-0.00000126,-0.00035317,-0.00015232,0.
 00029800,-0.00054816,-0.00058539,0.00076589,0.00078200,-0.00116334,0.0
 0004380,0.00060740,-0.00051162,0.00015572,0.00068565,0.00002639,-0.000
 35351,0.00058667,0.00086622,0.00051916,-0.01528076,-0.01686492,-0.0185
 7729,0.00123129,0.00370614,0.00338875,-0.00264470,0.00056520,0.0017139
 0,-0.03957853,-0.03456041,-0.09193195,-0.00001168,0.00042354,0.0001697
 1,-0.00001314,-0.00002761,-0.00004592,0.00002002,-0.00005825,-0.000015
 20,-0.00004107,-0.00004140,-0.00000645,-0.00035915,-0.00004432,-0.0000
 5355,0.00004770,-0.00000431,0.00002914,0.00007106,0.00000829,-0.000021
 31,0.00004535,0.00001957,0.00003142,-0.00021635,-0.00007997,-0.0003773
 1,0.00005425,0.00009044,0.00006032,0.00001599,-0.00002673,0.00003454,0
 .00007786,0.00000952,0.00006060,-0.05265229,-0.00611980,0.56318390,0.0
 0027627,0.00006040,-0.00006214,0.00009595,-0.00007320,0.00013831,0.000
 31194,-0.00016759,0.00031876,0.00039079,-0.00021172,0.00006039,0.00037
 695,0.00024201,0.00011859,0.00000535,0.00003159,0.00001060,0.00022057,
 -0.00017225,-0.00009540,-0.00004947,-0.00000770,-0.00000030,-0.0001442
 4,0.00000646,-0.00015480,0.00018681,0.00020475,-0.00026268,-0.00019908
 ,0.00012009,-0.00006862,-0.00024694,0.00020779,-0.00008750,-0.00023960
 ,-0.00001921,0.00010526,-0.00019250,-0.00029974,-0.00019345,-0.0001159
 9,0.00505131,0.00276833,0.00004331,-0.00066199,-0.00024886,0.00058402,
 -0.00133942,-0.00099582,-0.03340625,-0.01645760,0.00727568,-0.00000792
 ,-0.00018171,-0.00003689,0.00001051,0.00001506,0.00000905,-0.00000669,
 0.00002443,0.00000250,0.00001550,0.00002121,0.00000123,0.00014216,0.00
 001365,0.00002080,-0.00001758,0.00000365,-0.00001004,-0.00002308,-0.00
 000232,0.00000695,-0.00001772,-0.00000955,-0.00001295,0.00008734,0.000
 03979,0.00012956,-0.00001994,-0.00003169,-0.00001946,-0.00000854,0.000
 00729,-0.00001047,-0.00002956,-0.00000479,-0.00001840,-0.16525342,-0.0
 3461196,0.11999580,0.19188728,0.00008480,0.00004274,-0.00006707,0.0000
 2004,0.00001089,0.00004848,0.00010625,0.00000639,0.00016281,0.00016821
 ,0.00001030,-0.00019197,0.00016283,-0.00005035,0.00015871,0.00000779,0
 .00000264,0.00000386,0.00007229,-0.00006980,-0.00005218,-0.00001978,-0
 .00000078,0.00000143,-0.00005642,0.00000273,-0.00008237,0.00007465,0.0
 0005795,-0.00012985,-0.00003479,-0.00005257,-0.00000881,-0.00007770,0.
 00004791,-0.00002640,-0.00003806,-0.00001061,0.00003072,-0.00007091,-0
 .00008281,-0.00009229,-0.00261413,0.00238178,0.00376483,0.00015259,-0.
 00031441,-0.00006391,0.00071265,-0.00015413,-0.00048446,-0.01777728,-0
 .00638509,0.00309599,0.00000402,-0.00004733,-0.00002320,0.00000043,0.0
 0000233,0.00000634,-0.00000229,0.00000629,0.00000326,0.00000469,0.0000
 0439,0.00000171,0.00003307,0.00000044,-0.00000016,-0.00000298,0.000000
 56,-0.00000299,-0.00000454,-0.00000134,0.00000209,-0.00000473,-0.00000
 163,-0.00000236,0.00001180,-0.00000048,0.00004093,-0.00000758,-0.00000
 979,-0.00000706,-0.00000226,0.00000163,-0.00000502,-0.00000729,-0.0000
 0335,-0.00000737,-0.03304967,-0.06562296,0.03738449,0.04706024,0.06435
 296,0.00004339,0.00000086,-0.00004091,-0.00000702,0.00003594,0.0000145
 7,-0.00008449,-0.00001518,0.00000557,-0.00018334,0.00011796,0.00026164
 ,-0.00001097,-0.00013146,0.00002170,0.00000270,-0.00000065,-0.00000447
 ,0.00003682,-0.00004454,-0.00003470,-0.00000981,0.00000349,0.00000189,
 0.00004587,0.00002887,-0.00003463,0.00002446,0.00000678,-0.00012046,0.
 00004545,0.00009236,0.00006400,-0.00002952,0.00001595,-0.00001521,-0.0
 0000580,0.00000375,0.00002871,-0.00007071,-0.00006226,-0.00004882,-0.0
 0238605,0.00124168,0.00345541,0.00012620,-0.00013382,-0.00057348,0.001
 18367,0.00137250,-0.00026191,-0.01714216,-0.00819836,0.01455286,0.0000
 0110,-0.00002082,-0.00002339,-0.00000063,-0.00000020,0.00000752,0.0000
 0180,0.00000305,0.00000328,-0.00000129,0.00000250,0.00000019,0.0000006
 3,-0.00000128,-0.00000343,-0.00000024,-0.00000042,-0.00000150,-0.00000
 347,-0.00000089,0.00000108,-0.00000030,0.00000227,0.00000132,-0.000001
 91,-0.00001594,0.00002161,-0.00000497,-0.00000572,-0.00000738,-0.00000
 068,0.00000122,-0.00000026,-0.00000404,-0.00000240,-0.00000438,0.12472
 682,0.03848846,-0.18244610,-0.12961065,-0.04033871,0.18726263,0.000223
 05,0.00017856,-0.00011875,0.00003110,-0.00015763,0.00017555,0.00081699
 ,-0.00012474,0.00054675,0.00007377,0.00000688,0.00002848,0.00018850,0.
 00023256,-0.00014152,0.00001925,0.00002767,0.00002730,0.00014824,-0.00
 008540,-0.00018529,-0.00001873,-0.00003058,0.00000462,-0.00012581,-0.0
 0001422,-0.00008428,0.00003733,0.00007285,-0.00007990,-0.00028443,-0.0
 0037504,-0.00006985,-0.00028415,0.00017166,-0.00003527,-0.00021744,-0.
 00003499,0.00016189,-0.00010594,-0.00021905,-0.00001032,-0.00018141,0.
 00461292,0.00258310,0.00051487,-0.00152793,0.00017629,0.00006197,-0.00
 066785,-0.00022876,-0.02337284,0.00808672,-0.02947674,0.00001164,-0.00
 016564,-0.00006025,0.00000726,0.00001643,0.00001116,-0.00001011,0.0000
 2173,0.00000487,0.00001699,0.00001750,0.00000928,0.00011869,0.00001889
 ,0.00001513,-0.00001238,-0.00000143,-0.00000889,-0.00002372,-0.0000042
 4,0.00000727,-0.00001582,-0.00000854,-0.00001005,0.00006529,0.00004661
 ,0.00006692,-0.00000879,-0.00002003,-0.00000827,-0.00000874,0.00000552
 ,0.00000157,-0.00001797,-0.00000033,-0.00000916,-0.08184000,0.05608462
 ,-0.05790423,0.01080930,-0.01371335,0.01567476,0.09594322,-0.00000653,
 0.00001159,0.00000031,-0.00000526,0.00006501,0.00002058,0.00007466,-0.
 00008114,0.00017321,-0.00019464,0.00039350,-0.00004901,0.00000020,-0.0
 0000793,0.00003675,-0.00001707,-0.00002435,-0.00002194,0.00000704,-0.0
 0002535,-0.00006052,0.00000154,-0.00000297,-0.00000016,-0.00000147,-0.
 00002781,0.00002098,-0.00002448,-0.00000527,0.00001309,0.00002247,-0.0
 0025520,-0.00016644,-0.00003079,0.00001862,-0.00001167,0.00002551,0.00
 000193,-0.00002092,0.00003275,0.00003458,0.00001003,-0.00135437,0.0047
 4485,-0.00150814,0.00063309,0.00051096,0.00171203,-0.00005630,-0.00047
 027,0.00005648,-0.01062983,0.01100095,-0.01650520,-0.00000808,-0.00004
 236,-0.00000228,-0.00000300,-0.00000064,0.00000510,0.00000639,0.000005
 51,0.00000214,-0.00000267,0.00000797,-0.00001223,-0.00000844,-0.000004
 04,-0.00000160,0.00000105,0.00000071,0.00000043,0.00000340,0.00000002,
 -0.00000108,0.00000080,0.00000052,0.00000096,-0.00000771,-0.00000727,-
 0.00001269,0.00000121,0.00000361,0.00000121,-0.00000020,-0.00000188,-0
 .00000200,0.00000446,0.00000048,0.00000263,0.06041231,-0.15977602,0.11
 352057,0.00302599,-0.00300057,0.00362920,-0.06004532,0.16140685,0.0001
 4059,0.00010518,-0.00007873,0.00002602,-0.00009573,0.00010793,0.000487
 49,-0.00005108,0.00037094,0.00007877,-0.00020090,-0.00004547,0.0001150
 2,0.00017301,-0.00002148,0.00001093,0.00000198,0.00001072,0.00010988,-
 0.00006143,-0.00012537,-0.00001520,-0.00001573,0.00000230,-0.00011860,
 -0.00001508,-0.00007983,0.00005191,0.00007621,-0.00007077,-0.00003933,
 -0.00028835,0.00006600,-0.00017214,0.00010283,-0.00002024,-0.00013616,
 -0.00002726,0.00009443,-0.00006291,-0.00015291,-0.00003002,-0.00069617
 ,0.00365023,0.00151876,0.00030492,-0.00096332,0.00020733,0.00024209,-0
 .00003378,-0.00047718,-0.01647504,-0.00024974,-0.01230316,0.00001156,-
 0.00009940,-0.00003801,0.00000307,0.00000845,0.00000841,-0.00000672,0.
 00001344,0.00000313,0.00001050,0.00001015,0.00000404,0.00008035,0.0000
 1234,0.00000969,-0.00000820,-0.00000076,-0.00000573,-0.00001417,-0.000
 00226,0.00000484,-0.00001099,-0.00000623,-0.00000755,0.00003902,0.0000
 2459,0.00004191,-0.00000797,-0.00001515,-0.00000622,-0.00000626,0.0000
 0382,-0.00000040,-0.00000972,-0.00000067,-0.00000578,-0.05908314,0.110
 95699,-0.17343543,-0.00715333,0.01569727,-0.01414037,0.07638399,-0.120
 13990,0.18607021,0.00005360,-0.00001485,-0.00000132,-0.00001205,-0.000
 11596,0.00001602,0.00022179,-0.00010982,-0.00017689,0.00059998,-0.0016
 6662,-0.00084873,0.00021094,0.00016810,-0.00012280,-0.00002127,0.00001
 246,0.00001186,-0.00005883,-0.00000818,0.00001622,0.00000324,0.0000083
 7,-0.00000308,-0.00047796,-0.00004569,-0.00025008,0.00001781,0.0000131
 4,0.00003551,-0.00010608,0.00016241,0.00015792,0.00000901,0.00005192,0
 .00005771,-0.00006912,0.00001750,0.00004107,-0.00004364,-0.00005506,0.
 00000563,-0.00396949,-0.00175557,-0.00193081,-0.00008680,-0.00026478,0
 .00004780,0.00013805,-0.00016716,-0.00044199,0.00625049,-0.03207197,-0
 .01815826,0.00000073,-0.00002945,-0.00004024,-0.00000873,-0.00000169,0
 .00001233,0.00000579,0.00000761,0.00000746,-0.00000709,0.00000865,-0.0
 0000951,0.00002152,0.00000411,0.00000734,-0.00000682,-0.00000031,-0.00
 000247,-0.00000757,-0.00000118,0.00000126,-0.00000219,0.00000010,-0.00
 000120,0.00003222,0.00002138,-0.00000253,-0.00000644,-0.00000814,0.000
 00291,-0.00000523,0.00000265,0.00001835,-0.00001322,-0.00000400,0.0000
 0377,-0.08820685,0.09241304,0.04797880,-0.00546550,0.01880741,0.007644
 35,-0.00255918,0.00814330,0.00591995,0.09356890,0.00012826,0.00002575,
 -0.00003813,-0.00002715,-0.00012372,0.00005883,0.00033023,-0.00018076,
 -0.00005117,0.00056019,-0.00082098,-0.00037515,0.00014571,0.00019148,-
 0.00015194,0.00000012,0.00003177,0.00002837,0.00004506,-0.00002107,-0.
 00007931,-0.00000968,-0.00000075,-0.00000150,-0.00029193,-0.00003692,-
 0.00015544,0.00004908,0.00001760,-0.00003142,-0.00030290,0.00017013,0.
 00000132,-0.00009778,0.00010184,0.00002452,-0.00014248,0.00000685,0.00
 009785,-0.00009702,-0.00013627,-0.00001164,-0.00321685,0.00178103,0.00
 013121,0.00004968,0.00013151,0.00011743,0.00015842,-0.00007282,-0.0001
 8036,-0.00097273,-0.01518039,-0.00974700,0.00000659,-0.00007842,-0.000
 05357,-0.00000138,0.00000594,0.00001293,-0.00000196,0.00001219,0.00000
 682,0.00000553,0.00001003,0.00000285,0.00006268,0.00001051,0.00001200,
 -0.00001047,-0.00000005,-0.00000642,-0.00001608,-0.00000343,0.00000415
 ,-0.00000731,-0.00000219,-0.00000385,0.00005786,0.00003818,0.00004202,
 -0.00000736,-0.00001407,-0.00000286,-0.00000647,0.00000447,0.00000812,
 -0.00001915,-0.00000155,-0.00000462,0.08143905,-0.24183984,-0.09593802
 ,-0.00188325,0.00887604,0.00392581,0.00759521,-0.01447460,-0.00841681,
 -0.08352170,0.26157250,0.00007943,-0.00001872,0.00002172,0.00000171,-0
 .00008343,0.00002936,0.00022245,-0.00014812,-0.00005366,0.00035588,-0.
 00111487,-0.00005151,0.00008065,0.00016294,-0.00012295,-0.00001691,0.0
 0001178,0.00000293,0.00000497,-0.00002946,-0.00000590,-0.00000630,0.00
 000677,-0.00000619,-0.00027351,-0.00001336,-0.00016061,0.00001420,0.00
 001215,-0.00001583,-0.00011925,0.00010774,0.00009204,-0.00004783,0.000
 10373,0.00001703,-0.00010331,0.00000798,0.00004054,-0.00007196,-0.0001
 0195,-0.00001240,-0.00292328,0.00025911,-0.00015265,-0.00000964,-0.000
 48162,0.00000210,-0.00002395,0.00024847,0.00013870,0.00095900,-0.01678
 441,-0.00976258,-0.00000784,-0.00008809,-0.00001950,-0.00000560,0.0000
 0287,0.00001159,0.00000738,0.00001493,0.00000360,-0.00000474,0.0000176
 3,-0.00001882,0.00004993,0.00000665,0.00001214,-0.00000989,0.00000145,
 -0.00000376,-0.00000897,-0.00000070,0.00000214,-0.00000558,-0.00000276
 ,-0.00000443,0.00004518,0.00002921,0.00002922,-0.00000663,-0.00001076,
 -0.00000155,-0.00000429,0.00000411,0.00000702,-0.00001466,-0.00000192,
 -0.00000153,0.04120715,-0.09338565,-0.10035604,0.00807995,-0.01881674,
 -0.00794259,-0.00744738,0.01931007,0.01237107,-0.03999635,0.11077498,0
 .10591129\\-0.00000175,0.00002103,-0.00000052,0.00000082,-0.00001998,-
 0.00000407,0.00000776,0.00000200,0.00000547,-0.00001167,0.00000525,-0.
 00000382,0.00001061,-0.00000670,-0.00001259,0.00000529,0.00000529,0.00
 000371,0.00000183,0.00000247,0.00000166,0.00000554,0.00000144,-0.00000
 280,0.00000490,0.00000508,-0.00000047,-0.00000177,-0.00000377,-0.00000
 072,-0.00000118,0.00000063,0.00000709,-0.00000734,0.00000196,-0.000005
 36,-0.00000213,-0.00000444,-0.00000186,-0.00000693,0.00000176,0.000004
 26,0.00001068,0.00000390,0.00000584,-0.00000265,0.00000177,0.00000446,
 0.00000366,0.00000066,0.00000603,-0.00000230,-0.00000746,0.00000680,0.
 00000403,0.00000645,0.00000666,-0.00000214,-0.00000257,0.00000207,0.00
 000138,0.00000125,0.00000037,0.00000023,0.00000176,0.00000561,-0.00000
 299,-0.00000153,-0.00000756,-0.00000125,-0.00000151,-0.00000696,-0.000
 00538,-0.00000120,-0.00000930,-0.00000188,-0.00000067,-0.00000916,-0.0
 0000023,-0.00000377,-0.00001276,0.00000041,0.00000210,-0.00000920,0.00
 000152,0.00000247,-0.00000515,0.00000301,-0.00000114,-0.00000901,0.000
 00074,-0.00000259,0.00001165,-0.00000192,-0.00000208,0.00001137,-0.000
 00505,-0.00000349,0.00000847,-0.00000384,-0.00000438,0.00000978\\\@


 KEEP CLOSE TO NATURES HEART, YOURSELF;
 AND BREAK CLEAR AWAY, ONCE IN A WHILE, AND
 CLIMB A MOUNTAIN OR SPEND A WEEK IN THE
 WOODS.  WASH YOUR SPIRIT CLEAN...
                                         -- JOHN MUIR
 Job cpu time:       0 days  1 hours 14 minutes 41.3 seconds.
 Elapsed time:       0 days  0 hours 18 minutes 40.8 seconds.
 File lengths (MBytes):  RWF=    380 Int=      0 D2E=      0 Chk=     17 Scr=      1
 Normal termination of Gaussian 16 at Fri May 24 08:53:39 2019.
