 Entering Gaussian System, Link 0=g16
 Input=clay_new-glu_gluC6-bisCF3-sm-b1b95-631gd-pcm_thf.gjf
 Output=clay_new-glu_gluC6-bisCF3-sm-b1b95-631gd-pcm_thf.out
 Initial command:
 /home/ekwan/sw/g16/l1.exe "/scratch/users/ekwan/clay_new-glu_gluC6-bisCF3-sm-b1b95-631gd-pcm_thf/Gau-54973.inp" -scrdir="/scratch/users/ekwan/clay_new-glu_gluC6-bisCF3-sm-b1b95-631gd-pcm_thf/"
 Entering Link 1 = /home/ekwan/sw/g16/l1.exe PID=     54974.
  
 Copyright (c) 1988,1990,1992,1993,1995,1998,2003,2009,2016,
            Gaussian, Inc.  All Rights Reserved.
  
 This is part of the Gaussian(R) 16 program.  It is based on
 the Gaussian(R) 09 system (copyright 2009, Gaussian, Inc.),
 the Gaussian(R) 03 system (copyright 2003, Gaussian, Inc.),
 the Gaussian(R) 98 system (copyright 1998, Gaussian, Inc.),
 the Gaussian(R) 94 system (copyright 1995, Gaussian, Inc.),
 the Gaussian 92(TM) system (copyright 1992, Gaussian, Inc.),
 the Gaussian 90(TM) system (copyright 1990, Gaussian, Inc.),
 the Gaussian 88(TM) system (copyright 1988, Gaussian, Inc.),
 the Gaussian 86(TM) system (copyright 1986, Carnegie Mellon
 University), and the Gaussian 82(TM) system (copyright 1983,
 Carnegie Mellon University). Gaussian is a federally registered
 trademark of Gaussian, Inc.
  
 This software contains proprietary and confidential information,
 including trade secrets, belonging to Gaussian, Inc.
  
 This software is provided under written license and may be
 used, copied, transmitted, or stored only in accord with that
 written license.
  
 The following legend is applicable only to US Government
 contracts under FAR:
  
                    RESTRICTED RIGHTS LEGEND
  
 Use, reproduction and disclosure by the US Government is
 subject to restrictions as set forth in subparagraphs (a)
 and (c) of the Commercial Computer Software - Restricted
 Rights clause in FAR 52.227-19.
  
 Gaussian, Inc.
 340 Quinnipiac St., Bldg. 40, Wallingford CT 06492
  
  
 ---------------------------------------------------------------
 Warning -- This program may not be used in any manner that
 competes with the business of Gaussian, Inc. or will provide
 assistance to any competitor of Gaussian, Inc.  The licensee
 of this program is prohibited from giving any competitor of
 Gaussian, Inc. access to this program.  By using this program,
 the user acknowledges that Gaussian, Inc. is engaged in the
 business of creating and licensing software in the field of
 computational chemistry and represents and warrants to the
 licensee that it is not a competitor of Gaussian, Inc. and that
 it will not use this program in any manner prohibited above.
 ---------------------------------------------------------------
  

 Cite this work as:
 Gaussian 16, Revision A.03,
 M. J. Frisch, G. W. Trucks, H. B. Schlegel, G. E. Scuseria, 
 M. A. Robb, J. R. Cheeseman, G. Scalmani, V. Barone, 
 G. A. Petersson, H. Nakatsuji, X. Li, M. Caricato, A. V. Marenich, 
 J. Bloino, B. G. Janesko, R. Gomperts, B. Mennucci, H. P. Hratchian, 
 J. V. Ortiz, A. F. Izmaylov, J. L. Sonnenberg, D. Williams-Young, 
 F. Ding, F. Lipparini, F. Egidi, J. Goings, B. Peng, A. Petrone, 
 T. Henderson, D. Ranasinghe, V. G. Zakrzewski, J. Gao, N. Rega, 
 G. Zheng, W. Liang, M. Hada, M. Ehara, K. Toyota, R. Fukuda, 
 J. Hasegawa, M. Ishida, T. Nakajima, Y. Honda, O. Kitao, H. Nakai, 
 T. Vreven, K. Throssell, J. A. Montgomery, Jr., J. E. Peralta, 
 F. Ogliaro, M. J. Bearpark, J. J. Heyd, E. N. Brothers, K. N. Kudin, 
 V. N. Staroverov, T. A. Keith, R. Kobayashi, J. Normand, 
 K. Raghavachari, A. P. Rendell, J. C. Burant, S. S. Iyengar, 
 J. Tomasi, M. Cossi, J. M. Millam, M. Klene, C. Adamo, R. Cammi, 
 J. W. Ochterski, R. L. Martin, K. Morokuma, O. Farkas, 
 J. B. Foresman, and D. J. Fox, Gaussian, Inc., Wallingford CT, 2016.
 
 ******************************************
 Gaussian 16:  AS64L-G16RevA.03 25-Dec-2016
                 9-Jun-2019 
 ******************************************
 %nprocshared=64
 Will use up to   64 processors via shared memory.
 %mem=96GB
 ----------------------------------------------------------------------
 #p opt freq=noraman 6-31g(d) scrf=(solvent=tetrahydrofuran,pcm) pop=no
 ne b1b95
 ----------------------------------------------------------------------
 1/18=20,19=15,26=3,38=1/1,3;
 2/9=110,12=2,17=6,18=5,40=1/2;
 3/5=1,6=6,7=1,11=2,25=1,30=1,70=2201,71=1,72=20,74=-17/1,2,3;
 4//1;
 5/5=2,38=5,53=20/2;
 7//1,2,3,16;
 1/18=20,19=15,26=3/3(2);
 2/9=110/2;
 99//99;
 2/9=110/2;
 3/5=1,6=6,7=1,11=2,25=1,30=1,70=2205,71=1,72=20,74=-17/1,2,3;
 4/5=5,16=3,69=1/1;
 5/5=2,38=5,53=20/2;
 7//1,2,3,16;
 1/18=20,19=15,26=3/3(-5);
 2/9=110/2;
 99/9=1/99;
 Leave Link    1 at Sun Jun  9 23:17:34 2019, MaxMem= 12884901888 cpu:              18.7 elap:               0.3
 (Enter /home/ekwan/sw/g16/l101.exe)
 -----
 title
 -----
 Symbolic Z-matrix:
 Charge =  0 Multiplicity = 1
 C                     3.48452  -0.06918   0.70463 
 C                     3.34416  -0.45529  -0.76202 
 C                     1.87476  -0.44808  -1.19143 
 C                     1.25845   1.08037   0.50958 
 C                     2.69855   1.20052   0.99171 
 H                     1.76141  -0.58767  -2.26538 
 H                     3.84381   0.31334  -1.37099 
 H                     3.07937  -0.87964   1.32497 
 H                     0.7521    0.29473   1.08531 
 H                     3.17149   2.03619   0.46239 
 O                     1.22546   0.72845  -0.87943 
 O                     1.26706  -1.58071  -0.5212 
 O                     3.9506   -1.70205  -0.94924 
 O                     4.83118   0.17666   1.03317 
 O                     2.66795   1.44638   2.37807 
 C                     0.47949   2.36902   0.70359 
 H                     0.31807   2.4887    1.77623 
 H                    -0.49713   2.27443   0.21192 
 O                     1.14195   3.53149   0.27491 
 S                    -0.02922  -2.27247  -1.18875 
 O                    -0.10903  -3.57482  -0.56675 
 O                     0.05749  -2.11957  -2.62959 
 C                    -1.38339  -1.28921  -0.60362 
 C                    -1.98543  -1.62697   0.59966 
 C                    -1.8181   -0.21683  -1.36902 
 C                    -3.0509   -0.85644   1.04583 
 H                    -1.63467  -2.47858   1.16893 
 C                    -2.88133   0.54163  -0.89999 
 H                    -1.3428    0.01276  -2.31387 
 C                    -3.50018   0.22765   0.30367 
 H                    -4.33176   0.82264   0.65968 
 C                     4.08615  -2.08823  -2.30066 
 H                     3.12354  -2.36558  -2.74602 
 H                     4.54047  -1.28935  -2.89926 
 H                     4.73885  -2.96035  -2.31507 
 C                     5.49891  -0.91747   1.62714 
 H                     6.5073   -0.57663   1.86434 
 H                     5.00175  -1.2254    2.55501 
 H                     5.55428  -1.77311   0.94974 
 C                     3.43471   2.5661    2.77189 
 H                     3.32449   2.66031   3.85273 
 H                     4.49174   2.42564   2.52682 
 H                     3.06835   3.48007   2.2908 
 C                     1.08808   3.7618   -1.11729 
 H                     1.40761   4.79187  -1.27996 
 H                     0.06555   3.64076  -1.49506 
 H                     1.74743   3.08954  -1.67369 
 C                    -3.75947  -1.23314   2.31541 
 F                    -2.93221  -1.83639   3.17747 
 F                    -4.77202  -2.07937   2.07801 
 F                    -4.27679  -0.15827   2.92372 
 C                    -3.33405   1.74338  -1.67724 
 F                    -2.69359   2.85512  -1.27269 
 F                    -4.64329   1.96782  -1.51902 
 F                    -3.09259   1.60446  -2.98526 
 
 ITRead=  0  0  0  0  0  0  0  0  0  0  0  0  0  0  0  0  0  0  0  0
 ITRead=  0  0  0  0  0  0  0  0  0  0  0  0  0  0  0  0  0  0  0  0
 ITRead=  0  0  0  0  0  0  0  0  0  0  0  0  0  0  0
 MicOpt= -1 -1 -1 -1 -1 -1 -1 -1 -1 -1 -1 -1 -1 -1 -1 -1 -1 -1 -1 -1
 MicOpt= -1 -1 -1 -1 -1 -1 -1 -1 -1 -1 -1 -1 -1 -1 -1 -1 -1 -1 -1 -1
 MicOpt= -1 -1 -1 -1 -1 -1 -1 -1 -1 -1 -1 -1 -1 -1 -1
 NAtoms=     55 NQM=       55 NQMF=       0 NMMI=      0 NMMIF=      0
                NMic=       0 NMicF=      0.
                    Isotopes and Nuclear Properties:
 (Nuclear quadrupole moments (NQMom) in fm**2, nuclear magnetic moments (NMagM)
  in nuclear magnetons)

  Atom         1           2           3           4           5           6           7           8           9          10
 IAtWgt=          12          12          12          12          12           1           1           1           1           1
 AtmWgt=  12.0000000  12.0000000  12.0000000  12.0000000  12.0000000   1.0078250   1.0078250   1.0078250   1.0078250   1.0078250
 NucSpn=           0           0           0           0           0           1           1           1           1           1
 AtZEff=   0.0000000   0.0000000   0.0000000   0.0000000   0.0000000   0.0000000   0.0000000   0.0000000   0.0000000   0.0000000
 NQMom=    0.0000000   0.0000000   0.0000000   0.0000000   0.0000000   0.0000000   0.0000000   0.0000000   0.0000000   0.0000000
 NMagM=    0.0000000   0.0000000   0.0000000   0.0000000   0.0000000   2.7928460   2.7928460   2.7928460   2.7928460   2.7928460
 AtZNuc=   6.0000000   6.0000000   6.0000000   6.0000000   6.0000000   1.0000000   1.0000000   1.0000000   1.0000000   1.0000000

  Atom        11          12          13          14          15          16          17          18          19          20
 IAtWgt=          16          16          16          16          16          12           1           1          16          32
 AtmWgt=  15.9949146  15.9949146  15.9949146  15.9949146  15.9949146  12.0000000   1.0078250   1.0078250  15.9949146  31.9720718
 NucSpn=           0           0           0           0           0           0           1           1           0           0
 AtZEff=   0.0000000   0.0000000   0.0000000   0.0000000   0.0000000   0.0000000   0.0000000   0.0000000   0.0000000   0.0000000
 NQMom=    0.0000000   0.0000000   0.0000000   0.0000000   0.0000000   0.0000000   0.0000000   0.0000000   0.0000000   0.0000000
 NMagM=    0.0000000   0.0000000   0.0000000   0.0000000   0.0000000   0.0000000   2.7928460   2.7928460   0.0000000   0.0000000
 AtZNuc=   8.0000000   8.0000000   8.0000000   8.0000000   8.0000000   6.0000000   1.0000000   1.0000000   8.0000000  16.0000000

  Atom        21          22          23          24          25          26          27          28          29          30
 IAtWgt=          16          16          12          12          12          12           1          12           1          12
 AtmWgt=  15.9949146  15.9949146  12.0000000  12.0000000  12.0000000  12.0000000   1.0078250  12.0000000   1.0078250  12.0000000
 NucSpn=           0           0           0           0           0           0           1           0           1           0
 AtZEff=   0.0000000   0.0000000   0.0000000   0.0000000   0.0000000   0.0000000   0.0000000   0.0000000   0.0000000   0.0000000
 NQMom=    0.0000000   0.0000000   0.0000000   0.0000000   0.0000000   0.0000000   0.0000000   0.0000000   0.0000000   0.0000000
 NMagM=    0.0000000   0.0000000   0.0000000   0.0000000   0.0000000   0.0000000   2.7928460   0.0000000   2.7928460   0.0000000
 AtZNuc=   8.0000000   8.0000000   6.0000000   6.0000000   6.0000000   6.0000000   1.0000000   6.0000000   1.0000000   6.0000000

  Atom        31          32          33          34          35          36          37          38          39          40
 IAtWgt=           1          12           1           1           1          12           1           1           1          12
 AtmWgt=   1.0078250  12.0000000   1.0078250   1.0078250   1.0078250  12.0000000   1.0078250   1.0078250   1.0078250  12.0000000
 NucSpn=           1           0           1           1           1           0           1           1           1           0
 AtZEff=   0.0000000   0.0000000   0.0000000   0.0000000   0.0000000   0.0000000   0.0000000   0.0000000   0.0000000   0.0000000
 NQMom=    0.0000000   0.0000000   0.0000000   0.0000000   0.0000000   0.0000000   0.0000000   0.0000000   0.0000000   0.0000000
 NMagM=    2.7928460   0.0000000   2.7928460   2.7928460   2.7928460   0.0000000   2.7928460   2.7928460   2.7928460   0.0000000
 AtZNuc=   1.0000000   6.0000000   1.0000000   1.0000000   1.0000000   6.0000000   1.0000000   1.0000000   1.0000000   6.0000000

  Atom        41          42          43          44          45          46          47          48          49          50
 IAtWgt=           1           1           1          12           1           1           1          12          19          19
 AtmWgt=   1.0078250   1.0078250   1.0078250  12.0000000   1.0078250   1.0078250   1.0078250  12.0000000  18.9984033  18.9984033
 NucSpn=           1           1           1           0           1           1           1           0           1           1
 AtZEff=   0.0000000   0.0000000   0.0000000   0.0000000   0.0000000   0.0000000   0.0000000   0.0000000   0.0000000   0.0000000
 NQMom=    0.0000000   0.0000000   0.0000000   0.0000000   0.0000000   0.0000000   0.0000000   0.0000000   0.0000000   0.0000000
 NMagM=    2.7928460   2.7928460   2.7928460   0.0000000   2.7928460   2.7928460   2.7928460   0.0000000   2.6288670   2.6288670
 AtZNuc=   1.0000000   1.0000000   1.0000000   6.0000000   1.0000000   1.0000000   1.0000000   6.0000000   9.0000000   9.0000000

  Atom        51          52          53          54          55
 IAtWgt=          19          12          19          19          19
 AtmWgt=  18.9984033  12.0000000  18.9984033  18.9984033  18.9984033
 NucSpn=           1           0           1           1           1
 AtZEff=   0.0000000   0.0000000   0.0000000   0.0000000   0.0000000
 NQMom=    0.0000000   0.0000000   0.0000000   0.0000000   0.0000000
 NMagM=    2.6288670   0.0000000   2.6288670   2.6288670   2.6288670
 AtZNuc=   9.0000000   6.0000000   9.0000000   9.0000000   9.0000000
 Leave Link  101 at Sun Jun  9 23:17:35 2019, MaxMem= 12884901888 cpu:              37.0 elap:               0.6
 (Enter /home/ekwan/sw/g16/l103.exe)

 GradGradGradGradGradGradGradGradGradGradGradGradGradGradGradGradGradGrad
 Berny optimization.
 Initialization pass.
                           ----------------------------
                           !    Initial Parameters    !
                           ! (Angstroms and Degrees)  !
 --------------------------                            --------------------------
 ! Name  Definition              Value          Derivative Info.                !
 --------------------------------------------------------------------------------
 ! R1    R(1,2)                  1.5231         estimate D2E/DX2                !
 ! R2    R(1,5)                  1.5206         estimate D2E/DX2                !
 ! R3    R(1,8)                  1.0981         estimate D2E/DX2                !
 ! R4    R(1,14)                 1.4078         estimate D2E/DX2                !
 ! R5    R(2,3)                  1.5309         estimate D2E/DX2                !
 ! R6    R(2,7)                  1.1006         estimate D2E/DX2                !
 ! R7    R(2,13)                 1.399          estimate D2E/DX2                !
 ! R8    R(3,6)                  1.0889         estimate D2E/DX2                !
 ! R9    R(3,11)                 1.3796         estimate D2E/DX2                !
 ! R10   R(3,12)                 1.4496         estimate D2E/DX2                !
 ! R11   R(4,5)                  1.5234         estimate D2E/DX2                !
 ! R12   R(4,9)                  1.0978         estimate D2E/DX2                !
 ! R13   R(4,11)                 1.4333         estimate D2E/DX2                !
 ! R14   R(4,16)                 1.5182         estimate D2E/DX2                !
 ! R15   R(5,10)                 1.0965         estimate D2E/DX2                !
 ! R16   R(5,15)                 1.4083         estimate D2E/DX2                !
 ! R17   R(12,20)                1.6138         estimate D2E/DX2                !
 ! R18   R(13,32)                1.412          estimate D2E/DX2                !
 ! R19   R(14,36)                1.4127         estimate D2E/DX2                !
 ! R20   R(15,40)                1.4131         estimate D2E/DX2                !
 ! R21   R(16,17)                1.0913         estimate D2E/DX2                !
 ! R22   R(16,18)                1.0975         estimate D2E/DX2                !
 ! R23   R(16,19)                1.405          estimate D2E/DX2                !
 ! R24   R(19,44)                1.4121         estimate D2E/DX2                !
 ! R25   R(20,21)                1.4455         estimate D2E/DX2                !
 ! R26   R(20,22)                1.4515         estimate D2E/DX2                !
 ! R27   R(20,23)                1.7728         estimate D2E/DX2                !
 ! R28   R(23,24)                1.3872         estimate D2E/DX2                !
 ! R29   R(23,25)                1.3874         estimate D2E/DX2                !
 ! R30   R(24,26)                1.3885         estimate D2E/DX2                !
 ! R31   R(24,27)                1.0827         estimate D2E/DX2                !
 ! R32   R(25,28)                1.3877         estimate D2E/DX2                !
 ! R33   R(25,29)                1.0823         estimate D2E/DX2                !
 ! R34   R(26,30)                1.3885         estimate D2E/DX2                !
 ! R35   R(26,48)                1.5019         estimate D2E/DX2                !
 ! R36   R(28,30)                1.3894         estimate D2E/DX2                !
 ! R37   R(28,52)                1.5011         estimate D2E/DX2                !
 ! R38   R(30,31)                1.0827         estimate D2E/DX2                !
 ! R39   R(32,33)                1.0963         estimate D2E/DX2                !
 ! R40   R(32,34)                1.0968         estimate D2E/DX2                !
 ! R41   R(32,35)                1.0894         estimate D2E/DX2                !
 ! R42   R(36,37)                1.0905         estimate D2E/DX2                !
 ! R43   R(36,38)                1.0968         estimate D2E/DX2                !
 ! R44   R(36,39)                1.0927         estimate D2E/DX2                !
 ! R45   R(40,41)                1.0905         estimate D2E/DX2                !
 ! R46   R(40,42)                1.0941         estimate D2E/DX2                !
 ! R47   R(40,43)                1.0959         estimate D2E/DX2                !
 ! R48   R(44,45)                1.0907         estimate D2E/DX2                !
 ! R49   R(44,46)                1.0968         estimate D2E/DX2                !
 ! R50   R(44,47)                1.0937         estimate D2E/DX2                !
 ! R51   R(48,49)                1.3384         estimate D2E/DX2                !
 ! R52   R(48,50)                1.3408         estimate D2E/DX2                !
 ! R53   R(48,51)                1.339          estimate D2E/DX2                !
 ! R54   R(52,53)                1.3453         estimate D2E/DX2                !
 ! R55   R(52,54)                1.3377         estimate D2E/DX2                !
 ! R56   R(52,55)                1.3374         estimate D2E/DX2                !
 ! A1    A(2,1,5)              110.2325         estimate D2E/DX2                !
 ! A2    A(2,1,8)              108.8373         estimate D2E/DX2                !
 ! A3    A(2,1,14)             110.9247         estimate D2E/DX2                !
 ! A4    A(5,1,8)              108.5974         estimate D2E/DX2                !
 ! A5    A(5,1,14)             107.7315         estimate D2E/DX2                !
 ! A6    A(8,1,14)             110.4867         estimate D2E/DX2                !
 ! A7    A(1,2,3)              110.9383         estimate D2E/DX2                !
 ! A8    A(1,2,7)              108.2962         estimate D2E/DX2                !
 ! A9    A(1,2,13)             108.3505         estimate D2E/DX2                !
 ! A10   A(3,2,7)              106.0975         estimate D2E/DX2                !
 ! A11   A(3,2,13)             112.5026         estimate D2E/DX2                !
 ! A12   A(7,2,13)             110.5813         estimate D2E/DX2                !
 ! A13   A(2,3,6)              112.0839         estimate D2E/DX2                !
 ! A14   A(2,3,11)             113.1001         estimate D2E/DX2                !
 ! A15   A(2,3,12)             105.6058         estimate D2E/DX2                !
 ! A16   A(6,3,11)             106.4623         estimate D2E/DX2                !
 ! A17   A(6,3,12)             108.1922         estimate D2E/DX2                !
 ! A18   A(11,3,12)            111.375          estimate D2E/DX2                !
 ! A19   A(5,4,9)              109.0562         estimate D2E/DX2                !
 ! A20   A(5,4,11)             110.3551         estimate D2E/DX2                !
 ! A21   A(5,4,16)             112.1867         estimate D2E/DX2                !
 ! A22   A(9,4,11)             108.7792         estimate D2E/DX2                !
 ! A23   A(9,4,16)             107.6844         estimate D2E/DX2                !
 ! A24   A(11,4,16)            108.6889         estimate D2E/DX2                !
 ! A25   A(1,5,4)              111.2844         estimate D2E/DX2                !
 ! A26   A(1,5,10)             108.8025         estimate D2E/DX2                !
 ! A27   A(1,5,15)             110.0505         estimate D2E/DX2                !
 ! A28   A(4,5,10)             108.3652         estimate D2E/DX2                !
 ! A29   A(4,5,15)             107.7445         estimate D2E/DX2                !
 ! A30   A(10,5,15)            110.5824         estimate D2E/DX2                !
 ! A31   A(3,11,4)             114.6918         estimate D2E/DX2                !
 ! A32   A(3,12,20)            118.7108         estimate D2E/DX2                !
 ! A33   A(2,13,32)            114.4199         estimate D2E/DX2                !
 ! A34   A(1,14,36)            114.5197         estimate D2E/DX2                !
 ! A35   A(5,15,40)            113.6337         estimate D2E/DX2                !
 ! A36   A(4,16,17)            107.1319         estimate D2E/DX2                !
 ! A37   A(4,16,18)            109.0362         estimate D2E/DX2                !
 ! A38   A(4,16,19)            114.9209         estimate D2E/DX2                !
 ! A39   A(17,16,18)           108.5518         estimate D2E/DX2                !
 ! A40   A(17,16,19)           106.1949         estimate D2E/DX2                !
 ! A41   A(18,16,19)           110.745          estimate D2E/DX2                !
 ! A42   A(16,19,44)           114.6934         estimate D2E/DX2                !
 ! A43   A(12,20,21)           104.6288         estimate D2E/DX2                !
 ! A44   A(12,20,22)           108.5093         estimate D2E/DX2                !
 ! A45   A(12,20,23)           103.844          estimate D2E/DX2                !
 ! A46   A(21,20,22)           121.6918         estimate D2E/DX2                !
 ! A47   A(21,20,23)           108.3917         estimate D2E/DX2                !
 ! A48   A(22,20,23)           108.3508         estimate D2E/DX2                !
 ! A49   A(20,23,24)           118.8648         estimate D2E/DX2                !
 ! A50   A(20,23,25)           119.0746         estimate D2E/DX2                !
 ! A51   A(24,23,25)           122.0563         estimate D2E/DX2                !
 ! A52   A(23,24,26)           118.465          estimate D2E/DX2                !
 ! A53   A(23,24,27)           120.4615         estimate D2E/DX2                !
 ! A54   A(26,24,27)           121.0709         estimate D2E/DX2                !
 ! A55   A(23,25,28)           118.4288         estimate D2E/DX2                !
 ! A56   A(23,25,29)           120.5304         estimate D2E/DX2                !
 ! A57   A(28,25,29)           121.0378         estimate D2E/DX2                !
 ! A58   A(24,26,30)           120.6511         estimate D2E/DX2                !
 ! A59   A(24,26,48)           119.6335         estimate D2E/DX2                !
 ! A60   A(30,26,48)           119.6685         estimate D2E/DX2                !
 ! A61   A(25,28,30)           120.7017         estimate D2E/DX2                !
 ! A62   A(25,28,52)           119.5795         estimate D2E/DX2                !
 ! A63   A(30,28,52)           119.6808         estimate D2E/DX2                !
 ! A64   A(26,30,28)           119.6946         estimate D2E/DX2                !
 ! A65   A(26,30,31)           120.1211         estimate D2E/DX2                !
 ! A66   A(28,30,31)           120.1838         estimate D2E/DX2                !
 ! A67   A(13,32,33)           111.9432         estimate D2E/DX2                !
 ! A68   A(13,32,34)           111.2791         estimate D2E/DX2                !
 ! A69   A(13,32,35)           106.8051         estimate D2E/DX2                !
 ! A70   A(33,32,34)           109.0424         estimate D2E/DX2                !
 ! A71   A(33,32,35)           108.552          estimate D2E/DX2                !
 ! A72   A(34,32,35)           109.13           estimate D2E/DX2                !
 ! A73   A(14,36,37)           106.6452         estimate D2E/DX2                !
 ! A74   A(14,36,38)           111.0317         estimate D2E/DX2                !
 ! A75   A(14,36,39)           111.7005         estimate D2E/DX2                !
 ! A76   A(37,36,38)           108.8372         estimate D2E/DX2                !
 ! A77   A(37,36,39)           109.4336         estimate D2E/DX2                !
 ! A78   A(38,36,39)           109.121          estimate D2E/DX2                !
 ! A79   A(15,40,41)           106.8475         estimate D2E/DX2                !
 ! A80   A(15,40,42)           111.1048         estimate D2E/DX2                !
 ! A81   A(15,40,43)           110.9225         estimate D2E/DX2                !
 ! A82   A(41,40,42)           109.313          estimate D2E/DX2                !
 ! A83   A(41,40,43)           109.224          estimate D2E/DX2                !
 ! A84   A(42,40,43)           109.3727         estimate D2E/DX2                !
 ! A85   A(19,44,45)           106.8519         estimate D2E/DX2                !
 ! A86   A(19,44,46)           110.9247         estimate D2E/DX2                !
 ! A87   A(19,44,47)           112.2272         estimate D2E/DX2                !
 ! A88   A(45,44,46)           109.0253         estimate D2E/DX2                !
 ! A89   A(45,44,47)           109.1474         estimate D2E/DX2                !
 ! A90   A(46,44,47)           108.6008         estimate D2E/DX2                !
 ! A91   A(26,48,49)           111.4621         estimate D2E/DX2                !
 ! A92   A(26,48,50)           111.4019         estimate D2E/DX2                !
 ! A93   A(26,48,51)           111.4044         estimate D2E/DX2                !
 ! A94   A(49,48,50)           107.2379         estimate D2E/DX2                !
 ! A95   A(49,48,51)           107.9376         estimate D2E/DX2                !
 ! A96   A(50,48,51)           107.1762         estimate D2E/DX2                !
 ! A97   A(28,52,53)           111.2425         estimate D2E/DX2                !
 ! A98   A(28,52,54)           111.6075         estimate D2E/DX2                !
 ! A99   A(28,52,55)           111.6428         estimate D2E/DX2                !
 ! A100  A(53,52,54)           106.9609         estimate D2E/DX2                !
 ! A101  A(53,52,55)           107.0978         estimate D2E/DX2                !
 ! A102  A(54,52,55)           108.0477         estimate D2E/DX2                !
 ! D1    D(5,1,2,3)            -49.3675         estimate D2E/DX2                !
 ! D2    D(5,1,2,7)             66.6852         estimate D2E/DX2                !
 ! D3    D(5,1,2,13)          -173.3304         estimate D2E/DX2                !
 ! D4    D(8,1,2,3)             69.6361         estimate D2E/DX2                !
 ! D5    D(8,1,2,7)           -174.3112         estimate D2E/DX2                !
 ! D6    D(8,1,2,13)           -54.3268         estimate D2E/DX2                !
 ! D7    D(14,1,2,3)          -168.6048         estimate D2E/DX2                !
 ! D8    D(14,1,2,7)           -52.5521         estimate D2E/DX2                !
 ! D9    D(14,1,2,13)           67.4323         estimate D2E/DX2                !
 ! D10   D(2,1,5,4)             52.0725         estimate D2E/DX2                !
 ! D11   D(2,1,5,10)           -67.2576         estimate D2E/DX2                !
 ! D12   D(2,1,5,15)           171.4372         estimate D2E/DX2                !
 ! D13   D(8,1,5,4)            -67.0773         estimate D2E/DX2                !
 ! D14   D(8,1,5,10)           173.5927         estimate D2E/DX2                !
 ! D15   D(8,1,5,15)            52.2874         estimate D2E/DX2                !
 ! D16   D(14,1,5,4)           173.2345         estimate D2E/DX2                !
 ! D17   D(14,1,5,10)           53.9044         estimate D2E/DX2                !
 ! D18   D(14,1,5,15)          -67.4008         estimate D2E/DX2                !
 ! D19   D(2,1,14,36)          -97.0207         estimate D2E/DX2                !
 ! D20   D(5,1,14,36)          142.2507         estimate D2E/DX2                !
 ! D21   D(8,1,14,36)           23.768          estimate D2E/DX2                !
 ! D22   D(1,2,3,6)            172.2061         estimate D2E/DX2                !
 ! D23   D(1,2,3,11)            51.839          estimate D2E/DX2                !
 ! D24   D(1,2,3,12)           -70.2034         estimate D2E/DX2                !
 ! D25   D(7,2,3,6)             54.8019         estimate D2E/DX2                !
 ! D26   D(7,2,3,11)           -65.5652         estimate D2E/DX2                !
 ! D27   D(7,2,3,12)           172.3924         estimate D2E/DX2                !
 ! D28   D(13,2,3,6)           -66.2347         estimate D2E/DX2                !
 ! D29   D(13,2,3,11)          173.3981         estimate D2E/DX2                !
 ! D30   D(13,2,3,12)           51.3557         estimate D2E/DX2                !
 ! D31   D(1,2,13,32)         -170.3167         estimate D2E/DX2                !
 ! D32   D(3,2,13,32)           66.6622         estimate D2E/DX2                !
 ! D33   D(7,2,13,32)          -51.7716         estimate D2E/DX2                !
 ! D34   D(2,3,11,4)           -56.8768         estimate D2E/DX2                !
 ! D35   D(6,3,11,4)           179.6017         estimate D2E/DX2                !
 ! D36   D(12,3,11,4)           61.875          estimate D2E/DX2                !
 ! D37   D(2,3,12,20)         -153.4654         estimate D2E/DX2                !
 ! D38   D(6,3,12,20)          -33.2875         estimate D2E/DX2                !
 ! D39   D(11,3,12,20)          83.3891         estimate D2E/DX2                !
 ! D40   D(9,4,5,1)             64.5355         estimate D2E/DX2                !
 ! D41   D(9,4,5,10)          -175.8741         estimate D2E/DX2                !
 ! D42   D(9,4,5,15)           -56.194          estimate D2E/DX2                !
 ! D43   D(11,4,5,1)           -54.8988         estimate D2E/DX2                !
 ! D44   D(11,4,5,10)           64.6915         estimate D2E/DX2                !
 ! D45   D(11,4,5,15)         -175.6283         estimate D2E/DX2                !
 ! D46   D(16,4,5,1)          -176.2581         estimate D2E/DX2                !
 ! D47   D(16,4,5,10)          -56.6678         estimate D2E/DX2                !
 ! D48   D(16,4,5,15)           63.0124         estimate D2E/DX2                !
 ! D49   D(5,4,11,3)            58.0011         estimate D2E/DX2                !
 ! D50   D(9,4,11,3)           -61.6009         estimate D2E/DX2                !
 ! D51   D(16,4,11,3)         -178.5843         estimate D2E/DX2                !
 ! D52   D(5,4,16,17)          -70.7911         estimate D2E/DX2                !
 ! D53   D(5,4,16,18)          171.9153         estimate D2E/DX2                !
 ! D54   D(5,4,16,19)           46.9218         estimate D2E/DX2                !
 ! D55   D(9,4,16,17)           49.217          estimate D2E/DX2                !
 ! D56   D(9,4,16,18)          -68.0767         estimate D2E/DX2                !
 ! D57   D(9,4,16,19)          166.9298         estimate D2E/DX2                !
 ! D58   D(11,4,16,17)         166.8981         estimate D2E/DX2                !
 ! D59   D(11,4,16,18)          49.6044         estimate D2E/DX2                !
 ! D60   D(11,4,16,19)         -75.3891         estimate D2E/DX2                !
 ! D61   D(1,5,15,40)          110.1423         estimate D2E/DX2                !
 ! D62   D(4,5,15,40)         -128.357          estimate D2E/DX2                !
 ! D63   D(10,5,15,40)         -10.093          estimate D2E/DX2                !
 ! D64   D(3,12,20,21)         161.4963         estimate D2E/DX2                !
 ! D65   D(3,12,20,22)          30.2001         estimate D2E/DX2                !
 ! D66   D(3,12,20,23)         -84.9154         estimate D2E/DX2                !
 ! D67   D(2,13,32,33)         -72.4064         estimate D2E/DX2                !
 ! D68   D(2,13,32,34)          49.8961         estimate D2E/DX2                !
 ! D69   D(2,13,32,35)         168.9088         estimate D2E/DX2                !
 ! D70   D(1,14,36,37)        -177.6787         estimate D2E/DX2                !
 ! D71   D(1,14,36,38)         -59.2536         estimate D2E/DX2                !
 ! D72   D(1,14,36,39)          62.801          estimate D2E/DX2                !
 ! D73   D(5,15,40,41)         179.3706         estimate D2E/DX2                !
 ! D74   D(5,15,40,42)         -61.4672         estimate D2E/DX2                !
 ! D75   D(5,15,40,43)          60.4181         estimate D2E/DX2                !
 ! D76   D(4,16,19,44)          79.9349         estimate D2E/DX2                !
 ! D77   D(17,16,19,44)       -161.8242         estimate D2E/DX2                !
 ! D78   D(18,16,19,44)        -44.1604         estimate D2E/DX2                !
 ! D79   D(16,19,44,45)        166.0627         estimate D2E/DX2                !
 ! D80   D(16,19,44,46)         47.3458         estimate D2E/DX2                !
 ! D81   D(16,19,44,47)        -74.3328         estimate D2E/DX2                !
 ! D82   D(12,20,23,24)        -88.5612         estimate D2E/DX2                !
 ! D83   D(12,20,23,25)         92.1797         estimate D2E/DX2                !
 ! D84   D(21,20,23,24)         22.2968         estimate D2E/DX2                !
 ! D85   D(21,20,23,25)       -156.9624         estimate D2E/DX2                !
 ! D86   D(22,20,23,24)        156.2111         estimate D2E/DX2                !
 ! D87   D(22,20,23,25)        -23.0481         estimate D2E/DX2                !
 ! D88   D(20,23,24,26)       -179.5885         estimate D2E/DX2                !
 ! D89   D(20,23,24,27)         -0.1704         estimate D2E/DX2                !
 ! D90   D(25,23,24,26)         -0.3525         estimate D2E/DX2                !
 ! D91   D(25,23,24,27)        179.0656         estimate D2E/DX2                !
 ! D92   D(20,23,25,28)        179.833          estimate D2E/DX2                !
 ! D93   D(20,23,25,29)          0.4559         estimate D2E/DX2                !
 ! D94   D(24,23,25,28)          0.5985         estimate D2E/DX2                !
 ! D95   D(24,23,25,29)       -178.7786         estimate D2E/DX2                !
 ! D96   D(23,24,26,30)         -0.0865         estimate D2E/DX2                !
 ! D97   D(23,24,26,48)        177.4156         estimate D2E/DX2                !
 ! D98   D(27,24,26,30)       -179.5008         estimate D2E/DX2                !
 ! D99   D(27,24,26,48)         -1.9988         estimate D2E/DX2                !
 ! D100  D(23,25,28,30)         -0.4106         estimate D2E/DX2                !
 ! D101  D(23,25,28,52)        177.341          estimate D2E/DX2                !
 ! D102  D(29,25,28,30)        178.9631         estimate D2E/DX2                !
 ! D103  D(29,25,28,52)         -3.2853         estimate D2E/DX2                !
 ! D104  D(24,26,30,28)          0.263          estimate D2E/DX2                !
 ! D105  D(24,26,30,31)        179.9981         estimate D2E/DX2                !
 ! D106  D(48,26,30,28)       -177.2382         estimate D2E/DX2                !
 ! D107  D(48,26,30,31)          2.497          estimate D2E/DX2                !
 ! D108  D(24,26,48,49)         30.3132         estimate D2E/DX2                !
 ! D109  D(24,26,48,50)        -89.4285         estimate D2E/DX2                !
 ! D110  D(24,26,48,51)        150.9472         estimate D2E/DX2                !
 ! D111  D(30,26,48,49)       -152.1599         estimate D2E/DX2                !
 ! D112  D(30,26,48,50)         88.0984         estimate D2E/DX2                !
 ! D113  D(30,26,48,51)        -31.526          estimate D2E/DX2                !
 ! D114  D(25,28,30,26)         -0.0088         estimate D2E/DX2                !
 ! D115  D(25,28,30,31)       -179.7437         estimate D2E/DX2                !
 ! D116  D(52,28,30,26)       -177.7581         estimate D2E/DX2                !
 ! D117  D(52,28,30,31)          2.507          estimate D2E/DX2                !
 ! D118  D(25,28,52,53)        -90.6856         estimate D2E/DX2                !
 ! D119  D(25,28,52,54)        149.9339         estimate D2E/DX2                !
 ! D120  D(25,28,52,55)         28.8923         estimate D2E/DX2                !
 ! D121  D(30,28,52,53)         87.0892         estimate D2E/DX2                !
 ! D122  D(30,28,52,54)        -32.2914         estimate D2E/DX2                !
 ! D123  D(30,28,52,55)       -153.333          estimate D2E/DX2                !
 --------------------------------------------------------------------------------
 Trust Radius=3.00D-01 FncErr=1.00D-07 GrdErr=1.00D-06 EigMax=2.50D+02 EigMin=1.00D-04
 Number of steps in this run=    291 maximum allowed number of steps=    330.
 GradGradGradGradGradGradGradGradGradGradGradGradGradGradGradGradGradGrad

 Leave Link  103 at Sun Jun  9 23:17:35 2019, MaxMem= 12884901888 cpu:               5.1 elap:               0.1
 (Enter /home/ekwan/sw/g16/l202.exe)
 Stoichiometry    C18H22F6O8S
 Framework group  C1[X(C18H22F6O8S)]
 Deg. of freedom   159
 Full point group                 C1      NOp   1
 Largest Abelian subgroup         C1      NOp   1
 Largest concise Abelian subgroup C1      NOp   1
                         Standard orientation:                         
 ---------------------------------------------------------------------
 Center     Atomic      Atomic             Coordinates (Angstroms)
 Number     Number       Type             X           Y           Z
 ---------------------------------------------------------------------
      1          6           0        3.484516   -0.069180    0.704632
      2          6           0        3.344155   -0.455287   -0.762023
      3          6           0        1.874761   -0.448083   -1.191429
      4          6           0        1.258452    1.080366    0.509579
      5          6           0        2.698551    1.200520    0.991713
      6          1           0        1.761405   -0.587672   -2.265384
      7          1           0        3.843812    0.313337   -1.370991
      8          1           0        3.079367   -0.879640    1.324966
      9          1           0        0.752101    0.294728    1.085312
     10          1           0        3.171489    2.036191    0.462386
     11          8           0        1.225455    0.728450   -0.879430
     12          8           0        1.267058   -1.580708   -0.521195
     13          8           0        3.950595   -1.702053   -0.949244
     14          8           0        4.831177    0.176661    1.033165
     15          8           0        2.667945    1.446377    2.378067
     16          6           0        0.479487    2.369023    0.703586
     17          1           0        0.318069    2.488703    1.776229
     18          1           0       -0.497133    2.274432    0.211921
     19          8           0        1.141952    3.531488    0.274905
     20         16           0       -0.029224   -2.272470   -1.188749
     21          8           0       -0.109032   -3.574816   -0.566753
     22          8           0        0.057493   -2.119569   -2.629593
     23          6           0       -1.383392   -1.289213   -0.603619
     24          6           0       -1.985426   -1.626970    0.599657
     25          6           0       -1.818095   -0.216829   -1.369020
     26          6           0       -3.050896   -0.856444    1.045832
     27          1           0       -1.634669   -2.478575    1.168926
     28          6           0       -2.881334    0.541631   -0.899989
     29          1           0       -1.342800    0.012755   -2.313866
     30          6           0       -3.500181    0.227654    0.303674
     31          1           0       -4.331757    0.822636    0.659680
     32          6           0        4.086155   -2.088229   -2.300661
     33          1           0        3.123543   -2.365581   -2.746015
     34          1           0        4.540466   -1.289350   -2.899261
     35          1           0        4.738851   -2.960347   -2.315069
     36          6           0        5.498911   -0.917466    1.627135
     37          1           0        6.507301   -0.576627    1.864338
     38          1           0        5.001747   -1.225402    2.555010
     39          1           0        5.554279   -1.773110    0.949736
     40          6           0        3.434712    2.566104    2.771885
     41          1           0        3.324492    2.660305    3.852732
     42          1           0        4.491742    2.425642    2.526821
     43          1           0        3.068348    3.480066    2.290799
     44          6           0        1.088075    3.761804   -1.117286
     45          1           0        1.407607    4.791869   -1.279964
     46          1           0        0.065554    3.640760   -1.495056
     47          1           0        1.747427    3.089535   -1.673689
     48          6           0       -3.759469   -1.233138    2.315407
     49          9           0       -2.932213   -1.836388    3.177465
     50          9           0       -4.772022   -2.079369    2.078009
     51          9           0       -4.276786   -0.158265    2.923722
     52          6           0       -3.334046    1.743378   -1.677235
     53          9           0       -2.693590    2.855120   -1.272692
     54          9           0       -4.643290    1.967818   -1.519018
     55          9           0       -3.092589    1.604457   -2.985261
 ---------------------------------------------------------------------
 Rotational constants (GHZ):           0.1523043           0.0825636           0.0777220
 Leave Link  202 at Sun Jun  9 23:17:35 2019, MaxMem= 12884901888 cpu:              10.7 elap:               0.2
 (Enter /home/ekwan/sw/g16/l301.exe)
 Standard basis: 6-31G(d) (6D, 7F)
 Ernie: Thresh=  0.10000D-02 Tol=  0.10000D-05 Strict=F.
 There are   543 symmetry adapted cartesian basis functions of A   symmetry.
 There are   543 symmetry adapted basis functions of A   symmetry.
   543 basis functions,  1036 primitive gaussians,   543 cartesian basis functions
   132 alpha electrons      132 beta electrons
       nuclear repulsion energy      4320.2107862997 Hartrees.
 IExCor=  411 DFT=T Ex+Corr=B1B95 ExCW=0 ScaHFX=  0.280000
 ScaDFX=  0.720000  0.720000  1.000000  1.000000 ScalE2=  1.000000  1.000000
 IRadAn=      5 IRanWt=     -1 IRanGd=            0 ICorTp=0 IEmpDi=  4
 NAtoms=   55 NActive=   55 NUniq=   55 SFac= 1.00D+00 NAtFMM=   60 NAOKFM=F Big=F
 Integral buffers will be    131072 words long.
 Raffenetti 2 integral format.
 Two-electron integral symmetry is turned on.
 ------------------------------------------------------------------------------
 Polarizable Continuum Model (PCM)
 =================================
 Model                : PCM.
 Atomic radii         : UFF (Universal Force Field).
 Polarization charges : Total charges.
 Charge compensation  : None.
 Solution method      : On-the-fly selection.
 Cavity type          : Scaled VdW (van der Waals Surface) (Alpha=1.100).
 Cavity algorithm     : GePol (No added spheres)
                        Default sphere list used, NSphG=   55.
                        Lebedev-Laikov grids with approx.  5.0 points / Ang**2.
                        Smoothing algorithm: York/Karplus (Gamma=1.0000).
                        Polarization charges: spherical gaussians, with
                                              point-specific exponents (IZeta= 3).
                        Self-potential: point-specific (ISelfS= 7).
                        Self-field    : sphere-specific E.n sum rule (ISelfD= 2).
 1st derivatives      : Analytical E(r).r(x)/FMM algorithm (CHGder, D1EAlg=3).
                        Cavity 1st derivative terms included.
 Solvent              : TetraHydroFuran, Eps=   7.425700 Eps(inf)=   1.974025
 ------------------------------------------------------------------------------
 GePol: Number of generator spheres                  =      55
 GePol: Total number of spheres                      =      55
 GePol: Number of exposed spheres                    =      55 (100.00%)
 GePol: Number of points                             =    3945
 GePol: Average weight of points                     =       0.13
 GePol: Minimum weight of points                     =   0.70D-10
 GePol: Maximum weight of points                     =    0.20577
 GePol: Number of points with low weight             =     252
 GePol: Fraction of low-weight points (<1% of avg)   =       6.39%
 GePol: Cavity surface area                          =    496.820 Ang**2
 GePol: Cavity volume                                =    575.066 Ang**3
 Leave Link  301 at Sun Jun  9 23:17:36 2019, MaxMem= 12884901888 cpu:              15.4 elap:               0.3
 (Enter /home/ekwan/sw/g16/l302.exe)
 NPDir=0 NMtPBC=     1 NCelOv=     1 NCel=       1 NClECP=     1 NCelD=      1
         NCelK=      1 NCelE2=     1 NClLst=     1 CellRange=     0.0.
 One-electron integrals computed using PRISM.
 One-electron integral symmetry used in STVInt
 NBasis=   543 RedAO= T EigKep=  4.00D-04  NBF=   543
 NBsUse=   543 1.00D-06 EigRej= -1.00D+00 NBFU=   543
 Precomputing XC quadrature grid using
 IXCGrd= 4 IRadAn=           5 IRanWt=          -1 IRanGd=           0 AccXCQ= 0.00D+00.
 Generated NRdTot=       0 NPtTot=           0 NUsed=           0 NTot=          32
 NSgBfM=   532   532   532   532   532 MxSgAt=    55 MxSgA2=    55.
 Leave Link  302 at Sun Jun  9 23:17:44 2019, MaxMem= 12884901888 cpu:             472.0 elap:               7.8
 (Enter /home/ekwan/sw/g16/l303.exe)
 DipDrv:  MaxL=1.
 Leave Link  303 at Sun Jun  9 23:17:44 2019, MaxMem= 12884901888 cpu:              19.3 elap:               0.4
 (Enter /home/ekwan/sw/g16/l401.exe)
 ExpMin= 1.17D-01 ExpMax= 2.19D+04 ExpMxC= 3.30D+03 IAcc=3 IRadAn=         5 AccDes= 0.00D+00
 Harris functional with IExCor=  409 and IRadAn=       5 diagonalized for initial guess.
 HarFok:  IExCor=  409 AccDes= 0.00D+00 IRadAn=         5 IDoV= 1 UseB2=F ITyADJ=14
 ICtDFT=  3500011 ScaDFX=  1.000000  1.000000  1.000000  1.000000
 FoFCou: FMM=F IPFlag=           0 FMFlag=      100000 FMFlg1=           0
         NFxFlg=           0 DoJE=T BraDBF=F KetDBF=T FulRan=T
         wScrn=  0.000000 ICntrl=       500 IOpCl=  0 I1Cent=   200000004 NGrid=           0
         NMat0=    1 NMatS0=      1 NMatT0=    0 NMatD0=    1 NMtDS0=    0 NMtDT0=    0
 Petite list used in FoFCou.
 Harris En= -2297.47827173907    
 JPrj=0 DoOrth=F DoCkMO=F.
 Leave Link  401 at Sun Jun  9 23:17:48 2019, MaxMem= 12884901888 cpu:             244.8 elap:               3.9
 (Enter /home/ekwan/sw/g16/l502.exe)
 Integral symmetry usage will be decided dynamically.
 Closed shell SCF:
 Using DIIS extrapolation, IDIIS=  1040.
 NGot= 12884901888 LenX= 12884271583 LenY= 12883976191
 Requested convergence on RMS density matrix=1.00D-08 within 128 cycles.
 Requested convergence on MAX density matrix=1.00D-06.
 Requested convergence on             energy=1.00D-06.
 No special actions if energy rises.
 Fock matrices will be formed incrementally for  20 cycles.

 Cycle   1  Pass 1  IDiag  1:
 FoFJK:  IHMeth= 1 ICntrl=       0 DoSepK=F KAlg= 0 I1Cent=           0 FoldK=F
 IRaf= 690000000 NMat=       1 IRICut=       1 DoRegI=T DoRafI=F ISym2E= 0 IDoP0=0 IntGTp=1.
 FoFCou: FMM=F IPFlag=           0 FMFlag=      100000 FMFlg1=           0
         NFxFlg=           0 DoJE=F BraDBF=F KetDBF=F FulRan=T
         wScrn=  0.000000 ICntrl=         0 IOpCl=  0 I1Cent=           0 NGrid=           0
         NMat0=    1 NMatS0=      1 NMatT0=    0 NMatD0=    1 NMtDS0=    0 NMtDT0=    0
 Symmetry not used in FoFCou.
 Inv3:  Mode=1 IEnd=    46689075.
 Iteration    1 A*A^-1 deviation from unit magnitude is 3.66D-15 for   3555.
 Iteration    1 A*A^-1 deviation from orthogonality  is 2.20D-15 for   3944   3345.
 Iteration    1 A^-1*A deviation from unit magnitude is 3.66D-15 for   3555.
 Iteration    1 A^-1*A deviation from orthogonality  is 4.36D-15 for   3937   2624.
 E= -2296.85060531305    
 DIIS: error= 2.63D-02 at cycle   1 NSaved=   1.
 NSaved= 1 IEnMin= 1 EnMin= -2296.85060531305     IErMin= 1 ErrMin= 2.63D-02
 ErrMax= 2.63D-02  0.00D+00 EMaxC= 1.00D-01 BMatC= 8.12D-01 BMatP= 8.12D-01
 IDIUse=3 WtCom= 7.37D-01 WtEn= 2.63D-01
 Coeff-Com:  0.100D+01
 Coeff-En:   0.100D+01
 Coeff:      0.100D+01
 Gap=     0.198 Goal=   None    Shift=    0.000
 GapD=    0.198 DampG=1.000 DampE=0.500 DampFc=0.5000 IDamp=-1.
 Damping current iteration by 5.00D-01
 RMSDP=3.42D-03 MaxDP=4.84D-01              OVMax= 1.80D-01

 Cycle   2  Pass 1  IDiag  1:
 RMSU=  1.71D-03    CP:  9.96D-01
 E= -2297.07371140431     Delta-E=       -0.223106091255 Rises=F Damp=T
 DIIS: error= 8.57D-03 at cycle   2 NSaved=   2.
 NSaved= 2 IEnMin= 2 EnMin= -2297.07371140431     IErMin= 2 ErrMin= 8.57D-03
 ErrMax= 8.57D-03  0.00D+00 EMaxC= 1.00D-01 BMatC= 8.91D-02 BMatP= 8.12D-01
 IDIUse=3 WtCom= 9.14D-01 WtEn= 8.57D-02
 Coeff-Com:  0.140D+00 0.860D+00
 Coeff-En:   0.256D+00 0.744D+00
 Coeff:      0.150D+00 0.850D+00
 Gap=     0.227 Goal=   None    Shift=    0.000
 RMSDP=9.96D-04 MaxDP=1.23D-01 DE=-2.23D-01 OVMax= 1.44D-01

 Cycle   3  Pass 1  IDiag  1:
 RMSU=  8.95D-04    CP:  9.90D-01  7.51D-01
 E= -2297.43831378281     Delta-E=       -0.364602378500 Rises=F Damp=F
 DIIS: error= 7.46D-03 at cycle   3 NSaved=   3.
 NSaved= 3 IEnMin= 3 EnMin= -2297.43831378281     IErMin= 3 ErrMin= 7.46D-03
 ErrMax= 7.46D-03  0.00D+00 EMaxC= 1.00D-01 BMatC= 5.42D-02 BMatP= 8.91D-02
 IDIUse=3 WtCom= 9.25D-01 WtEn= 7.46D-02
 Coeff-Com: -0.122D-02 0.426D+00 0.575D+00
 Coeff-En:   0.000D+00 0.000D+00 0.100D+01
 Coeff:     -0.113D-02 0.394D+00 0.607D+00
 Gap=     0.197 Goal=   None    Shift=    0.000
 RMSDP=6.06D-04 MaxDP=4.35D-02 DE=-3.65D-01 OVMax= 5.44D-02

 Cycle   4  Pass 1  IDiag  1:
 RMSU=  3.76D-04    CP:  9.93D-01  8.68D-01  5.21D-01
 E= -2297.47183329896     Delta-E=       -0.033519516154 Rises=F Damp=F
 DIIS: error= 2.92D-03 at cycle   4 NSaved=   4.
 NSaved= 4 IEnMin= 4 EnMin= -2297.47183329896     IErMin= 4 ErrMin= 2.92D-03
 ErrMax= 2.92D-03  0.00D+00 EMaxC= 1.00D-01 BMatC= 1.38D-02 BMatP= 5.42D-02
 IDIUse=3 WtCom= 9.71D-01 WtEn= 2.92D-02
 Coeff-Com: -0.202D-01 0.963D-01 0.360D+00 0.564D+00
 Coeff-En:   0.000D+00 0.000D+00 0.219D+00 0.781D+00
 Coeff:     -0.197D-01 0.935D-01 0.356D+00 0.571D+00
 Gap=     0.198 Goal=   None    Shift=    0.000
 RMSDP=2.30D-04 MaxDP=1.57D-02 DE=-3.35D-02 OVMax= 2.29D-02

 Cycle   5  Pass 1  IDiag  1:
 RMSU=  8.82D-05    CP:  9.93D-01  8.46D-01  6.65D-01  5.60D-01
 E= -2297.48261789767     Delta-E=       -0.010784598706 Rises=F Damp=F
 DIIS: error= 8.80D-04 at cycle   5 NSaved=   5.
 NSaved= 5 IEnMin= 5 EnMin= -2297.48261789767     IErMin= 5 ErrMin= 8.80D-04
 ErrMax= 8.80D-04  0.00D+00 EMaxC= 1.00D-01 BMatC= 7.34D-04 BMatP= 1.38D-02
 IDIUse=3 WtCom= 9.91D-01 WtEn= 8.80D-03
 Coeff-Com: -0.932D-02 0.246D-01 0.143D+00 0.294D+00 0.548D+00
 Coeff-En:   0.000D+00 0.000D+00 0.000D+00 0.000D+00 0.100D+01
 Coeff:     -0.924D-02 0.244D-01 0.142D+00 0.291D+00 0.552D+00
 Gap=     0.198 Goal=   None    Shift=    0.000
 RMSDP=5.20D-05 MaxDP=3.74D-03 DE=-1.08D-02 OVMax= 5.81D-03

 Cycle   6  Pass 1  IDiag  1:
 RMSU=  2.90D-05    CP:  9.92D-01  8.52D-01  6.68D-01  6.13D-01  5.82D-01
 E= -2297.48321045986     Delta-E=       -0.000592562194 Rises=F Damp=F
 DIIS: error= 1.79D-04 at cycle   6 NSaved=   6.
 NSaved= 6 IEnMin= 6 EnMin= -2297.48321045986     IErMin= 6 ErrMin= 1.79D-04
 ErrMax= 1.79D-04  0.00D+00 EMaxC= 1.00D-01 BMatC= 4.29D-05 BMatP= 7.34D-04
 IDIUse=3 WtCom= 9.98D-01 WtEn= 1.79D-03
 Coeff-Com: -0.299D-02 0.474D-02 0.392D-01 0.930D-01 0.263D+00 0.603D+00
 Coeff-En:   0.000D+00 0.000D+00 0.000D+00 0.000D+00 0.000D+00 0.100D+01
 Coeff:     -0.299D-02 0.473D-02 0.391D-01 0.929D-01 0.263D+00 0.603D+00
 Gap=     0.198 Goal=   None    Shift=    0.000
 RMSDP=1.39D-05 MaxDP=7.47D-04 DE=-5.93D-04 OVMax= 1.50D-03

 Cycle   7  Pass 1  IDiag  1:
 RMSU=  7.25D-06    CP:  9.92D-01  8.51D-01  6.69D-01  6.17D-01  6.35D-01
                    CP:  6.37D-01
 E= -2297.48324624570     Delta-E=       -0.000035785839 Rises=F Damp=F
 DIIS: error= 2.84D-05 at cycle   7 NSaved=   7.
 NSaved= 7 IEnMin= 7 EnMin= -2297.48324624570     IErMin= 7 ErrMin= 2.84D-05
 ErrMax= 2.84D-05  0.00D+00 EMaxC= 1.00D-01 BMatC= 1.90D-06 BMatP= 4.29D-05
 IDIUse=1 WtCom= 1.00D+00 WtEn= 0.00D+00
 Coeff-Com: -0.830D-03 0.613D-03 0.833D-02 0.233D-01 0.827D-01 0.256D+00
 Coeff-Com:  0.630D+00
 Coeff:     -0.830D-03 0.613D-03 0.833D-02 0.233D-01 0.827D-01 0.256D+00
 Coeff:      0.630D+00
 Gap=     0.198 Goal=   None    Shift=    0.000
 RMSDP=3.32D-06 MaxDP=2.19D-04 DE=-3.58D-05 OVMax= 4.65D-04

 Cycle   8  Pass 1  IDiag  1:
 RMSU=  2.17D-06    CP:  9.92D-01  8.51D-01  6.68D-01  6.18D-01  6.38D-01
                    CP:  6.91D-01  7.38D-01
 E= -2297.48324776090     Delta-E=       -0.000001515198 Rises=F Damp=F
 DIIS: error= 1.15D-05 at cycle   8 NSaved=   8.
 NSaved= 8 IEnMin= 8 EnMin= -2297.48324776090     IErMin= 8 ErrMin= 1.15D-05
 ErrMax= 1.15D-05  0.00D+00 EMaxC= 1.00D-01 BMatC= 2.57D-07 BMatP= 1.90D-06
 IDIUse=1 WtCom= 1.00D+00 WtEn= 0.00D+00
 Coeff-Com: -0.582D-04-0.190D-03-0.735D-03-0.704D-04 0.879D-02 0.516D-01
 Coeff-Com:  0.302D+00 0.639D+00
 Coeff:     -0.582D-04-0.190D-03-0.735D-03-0.704D-04 0.879D-02 0.516D-01
 Coeff:      0.302D+00 0.639D+00
 Gap=     0.198 Goal=   None    Shift=    0.000
 RMSDP=1.10D-06 MaxDP=7.09D-05 DE=-1.52D-06 OVMax= 8.45D-05

 Cycle   9  Pass 1  IDiag  1:
 RMSU=  7.26D-07    CP:  9.92D-01  8.51D-01  6.68D-01  6.18D-01  6.41D-01
                    CP:  6.92D-01  7.99D-01  7.14D-01
 E= -2297.48324794822     Delta-E=       -0.000000187317 Rises=F Damp=F
 DIIS: error= 7.45D-06 at cycle   9 NSaved=   9.
 NSaved= 9 IEnMin= 9 EnMin= -2297.48324794822     IErMin= 9 ErrMin= 7.45D-06
 ErrMax= 7.45D-06  0.00D+00 EMaxC= 1.00D-01 BMatC= 3.73D-08 BMatP= 2.57D-07
 IDIUse=1 WtCom= 1.00D+00 WtEn= 0.00D+00
 Coeff-Com:  0.339D-04-0.115D-03-0.108D-02-0.207D-02-0.277D-02 0.447D-02
 Coeff-Com:  0.104D+00 0.347D+00 0.551D+00
 Coeff:      0.339D-04-0.115D-03-0.108D-02-0.207D-02-0.277D-02 0.447D-02
 Coeff:      0.104D+00 0.347D+00 0.551D+00
 Gap=     0.198 Goal=   None    Shift=    0.000
 RMSDP=4.33D-07 MaxDP=3.56D-05 DE=-1.87D-07 OVMax= 4.36D-05

 Cycle  10  Pass 1  IDiag  1:
 RMSU=  2.53D-07    CP:  9.92D-01  8.51D-01  6.69D-01  6.18D-01  6.41D-01
                    CP:  6.92D-01  8.14D-01  7.77D-01  5.84D-01
 E= -2297.48324797513     Delta-E=       -0.000000026912 Rises=F Damp=F
 DIIS: error= 2.50D-06 at cycle  10 NSaved=  10.
 NSaved=10 IEnMin=10 EnMin= -2297.48324797513     IErMin=10 ErrMin= 2.50D-06
 ErrMax= 2.50D-06  0.00D+00 EMaxC= 1.00D-01 BMatC= 3.72D-09 BMatP= 3.73D-08
 IDIUse=1 WtCom= 1.00D+00 WtEn= 0.00D+00
 Coeff-Com:  0.222D-04-0.417D-04-0.515D-03-0.111D-02-0.241D-02-0.256D-02
 Coeff-Com:  0.255D-01 0.122D+00 0.300D+00 0.560D+00
 Coeff:      0.222D-04-0.417D-04-0.515D-03-0.111D-02-0.241D-02-0.256D-02
 Coeff:      0.255D-01 0.122D+00 0.300D+00 0.560D+00
 Gap=     0.198 Goal=   None    Shift=    0.000
 RMSDP=1.33D-07 MaxDP=1.10D-05 DE=-2.69D-08 OVMax= 1.64D-05

 Cycle  11  Pass 1  IDiag  1:
 RMSU=  8.79D-08    CP:  9.92D-01  8.51D-01  6.69D-01  6.18D-01  6.41D-01
                    CP:  6.93D-01  8.17D-01  7.85D-01  6.65D-01  7.12D-01
 E= -2297.48324797793     Delta-E=       -0.000000002802 Rises=F Damp=F
 DIIS: error= 6.82D-07 at cycle  11 NSaved=  11.
 NSaved=11 IEnMin=11 EnMin= -2297.48324797793     IErMin=11 ErrMin= 6.82D-07
 ErrMax= 6.82D-07  0.00D+00 EMaxC= 1.00D-01 BMatC= 4.30D-10 BMatP= 3.72D-09
 IDIUse=1 WtCom= 1.00D+00 WtEn= 0.00D+00
 Coeff-Com:  0.786D-05-0.882D-05-0.140D-03-0.327D-03-0.100D-02-0.212D-02
 Coeff-Com: -0.135D-02 0.157D-01 0.862D-01 0.300D+00 0.603D+00
 Coeff:      0.786D-05-0.882D-05-0.140D-03-0.327D-03-0.100D-02-0.212D-02
 Coeff:     -0.135D-02 0.157D-01 0.862D-01 0.300D+00 0.603D+00
 Gap=     0.198 Goal=   None    Shift=    0.000
 RMSDP=4.52D-08 MaxDP=3.85D-06 DE=-2.80D-09 OVMax= 3.61D-06

 Cycle  12  Pass 1  IDiag  1:
 RMSU=  2.59D-08    CP:  9.92D-01  8.51D-01  6.69D-01  6.18D-01  6.41D-01
                    CP:  6.93D-01  8.17D-01  7.90D-01  6.75D-01  7.70D-01
                    CP:  6.71D-01
 E= -2297.48324797827     Delta-E=       -0.000000000339 Rises=F Damp=F
 DIIS: error= 1.14D-07 at cycle  12 NSaved=  12.
 NSaved=12 IEnMin=12 EnMin= -2297.48324797827     IErMin=12 ErrMin= 1.14D-07
 ErrMax= 1.14D-07  0.00D+00 EMaxC= 1.00D-01 BMatC= 2.55D-11 BMatP= 4.30D-10
 IDIUse=1 WtCom= 1.00D+00 WtEn= 0.00D+00
 Coeff-Com:  0.846D-06 0.910D-06 0.597D-07-0.887D-05-0.155D-03-0.569D-03
 Coeff-Com: -0.319D-02-0.750D-02 0.105D-02 0.554D-01 0.240D+00 0.715D+00
 Coeff:      0.846D-06 0.910D-06 0.597D-07-0.887D-05-0.155D-03-0.569D-03
 Coeff:     -0.319D-02-0.750D-02 0.105D-02 0.554D-01 0.240D+00 0.715D+00
 Gap=     0.198 Goal=   None    Shift=    0.000
 RMSDP=1.28D-08 MaxDP=6.96D-07 DE=-3.39D-10 OVMax= 1.78D-06

 Cycle  13  Pass 1  IDiag  1:
 RMSU=  8.89D-09    CP:  9.92D-01  8.51D-01  6.69D-01  6.18D-01  6.41D-01
                    CP:  6.93D-01  8.17D-01  7.90D-01  6.78D-01  7.84D-01
                    CP:  7.37D-01  8.19D-01
 E= -2297.48324797831     Delta-E=       -0.000000000043 Rises=F Damp=F
 DIIS: error= 4.04D-08 at cycle  13 NSaved=  13.
 NSaved=13 IEnMin=13 EnMin= -2297.48324797831     IErMin=13 ErrMin= 4.04D-08
 ErrMax= 4.04D-08  0.00D+00 EMaxC= 1.00D-01 BMatC= 3.21D-12 BMatP= 2.55D-11
 IDIUse=1 WtCom= 1.00D+00 WtEn= 0.00D+00
 Coeff-Com: -0.110D-06 0.804D-06 0.116D-04 0.228D-04 0.125D-04-0.565D-04
 Coeff-Com: -0.116D-02-0.454D-02-0.655D-02-0.159D-02 0.512D-01 0.320D+00
 Coeff-Com:  0.643D+00
 Coeff:     -0.110D-06 0.804D-06 0.116D-04 0.228D-04 0.125D-04-0.565D-04
 Coeff:     -0.116D-02-0.454D-02-0.655D-02-0.159D-02 0.512D-01 0.320D+00
 Coeff:      0.643D+00
 Gap=     0.198 Goal=   None    Shift=    0.000
 RMSDP=3.99D-09 MaxDP=3.93D-07 DE=-4.27D-11 OVMax= 4.46D-07

 Error on total polarization charges =  0.00858
 SCF Done:  E(RB1B95) =  -2297.48324798     A.U. after   13 cycles
            NFock= 13  Conv=0.40D-08     -V/T= 2.0066
 KE= 2.282349298241D+03 PE=-1.404869809318D+04 EE= 5.148654760662D+03
 Leave Link  502 at Sun Jun  9 23:21:36 2019, MaxMem= 12884901888 cpu:           13831.4 elap:             228.1
 (Enter /home/ekwan/sw/g16/l701.exe)
 ... and contract with generalized density number  0.
 Compute integral first derivatives.
 D1PCM: PCM CHGder 1st derivatives, ID1Alg=3 FixD1E=F DoIter=F DoCFld=F I1PDM=0.
 GePol: Maximum number of non-zero 1st derivatives   =     228
 Leave Link  701 at Sun Jun  9 23:21:45 2019, MaxMem= 12884901888 cpu:             529.7 elap:               8.9
 (Enter /home/ekwan/sw/g16/l702.exe)
 L702 exits ... SP integral derivatives will be done elsewhere.
 Leave Link  702 at Sun Jun  9 23:21:45 2019, MaxMem= 12884901888 cpu:               5.7 elap:               0.1
 (Enter /home/ekwan/sw/g16/l703.exe)
 Integral derivatives from FoFJK, PRISM(SPDF).
 Compute integral first derivatives, UseDBF=F ICtDFT=           0.
 Calling FoFJK, ICntrl=      2127 FMM=F ISym2X=0 I1Cent= 0 IOpClX= 0 NMat=1 NMatS=1 NMatT=0.
 FoFJK:  IHMeth= 1 ICntrl=    2127 DoSepK=F KAlg= 0 I1Cent=           0 FoldK=F
 IRaf=         0 NMat=       1 IRICut=       1 DoRegI=T DoRafI=F ISym2E= 0 IDoP0=0 IntGTp=1.
 FoFCou: FMM=F IPFlag=           0 FMFlag=      100000 FMFlg1=         800
         NFxFlg=           0 DoJE=F BraDBF=F KetDBF=F FulRan=T
         wScrn=  0.000000 ICntrl=      2127 IOpCl=  0 I1Cent=           0 NGrid=           0
         NMat0=    1 NMatS0=      1 NMatT0=    0 NMatD0=    1 NMtDS0=    0 NMtDT0=    0
 Symmetry not used in FoFCou.
 Leave Link  703 at Sun Jun  9 23:22:07 2019, MaxMem= 12884901888 cpu:            1346.0 elap:              21.8
 (Enter /home/ekwan/sw/g16/l716.exe)
 Dipole        = 2.77913620D-01 1.13799018D+00-2.91902563D-01
 ***** Axes restored to original set *****
 -------------------------------------------------------------------
 Center     Atomic                   Forces (Hartrees/Bohr)
 Number     Number              X              Y              Z
 -------------------------------------------------------------------
      1        6           0.000001150   -0.000002107   -0.000000950
      2        6          -0.000000429    0.000000431   -0.000001934
      3        6          -0.000002362   -0.000000465   -0.000001775
      4        6          -0.000000026   -0.000001004    0.000001744
      5        6           0.000000509   -0.000001834    0.000000148
      6        1          -0.000000697    0.000003397   -0.000001606
      7        1          -0.000000670    0.000001333   -0.000001336
      8        1          -0.000000098   -0.000003157   -0.000002539
      9        1           0.000000175   -0.000001430   -0.000000128
     10        1           0.000000526   -0.000001083    0.000002222
     11        8           0.000003830    0.000005277    0.000001028
     12        8           0.000003070   -0.000000652   -0.000003112
     13        8          -0.000002185    0.000000423   -0.000004489
     14        8          -0.000000464   -0.000002691   -0.000001300
     15        8           0.000000868   -0.000004172    0.000001813
     16        6           0.000002163   -0.000000711    0.000003438
     17        1           0.000001200   -0.000002835    0.000003682
     18        1           0.000008529    0.000001508    0.000009067
     19        8           0.000002234   -0.000001898    0.000005972
     20       16          -0.000005025    0.000004827   -0.000006151
     21        8          -0.000000810    0.000001162   -0.000005933
     22        8          -0.000000757    0.000003733   -0.000002625
     23        6          -0.000001068   -0.000000146   -0.000000335
     24        6          -0.000000707   -0.000000767   -0.000002916
     25        6          -0.000002961    0.000004580   -0.000000473
     26        6          -0.000001993    0.000002266   -0.000000969
     27        1          -0.000000643   -0.000000701   -0.000003828
     28        6          -0.000001646    0.000000492   -0.000000176
     29        1          -0.000001886    0.000004281    0.000000329
     30        6           0.000000638    0.000000698    0.000002776
     31        1           0.000000459    0.000001006    0.000002754
     32        6          -0.000000880    0.000002666   -0.000005064
     33        1          -0.000002931    0.000003703   -0.000005248
     34        1          -0.000001615    0.000003483   -0.000003899
     35        1          -0.000002381    0.000002800   -0.000006854
     36        6           0.000000550   -0.000005563   -0.000003780
     37        1           0.000000213   -0.000005138   -0.000003760
     38        1           0.000000372   -0.000005459   -0.000004000
     39        1          -0.000000776   -0.000002971   -0.000004836
     40        6           0.000001881   -0.000005994    0.000002020
     41        1           0.000002196   -0.000007317    0.000003189
     42        1           0.000001703   -0.000005554    0.000002207
     43        1           0.000002012   -0.000004630    0.000004572
     44        6           0.000001827    0.000001819    0.000005409
     45        1           0.000001253    0.000002089    0.000007340
     46        1           0.000008224    0.000005518    0.000005072
     47        1          -0.000000020    0.000003015    0.000004431
     48        6           0.000000589   -0.000000746   -0.000000810
     49        9           0.000000626   -0.000003790   -0.000001914
     50        9          -0.000000358   -0.000001924   -0.000001848
     51        9           0.000000601   -0.000003572    0.000000644
     52        6          -0.000004230   -0.000000901    0.000001873
     53        9          -0.000010537    0.000005994    0.000003733
     54        9           0.000001341    0.000005448    0.000004669
     55        9          -0.000000581    0.000007264    0.000004458
 -------------------------------------------------------------------
 Cartesian Forces:  Max     0.000010537 RMS     0.000003320
 Leave Link  716 at Sun Jun  9 23:22:07 2019, MaxMem= 12884901888 cpu:               6.2 elap:               0.1
 (Enter /home/ekwan/sw/g16/l103.exe)

 GradGradGradGradGradGradGradGradGradGradGradGradGradGradGradGradGradGrad
 Berny optimization.
 FormGI is forming the generalized inverse of G from B-inverse, IUseBI=4.
 Internal  Forces:  Max     0.000127313 RMS     0.000013457
 Search for a local minimum.
 Step number   1 out of a maximum of  291
 All quantities printed in internal units (Hartrees-Bohrs-Radians)
 RMS Force = .13457D-04 SwitMx=.10000D-02 MixMth= 2
 Mixed Optimization -- En-DIIS/RFO-DIIS
 Second derivative matrix not updated -- first step.
 ITU=  0
     Eigenvalues ---    0.00525   0.00656   0.00730   0.00740   0.00742
     Eigenvalues ---    0.00752   0.01036   0.01480   0.01519   0.01523
     Eigenvalues ---    0.01531   0.01533   0.01582   0.01589   0.01616
     Eigenvalues ---    0.01626   0.01675   0.01684   0.01705   0.02235
     Eigenvalues ---    0.02238   0.02245   0.02249   0.02254   0.02256
     Eigenvalues ---    0.02436   0.02992   0.03393   0.04514   0.04668
     Eigenvalues ---    0.04726   0.04898   0.04968   0.05279   0.05320
     Eigenvalues ---    0.05845   0.06100   0.06605   0.07025   0.07099
     Eigenvalues ---    0.07228   0.07859   0.09318   0.10049   0.10067
     Eigenvalues ---    0.10095   0.10160   0.10580   0.10593   0.10618
     Eigenvalues ---    0.10619   0.10721   0.10809   0.10875   0.10948
     Eigenvalues ---    0.10979   0.10996   0.11452   0.11874   0.11931
     Eigenvalues ---    0.14150   0.14850   0.15999   0.15999   0.16000
     Eigenvalues ---    0.16000   0.16000   0.16000   0.16000   0.16000
     Eigenvalues ---    0.16000   0.16000   0.16000   0.16000   0.16000
     Eigenvalues ---    0.16000   0.16000   0.16468   0.16914   0.17443
     Eigenvalues ---    0.18666   0.19653   0.19814   0.20839   0.22148
     Eigenvalues ---    0.23485   0.23488   0.23502   0.24975   0.24981
     Eigenvalues ---    0.24998   0.25000   0.25000   0.25000   0.25000
     Eigenvalues ---    0.25000   0.25000   0.25000   0.25000   0.25000
     Eigenvalues ---    0.25000   0.25000   0.25000   0.27639   0.28379
     Eigenvalues ---    0.29198   0.29493   0.29745   0.30536   0.32176
     Eigenvalues ---    0.32264   0.33618   0.33894   0.33931   0.33962
     Eigenvalues ---    0.34040   0.34041   0.34042   0.34078   0.34094
     Eigenvalues ---    0.34140   0.34341   0.34384   0.34499   0.34663
     Eigenvalues ---    0.34733   0.34750   0.34752   0.34881   0.34939
     Eigenvalues ---    0.35665   0.35669   0.35719   0.38297   0.39063
     Eigenvalues ---    0.43273   0.43400   0.43519   0.43576   0.43666
     Eigenvalues ---    0.43683   0.44269   0.44354   0.44806   0.45784
     Eigenvalues ---    0.47152   0.47510   0.47644   0.47670   0.47774
     Eigenvalues ---    0.48630   0.56035   0.57027   0.57422   0.57557
     Eigenvalues ---    0.57716   0.57801   0.95261   0.97996
 RFO step:  Lambda=-8.73667470D-07 EMin= 5.24626547D-03
 Linear search not attempted -- first point.
 Iteration  1 RMS(Cart)=  0.00662588 RMS(Int)=  0.00000403
 Iteration  2 RMS(Cart)=  0.00001001 RMS(Int)=  0.00000002
 Iteration  3 RMS(Cart)=  0.00000000 RMS(Int)=  0.00000002
 ITry= 1 IFail=0 DXMaxC= 2.89D-02 DCOld= 1.00D+10 DXMaxT= 3.00D-01 DXLimC= 3.00D+00 Rises=F
 Variable       Old X    -DE/DX   Delta X   Delta X   Delta X     New X
                                 (Linear)    (Quad)   (Total)
    R1        2.87826   0.00000   0.00000  -0.00004  -0.00004   2.87822
    R2        2.87356  -0.00001   0.00000  -0.00004  -0.00004   2.87352
    R3        2.07509   0.00000   0.00000   0.00000   0.00000   2.07509
    R4        2.66033   0.00000   0.00000   0.00000   0.00000   2.66033
    R5        2.89292   0.00001   0.00000  -0.00001  -0.00001   2.89291
    R6        2.07980   0.00000   0.00000   0.00000   0.00000   2.07980
    R7        2.64376   0.00000   0.00000   0.00000   0.00000   2.64376
    R8        2.05773   0.00000   0.00000   0.00000   0.00000   2.05773
    R9        2.60698   0.00001   0.00000   0.00002   0.00002   2.60700
   R10        2.73936   0.00001   0.00000   0.00002   0.00002   2.73938
   R11        2.87883  -0.00001   0.00000   0.00001   0.00001   2.87884
   R12        2.07447   0.00000   0.00000   0.00000   0.00000   2.07447
   R13        2.70850   0.00001   0.00000   0.00004   0.00004   2.70854
   R14        2.86906  -0.00001   0.00000  -0.00002  -0.00002   2.86904
   R15        2.07199   0.00000   0.00000   0.00000   0.00000   2.07199
   R16        2.66134   0.00000   0.00000   0.00000   0.00000   2.66133
   R17        3.04973   0.00002   0.00000   0.00004   0.00004   3.04978
   R18        2.66836   0.00000   0.00000   0.00000   0.00000   2.66835
   R19        2.66966   0.00000   0.00000   0.00000   0.00000   2.66966
   R20        2.67035   0.00000   0.00000   0.00000   0.00000   2.67034
   R21        2.06226   0.00000   0.00000   0.00000   0.00000   2.06226
   R22        2.07394  -0.00001   0.00000  -0.00003  -0.00003   2.07391
   R23        2.65502   0.00001   0.00000   0.00001   0.00001   2.65503
   R24        2.66856   0.00000   0.00000   0.00000   0.00000   2.66856
   R25        2.73152   0.00000   0.00000   0.00000   0.00000   2.73152
   R26        2.74299   0.00000   0.00000   0.00000   0.00000   2.74299
   R27        3.35017   0.00001   0.00000   0.00004   0.00004   3.35021
   R28        2.62148   0.00000   0.00000   0.00000   0.00000   2.62148
   R29        2.62176   0.00001   0.00000   0.00002   0.00002   2.62178
   R30        2.62394   0.00000   0.00000   0.00000   0.00000   2.62393
   R31        2.04608   0.00000   0.00000   0.00000   0.00000   2.04608
   R32        2.62238   0.00001   0.00000   0.00002   0.00002   2.62241
   R33        2.04523   0.00000   0.00000   0.00000   0.00000   2.04523
   R34        2.62388  -0.00001   0.00000  -0.00001  -0.00001   2.62387
   R35        2.83824   0.00000   0.00000   0.00000   0.00000   2.83824
   R36        2.62553   0.00000   0.00000   0.00000   0.00000   2.62553
   R37        2.83664   0.00000   0.00000   0.00001   0.00001   2.83665
   R38        2.04603   0.00000   0.00000   0.00000   0.00000   2.04603
   R39        2.07172   0.00000   0.00000   0.00000   0.00000   2.07172
   R40        2.07262   0.00000   0.00000   0.00000   0.00000   2.07262
   R41        2.05868   0.00000   0.00000   0.00000   0.00000   2.05868
   R42        2.06083   0.00000   0.00000   0.00000   0.00000   2.06083
   R43        2.07263   0.00000   0.00000   0.00000   0.00000   2.07263
   R44        2.06496   0.00000   0.00000   0.00000   0.00000   2.06496
   R45        2.06080   0.00000   0.00000   0.00000   0.00000   2.06080
   R46        2.06759   0.00000   0.00000   0.00000   0.00000   2.06759
   R47        2.07095   0.00000   0.00000   0.00000   0.00000   2.07095
   R48        2.06110   0.00000   0.00000   0.00000   0.00000   2.06110
   R49        2.07260  -0.00001   0.00000  -0.00002  -0.00002   2.07258
   R50        2.06688   0.00000   0.00000   0.00000   0.00000   2.06687
   R51        2.52927   0.00000   0.00000   0.00000   0.00000   2.52928
   R52        2.53373   0.00000   0.00000   0.00000   0.00000   2.53373
   R53        2.53041   0.00000   0.00000   0.00000   0.00000   2.53041
   R54        2.54223   0.00000   0.00000  -0.00001  -0.00001   2.54223
   R55        2.52795   0.00000   0.00000   0.00000   0.00000   2.52794
   R56        2.52724   0.00000   0.00000   0.00000   0.00000   2.52724
    A1        1.92392   0.00000   0.00000  -0.00007  -0.00007   1.92385
    A2        1.89957   0.00000   0.00000   0.00003   0.00003   1.89959
    A3        1.93600   0.00000   0.00000   0.00000   0.00000   1.93600
    A4        1.89538   0.00000   0.00000   0.00004   0.00004   1.89542
    A5        1.88027   0.00000   0.00000   0.00000   0.00000   1.88026
    A6        1.92836   0.00000   0.00000   0.00001   0.00001   1.92837
    A7        1.93624   0.00001   0.00000  -0.00002  -0.00002   1.93622
    A8        1.89013   0.00000   0.00000   0.00003   0.00003   1.89016
    A9        1.89107   0.00000   0.00000  -0.00001  -0.00001   1.89106
   A10        1.85175   0.00000   0.00000   0.00003   0.00003   1.85178
   A11        1.96354  -0.00001   0.00000  -0.00003  -0.00003   1.96351
   A12        1.93001   0.00000   0.00000   0.00000   0.00000   1.93001
   A13        1.95623   0.00000   0.00000  -0.00011  -0.00011   1.95612
   A14        1.97397  -0.00001   0.00000  -0.00006  -0.00006   1.97391
   A15        1.84317  -0.00003   0.00000  -0.00019  -0.00019   1.84298
   A16        1.85812   0.00001   0.00000   0.00011   0.00011   1.85823
   A17        1.88831   0.00001   0.00000   0.00000   0.00000   1.88832
   A18        1.94386   0.00004   0.00000   0.00025   0.00025   1.94412
   A19        1.90339   0.00001   0.00000   0.00006   0.00006   1.90345
   A20        1.92606   0.00001   0.00000   0.00011   0.00011   1.92617
   A21        1.95803  -0.00003   0.00000  -0.00021  -0.00021   1.95782
   A22        1.89856  -0.00001   0.00000  -0.00004  -0.00004   1.89852
   A23        1.87945   0.00001   0.00000   0.00007   0.00007   1.87952
   A24        1.89698   0.00001   0.00000   0.00001   0.00001   1.89698
   A25        1.94228   0.00000   0.00000   0.00008   0.00008   1.94236
   A26        1.89896   0.00000   0.00000  -0.00004  -0.00004   1.89892
   A27        1.92074   0.00000   0.00000   0.00001   0.00001   1.92075
   A28        1.89133   0.00000   0.00000  -0.00003  -0.00003   1.89130
   A29        1.88050   0.00000   0.00000   0.00000   0.00000   1.88049
   A30        1.93003   0.00000   0.00000  -0.00001  -0.00001   1.93001
   A31        2.00175   0.00000   0.00000   0.00006   0.00006   2.00181
   A32        2.07189   0.00010   0.00000   0.00040   0.00040   2.07229
   A33        1.99700   0.00000   0.00000   0.00000   0.00000   1.99700
   A34        1.99875   0.00000   0.00000   0.00000   0.00000   1.99874
   A35        1.98328   0.00000   0.00000  -0.00001  -0.00001   1.98328
   A36        1.86980   0.00000   0.00000   0.00000   0.00000   1.86980
   A37        1.90304   0.00000   0.00000   0.00004   0.00004   1.90308
   A38        2.00575  -0.00002   0.00000  -0.00007  -0.00007   2.00568
   A39        1.89459   0.00000   0.00000   0.00000   0.00000   1.89459
   A40        1.85345   0.00000   0.00000  -0.00006  -0.00006   1.85339
   A41        1.93286   0.00001   0.00000   0.00009   0.00009   1.93295
   A42        2.00178   0.00002   0.00000   0.00009   0.00009   2.00187
   A43        1.82612  -0.00005   0.00000  -0.00022  -0.00022   1.82590
   A44        1.89384  -0.00002   0.00000   0.00003   0.00003   1.89388
   A45        1.81242   0.00013   0.00000   0.00058   0.00058   1.81299
   A46        2.12392   0.00001   0.00000  -0.00009  -0.00009   2.12383
   A47        1.89179  -0.00003   0.00000  -0.00017  -0.00017   1.89162
   A48        1.89108  -0.00001   0.00000   0.00000   0.00000   1.89108
   A49        2.07458  -0.00002   0.00000  -0.00009  -0.00009   2.07449
   A50        2.07824   0.00003   0.00000   0.00010   0.00010   2.07834
   A51        2.13028   0.00000   0.00000  -0.00002  -0.00002   2.13027
   A52        2.06760   0.00001   0.00000   0.00002   0.00002   2.06763
   A53        2.10245   0.00000   0.00000  -0.00001  -0.00001   2.10244
   A54        2.11309   0.00000   0.00000  -0.00001  -0.00001   2.11307
   A55        2.06697   0.00000   0.00000  -0.00001  -0.00001   2.06697
   A56        2.10365   0.00000   0.00000   0.00000   0.00000   2.10365
   A57        2.11251   0.00000   0.00000   0.00000   0.00000   2.11251
   A58        2.10576   0.00000   0.00000  -0.00001  -0.00001   2.10575
   A59        2.08800   0.00000   0.00000  -0.00001  -0.00001   2.08799
   A60        2.08861   0.00000   0.00000   0.00000   0.00000   2.08861
   A61        2.10664   0.00000   0.00000   0.00001   0.00001   2.10665
   A62        2.08706   0.00001   0.00000   0.00006   0.00006   2.08711
   A63        2.08882  -0.00001   0.00000  -0.00005  -0.00005   2.08877
   A64        2.08906   0.00000   0.00000   0.00000   0.00000   2.08907
   A65        2.09651   0.00000   0.00000   0.00000   0.00000   2.09651
   A66        2.09760   0.00000   0.00000   0.00000   0.00000   2.09760
   A67        1.95378   0.00000   0.00000   0.00000   0.00000   1.95377
   A68        1.94219   0.00000   0.00000   0.00000   0.00000   1.94219
   A69        1.86410   0.00000   0.00000   0.00000   0.00000   1.86410
   A70        1.90315   0.00000   0.00000   0.00000   0.00000   1.90315
   A71        1.89459   0.00000   0.00000   0.00000   0.00000   1.89459
   A72        1.90468   0.00000   0.00000   0.00000   0.00000   1.90468
   A73        1.86131   0.00000   0.00000   0.00000   0.00000   1.86131
   A74        1.93787   0.00000   0.00000   0.00000   0.00000   1.93787
   A75        1.94954   0.00000   0.00000   0.00000   0.00000   1.94954
   A76        1.89957   0.00000   0.00000   0.00000   0.00000   1.89957
   A77        1.90998   0.00000   0.00000   0.00000   0.00000   1.90998
   A78        1.90452   0.00000   0.00000   0.00000   0.00000   1.90452
   A79        1.86484   0.00000   0.00000   0.00000   0.00000   1.86484
   A80        1.93914   0.00000   0.00000   0.00000   0.00000   1.93914
   A81        1.93596   0.00000   0.00000   0.00000   0.00000   1.93596
   A82        1.90787   0.00000   0.00000   0.00000   0.00000   1.90787
   A83        1.90632   0.00000   0.00000   0.00000   0.00000   1.90632
   A84        1.90891   0.00000   0.00000   0.00000   0.00000   1.90891
   A85        1.86492   0.00000   0.00000  -0.00001  -0.00001   1.86491
   A86        1.93600   0.00001   0.00000   0.00004   0.00004   1.93604
   A87        1.95873   0.00000   0.00000   0.00000   0.00000   1.95873
   A88        1.90285   0.00000   0.00000  -0.00001  -0.00001   1.90284
   A89        1.90498   0.00000   0.00000  -0.00001  -0.00001   1.90497
   A90        1.89544   0.00000   0.00000   0.00000   0.00000   1.89544
   A91        1.94538   0.00000   0.00000   0.00000   0.00000   1.94538
   A92        1.94433   0.00000   0.00000   0.00000   0.00000   1.94433
   A93        1.94437   0.00000   0.00000   0.00000   0.00000   1.94438
   A94        1.87166   0.00000   0.00000   0.00000   0.00000   1.87165
   A95        1.88387   0.00000   0.00000   0.00000   0.00000   1.88387
   A96        1.87058   0.00000   0.00000   0.00000   0.00000   1.87058
   A97        1.94155   0.00001   0.00000   0.00006   0.00006   1.94161
   A98        1.94792   0.00000   0.00000  -0.00002  -0.00002   1.94790
   A99        1.94853   0.00000   0.00000   0.00000   0.00000   1.94854
[...]
 00081,-0.00000094,-0.00002661,0.00000087,-0.00015884,-0.00018040,-0.00
 007367,0.00000136,0.00001703,0.00001940,0.00005061,0.00001139,-0.00000
 290,-0.00001737,0.00000318,-0.00000997,-0.00045942,-0.00009235,0.00033
 054,0.00008075,0.00008267,-0.00003969,-0.00019180,-0.00004794,0.000259
 05,0.00019183,-0.00004505,-0.00003042,0.00139997,0.00219222,-0.0027650
 0,-0.00007969,-0.00055712,0.00087537,-0.00091103,-0.00081972,0.0005139
 5,-0.00048848,-0.00018128,0.00090726,-0.00568705,-0.03641276,0.5730316
 2,0.00002911,-0.00009237,-0.00002463,0.00003809,-0.00000383,-0.0000403
 7,0.00001812,-0.00048951,0.00001973,-0.00008158,-0.00031656,-0.0002004
 5,0.00004847,0.00012610,0.00012340,-0.00001097,0.00001958,0.00000018,0
 .00001668,0.00000394,0.00000239,-0.00000453,0.00000830,-0.00000588,-0.
 00000393,0.00001412,-0.00001295,0.00001898,-0.00000683,-0.00000054,-0.
 00015558,0.00033902,0.00012116,0.00035454,0.00030437,-0.00001197,-0.00
 004899,0.00007747,0.00003704,-0.00010693,0.00007162,-0.00003255,-0.000
 08947,0.00000014,-0.00006213,0.00083672,0.00039879,0.00024029,-0.00010
 451,0.00001093,-0.00008376,-0.00224321,0.00034892,-0.00115778,-0.00051
 817,-0.00022648,-0.00011767,-0.00058079,-0.00005627,0.00016787,0.00013
 993,-0.00010520,-0.00001494,0.00013072,0.00001823,-0.00005913,0.000714
 07,-0.00081215,0.00039542,0.00037277,-0.00006647,-0.00051516,-0.000739
 12,-0.00108692,0.00075590,-0.00038036,0.00025468,-0.00022172,0.0000071
 1,-0.00002524,-0.00000941,0.00909605,-0.00306751,-0.00269396,-0.000109
 99,-0.00012078,-0.00010671,0.00012275,0.00068867,0.00067999,-0.0000401
 9,0.00018680,-0.00039749,-0.00000183,-0.00001198,-0.00003654,0.0000028
 7,-0.00000251,0.00000800,0.00000339,0.00000040,0.00000496,-0.00000476,
 0.00000592,0.00000393,0.00001869,-0.00004932,0.00003465,-0.00000904,0.
 00000523,-0.00000518,0.00000229,0.00000540,-0.00000659,-0.00000347,0.0
 0001066,-0.00000058,0.00005651,0.00003699,0.00003942,-0.00000324,-0.00
 000389,-0.00001486,-0.00001722,-0.00000391,-0.00000102,0.00001010,0.00
 001488,0.00000986,0.00043132,-0.00006126,0.00005908,-0.00006774,-0.000
 05494,-0.00000762,-0.00398792,-0.00092006,0.00036954,-0.00005169,0.000
 01878,0.00002493,-0.00012547,-0.00002433,-0.00022432,0.00006434,-0.000
 01158,0.00007272,0.00000351,-0.00001165,0.00004950,0.00000879,0.000010
 29,0.00006631,-0.10510922,-0.07118969,-0.01922522,0.15704622,-0.000061
 96,-0.00014292,-0.00012175,-0.00013458,0.00008926,-0.00006649,-0.00041
 496,-0.00108334,0.00037160,-0.00030177,-0.00060744,-0.00050490,0.00001
 042,0.00010817,0.00003255,-0.00003579,0.00005304,-0.00001137,0.0000880
 8,0.00001397,0.00001139,-0.00001177,0.00002405,-0.00002259,-0.00004810
 ,0.00005146,-0.00006764,0.00006207,-0.00000133,0.00000990,0.00029111,0
 .00076525,0.00032453,0.00169215,0.00069985,-0.00010310,0.00008949,0.00
 003146,-0.00000750,0.00002569,0.00008894,0.00004294,-0.00002478,0.0001
 2910,0.00008207,0.00127199,0.00027752,0.00063857,-0.00011198,0.0000455
 2,-0.00008723,0.00064253,-0.00096618,0.00064695,-0.00055658,0.00014129
 ,-0.00034910,-0.00359188,0.00164587,0.00129738,0.00083855,-0.00108729,
 -0.00011095,0.00090562,-0.00042019,-0.00078138,0.00171048,-0.00008030,
 0.00157032,0.00019708,-0.00098365,0.00041202,-0.00244920,-0.00032715,0
 .00248816,0.00170250,0.00016636,0.00191739,-0.00021945,-0.00006798,-0.
 00015199,-0.01911647,-0.04511184,-0.00668837,-0.00087171,-0.00054836,-
 0.00070046,0.00267485,-0.00174345,-0.00228297,-0.00100640,-0.00059259,
 -0.00055769,-0.00007472,-0.00001193,0.00003222,0.00000063,0.00001071,0
 .00002422,0.00001582,0.00001690,-0.00000869,0.00001032,-0.00000370,0.0
 0000230,-0.00001513,-0.00001052,0.00001146,0.00000593,0.00000384,0.000
 00084,0.00000169,-0.00000386,-0.00000461,-0.00000935,0.00000720,-0.000
 00018,0.00001250,-0.00007594,0.00002381,0.00000368,0.00000423,-0.00000
 291,-0.00000940,0.00000740,-0.00000332,0.00001837,0.00003857,0.0000005
 4,0.00095960,0.00003469,0.00061070,-0.00012219,-0.00004165,-0.00002836
 ,-0.00113577,-0.00035403,-0.00031205,-0.00025501,-0.00000458,-0.000008
 61,0.00171488,0.00039136,-0.00252397,-0.00006298,-0.00045464,0.0010827
 1,-0.00072417,-0.00046107,0.00046591,-0.00047719,0.00029502,0.00079543
 ,-0.07360299,-0.23059354,-0.03798452,0.13086356,0.29289204,0.00003297,
 -0.00005826,-0.00001680,0.00005648,-0.00002923,-0.00002254,0.00010927,
 -0.00005298,-0.00011688,-0.00003870,-0.00020317,-0.00020419,0.00004492
 ,0.00009529,0.00009402,-0.00001244,0.00001997,0.00000959,-0.00001659,-
 0.00000112,-0.00000083,-0.00000005,-0.00000073,0.00000439,0.00000737,-
 0.00000745,0.00002060,0.00000017,-0.00001154,-0.00000153,-0.00015542,0
 .00009691,0.00013962,-0.00023017,0.00003346,0.00009443,-0.00005573,0.0
 0005242,0.00005880,-0.00009593,0.00004556,-0.00002191,-0.00007489,-0.0
 0001410,-0.00003491,0.00055677,0.00044325,0.00021225,-0.00003516,-0.00
 000252,-0.00002266,-0.00147398,0.00035754,-0.00122653,-0.00036729,-0.0
 0024083,0.00009939,0.00048475,-0.00044740,-0.00059641,-0.00011504,0.00
 021535,0.00007957,-0.00010236,0.00006321,0.00026864,-0.00059590,0.0003
 5389,-0.00079359,-0.00061142,0.00043282,0.00032507,0.00142614,0.000427
 85,-0.00070567,-0.00016611,-0.00081344,0.00049462,0.00002269,-0.000010
 17,0.00004653,0.00134664,0.01080973,0.01119304,-0.00014107,0.00043330,
 0.00007697,-0.00004139,-0.00080917,0.00002977,0.00001262,-0.00002388,0
 .00005314,0.00001431,-0.00000796,-0.00005704,0.00000613,0.,0.00000108,
 -0.00000526,-0.00000648,0.00000670,-0.00000470,0.00000419,0.00000491,0
 .00001819,-0.00003617,0.00002042,-0.00000883,0.00000342,-0.00000505,0.
 00000038,0.00000387,-0.00000163,-0.00000166,0.00000890,-0.00000048,0.0
 0004815,0.00004079,0.00002659,-0.00000017,-0.00000426,-0.00000700,-0.0
 0001620,-0.00000225,0.00000024,0.00000776,0.00000579,0.00000352,0.0002
 8598,0.00004288,0.00005783,-0.00005282,-0.00002952,0.00001019,0.000502
 91,0.00003047,-0.00018630,-0.00009308,0.00000585,0.00001122,-0.0001665
 1,-0.00028793,0.00028931,0.00002652,0.00005068,-0.00005396,0.00012705,
 0.00012116,-0.00005194,0.00005707,0.00005409,-0.00007589,-0.01924319,-
 0.03646789,-0.08125311,0.04779008,0.08471955,0.10544504,0.00010779,-0.
 00004438,0.00006808,0.00018261,-0.00011871,-0.00000739,0.00035099,0.00
 015001,-0.00025810,0.00003610,-0.00001973,0.00007796,0.00009633,0.0000
 9593,0.00017563,0.00001809,-0.00001822,0.00000816,-0.00004649,-0.00000
 425,-0.00000947,0.00000067,-0.00000206,0.00000670,0.00001977,0.0000038
 2,0.00002676,-0.00000311,-0.00000920,-0.00000618,-0.00041729,-0.000066
 74,-0.00010096,-0.00089262,-0.00013071,0.00004787,-0.00015739,0.000118
 98,0.00006685,-0.00021500,0.00006003,-0.00010369,-0.00013613,-0.000085
 59,-0.00017485,0.00072972,0.00031173,0.00027471,-0.00008848,-0.0000068
 8,-0.00007930,-0.00011602,-0.00009106,0.00005841,-0.00040494,-0.000232
 34,-0.00014294,0.00214971,-0.00123128,-0.00096564,-0.00062349,0.001122
 72,-0.00000502,-0.00053169,0.00039480,0.00057231,-0.00082387,0.0011018
 3,0.00133685,-0.00005056,0.00010820,-0.00047800,-0.00009509,0.00355421
 ,-0.00556557,0.00039647,0.00103750,-0.00061368,0.00007742,-0.00011084,
 -0.00010868,-0.03328177,0.01208295,0.00327333,0.00040507,-0.00075124,-
 0.00014440,-0.00145688,-0.00037373,0.00389428,0.00033752,-0.00021873,-
 0.00214398,0.00006059,-0.00001393,-0.00008534,0.00000408,-0.00001645,-
 0.00000588,-0.00000491,-0.00001136,0.00001587,-0.00001960,0.00001509,0
 .00000420,0.00005058,-0.00008887,0.00005915,-0.00002106,0.00000619,-0.
 00001011,0.00000350,0.00001385,-0.00001069,0.00000146,0.00001380,-0.00
 000009,0.00009144,0.00010946,0.00005520,-0.00000739,-0.00001003,-0.000
 02490,-0.00002318,-0.00001113,0.00000155,0.00000499,0.00000131,0.00001
 494,0.00047885,0.00003215,0.00024508,-0.00009760,-0.00006486,-0.000015
 87,-0.00007889,0.00008747,-0.00014067,-0.00006485,0.00000098,-0.000004
 73,-0.00137455,-0.00019820,0.00133862,0.00013561,0.00020880,-0.0004944
 2,0.00061354,0.00033673,-0.00025412,0.00039472,-0.00020934,-0.00044872
 ,-0.27606374,0.05795018,0.00616257,-0.06575612,-0.03159319,-0.00886890
 ,0.40774579,-0.00006230,-0.00003298,-0.00006585,-0.00011800,0.00007520
 ,-0.00002266,-0.00028328,-0.00047973,0.00025103,-0.00012565,-0.0002047
 1,-0.00018584,-0.00003330,0.00000131,-0.00005322,-0.00001789,0.0000210
 1,-0.00000965,0.00005201,0.00000784,0.00000763,-0.00000476,0.00000990,
 -0.00001192,-0.00002530,0.00001997,-0.00004082,0.00002441,0.00000413,0
 .00000605,0.00023582,0.00030331,0.00013581,0.00095674,0.00031267,-0.00
 005680,0.00009148,-0.00003136,-0.00003300,0.00008949,0.00000970,0.0000
 5116,0.00004319,0.00007728,0.00008962,0.00014523,-0.00004688,0.0000872
 7,-0.00000679,0.00002026,-0.00000255,-0.00001446,-0.00018653,0.0000237
 0,-0.00005175,0.00013999,-0.00011023,-0.00239427,0.00086354,0.00087160
 ,0.00069696,-0.00090188,-0.00001387,0.00055084,-0.00025681,-0.00056809
 ,0.00031672,-0.00209441,-0.00073228,0.00071174,-0.00049775,-0.00000122
 ,0.00010183,-0.00158897,0.00479760,-0.00004452,-0.00014882,-0.00032909
 ,0.00000172,0.00005499,0.00001583,0.03684832,-0.00378093,-0.00047817,0
 .00008097,0.00058704,0.00012053,0.00090825,-0.00095396,0.00002498,0.00
 048816,-0.00041407,0.00066944,-0.00005080,0.00000052,0.00004767,-0.000
 00211,0.00000878,0.00001163,0.00000895,0.00001149,-0.00000920,0.000010
 54,-0.00000658,-0.00000121,-0.00002398,0.00002816,-0.00001650,0.000010
 06,-0.00000085,0.00000422,-0.00000041,-0.00000633,0.00000163,-0.000003
 94,-0.00000274,0.00000008,-0.00003065,-0.00006830,-0.00001199,0.000003
 67,0.00000530,0.00000750,0.00000593,0.00000642,-0.00000177,0.00000401,
 0.00001342,-0.00000482,0.00019387,-0.00002048,0.00016477,-0.00001396,0
 .00000974,-0.00000858,-0.00001207,0.00000663,-0.00007244,-0.00006290,-
 0.00000679,-0.00000411,0.00093021,0.00035802,-0.00145970,-0.00003502,-
 0.00021539,0.00050647,-0.00043507,-0.00027408,0.00027482,-0.00029652,0
 .00014485,0.00046406,0.05296361,-0.08964186,0.00293848,-0.04808388,0.0
 0329857,-0.00331331,-0.05361436,0.08590434,0.00002525,-0.00000061,0.00
 001057,0.00004662,-0.00003440,0.00000504,0.00011459,0.00019100,-0.0001
 3825,0.00003992,0.00002003,-0.00000965,0.00001872,0.00001265,0.0000245
 5,-0.00000120,0.00000296,0.00000778,-0.00002528,-0.00000340,-0.0000032
 5,0.00000190,-0.00000443,0.00000640,0.00000790,-0.00001081,0.00002164,
 -0.00000857,-0.00000497,-0.00000185,-0.00008703,-0.00008553,0.00002142
 ,-0.00043758,-0.00011458,0.00007558,-0.00003878,0.00002008,0.00003568,
 -0.00004337,0.00000547,-0.00001294,-0.00002821,-0.00001981,-0.00001881
 ,0.00007867,0.00008235,-0.00000258,0.00000362,-0.00000616,0.00000642,0
 .00001585,-0.00001245,0.00002347,-0.00005625,-0.00007454,0.00008525,0.
 00097502,-0.00039809,-0.00063711,-0.00027547,0.00040071,0.00005752,-0.
 00021460,0.00007736,0.00034824,-0.00087199,0.00083630,0.00057014,-0.00
 025338,0.00031409,-0.00004987,0.00000110,0.00163355,-0.00260195,-0.000
 60768,-0.00020401,0.00069296,-0.00004772,0.00003536,0.00005862,-0.0144
 7614,0.00650774,0.01010445,-0.00032850,0.00025652,0.00002935,-0.000602
 93,0.00047873,-0.00224360,-0.00123234,0.00076384,0.00038231,0.00001775
 ,-0.00000321,-0.00003804,0.00000420,-0.00000073,-0.00000349,-0.0000061
 1,-0.00000637,0.00000462,-0.00000377,0.00000220,0.00000231,0.00001053,
 -0.00001358,0.00000505,-0.00000445,0.00000070,-0.00000242,-0.00000049,
 0.00000187,0.00000062,0.00000060,0.00000307,0.00000002,0.00001828,0.00
 002375,0.00000646,0.00000041,-0.00000229,-0.00000105,-0.00000614,-0.00
 000115,0.00000071,0.00000153,-0.00000214,0.00000028,0.00001657,0.00000
 950,-0.00006132,-0.00000394,-0.00000778,0.00000535,0.00002716,0.000010
 19,-0.00002560,-0.00001659,0.00000695,0.00000338,-0.00029463,-0.000450
 84,0.00063751,-0.00002244,0.00013707,-0.00022730,0.00020171,0.00017697
 ,-0.00010854,0.00008863,0.00004618,-0.00018737,0.01202689,0.00106776,-
 0.07685485,-0.01279040,-0.00305512,0.01169273,-0.03943917,0.00595829,0
 .08357257,0.00002517,-0.00000794,0.00002374,0.00004174,-0.00002608,-0.
 00000580,0.00008417,-0.00004132,-0.00001708,0.00000337,0.00001439,0.00
 007781,0.00002339,0.00001643,0.00003790,0.00001115,-0.00001217,-0.0000
 0320,-0.00000304,0.00000061,-0.00000174,-0.00000063,0.00000098,-0.0000
 0138,0.00000109,0.00000497,-0.00000454,0.00000236,0.00000030,-0.000001
 14,-0.00009961,0.00000638,-0.00007244,-0.00011763,0.00003243,-0.000023
 56,-0.00003674,0.00003260,0.00000549,-0.00004946,0.00001459,-0.0000297
 7,-0.00003029,-0.00002065,-0.00005044,0.00009811,0.00002192,0.00004969
 ,-0.00001780,-0.00000140,-0.00002188,-0.00000438,-0.00002155,0.0000479
 9,-0.00006384,-0.00001671,-0.00009626,0.00029723,-0.00044514,0.0000909
 9,-0.00003312,0.00015883,-0.00004952,-0.00010150,0.00014538,0.00002346
 ,0.00053321,-0.00047786,-0.00044585,0.00002716,0.00015054,-0.00014249,
 -0.00194543,0.00058544,-0.00035173,0.00033214,-0.00005760,-0.00076629,
 0.00007238,0.00001929,-0.00006055,0.01050028,0.00156175,-0.00468680,0.
 00045873,0.00054508,-0.00159410,-0.00080533,0.00147183,-0.00019012,0.0
 0015901,0.00024045,-0.00041719,0.00001219,-0.00000389,-0.00001151,-0.0
 0000046,-0.00000605,-0.00000028,0.00000165,-0.00000066,0.00000335,-0.0
 0000546,0.00000435,-0.00000001,0.00001252,-0.00002313,0.00001661,-0.00
 000475,0.00000156,-0.00000217,0.00000129,0.00000366,-0.00000387,0.0000
 0037,0.00000294,0.00000024,0.00001959,0.00002417,0.00001294,-0.0000022
 2,-0.00000239,-0.00000701,-0.00000437,-0.00000299,0.00000049,0.0000002
 5,0.00000078,0.00000421,0.00011951,-0.00000056,0.00010084,-0.00002776,
 -0.00001830,-0.00001181,-0.00003687,0.00003828,0.00000793,0.00000903,-
 0.00000170,-0.00000191,-0.00036721,-0.00000017,0.00023293,0.00003099,0
 .00006420,-0.00015816,0.00013978,0.00007541,-0.00004802,0.00008711,-0.
 00005492,-0.00007617,-0.07815725,0.00340743,0.02985969,0.01076387,-0.0
 0877014,-0.02019432,-0.03164068,0.00937322,0.05848172,0.08968697,-0.00
 003733,-0.00003755,-0.00004724,-0.00007469,0.00004405,-0.00001576,-0.0
 0020812,-0.00039324,0.00016407,-0.00009988,-0.00018514,-0.00015473,-0.
 00001479,0.00001654,-0.00001602,-0.00001642,0.00001702,-0.00000463,0.0
 0003695,0.00000610,0.00000447,-0.00000416,0.00000870,-0.00000946,-0.00
 001961,0.00001798,-0.00002850,0.00002099,0.00000223,0.00000403,0.00015
 266,0.00026757,0.00010912,0.00069212,0.00021574,-0.00002271,0.00005470
 ,-0.00000598,-0.00001642,0.00004412,0.00001944,0.00002826,0.00001675,0
 .00005605,0.00005070,0.00025021,0.00000841,0.00013768,-0.00002171,0.00
 001498,-0.00001579,0.00000810,-0.00018855,-0.00000806,-0.00011278,0.00
 008866,-0.00011548,-0.00155020,0.00091009,0.00031463,0.00034214,-0.000
 44292,-0.00000066,0.00041457,-0.00023356,-0.00030834,-0.00061089,0.000
 28979,0.00001219,-0.00025205,-0.00021964,0.00086082,0.00109189,-0.0011
 2565,0.00071437,-0.00085679,-0.00147529,0.00094782,-0.00003969,0.00003
 313,0.00004827,-0.00324953,0.00569023,0.02955465,0.00028704,-0.0009797
 8,0.00155599,0.00358637,-0.00207293,0.00043883,0.00009121,0.00031958,0
 .00015861,-0.00003577,-0.00000296,0.00002600,-0.00000054,0.00000556,0.
 00000928,0.00000694,0.00000821,-0.00000557,0.00000621,-0.00000338,-0.0
 0000018,-0.00001308,0.00000993,-0.00000457,0.00000555,0.00000030,0.000
 00208,0.00000024,-0.00000328,-0.00000047,-0.00000332,-0.00000006,0.000
 00003,-0.00001252,-0.00004396,-0.00000146,0.00000200,0.00000300,0.0000
 0243,0.00000157,0.00000393,-0.00000135,0.00000431,0.00001246,-0.000001
 96,0.00022285,-0.00001301,0.00014962,-0.00002244,0.00000037,-0.0000079
 9,-0.00000878,0.00001364,-0.00005402,-0.00006323,-0.00000478,-0.000003
 46,0.00095686,-0.00008451,-0.00139970,0.00000570,-0.00020198,0.0005518
 2,-0.00050270,-0.00025373,0.00028405,-0.00025482,0.00015149,0.00037988
 ,0.00430057,-0.07685544,-0.00086925,-0.00693866,-0.01555215,-0.0560904
 2,0.01042872,0.00955882,-0.01456626,-0.00800684,0.08258546,0.00007435,
 -0.00003544,0.00000562,0.00012888,-0.00007378,-0.00000865,0.00032120,0
 .00029971,-0.00036785,0.00007624,-0.00004837,-0.00015178,0.00007224,0.
 00006775,0.00010254,-0.00001295,0.00002239,0.00002225,-0.00006037,-0.0
 0000816,-0.00000572,0.00000386,-0.00001047,0.00001685,0.00002719,-0.00
 002956,0.00006285,-0.00002058,-0.00001754,-0.00000512,-0.00034488,-0.0
 0011049,0.00014602,-0.00097839,-0.00014613,0.00021415,-0.00011655,0.00
 007470,0.00011684,-0.00014487,0.00003662,-0.00003436,-0.00010691,-0.00
 005025,-0.00005775,0.00062784,0.00037574,0.00015440,-0.00003368,-0.000
 01269,-0.00000821,-0.00002584,-0.00009251,-0.00003810,-0.00034419,-0.0
 0029156,0.00024726,0.00222823,-0.00131268,-0.00150310,-0.00056533,0.00
 074722,0.00017874,-0.00051067,0.00023469,0.00091494,-0.00003294,0.0013
 4424,0.00039410,-0.00033158,0.00025138,-0.00031389,0.00338952,-0.00175
 856,-0.00104713,0.00187533,0.00071870,-0.00158283,-0.00011030,-0.00007
 856,0.00005942,0.00833399,0.00088683,-0.04359294,-0.00224995,0.0009803
 8,-0.00023754,-0.00573457,0.00569958,-0.00117924,-0.00027498,-0.000618
 61,0.00058764,0.00004335,-0.00001250,-0.00012066,0.00001358,0.00000056
 ,-0.00000598,-0.00001706,-0.00001797,0.00001385,-0.00000964,0.00000653
 ,0.00000850,0.00003222,-0.00004714,0.00001980,-0.00001440,0.00000325,-
 0.00000789,-0.00000111,0.00000581,0.00000160,0.00000013,0.00001183,-0.
 00000049,0.00006838,0.00007634,0.00003023,0.00000039,-0.00000698,-0.00
 000641,-0.00002287,-0.00000425,0.00000121,0.00000823,-0.00000151,0.000
 00311,0.00018701,0.00003981,-0.00016878,-0.00003465,-0.00003472,0.0000
 1666,0.00007743,0.00001828,-0.00010895,-0.00009650,0.00002185,0.000010
 87,-0.00162977,-0.00030071,0.00200719,-0.00004556,0.00046253,-0.001042
 93,0.00081859,0.00051616,-0.00035189,0.00033393,-0.00005012,-0.0005524
 3,0.02472635,0.00598827,-0.28891383,-0.01299483,-0.04106765,-0.0454133
 3,0.04292637,-0.00991296,-0.02526914,-0.05952889,0.03726074,0.40676029
 \\-0.00000054,0.00000232,0.00000168,0.00000038,-0.00000041,0.00000171,
 -0.00000008,-0.00000081,0.00000296,-0.00000094,0.00000190,-0.00000049,
 -0.00000087,0.00000277,-0.00000050,0.00000127,-0.00000352,0.00000161,0
 .00000061,-0.00000118,0.00000099,-0.00000011,0.00000297,0.00000284,-0.
 00000060,0.00000186,0.00000004,-0.00000088,0.00000186,-0.00000218,0.00
 000083,-0.00000039,-0.00000019,0.00000100,-0.00000414,0.00000198,0.000
 00116,-0.00000045,0.00000480,-0.00000003,0.00000254,0.00000095,-0.0000
 0080,0.00000421,-0.00000143,-0.00000152,0.00000065,-0.00000486,-0.0000
 0092,0.00000231,-0.00000372,-0.00000476,0.00000032,-0.00000642,-0.0000
 0016,-0.00000063,-0.00000471,0.00000098,-0.00000197,0.00000532,0.00000
 209,-0.00000090,0.00000600,0.00000264,-0.00000486,0.00000329,0.0000004
 3,-0.00000096,0.00000056,0.00000102,0.00000079,0.00000287,0.00000075,-
 0.00000438,-0.00000007,0.00000113,-0.00000109,0.00000074,0.00000041,0.
 00000074,0.00000377,-0.00000061,-0.00000318,-0.00000141,0.00000157,-0.
 00000465,-0.00000028,-0.00000045,-0.00000130,-0.00000223,-0.00000036,-
 0.00000090,-0.00000269,0.00000160,-0.00000289,0.00000507,0.00000225,-0
 .00000379,0.00000521,0.00000173,-0.00000346,0.00000391,0.00000211,-0.0
 0000242,0.00000680,-0.00000023,0.00000489,0.00000376,-0.00000037,0.000
 00530,0.00000361,-0.00000036,0.00000566,0.00000388,0.00000073,0.000003
 31,0.00000507,-0.00000206,0.00000523,-0.00000303,-0.00000237,0.0000073
 1,-0.00000322,-0.00000171,0.00000567,-0.00000235,-0.00000235,0.0000048
 8,-0.00000495,-0.00000046,-0.00000183,-0.00000608,-0.00000153,-0.00000
 183,-0.00000730,0.00000300,-0.00000217,-0.00000610,-0.00000079,-0.0000
 0193,-0.00000425,-0.00000029,0.00000117,0.00000075,-0.00000053,0.00000
 356,0.00000202,0.00000004,0.00000178,0.00000203,-0.00000086,0.00000340
 ,-0.00000077,0.00000140,-0.00000305,-0.00000291,-0.00000162,-0.0000067
 1,-0.00000335,-0.00000060,-0.00000485,-0.00000470,0.00000061,-0.000006
 71,-0.00000403\\\@


 SCIENCE AND PEACE WILL TRIUMPH OVER IGNORANCE AND WAR

                          -- PASTEUR
 Job cpu time:       1 days 11 hours 14 minutes  4.0 seconds.
 Elapsed time:       0 days  0 hours 34 minutes 11.2 seconds.
 File lengths (MBytes):  RWF=   2254 Int=      0 D2E=      0 Chk=     40 Scr=      1
 Normal termination of Gaussian 16 at Mon Jun 10 00:03:39 2019.
