 Entering Gaussian System, Link 0=g16
 Input=clay_new-glu_gluC6-bisCF3-sm-b972-631gd-pcm_thf.gjf
 Output=clay_new-glu_gluC6-bisCF3-sm-b972-631gd-pcm_thf.out
 Initial command:
 /home/ekwan/sw/g16/l1.exe "/scratch/users/ekwan/clay_new-glu_gluC6-bisCF3-sm-b972-631gd-pcm_thf/Gau-1046.inp" -scrdir="/scratch/users/ekwan/clay_new-glu_gluC6-bisCF3-sm-b972-631gd-pcm_thf/"
 Entering Link 1 = /home/ekwan/sw/g16/l1.exe PID=      1047.
  
 Copyright (c) 1988,1990,1992,1993,1995,1998,2003,2009,2016,
            Gaussian, Inc.  All Rights Reserved.
  
 This is part of the Gaussian(R) 16 program.  It is based on
 the Gaussian(R) 09 system (copyright 2009, Gaussian, Inc.),
 the Gaussian(R) 03 system (copyright 2003, Gaussian, Inc.),
 the Gaussian(R) 98 system (copyright 1998, Gaussian, Inc.),
 the Gaussian(R) 94 system (copyright 1995, Gaussian, Inc.),
 the Gaussian 92(TM) system (copyright 1992, Gaussian, Inc.),
 the Gaussian 90(TM) system (copyright 1990, Gaussian, Inc.),
 the Gaussian 88(TM) system (copyright 1988, Gaussian, Inc.),
 the Gaussian 86(TM) system (copyright 1986, Carnegie Mellon
 University), and the Gaussian 82(TM) system (copyright 1983,
 Carnegie Mellon University). Gaussian is a federally registered
 trademark of Gaussian, Inc.
  
 This software contains proprietary and confidential information,
 including trade secrets, belonging to Gaussian, Inc.
  
 This software is provided under written license and may be
 used, copied, transmitted, or stored only in accord with that
 written license.
  
 The following legend is applicable only to US Government
 contracts under FAR:
  
                    RESTRICTED RIGHTS LEGEND
  
 Use, reproduction and disclosure by the US Government is
 subject to restrictions as set forth in subparagraphs (a)
 and (c) of the Commercial Computer Software - Restricted
 Rights clause in FAR 52.227-19.
  
 Gaussian, Inc.
 340 Quinnipiac St., Bldg. 40, Wallingford CT 06492
  
  
 ---------------------------------------------------------------
 Warning -- This program may not be used in any manner that
 competes with the business of Gaussian, Inc. or will provide
 assistance to any competitor of Gaussian, Inc.  The licensee
 of this program is prohibited from giving any competitor of
 Gaussian, Inc. access to this program.  By using this program,
 the user acknowledges that Gaussian, Inc. is engaged in the
 business of creating and licensing software in the field of
 computational chemistry and represents and warrants to the
 licensee that it is not a competitor of Gaussian, Inc. and that
 it will not use this program in any manner prohibited above.
 ---------------------------------------------------------------
  

 Cite this work as:
 Gaussian 16, Revision A.03,
 M. J. Frisch, G. W. Trucks, H. B. Schlegel, G. E. Scuseria, 
 M. A. Robb, J. R. Cheeseman, G. Scalmani, V. Barone, 
 G. A. Petersson, H. Nakatsuji, X. Li, M. Caricato, A. V. Marenich, 
 J. Bloino, B. G. Janesko, R. Gomperts, B. Mennucci, H. P. Hratchian, 
 J. V. Ortiz, A. F. Izmaylov, J. L. Sonnenberg, D. Williams-Young, 
 F. Ding, F. Lipparini, F. Egidi, J. Goings, B. Peng, A. Petrone, 
 T. Henderson, D. Ranasinghe, V. G. Zakrzewski, J. Gao, N. Rega, 
 G. Zheng, W. Liang, M. Hada, M. Ehara, K. Toyota, R. Fukuda, 
 J. Hasegawa, M. Ishida, T. Nakajima, Y. Honda, O. Kitao, H. Nakai, 
 T. Vreven, K. Throssell, J. A. Montgomery, Jr., J. E. Peralta, 
 F. Ogliaro, M. J. Bearpark, J. J. Heyd, E. N. Brothers, K. N. Kudin, 
 V. N. Staroverov, T. A. Keith, R. Kobayashi, J. Normand, 
 K. Raghavachari, A. P. Rendell, J. C. Burant, S. S. Iyengar, 
 J. Tomasi, M. Cossi, J. M. Millam, M. Klene, C. Adamo, R. Cammi, 
 J. W. Ochterski, R. L. Martin, K. Morokuma, O. Farkas, 
 J. B. Foresman, and D. J. Fox, Gaussian, Inc., Wallingford CT, 2016.
 
 ******************************************
 Gaussian 16:  AS64L-G16RevA.03 25-Dec-2016
                 5-Jun-2019 
 ******************************************
 %nprocshared=32
 Will use up to   32 processors via shared memory.
 %mem=48GB
 ----------------------------------------------------------------------
 #p opt freq=noraman pop=none 6-31g* scrf=(pcm,solvent=tetrahydrofuran)
  b972
 ----------------------------------------------------------------------
 1/18=20,19=15,26=3,38=1/1,3;
 2/9=110,12=2,17=6,18=5,40=1/2;
 3/5=1,6=6,7=1,11=2,25=1,30=1,70=2201,71=1,72=20,74=-21/1,2,3;
 4//1;
 5/5=2,38=5,53=20/2;
 7//1,2,3,16;
 1/18=20,19=15,26=3/3(2);
 2/9=110/2;
 99//99;
 2/9=110/2;
 3/5=1,6=6,7=1,11=2,25=1,30=1,70=2205,71=1,72=20,74=-21/1,2,3;
 4/5=5,16=3,69=1/1;
 5/5=2,38=5,53=20/2;
 7//1,2,3,16;
 1/18=20,19=15,26=3/3(-5);
 2/9=110/2;
 99/9=1/99;
 Leave Link    1 at Wed Jun  5 15:49:55 2019, MaxMem=  6442450944 cpu:               4.8 elap:               0.2
 (Enter /home/ekwan/sw/g16/l101.exe)
 -----
 title
 -----
 Symbolic Z-matrix:
 Charge =  0 Multiplicity = 1
 6                     3.54012  -0.24595   0.70024 
 6                     3.34555  -0.51386  -0.79331 
 6                     1.86794  -0.37141  -1.19566 
 6                     1.40601   1.11036   0.61993 
 6                     2.86241   1.06798   1.09394 
 1                     1.73899  -0.41756  -2.2754 
 1                     3.88243   0.27089  -1.34626 
 1                     3.08305  -1.05976   1.27621 
 1                     0.83629   0.35197   1.17143 
 1                     3.40479   1.89706   0.62636 
 8                     1.31506   0.82762  -0.78768 
 8                     1.1682   -1.50474  -0.60901 
 8                     3.86745  -1.7783   -1.10539 
 8                     4.9151   -0.13663   1.00714 
 8                     2.85507   1.20496   2.50114 
 6                     0.73385   2.45426   0.87798 
 1                     0.63964   2.56178   1.96058 
 1                    -0.27447   2.43736   0.44597 
 8                     1.452     3.58112   0.42971 
 16                   -0.12211  -2.13402  -1.36713 
 8                    -0.21069  -3.49286  -0.86971 
 8                    -0.01863  -1.85474  -2.7915 
 6                    -1.49193  -1.20299  -0.70876 
 6                    -2.13775  -1.67009   0.43132 
 6                    -1.88492  -0.03089  -1.34702 
 6                    -3.20341  -0.93441   0.94432 
 1                    -1.81877  -2.59135   0.90092 
 6                    -2.94589   0.69537  -0.81356 
 1                    -1.37815   0.30463  -2.24174 
 6                    -3.60665   0.2482    0.32878 
 1                    -4.43332   0.81646   0.73477 
 6                     4.22237  -1.95544  -2.46462 
 1                     3.34819  -1.96297  -3.12585 
 1                     4.91613  -1.17467  -2.79981 
 1                     4.71628  -2.92485  -2.5319 
 6                     5.4891   -1.2923    1.58921 
 1                     6.53433  -1.05129   1.78967 
 1                     4.99683  -1.54676   2.5362 
 1                     5.43949  -2.15293   0.91657 
 6                     3.74193   2.18915   3.00219 
 1                     3.62218   2.19142   4.08679 
 1                     4.78124   1.95392   2.75456 
 1                     3.49359   3.18386   2.61374 
 6                     1.2444    3.92602  -0.92735 
 1                     1.68915   4.91236  -1.06989 
 1                     0.17372   3.98162  -1.16201 
 1                     1.71655   3.21655  -1.61311 
 6                    -3.96312  -1.45496   2.13874 
 9                    -3.17392  -2.17467   2.952 
 9                    -4.97777  -2.25279   1.75928 
 9                    -4.49316  -0.45521   2.86203 
 6                    -3.33819   2.00772  -1.44277 
 9                    -2.63859   3.0296   -0.90573 
 9                    -4.63831   2.28152  -1.25715 
 9                    -3.09979   2.0176   -2.76297 
 
 ITRead=  0  0  0  0  0  0  0  0  0  0  0  0  0  0  0  0  0  0  0  0
 ITRead=  0  0  0  0  0  0  0  0  0  0  0  0  0  0  0  0  0  0  0  0
 ITRead=  0  0  0  0  0  0  0  0  0  0  0  0  0  0  0
 MicOpt= -1 -1 -1 -1 -1 -1 -1 -1 -1 -1 -1 -1 -1 -1 -1 -1 -1 -1 -1 -1
 MicOpt= -1 -1 -1 -1 -1 -1 -1 -1 -1 -1 -1 -1 -1 -1 -1 -1 -1 -1 -1 -1
 MicOpt= -1 -1 -1 -1 -1 -1 -1 -1 -1 -1 -1 -1 -1 -1 -1
 NAtoms=     55 NQM=       55 NQMF=       0 NMMI=      0 NMMIF=      0
                NMic=       0 NMicF=      0.
                    Isotopes and Nuclear Properties:
 (Nuclear quadrupole moments (NQMom) in fm**2, nuclear magnetic moments (NMagM)
  in nuclear magnetons)

  Atom         1           2           3           4           5           6           7           8           9          10
 IAtWgt=          12          12          12          12          12           1           1           1           1           1
 AtmWgt=  12.0000000  12.0000000  12.0000000  12.0000000  12.0000000   1.0078250   1.0078250   1.0078250   1.0078250   1.0078250
 NucSpn=           0           0           0           0           0           1           1           1           1           1
 AtZEff=   0.0000000   0.0000000   0.0000000   0.0000000   0.0000000   0.0000000   0.0000000   0.0000000   0.0000000   0.0000000
 NQMom=    0.0000000   0.0000000   0.0000000   0.0000000   0.0000000   0.0000000   0.0000000   0.0000000   0.0000000   0.0000000
 NMagM=    0.0000000   0.0000000   0.0000000   0.0000000   0.0000000   2.7928460   2.7928460   2.7928460   2.7928460   2.7928460
 AtZNuc=   6.0000000   6.0000000   6.0000000   6.0000000   6.0000000   1.0000000   1.0000000   1.0000000   1.0000000   1.0000000

  Atom        11          12          13          14          15          16          17          18          19          20
 IAtWgt=          16          16          16          16          16          12           1           1          16          32
 AtmWgt=  15.9949146  15.9949146  15.9949146  15.9949146  15.9949146  12.0000000   1.0078250   1.0078250  15.9949146  31.9720718
 NucSpn=           0           0           0           0           0           0           1           1           0           0
 AtZEff=   0.0000000   0.0000000   0.0000000   0.0000000   0.0000000   0.0000000   0.0000000   0.0000000   0.0000000   0.0000000
 NQMom=    0.0000000   0.0000000   0.0000000   0.0000000   0.0000000   0.0000000   0.0000000   0.0000000   0.0000000   0.0000000
 NMagM=    0.0000000   0.0000000   0.0000000   0.0000000   0.0000000   0.0000000   2.7928460   2.7928460   0.0000000   0.0000000
 AtZNuc=   8.0000000   8.0000000   8.0000000   8.0000000   8.0000000   6.0000000   1.0000000   1.0000000   8.0000000  16.0000000

  Atom        21          22          23          24          25          26          27          28          29          30
 IAtWgt=          16          16          12          12          12          12           1          12           1          12
 AtmWgt=  15.9949146  15.9949146  12.0000000  12.0000000  12.0000000  12.0000000   1.0078250  12.0000000   1.0078250  12.0000000
 NucSpn=           0           0           0           0           0           0           1           0           1           0
 AtZEff=   0.0000000   0.0000000   0.0000000   0.0000000   0.0000000   0.0000000   0.0000000   0.0000000   0.0000000   0.0000000
 NQMom=    0.0000000   0.0000000   0.0000000   0.0000000   0.0000000   0.0000000   0.0000000   0.0000000   0.0000000   0.0000000
 NMagM=    0.0000000   0.0000000   0.0000000   0.0000000   0.0000000   0.0000000   2.7928460   0.0000000   2.7928460   0.0000000
 AtZNuc=   8.0000000   8.0000000   6.0000000   6.0000000   6.0000000   6.0000000   1.0000000   6.0000000   1.0000000   6.0000000

  Atom        31          32          33          34          35          36          37          38          39          40
 IAtWgt=           1          12           1           1           1          12           1           1           1          12
 AtmWgt=   1.0078250  12.0000000   1.0078250   1.0078250   1.0078250  12.0000000   1.0078250   1.0078250   1.0078250  12.0000000
 NucSpn=           1           0           1           1           1           0           1           1           1           0
 AtZEff=   0.0000000   0.0000000   0.0000000   0.0000000   0.0000000   0.0000000   0.0000000   0.0000000   0.0000000   0.0000000
 NQMom=    0.0000000   0.0000000   0.0000000   0.0000000   0.0000000   0.0000000   0.0000000   0.0000000   0.0000000   0.0000000
 NMagM=    2.7928460   0.0000000   2.7928460   2.7928460   2.7928460   0.0000000   2.7928460   2.7928460   2.7928460   0.0000000
 AtZNuc=   1.0000000   6.0000000   1.0000000   1.0000000   1.0000000   6.0000000   1.0000000   1.0000000   1.0000000   6.0000000

  Atom        41          42          43          44          45          46          47          48          49          50
 IAtWgt=           1           1           1          12           1           1           1          12          19          19
 AtmWgt=   1.0078250   1.0078250   1.0078250  12.0000000   1.0078250   1.0078250   1.0078250  12.0000000  18.9984033  18.9984033
 NucSpn=           1           1           1           0           1           1           1           0           1           1
 AtZEff=   0.0000000   0.0000000   0.0000000   0.0000000   0.0000000   0.0000000   0.0000000   0.0000000   0.0000000   0.0000000
 NQMom=    0.0000000   0.0000000   0.0000000   0.0000000   0.0000000   0.0000000   0.0000000   0.0000000   0.0000000   0.0000000
 NMagM=    2.7928460   2.7928460   2.7928460   0.0000000   2.7928460   2.7928460   2.7928460   0.0000000   2.6288670   2.6288670
 AtZNuc=   1.0000000   1.0000000   1.0000000   6.0000000   1.0000000   1.0000000   1.0000000   6.0000000   9.0000000   9.0000000

  Atom        51          52          53          54          55
 IAtWgt=          19          12          19          19          19
 AtmWgt=  18.9984033  12.0000000  18.9984033  18.9984033  18.9984033
 NucSpn=           1           0           1           1           1
 AtZEff=   0.0000000   0.0000000   0.0000000   0.0000000   0.0000000
 NQMom=    0.0000000   0.0000000   0.0000000   0.0000000   0.0000000
 NMagM=    2.6288670   0.0000000   2.6288670   2.6288670   2.6288670
 AtZNuc=   9.0000000   6.0000000   9.0000000   9.0000000   9.0000000
 Leave Link  101 at Wed Jun  5 15:49:56 2019, MaxMem=  6442450944 cpu:              16.0 elap:               0.6
 (Enter /home/ekwan/sw/g16/l103.exe)

 GradGradGradGradGradGradGradGradGradGradGradGradGradGradGradGradGradGrad
 Berny optimization.
 Initialization pass.
                           ----------------------------
                           !    Initial Parameters    !
                           ! (Angstroms and Degrees)  !
 --------------------------                            --------------------------
 ! Name  Definition              Value          Derivative Info.                !
 --------------------------------------------------------------------------------
 ! R1    R(1,2)                  1.5298         estimate D2E/DX2                !
 ! R2    R(1,5)                  1.5299         estimate D2E/DX2                !
 ! R3    R(1,8)                  1.0968         estimate D2E/DX2                !
 ! R4    R(1,14)                 1.413          estimate D2E/DX2                !
 ! R5    R(2,3)                  1.538          estimate D2E/DX2                !
 ! R6    R(2,7)                  1.0999         estimate D2E/DX2                !
 ! R7    R(2,13)                 1.4031         estimate D2E/DX2                !
 ! R8    R(3,6)                  1.0884         estimate D2E/DX2                !
 ! R9    R(3,11)                 1.382          estimate D2E/DX2                !
 ! R10   R(3,12)                 1.4554         estimate D2E/DX2                !
 ! R11   R(4,5)                  1.5322         estimate D2E/DX2                !
 ! R12   R(4,9)                  1.0972         estimate D2E/DX2                !
 ! R13   R(4,11)                 1.4386         estimate D2E/DX2                !
 ! R14   R(4,16)                 1.5246         estimate D2E/DX2                !
 ! R15   R(5,10)                 1.0955         estimate D2E/DX2                !
 ! R16   R(5,15)                 1.4139         estimate D2E/DX2                !
 ! R17   R(12,20)                1.6235         estimate D2E/DX2                !
 ! R18   R(13,32)                1.4159         estimate D2E/DX2                !
 ! R19   R(14,36)                1.4156         estimate D2E/DX2                !
 ! R20   R(15,40)                1.4164         estimate D2E/DX2                !
 ! R21   R(16,17)                1.092          estimate D2E/DX2                !
 ! R22   R(16,18)                1.0971         estimate D2E/DX2                !
 ! R23   R(16,19)                1.4094         estimate D2E/DX2                !
 ! R24   R(19,44)                1.4155         estimate D2E/DX2                !
 ! R25   R(20,21)                1.4497         estimate D2E/DX2                !
 ! R26   R(20,22)                1.4552         estimate D2E/DX2                !
 ! R27   R(20,23)                1.7823         estimate D2E/DX2                !
 ! R28   R(23,24)                1.3911         estimate D2E/DX2                !
 ! R29   R(23,25)                1.3913         estimate D2E/DX2                !
 ! R30   R(24,26)                1.3928         estimate D2E/DX2                !
 ! R31   R(24,27)                1.0821         estimate D2E/DX2                !
 ! R32   R(25,28)                1.392          estimate D2E/DX2                !
 ! R33   R(25,29)                1.0816         estimate D2E/DX2                !
 ! R34   R(26,30)                1.3929         estimate D2E/DX2                !
 ! R35   R(26,48)                1.5082         estimate D2E/DX2                !
 ! R36   R(28,30)                1.3934         estimate D2E/DX2                !
 ! R37   R(28,52)                1.5073         estimate D2E/DX2                !
 ! R38   R(30,31)                1.0822         estimate D2E/DX2                !
 ! R39   R(32,33)                1.0961         estimate D2E/DX2                !
 ! R40   R(32,34)                1.0969         estimate D2E/DX2                !
 ! R41   R(32,35)                1.0901         estimate D2E/DX2                !
 ! R42   R(36,37)                1.0912         estimate D2E/DX2                !
 ! R43   R(36,38)                1.0972         estimate D2E/DX2                !
 ! R44   R(36,39)                1.0934         estimate D2E/DX2                !
 ! R45   R(40,41)                1.0912         estimate D2E/DX2                !
 ! R46   R(40,42)                1.094          estimate D2E/DX2                !
 ! R47   R(40,43)                1.0964         estimate D2E/DX2                !
 ! R48   R(44,45)                1.0913         estimate D2E/DX2                !
 ! R49   R(44,46)                1.0975         estimate D2E/DX2                !
 ! R50   R(44,47)                1.0939         estimate D2E/DX2                !
 ! R51   R(48,49)                1.3425         estimate D2E/DX2                !
 ! R52   R(48,50)                1.3454         estimate D2E/DX2                !
 ! R53   R(48,51)                1.343          estimate D2E/DX2                !
 ! R54   R(52,53)                1.3498         estimate D2E/DX2                !
 ! R55   R(52,54)                1.3415         estimate D2E/DX2                !
 ! R56   R(52,55)                1.3416         estimate D2E/DX2                !
 ! A1    A(2,1,5)              110.1997         estimate D2E/DX2                !
 ! A2    A(2,1,8)              109.2537         estimate D2E/DX2                !
 ! A3    A(2,1,14)             110.4479         estimate D2E/DX2                !
 ! A4    A(5,1,8)              108.5114         estimate D2E/DX2                !
 ! A5    A(5,1,14)             107.9811         estimate D2E/DX2                !
 ! A6    A(8,1,14)             110.4172         estimate D2E/DX2                !
 ! A7    A(1,2,3)              111.1846         estimate D2E/DX2                !
 ! A8    A(1,2,7)              107.6845         estimate D2E/DX2                !
 ! A9    A(1,2,13)             109.1273         estimate D2E/DX2                !
 ! A10   A(3,2,7)              105.7447         estimate D2E/DX2                !
 ! A11   A(3,2,13)             112.4973         estimate D2E/DX2                !
 ! A12   A(7,2,13)             110.462          estimate D2E/DX2                !
 ! A13   A(2,3,6)              111.6797         estimate D2E/DX2                !
 ! A14   A(2,3,11)             112.7978         estimate D2E/DX2                !
 ! A15   A(2,3,12)             106.5188         estimate D2E/DX2                !
 ! A16   A(6,3,11)             106.3952         estimate D2E/DX2                !
 ! A17   A(6,3,12)             108.0534         estimate D2E/DX2                !
 ! A18   A(11,3,12)            111.3636         estimate D2E/DX2                !
 ! A19   A(5,4,9)              108.5991         estimate D2E/DX2                !
 ! A20   A(5,4,11)             110.9382         estimate D2E/DX2                !
 ! A21   A(5,4,16)             113.0219         estimate D2E/DX2                !
 ! A22   A(9,4,11)             108.8525         estimate D2E/DX2                !
 ! A23   A(9,4,16)             107.1743         estimate D2E/DX2                !
 ! A24   A(11,4,16)            108.1178         estimate D2E/DX2                !
 ! A25   A(1,5,4)              111.4198         estimate D2E/DX2                !
 ! A26   A(1,5,10)             108.7106         estimate D2E/DX2                !
 ! A27   A(1,5,15)             109.9756         estimate D2E/DX2                !
 ! A28   A(4,5,10)             108.5198         estimate D2E/DX2                !
 ! A29   A(4,5,15)             107.4755         estimate D2E/DX2                !
 ! A30   A(10,5,15)            110.7352         estimate D2E/DX2                !
 ! A31   A(3,11,4)             115.7273         estimate D2E/DX2                !
 ! A32   A(3,12,20)            119.7175         estimate D2E/DX2                !
 ! A33   A(2,13,32)            114.8031         estimate D2E/DX2                !
 ! A34   A(1,14,36)            114.8796         estimate D2E/DX2                !
 ! A35   A(5,15,40)            114.5914         estimate D2E/DX2                !
 ! A36   A(4,16,17)            107.0146         estimate D2E/DX2                !
 ! A37   A(4,16,18)            108.9634         estimate D2E/DX2                !
 ! A38   A(4,16,19)            115.2314         estimate D2E/DX2                !
 ! A39   A(17,16,18)           108.2169         estimate D2E/DX2                !
 ! A40   A(17,16,19)           106.2931         estimate D2E/DX2                !
 ! A41   A(18,16,19)           110.8169         estimate D2E/DX2                !
 ! A42   A(16,19,44)           115.1505         estimate D2E/DX2                !
 ! A43   A(12,20,21)           104.5752         estimate D2E/DX2                !
 ! A44   A(12,20,22)           109.0371         estimate D2E/DX2                !
 ! A45   A(12,20,23)           103.6429         estimate D2E/DX2                !
 ! A46   A(21,20,22)           121.3374         estimate D2E/DX2                !
 ! A47   A(21,20,23)           108.4165         estimate D2E/DX2                !
 ! A48   A(22,20,23)           108.4194         estimate D2E/DX2                !
 ! A49   A(20,23,24)           118.9571         estimate D2E/DX2                !
 ! A50   A(20,23,25)           119.1904         estimate D2E/DX2                !
 ! A51   A(24,23,25)           121.8525         estimate D2E/DX2                !
 ! A52   A(23,24,26)           118.6666         estimate D2E/DX2                !
 ! A53   A(23,24,27)           120.3101         estimate D2E/DX2                !
 ! A54   A(26,24,27)           121.0215         estimate D2E/DX2                !
 ! A55   A(23,25,28)           118.622          estimate D2E/DX2                !
 ! A56   A(23,25,29)           120.5621         estimate D2E/DX2                !
 ! A57   A(28,25,29)           120.8152         estimate D2E/DX2                !
 ! A58   A(24,26,30)           120.4767         estimate D2E/DX2                !
 ! A59   A(24,26,48)           119.6542         estimate D2E/DX2                !
 ! A60   A(30,26,48)           119.8143         estimate D2E/DX2                !
 ! A61   A(25,28,30)           120.5428         estimate D2E/DX2                !
 ! A62   A(25,28,52)           119.5143         estimate D2E/DX2                !
 ! A63   A(30,28,52)           119.8822         estimate D2E/DX2                !
 ! A64   A(26,30,28)           119.8349         estimate D2E/DX2                !
 ! A65   A(26,30,31)           120.0791         estimate D2E/DX2                !
 ! A66   A(28,30,31)           120.0857         estimate D2E/DX2                !
 ! A67   A(13,32,33)           112.3365         estimate D2E/DX2                !
 ! A68   A(13,32,34)           111.2737         estimate D2E/DX2                !
 ! A69   A(13,32,35)           106.5036         estimate D2E/DX2                !
 ! A70   A(33,32,34)           108.9629         estimate D2E/DX2                !
 ! A71   A(33,32,35)           108.543          estimate D2E/DX2                !
 ! A72   A(34,32,35)           109.1212         estimate D2E/DX2                !
 ! A73   A(14,36,37)           106.4764         estimate D2E/DX2                !
 ! A74   A(14,36,38)           111.2417         estimate D2E/DX2                !
 ! A75   A(14,36,39)           111.7921         estimate D2E/DX2                !
 ! A76   A(37,36,38)           108.809          estimate D2E/DX2                !
 ! A77   A(37,36,39)           109.2869         estimate D2E/DX2                !
 ! A78   A(38,36,39)           109.1504         estimate D2E/DX2                !
 ! A79   A(15,40,41)           106.5193         estimate D2E/DX2                !
 ! A80   A(15,40,42)           111.4299         estimate D2E/DX2                !
 ! A81   A(15,40,43)           111.3004         estimate D2E/DX2                !
 ! A82   A(41,40,42)           109.25           estimate D2E/DX2                !
 ! A83   A(41,40,43)           108.9911         estimate D2E/DX2                !
 ! A84   A(42,40,43)           109.2737         estimate D2E/DX2                !
 ! A85   A(19,44,45)           106.5991         estimate D2E/DX2                !
 ! A86   A(19,44,46)           111.125          estimate D2E/DX2                !
 ! A87   A(19,44,47)           112.3143         estimate D2E/DX2                !
 ! A88   A(45,44,46)           108.8965         estimate D2E/DX2                !
 ! A89   A(45,44,47)           109.1722         estimate D2E/DX2                !
 ! A90   A(46,44,47)           108.657          estimate D2E/DX2                !
 ! A91   A(26,48,49)           111.6334         estimate D2E/DX2                !
 ! A92   A(26,48,50)           111.1737         estimate D2E/DX2                !
 ! A93   A(26,48,51)           111.6158         estimate D2E/DX2                !
 ! A94   A(49,48,50)           107.2357         estimate D2E/DX2                !
 ! A95   A(49,48,51)           107.7493         estimate D2E/DX2                !
 ! A96   A(50,48,51)           107.1996         estimate D2E/DX2                !
 ! A97   A(28,52,53)           110.9859         estimate D2E/DX2                !
 ! A98   A(28,52,54)           111.8488         estimate D2E/DX2                !
 ! A99   A(28,52,55)           111.7734         estimate D2E/DX2                !
 ! A100  A(53,52,54)           107.0212         estimate D2E/DX2                !
 ! A101  A(53,52,55)           107.0881         estimate D2E/DX2                !
 ! A102  A(54,52,55)           107.8706         estimate D2E/DX2                !
 ! D1    D(5,1,2,3)            -49.9928         estimate D2E/DX2                !
 ! D2    D(5,1,2,7)             65.4129         estimate D2E/DX2                !
 ! D3    D(5,1,2,13)          -174.6569         estimate D2E/DX2                !
 ! D4    D(8,1,2,3)             69.1413         estimate D2E/DX2                !
 ! D5    D(8,1,2,7)           -175.4531         estimate D2E/DX2                !
 ! D6    D(8,1,2,13)           -55.5229         estimate D2E/DX2                !
 ! D7    D(14,1,2,3)          -169.2173         estimate D2E/DX2                !
 ! D8    D(14,1,2,7)           -53.8116         estimate D2E/DX2                !
 ! D9    D(14,1,2,13)           66.1186         estimate D2E/DX2                !
 ! D10   D(2,1,5,4)             51.4735         estimate D2E/DX2                !
 ! D11   D(2,1,5,10)           -68.0713         estimate D2E/DX2                !
 ! D12   D(2,1,5,15)           170.5399         estimate D2E/DX2                !
 ! D13   D(8,1,5,4)            -68.1119         estimate D2E/DX2                !
 ! D14   D(8,1,5,10)           172.3433         estimate D2E/DX2                !
 ! D15   D(8,1,5,15)            50.9545         estimate D2E/DX2                !
 ! D16   D(14,1,5,4)           172.1891         estimate D2E/DX2                !
 ! D17   D(14,1,5,10)           52.6443         estimate D2E/DX2                !
 ! D18   D(14,1,5,15)          -68.7445         estimate D2E/DX2                !
 ! D19   D(2,1,14,36)         -101.0597         estimate D2E/DX2                !
 ! D20   D(5,1,14,36)          138.38           estimate D2E/DX2                !
 ! D21   D(8,1,14,36)           19.8914         estimate D2E/DX2                !
 ! D22   D(1,2,3,6)            171.7656         estimate D2E/DX2                !
 ! D23   D(1,2,3,11)            51.9916         estimate D2E/DX2                !
 ! D24   D(1,2,3,12)           -70.4758         estimate D2E/DX2                !
 ! D25   D(7,2,3,6)             55.1657         estimate D2E/DX2                !
 ! D26   D(7,2,3,11)           -64.6082         estimate D2E/DX2                !
 ! D27   D(7,2,3,12)           172.9244         estimate D2E/DX2                !
 ! D28   D(13,2,3,6)           -65.4911         estimate D2E/DX2                !
 ! D29   D(13,2,3,11)          174.735          estimate D2E/DX2                !
 ! D30   D(13,2,3,12)           52.2676         estimate D2E/DX2                !
 ! D31   D(1,2,13,32)         -157.0532         estimate D2E/DX2                !
 ! D32   D(3,2,13,32)           79.0546         estimate D2E/DX2                !
 ! D33   D(7,2,13,32)          -38.851          estimate D2E/DX2                !
 ! D34   D(2,3,11,4)           -55.8089         estimate D2E/DX2                !
 ! D35   D(6,3,11,4)          -178.5862         estimate D2E/DX2                !
 ! D36   D(12,3,11,4)           63.8999         estimate D2E/DX2                !
 ! D37   D(2,3,12,20)         -148.3615         estimate D2E/DX2                !
 ! D38   D(6,3,12,20)          -28.2331         estimate D2E/DX2                !
 ! D39   D(11,3,12,20)          88.2722         estimate D2E/DX2                !
 ! D40   D(9,4,5,1)             66.5768         estimate D2E/DX2                !
 ! D41   D(9,4,5,10)          -173.7653         estimate D2E/DX2                !
 ! D42   D(9,4,5,15)           -53.9692         estimate D2E/DX2                !
 ! D43   D(11,4,5,1)           -53.0143         estimate D2E/DX2                !
 ! D44   D(11,4,5,10)           66.6436         estimate D2E/DX2                !
 ! D45   D(11,4,5,15)         -173.5603         estimate D2E/DX2                !
 ! D46   D(16,4,5,1)          -174.6394         estimate D2E/DX2                !
 ! D47   D(16,4,5,10)          -54.9814         estimate D2E/DX2                !
 ! D48   D(16,4,5,15)           64.8147         estimate D2E/DX2                !
 ! D49   D(5,4,11,3)            56.1991         estimate D2E/DX2                !
 ! D50   D(9,4,11,3)           -63.2402         estimate D2E/DX2                !
 ! D51   D(16,4,11,3)         -179.3451         estimate D2E/DX2                !
 ! D52   D(5,4,16,17)          -67.5261         estimate D2E/DX2                !
 ! D53   D(5,4,16,18)          175.6766         estimate D2E/DX2                !
 ! D54   D(5,4,16,19)           50.4134         estimate D2E/DX2                !
 ! D55   D(9,4,16,17)           52.0807         estimate D2E/DX2                !
 ! D56   D(9,4,16,18)          -64.7166         estimate D2E/DX2                !
 ! D57   D(9,4,16,19)          170.0203         estimate D2E/DX2                !
 ! D58   D(11,4,16,17)         169.2732         estimate D2E/DX2                !
 ! D59   D(11,4,16,18)          52.4759         estimate D2E/DX2                !
 ! D60   D(11,4,16,19)         -72.7873         estimate D2E/DX2                !
 ! D61   D(1,5,15,40)          108.2941         estimate D2E/DX2                !
 ! D62   D(4,5,15,40)         -130.2518         estimate D2E/DX2                !
 ! D63   D(10,5,15,40)         -11.876          estimate D2E/DX2                !
 ! D64   D(3,12,20,21)         156.8426         estimate D2E/DX2                !
 ! D65   D(3,12,20,22)          25.6814         estimate D2E/DX2                !
 ! D66   D(3,12,20,23)         -89.6407         estimate D2E/DX2                !
 ! D67   D(2,13,32,33)         -67.9134         estimate D2E/DX2                !
 ! D68   D(2,13,32,34)          54.5651         estimate D2E/DX2                !
 ! D69   D(2,13,32,35)         173.3802         estimate D2E/DX2                !
 ! D70   D(1,14,36,37)        -178.6629         estimate D2E/DX2                !
 ! D71   D(1,14,36,38)         -60.2583         estimate D2E/DX2                !
 ! D72   D(1,14,36,39)          62.049          estimate D2E/DX2                !
 ! D73   D(5,15,40,41)         179.372          estimate D2E/DX2                !
 ! D74   D(5,15,40,42)         -61.561          estimate D2E/DX2                !
 ! D75   D(5,15,40,43)          60.6898         estimate D2E/DX2                !
 ! D76   D(4,16,19,44)          85.5179         estimate D2E/DX2                !
 ! D77   D(17,16,19,44)       -156.1391         estimate D2E/DX2                !
 ! D78   D(18,16,19,44)        -38.7797         estimate D2E/DX2                !
 ! D79   D(16,19,44,45)        168.6082         estimate D2E/DX2                !
 ! D80   D(16,19,44,46)         50.0883         estimate D2E/DX2                !
 ! D81   D(16,19,44,47)        -71.8687         estimate D2E/DX2                !
 ! D82   D(12,20,23,24)        -90.1503         estimate D2E/DX2                !
 ! D83   D(12,20,23,25)         89.8071         estimate D2E/DX2                !
 ! D84   D(21,20,23,24)         20.5668         estimate D2E/DX2                !
 ! D85   D(21,20,23,25)       -159.4758         estimate D2E/DX2                !
 ! D86   D(22,20,23,24)        154.0894         estimate D2E/DX2                !
 ! D87   D(22,20,23,25)        -25.9532         estimate D2E/DX2                !
 ! D88   D(20,23,24,26)        179.6985         estimate D2E/DX2                !
 ! D89   D(20,23,24,27)         -0.7776         estimate D2E/DX2                !
 ! D90   D(25,23,24,26)         -0.2577         estimate D2E/DX2                !
 ! D91   D(25,23,24,27)        179.2663         estimate D2E/DX2                !
 ! D92   D(20,23,25,28)       -179.2419         estimate D2E/DX2                !
 ! D93   D(20,23,25,29)          1.0464         estimate D2E/DX2                !
 ! D94   D(24,23,25,28)          0.7142         estimate D2E/DX2                !
 ! D95   D(24,23,25,29)       -178.9975         estimate D2E/DX2                !
 ! D96   D(23,24,26,30)         -0.3171         estimate D2E/DX2                !
 ! D97   D(23,24,26,48)        176.9857         estimate D2E/DX2                !
 ! D98   D(27,24,26,30)       -179.8375         estimate D2E/DX2                !
 ! D99   D(27,24,26,48)         -2.5347         estimate D2E/DX2                !
 ! D100  D(23,25,28,30)         -0.6029         estimate D2E/DX2                !
 ! D101  D(23,25,28,52)        176.56           estimate D2E/DX2                !
 ! D102  D(29,25,28,30)        179.108          estimate D2E/DX2                !
 ! D103  D(29,25,28,52)         -3.729          estimate D2E/DX2                !
 ! D104  D(24,26,30,28)          0.4206         estimate D2E/DX2                !
 ! D105  D(24,26,30,31)       -179.7932         estimate D2E/DX2                !
 ! D106  D(48,26,30,28)       -176.8779         estimate D2E/DX2                !
 ! D107  D(48,26,30,31)          2.9083         estimate D2E/DX2                !
 ! D108  D(24,26,48,49)         31.0286         estimate D2E/DX2                !
 ! D109  D(24,26,48,50)        -88.6713         estimate D2E/DX2                !
 ! D110  D(24,26,48,51)        151.6866         estimate D2E/DX2                !
 ! D111  D(30,26,48,49)       -151.6506         estimate D2E/DX2                !
 ! D112  D(30,26,48,50)         88.6496         estimate D2E/DX2                !
 ! D113  D(30,26,48,51)        -30.9925         estimate D2E/DX2                !
 ! D114  D(25,28,30,26)          0.0485         estimate D2E/DX2                !
 ! D115  D(25,28,30,31)       -179.7377         estimate D2E/DX2                !
 ! D116  D(52,28,30,26)       -177.104          estimate D2E/DX2                !
 ! D117  D(52,28,30,31)          3.1098         estimate D2E/DX2                !
 ! D118  D(25,28,52,53)        -88.3059         estimate D2E/DX2                !
 ! D119  D(25,28,52,54)        152.2493         estimate D2E/DX2                !
 ! D120  D(25,28,52,55)         31.1735         estimate D2E/DX2                !
 ! D121  D(30,28,52,53)         88.8761         estimate D2E/DX2                !
 ! D122  D(30,28,52,54)        -30.5688         estimate D2E/DX2                !
 ! D123  D(30,28,52,55)       -151.6446         estimate D2E/DX2                !
 --------------------------------------------------------------------------------
 Trust Radius=3.00D-01 FncErr=1.00D-07 GrdErr=1.00D-06 EigMax=2.50D+02 EigMin=1.00D-04
 Number of steps in this run=    291 maximum allowed number of steps=    330.
 GradGradGradGradGradGradGradGradGradGradGradGradGradGradGradGradGradGrad

 Leave Link  103 at Wed Jun  5 15:49:56 2019, MaxMem=  6442450944 cpu:               2.0 elap:               0.1
 (Enter /home/ekwan/sw/g16/l202.exe)
 Stoichiometry    C18H22F6O8S
 Framework group  C1[X(C18H22F6O8S)]
 Deg. of freedom   159
 Full point group                 C1      NOp   1
 Largest Abelian subgroup         C1      NOp   1
 Largest concise Abelian subgroup C1      NOp   1
                         Standard orientation:                         
 ---------------------------------------------------------------------
 Center     Atomic      Atomic             Coordinates (Angstroms)
 Number     Number       Type             X           Y           Z
 ---------------------------------------------------------------------
      1          6           0        3.540121   -0.245948    0.700237
      2          6           0        3.345548   -0.513856   -0.793310
      3          6           0        1.867937   -0.371410   -1.195659
      4          6           0        1.406009    1.110356    0.619933
      5          6           0        2.862406    1.067983    1.093941
      6          1           0        1.738990   -0.417556   -2.275395
      7          1           0        3.882429    0.270885   -1.346255
      8          1           0        3.083045   -1.059763    1.276214
      9          1           0        0.836292    0.351966    1.171426
     10          1           0        3.404794    1.897058    0.626355
     11          8           0        1.315063    0.827622   -0.787679
     12          8           0        1.168201   -1.504741   -0.609006
     13          8           0        3.867451   -1.778304   -1.105393
     14          8           0        4.915100   -0.136631    1.007144
     15          8           0        2.855070    1.204961    2.501144
     16          6           0        0.733846    2.454263    0.877976
     17          1           0        0.639640    2.561780    1.960577
     18          1           0       -0.274471    2.437355    0.445967
     19          8           0        1.452001    3.581123    0.429705
     20         16           0       -0.122113   -2.134018   -1.367126
     21          8           0       -0.210690   -3.492860   -0.869712
     22          8           0       -0.018630   -1.854741   -2.791500
     23          6           0       -1.491927   -1.202991   -0.708762
     24          6           0       -2.137753   -1.670088    0.431318
     25          6           0       -1.884916   -0.030889   -1.347021
     26          6           0       -3.203410   -0.934410    0.944319
     27          1           0       -1.818769   -2.591345    0.900924
     28          6           0       -2.945890    0.695374   -0.813564
     29          1           0       -1.378146    0.304626   -2.241744
     30          6           0       -3.606652    0.248197    0.328778
     31          1           0       -4.433318    0.816456    0.734773
     32          6           0        4.222369   -1.955436   -2.464620
     33          1           0        3.348191   -1.962969   -3.125853
     34          1           0        4.916127   -1.174674   -2.799806
     35          1           0        4.716278   -2.924848   -2.531896
     36          6           0        5.489098   -1.292300    1.589207
     37          1           0        6.534326   -1.051289    1.789665
     38          1           0        4.996830   -1.546761    2.536199
     39          1           0        5.439494   -2.152933    0.916567
     40          6           0        3.741934    2.189148    3.002188
     41          1           0        3.622184    2.191417    4.086793
     42          1           0        4.781240    1.953918    2.754559
     43          1           0        3.493587    3.183857    2.613739
     44          6           0        1.244401    3.926024   -0.927351
     45          1           0        1.689145    4.912359   -1.069894
     46          1           0        0.173720    3.981619   -1.162011
     47          1           0        1.716554    3.216553   -1.613109
     48          6           0       -3.963116   -1.454961    2.138738
     49          9           0       -3.173917   -2.174666    2.951995
     50          9           0       -4.977774   -2.252793    1.759279
     51          9           0       -4.493160   -0.455209    2.862027
     52          6           0       -3.338186    2.007724   -1.442770
     53          9           0       -2.638589    3.029595   -0.905726
     54          9           0       -4.638309    2.281524   -1.257150
     55          9           0       -3.099785    2.017601   -2.762966
 ---------------------------------------------------------------------
 Rotational constants (GHZ):           0.1504092           0.0796773           0.0736435
 Leave Link  202 at Wed Jun  5 15:49:56 2019, MaxMem=  6442450944 cpu:               5.0 elap:               0.2
 (Enter /home/ekwan/sw/g16/l301.exe)
 Standard basis: 6-31G(d) (6D, 7F)
 Ernie: Thresh=  0.10000D-02 Tol=  0.10000D-05 Strict=F.
 There are   543 symmetry adapted cartesian basis functions of A   symmetry.
 There are   543 symmetry adapted basis functions of A   symmetry.
   543 basis functions,  1036 primitive gaussians,   543 cartesian basis functions
   132 alpha electrons      132 beta electrons
       nuclear repulsion energy      4267.2161851183 Hartrees.
 IExCor= 1715 DFT=T Ex+Corr=B972 ExCW=0 ScaHFX=  0.210000
 ScaDFX=  1.000000  1.000000  1.000000  1.000000 ScalE2=  1.000000  1.000000
 IRadAn=      5 IRanWt=     -1 IRanGd=            0 ICorTp=0 IEmpDi=  4
 NAtoms=   55 NActive=   55 NUniq=   55 SFac= 1.00D+00 NAtFMM=   60 NAOKFM=F Big=F
 Integral buffers will be    131072 words long.
 Raffenetti 2 integral format.
 Two-electron integral symmetry is turned on.
 ------------------------------------------------------------------------------
 Polarizable Continuum Model (PCM)
 =================================
 Model                : PCM.
 Atomic radii         : UFF (Universal Force Field).
 Polarization charges : Total charges.
 Charge compensation  : None.
 Solution method      : On-the-fly selection.
 Cavity type          : Scaled VdW (van der Waals Surface) (Alpha=1.100).
 Cavity algorithm     : GePol (No added spheres)
                        Default sphere list used, NSphG=   55.
                        Lebedev-Laikov grids with approx.  5.0 points / Ang**2.
                        Smoothing algorithm: York/Karplus (Gamma=1.0000).
                        Polarization charges: spherical gaussians, with
                                              point-specific exponents (IZeta= 3).
                        Self-potential: point-specific (ISelfS= 7).
                        Self-field    : sphere-specific E.n sum rule (ISelfD= 2).
 1st derivatives      : Analytical E(r).r(x)/FMM algorithm (CHGder, D1EAlg=3).
                        Cavity 1st derivative terms included.
 Solvent              : TetraHydroFuran, Eps=   7.425700 Eps(inf)=   1.974025
 ------------------------------------------------------------------------------
 GePol: Number of generator spheres                  =      55
 GePol: Total number of spheres                      =      55
 GePol: Number of exposed spheres                    =      55 (100.00%)
 GePol: Number of points                             =    4037
 GePol: Average weight of points                     =       0.13
 GePol: Minimum weight of points                     =   0.66D-10
 GePol: Maximum weight of points                     =    0.20577
 GePol: Number of points with low weight             =     261
 GePol: Fraction of low-weight points (<1% of avg)   =       6.47%
 GePol: Cavity surface area                          =    510.497 Ang**2
 GePol: Cavity volume                                =    581.564 Ang**3
 Leave Link  301 at Wed Jun  5 15:49:57 2019, MaxMem=  6442450944 cpu:               7.6 elap:               0.3
 (Enter /home/ekwan/sw/g16/l302.exe)
 NPDir=0 NMtPBC=     1 NCelOv=     1 NCel=       1 NClECP=     1 NCelD=      1
         NCelK=      1 NCelE2=     1 NClLst=     1 CellRange=     0.0.
 One-electron integrals computed using PRISM.
 One-electron integral symmetry used in STVInt
 NBasis=   543 RedAO= T EigKep=  4.08D-04  NBF=   543
 NBsUse=   543 1.00D-06 EigRej= -1.00D+00 NBFU=   543
 Precomputing XC quadrature grid using
 IXCGrd= 4 IRadAn=           5 IRanWt=          -1 IRanGd=           0 AccXCQ= 0.00D+00.
 Generated NRdTot=       0 NPtTot=           0 NUsed=           0 NTot=          32
 NSgBfM=   530   530   530   530   530 MxSgAt=    55 MxSgA2=    55.
 Leave Link  302 at Wed Jun  5 15:50:03 2019, MaxMem=  6442450944 cpu:             183.0 elap:               6.6
 (Enter /home/ekwan/sw/g16/l303.exe)
 DipDrv:  MaxL=1.
 Leave Link  303 at Wed Jun  5 15:50:04 2019, MaxMem=  6442450944 cpu:               9.5 elap:               0.5
 (Enter /home/ekwan/sw/g16/l401.exe)
 ExpMin= 1.17D-01 ExpMax= 2.19D+04 ExpMxC= 3.30D+03 IAcc=3 IRadAn=         5 AccDes= 0.00D+00
 Harris functional with IExCor= 1715 and IRadAn=       5 diagonalized for initial guess.
 HarFok:  IExCor= 1715 AccDes= 0.00D+00 IRadAn=         5 IDoV= 1 UseB2=F ITyADJ=14
 ICtDFT=  3500011 ScaDFX=  1.000000  1.000000  1.000000  1.000000
 FoFCou: FMM=F IPFlag=           0 FMFlag=      100000 FMFlg1=           0
         NFxFlg=           0 DoJE=T BraDBF=F KetDBF=T FulRan=T
         wScrn=  0.000000 ICntrl=       500 IOpCl=  0 I1Cent=   200000004 NGrid=           0
         NMat0=    1 NMatS0=      1 NMatT0=    0 NMatD0=    1 NMtDS0=    0 NMtDT0=    0
 Petite list used in FoFCou.
 Harris En= -2244.90211576163    
 JPrj=0 DoOrth=F DoCkMO=F.
 Leave Link  401 at Wed Jun  5 15:50:13 2019, MaxMem=  6442450944 cpu:             264.8 elap:               9.0
 (Enter /home/ekwan/sw/g16/l502.exe)
 Integral symmetry usage will be decided dynamically.
 Closed shell SCF:
 Using DIIS extrapolation, IDIIS=  1040.
 NGot=  6442450944 LenX=  6441838015 LenY=  6441542623
 Requested convergence on RMS density matrix=1.00D-08 within 128 cycles.
 Requested convergence on MAX density matrix=1.00D-06.
 Requested convergence on             energy=1.00D-06.
 No special actions if energy rises.
 Fock matrices will be formed incrementally for  20 cycles.

 Cycle   1  Pass 1  IDiag  1:
 FoFJK:  IHMeth= 1 ICntrl=       0 DoSepK=F KAlg= 0 I1Cent=           0 FoldK=F
 IRaf= 680000000 NMat=       1 IRICut=       1 DoRegI=T DoRafI=F ISym2E= 0 IDoP0=0 IntGTp=1.
 FoFCou: FMM=F IPFlag=           0 FMFlag=      100000 FMFlg1=           0
         NFxFlg=           0 DoJE=F BraDBF=F KetDBF=F FulRan=T
         wScrn=  0.000000 ICntrl=         0 IOpCl=  0 I1Cent=           0 NGrid=           0
         NMat0=    1 NMatS0=      1 NMatT0=    0 NMatD0=    1 NMtDS0=    0 NMtDT0=    0
 Symmetry not used in FoFCou.
 Inv3:  Mode=1 IEnd=    48892107.
 Iteration    1 A*A^-1 deviation from unit magnitude is 4.66D-15 for   4034.
 Iteration    1 A*A^-1 deviation from orthogonality  is 2.56D-15 for   4033   2824.
 Iteration    1 A^-1*A deviation from unit magnitude is 4.66D-15 for   4034.
 Iteration    1 A^-1*A deviation from orthogonality  is 3.34D-15 for   1216    503.
 E= -2296.80261931892    
 DIIS: error= 6.99D-02 at cycle   1 NSaved=   1.
 NSaved= 1 IEnMin= 1 EnMin= -2296.80261931892     IErMin= 1 ErrMin= 6.99D-02
 ErrMax= 6.99D-02  0.00D+00 EMaxC= 1.00D-01 BMatC= 1.88D+00 BMatP= 1.88D+00
 IDIUse=3 WtCom= 3.01D-01 WtEn= 6.99D-01
 Coeff-Com:  0.100D+01
 Coeff-En:   0.100D+01
 Coeff:      0.100D+01
 Gap=     0.271 Goal=   None    Shift=    0.000
 GapD=    0.271 DampG=1.000 DampE=0.500 DampFc=0.5000 IDamp=-1.
 Damping current iteration by 5.00D-01
 RMSDP=3.84D-03 MaxDP=5.70D-01              OVMax= 2.25D-01

 Cycle   2  Pass 1  IDiag  1:
 RMSU=  1.92D-03    CP:  9.96D-01
 E= -2297.08174180860     Delta-E=       -0.279122489676 Rises=F Damp=T
 DIIS: error= 3.68D-02 at cycle   2 NSaved=   2.
 NSaved= 2 IEnMin= 2 EnMin= -2297.08174180860     IErMin= 2 ErrMin= 3.68D-02
 ErrMax= 3.68D-02  0.00D+00 EMaxC= 1.00D-01 BMatC= 2.95D-01 BMatP= 1.88D+00
 IDIUse=3 WtCom= 6.32D-01 WtEn= 3.68D-01
 Coeff-Com: -0.182D+00 0.118D+01
 Coeff-En:   0.984D-01 0.902D+00
 Coeff:     -0.789D-01 0.108D+01
 Gap=     0.364 Goal=   None    Shift=    0.000
 RMSDP=1.22D-03 MaxDP=1.00D-01 DE=-2.79D-01 OVMax= 1.45D-01

 Cycle   3  Pass 1  IDiag  1:
 RMSU=  1.21D-03    CP:  9.99D-01  9.17D-01
 E= -2297.33579030411     Delta-E=       -0.254048495506 Rises=F Damp=F
 DIIS: error= 1.00D-02 at cycle   3 NSaved=   3.
 NSaved= 3 IEnMin= 3 EnMin= -2297.33579030411     IErMin= 3 ErrMin= 1.00D-02
 ErrMax= 1.00D-02  0.00D+00 EMaxC= 1.00D-01 BMatC= 1.71D-01 BMatP= 2.95D-01
 IDIUse=3 WtCom= 9.00D-01 WtEn= 1.00D-01
 Coeff-Com: -0.206D+00 0.591D+00 0.615D+00
 Coeff-En:   0.000D+00 0.000D+00 0.100D+01
 Coeff:     -0.186D+00 0.532D+00 0.654D+00
 Gap=     0.178 Goal=   None    Shift=    0.000
 RMSDP=9.98D-04 MaxDP=7.75D-02 DE=-2.54D-01 OVMax= 9.94D-02

 Cycle   4  Pass 1  IDiag  1:
 RMSU=  5.70D-04    CP:  9.99D-01  1.14D+00  4.25D-01
 E= -2297.43091669371     Delta-E=       -0.095126389606 Rises=F Damp=F
 DIIS: error= 6.59D-03 at cycle   4 NSaved=   4.
 NSaved= 4 IEnMin= 4 EnMin= -2297.43091669371     IErMin= 4 ErrMin= 6.59D-03
 ErrMax= 6.59D-03  0.00D+00 EMaxC= 1.00D-01 BMatC= 5.06D-02 BMatP= 1.71D-01
 IDIUse=3 WtCom= 9.34D-01 WtEn= 6.59D-02
 Coeff-Com: -0.102D+00 0.237D+00 0.414D+00 0.452D+00
 Coeff-En:   0.000D+00 0.000D+00 0.245D+00 0.755D+00
 Coeff:     -0.954D-01 0.221D+00 0.403D+00 0.472D+00
 Gap=     0.186 Goal=   None    Shift=    0.000
 RMSDP=4.54D-04 MaxDP=3.51D-02 DE=-9.51D-02 OVMax= 3.99D-02

 Cycle   5  Pass 1  IDiag  1:
 RMSU=  1.69D-04    CP:  9.97D-01  1.13D+00  6.29D-01  4.05D-01
 E= -2297.46861541920     Delta-E=       -0.037698725487 Rises=F Damp=F
 DIIS: error= 1.01D-03 at cycle   5 NSaved=   5.
 NSaved= 5 IEnMin= 5 EnMin= -2297.46861541920     IErMin= 5 ErrMin= 1.01D-03
 ErrMax= 1.01D-03  0.00D+00 EMaxC= 1.00D-01 BMatC= 2.06D-03 BMatP= 5.06D-02
 IDIUse=3 WtCom= 9.90D-01 WtEn= 1.01D-02
 Coeff-Com: -0.380D-01 0.808D-01 0.175D+00 0.264D+00 0.519D+00
 Coeff-En:   0.000D+00 0.000D+00 0.000D+00 0.000D+00 0.100D+01
 Coeff:     -0.376D-01 0.800D-01 0.173D+00 0.261D+00 0.524D+00
 Gap=     0.178 Goal=   None    Shift=    0.000
 RMSDP=9.23D-05 MaxDP=4.73D-03 DE=-3.77D-02 OVMax= 8.35D-03

 Cycle   6  Pass 1  IDiag  1:
 RMSU=  4.20D-05    CP:  9.97D-01  1.13D+00  6.21D-01  4.94D-01  6.28D-01
 E= -2297.47034625795     Delta-E=       -0.001730838753 Rises=F Damp=F
 DIIS: error= 1.83D-04 at cycle   6 NSaved=   6.
 NSaved= 6 IEnMin= 6 EnMin= -2297.47034625795     IErMin= 6 ErrMin= 1.83D-04
 ErrMax= 1.83D-04  0.00D+00 EMaxC= 1.00D-01 BMatC= 7.35D-05 BMatP= 2.06D-03
 IDIUse=3 WtCom= 9.98D-01 WtEn= 1.83D-03
 Coeff-Com: -0.859D-02 0.171D-01 0.422D-01 0.768D-01 0.232D+00 0.640D+00
 Coeff-En:   0.000D+00 0.000D+00 0.000D+00 0.000D+00 0.000D+00 0.100D+01
 Coeff:     -0.857D-02 0.171D-01 0.421D-01 0.767D-01 0.232D+00 0.641D+00
 Gap=     0.178 Goal=   None    Shift=    0.000
 RMSDP=2.17D-05 MaxDP=9.11D-04 DE=-1.73D-03 OVMax= 2.33D-03

 Cycle   7  Pass 1  IDiag  1:
 RMSU=  1.53D-05    CP:  9.97D-01  1.13D+00  6.23D-01  4.97D-01  6.63D-01
                    CP:  6.78D-01
 E= -2297.47039733458     Delta-E=       -0.000051076627 Rises=F Damp=F
 DIIS: error= 9.15D-05 at cycle   7 NSaved=   7.
 NSaved= 7 IEnMin= 7 EnMin= -2297.47039733458     IErMin= 7 ErrMin= 9.15D-05
 ErrMax= 9.15D-05  0.00D+00 EMaxC= 1.00D-01 BMatC= 1.31D-05 BMatP= 7.35D-05
 IDIUse=1 WtCom= 1.00D+00 WtEn= 0.00D+00
 Coeff-Com:  0.462D-03-0.137D-02-0.124D-02 0.502D-02 0.536D-01 0.350D+00
 Coeff-Com:  0.593D+00
 Coeff:      0.462D-03-0.137D-02-0.124D-02 0.502D-02 0.536D-01 0.350D+00
 Coeff:      0.593D+00
 Gap=     0.179 Goal=   None    Shift=    0.000
 RMSDP=7.41D-06 MaxDP=4.70D-04 DE=-5.11D-05 OVMax= 9.87D-04

 Cycle   8  Pass 1  IDiag  1:
 RMSU=  2.97D-06    CP:  9.97D-01  1.13D+00  6.22D-01  4.96D-01  6.70D-01
                    CP:  7.60D-01  6.37D-01
 E= -2297.47040914600     Delta-E=       -0.000011811423 Rises=F Damp=F
 DIIS: error= 1.93D-05 at cycle   8 NSaved=   8.
 NSaved= 8 IEnMin= 8 EnMin= -2297.47040914600     IErMin= 8 ErrMin= 1.93D-05
 ErrMax= 1.93D-05  0.00D+00 EMaxC= 1.00D-01 BMatC= 4.16D-07 BMatP= 1.31D-05
 IDIUse=1 WtCom= 1.00D+00 WtEn= 0.00D+00
 Coeff-Com:  0.590D-03-0.140D-02-0.234D-02-0.438D-03 0.182D-01 0.153D+00
 Coeff-Com:  0.288D+00 0.545D+00
 Coeff:      0.590D-03-0.140D-02-0.234D-02-0.438D-03 0.182D-01 0.153D+00
 Coeff:      0.288D+00 0.545D+00
 Gap=     0.179 Goal=   None    Shift=    0.000
 RMSDP=1.45D-06 MaxDP=9.59D-05 DE=-1.18D-05 OVMax= 1.29D-04

 Cycle   9  Pass 1  IDiag  1:
 RMSU=  1.22D-06    CP:  9.97D-01  1.13D+00  6.22D-01  4.96D-01  6.71D-01
                    CP:  7.62D-01  6.48D-01  7.66D-01
 E= -2297.47040941512     Delta-E=       -0.000000269120 Rises=F Damp=F
 DIIS: error= 9.23D-06 at cycle   9 NSaved=   9.
 NSaved= 9 IEnMin= 9 EnMin= -2297.47040941512     IErMin= 9 ErrMin= 9.23D-06
 ErrMax= 9.23D-06  0.00D+00 EMaxC= 1.00D-01 BMatC= 7.35D-08 BMatP= 4.16D-07
 IDIUse=1 WtCom= 1.00D+00 WtEn= 0.00D+00
 Coeff-Com:  0.246D-03-0.544D-03-0.110D-02-0.977D-03 0.207D-02 0.337D-01
 Coeff-Com:  0.728D-01 0.313D+00 0.581D+00
 Coeff:      0.246D-03-0.544D-03-0.110D-02-0.977D-03 0.207D-02 0.337D-01
 Coeff:      0.728D-01 0.313D+00 0.581D+00
 Gap=     0.179 Goal=   None    Shift=    0.000
 RMSDP=5.84D-07 MaxDP=4.47D-05 DE=-2.69D-07 OVMax= 6.21D-05

 Cycle  10  Pass 1  IDiag  1:
 RMSU=  3.03D-07    CP:  9.97D-01  1.13D+00  6.22D-01  4.96D-01  6.71D-01
                    CP:  7.64D-01  6.51D-01  8.41D-01  6.49D-01
 E= -2297.47040947039     Delta-E=       -0.000000055271 Rises=F Damp=F
 DIIS: error= 2.81D-06 at cycle  10 NSaved=  10.
 NSaved=10 IEnMin=10 EnMin= -2297.47040947039     IErMin=10 ErrMin= 2.81D-06
 ErrMax= 2.81D-06  0.00D+00 EMaxC= 1.00D-01 BMatC= 7.61D-09 BMatP= 7.35D-08
 IDIUse=1 WtCom= 1.00D+00 WtEn= 0.00D+00
 Coeff-Com:  0.930D-04-0.199D-03-0.439D-03-0.506D-03-0.107D-03 0.846D-02
 Coeff-Com:  0.213D-01 0.133D+00 0.325D+00 0.513D+00
 Coeff:      0.930D-04-0.199D-03-0.439D-03-0.506D-03-0.107D-03 0.846D-02
 Coeff:      0.213D-01 0.133D+00 0.325D+00 0.513D+00
 Gap=     0.179 Goal=   None    Shift=    0.000
 RMSDP=1.70D-07 MaxDP=1.28D-05 DE=-5.53D-08 OVMax= 1.80D-05

 Cycle  11  Pass 1  IDiag  1:
 RMSU=  1.01D-07    CP:  9.97D-01  1.13D+00  6.22D-01  4.96D-01  6.71D-01
                    CP:  7.64D-01  6.52D-01  8.39D-01  7.07D-01  6.39D-01
 E= -2297.47040947590     Delta-E=       -0.000000005510 Rises=F Damp=F
 DIIS: error= 6.91D-07 at cycle  11 NSaved=  11.
 NSaved=11 IEnMin=11 EnMin= -2297.47040947590     IErMin=11 ErrMin= 6.91D-07
 ErrMax= 6.91D-07  0.00D+00 EMaxC= 1.00D-01 BMatC= 4.93D-10 BMatP= 7.61D-09
 IDIUse=1 WtCom= 1.00D+00 WtEn= 0.00D+00
 Coeff-Com:  0.130D-04-0.249D-04-0.657D-04-0.117D-03-0.391D-03-0.828D-03
 Coeff-Com: -0.305D-03 0.162D-01 0.667D-01 0.237D+00 0.682D+00
 Coeff:      0.130D-04-0.249D-04-0.657D-04-0.117D-03-0.391D-03-0.828D-03
 Coeff:     -0.305D-03 0.162D-01 0.667D-01 0.237D+00 0.682D+00
 Gap=     0.179 Goal=   None    Shift=    0.000
 RMSDP=4.89D-08 MaxDP=3.36D-06 DE=-5.51D-09 OVMax= 4.72D-06

 Cycle  12  Pass 1  IDiag  1:
 RMSU=  3.16D-08    CP:  9.97D-01  1.13D+00  6.22D-01  4.96D-01  6.71D-01
                    CP:  7.64D-01  6.52D-01  8.44D-01  7.09D-01  7.06D-01
                    CP:  7.44D-01
 E= -2297.47040947626     Delta-E=       -0.000000000360 Rises=F Damp=F
 DIIS: error= 4.09D-07 at cycle  12 NSaved=  12.
 NSaved=12 IEnMin=12 EnMin= -2297.47040947626     IErMin=12 ErrMin= 4.09D-07
 ErrMax= 4.09D-07  0.00D+00 EMaxC= 1.00D-01 BMatC= 7.87D-11 BMatP= 4.93D-10
 IDIUse=1 WtCom= 1.00D+00 WtEn= 0.00D+00
 Coeff-Com: -0.459D-07 0.184D-05-0.236D-05-0.266D-04-0.229D-03-0.121D-02
 Coeff-Com: -0.195D-02-0.140D-02 0.132D-01 0.990D-01 0.395D+00 0.498D+00
 Coeff:     -0.459D-07 0.184D-05-0.236D-05-0.266D-04-0.229D-03-0.121D-02
 Coeff:     -0.195D-02-0.140D-02 0.132D-01 0.990D-01 0.395D+00 0.498D+00
 Gap=     0.179 Goal=   None    Shift=    0.000
 RMSDP=1.98D-08 MaxDP=1.00D-06 DE=-3.60D-10 OVMax= 2.87D-06

 Cycle  13  Pass 1  IDiag  1:
 RMSU=  1.14D-08    CP:  9.97D-01  1.13D+00  6.22D-01  4.96D-01  6.71D-01
                    CP:  7.64D-01  6.52D-01  8.44D-01  7.10D-01  7.11D-01
                    CP:  8.10D-01  5.64D-01
 E= -2297.47040947627     Delta-E=       -0.000000000008 Rises=F Damp=F
 DIIS: error= 1.04D-07 at cycle  13 NSaved=  13.
 NSaved=13 IEnMin=13 EnMin= -2297.47040947627     IErMin=13 ErrMin= 1.04D-07
 ErrMax= 1.04D-07  0.00D+00 EMaxC= 1.00D-01 BMatC= 6.14D-12 BMatP= 7.87D-11
 IDIUse=1 WtCom= 1.00D+00 WtEn= 0.00D+00
 Coeff-Com: -0.159D-05 0.379D-05 0.735D-05 0.333D-05-0.592D-04-0.460D-03
 Coeff-Com: -0.845D-03-0.274D-02-0.188D-02 0.183D-01 0.107D+00 0.255D+00
 Coeff-Com:  0.626D+00
 Coeff:     -0.159D-05 0.379D-05 0.735D-05 0.333D-05-0.592D-04-0.460D-03
 Coeff:     -0.845D-03-0.274D-02-0.188D-02 0.183D-01 0.107D+00 0.255D+00
 Coeff:      0.626D+00
 Gap=     0.179 Goal=   None    Shift=    0.000
 RMSDP=5.62D-09 MaxDP=3.93D-07 DE=-8.19D-12 OVMax= 7.08D-07

 Error on total polarization charges =  0.00872
 SCF Done:  E(RB972) =  -2297.47040948     A.U. after   13 cycles
            NFock= 13  Conv=0.56D-08     -V/T= 2.0066
 KE= 2.282398385063D+03 PE=-1.394346720956D+04 EE= 5.096382229899D+03
 Leave Link  502 at Wed Jun  5 15:54:13 2019, MaxMem=  6442450944 cpu:            7137.2 elap:             239.9
 (Enter /home/ekwan/sw/g16/l701.exe)
 ... and contract with generalized density number  0.
 Compute integral first derivatives.
 D1PCM: PCM CHGder 1st derivatives, ID1Alg=3 FixD1E=F DoIter=F DoCFld=F I1PDM=0.
 GePol: Maximum number of non-zero 1st derivatives   =     225
 Leave Link  701 at Wed Jun  5 15:54:25 2019, MaxMem=  6442450944 cpu:             343.3 elap:              12.3
 (Enter /home/ekwan/sw/g16/l702.exe)
 L702 exits ... SP integral derivatives will be done elsewhere.
 Leave Link  702 at Wed Jun  5 15:54:25 2019, MaxMem=  6442450944 cpu:               1.6 elap:               0.1
 (Enter /home/ekwan/sw/g16/l703.exe)
 Integral derivatives from FoFJK, PRISM(SPDF).
 Compute integral first derivatives, UseDBF=F ICtDFT=           0.
 Calling FoFJK, ICntrl=      2127 FMM=F ISym2X=0 I1Cent= 0 IOpClX= 0 NMat=1 NMatS=1 NMatT=0.
 FoFJK:  IHMeth= 1 ICntrl=    2127 DoSepK=F KAlg= 0 I1Cent=           0 FoldK=F
 IRaf=         0 NMat=       1 IRICut=       1 DoRegI=T DoRafI=F ISym2E= 0 IDoP0=0 IntGTp=1.
 FoFCou: FMM=F IPFlag=           0 FMFlag=      100000 FMFlg1=         800
         NFxFlg=           0 DoJE=F BraDBF=F KetDBF=F FulRan=T
         wScrn=  0.000000 ICntrl=      2127 IOpCl=  0 I1Cent=           0 NGrid=           0
         NMat0=    1 NMatS0=      1 NMatT0=    0 NMatD0=    1 NMtDS0=    0 NMtDT0=    0
 Symmetry not used in FoFCou.
 Leave Link  703 at Wed Jun  5 15:55:03 2019, MaxMem=  6442450944 cpu:            1116.9 elap:              37.6
 (Enter /home/ekwan/sw/g16/l716.exe)
 Dipole        = 3.92228192D-01 1.19968508D+00-8.73128298D-02
 ***** Axes restored to original set *****
 -------------------------------------------------------------------
 Center     Atomic                   Forces (Hartrees/Bohr)
 Number     Number              X              Y              Z
 -------------------------------------------------------------------
      1        6           0.000000265   -0.000004471   -0.000002551
      2        6          -0.000001116   -0.000002586   -0.000004937
      3        6          -0.000002812   -0.000011303    0.000008962
      4        6           0.000003359    0.000003126    0.000009879
      5        6          -0.000005522    0.000001239   -0.000000142
      6        1           0.000000122    0.000001856    0.000000040
      7        1           0.000000771    0.000002861    0.000000548
      8        1          -0.000000200    0.000000896    0.000000599
      9        1           0.000000214   -0.000000377    0.000000287
     10        1           0.000000389   -0.000000028    0.000001254
     11        8          -0.000001341    0.000011062   -0.000004128
     12        8           0.000005255    0.000004751   -0.000006722
     13        8           0.000007443    0.000003328    0.000002911
     14        8          -0.000000248    0.000001501    0.000003093
     15        8          -0.000000926    0.000000180   -0.000001251
     16        6          -0.000000648    0.000000536    0.000001922
     17        1          -0.000004827    0.000000777    0.000001694
     18        1          -0.000000054   -0.000002348   -0.000000946
     19        8           0.000002152   -0.000002891   -0.000005669
     20       16           0.000010893   -0.000007856   -0.000003070
     21        8          -0.000002259    0.000012224   -0.000005384
     22        8          -0.000003957   -0.000005046    0.000006384
     23        6           0.000004666   -0.000001537   -0.000000052
     24        6           0.000000153   -0.000001967   -0.000004218
     25        6          -0.000001495    0.000003080   -0.000000888
     26        6           0.000000308    0.000002698   -0.000002274
     27        1           0.000000729   -0.000000340   -0.000000021
     28        6           0.000003584   -0.000001998   -0.000001857
     29        1          -0.000000833   -0.000000235   -0.000000984
     30        6          -0.000002469   -0.000005171    0.000000835
     31        1          -0.000001013   -0.000000706   -0.000001403
     32        6          -0.000002873    0.000000190    0.000004699
     33        1           0.000002028    0.000001242   -0.000000499
     34        1           0.000001937    0.000002005    0.000000537
     35        1           0.000000661    0.000000891   -0.000000053
     36        6          -0.000001976    0.000003334   -0.000000719
     37        1           0.000000494    0.000001052    0.000000787
     38        1          -0.000000219    0.000000860    0.000001817
     39        1           0.000000213    0.000000375    0.000000150
     40        6          -0.000002461    0.000000034    0.000000773
     41        1          -0.000001464   -0.000000006    0.000001181
     42        1          -0.000000720    0.000000583    0.000001114
     43        1          -0.000001651    0.000000800    0.000000950
     44        6          -0.000004292    0.000002013    0.000008056
     45        1          -0.000000728    0.000000854   -0.000000919
     46        1           0.000001062    0.000000058   -0.000000263
     47        1           0.000000727   -0.000001572   -0.000001017
     48        6          -0.000000452   -0.000005802    0.000002233
     49        9          -0.000000535   -0.000001258   -0.000002503
     50        9           0.000000516   -0.000000226   -0.000002660
     51        9          -0.000000197   -0.000001096   -0.000002240
     52        6          -0.000007516   -0.000000714   -0.000005933
     53        9           0.000001623   -0.000000243    0.000003782
     54        9           0.000004213   -0.000002540    0.000000219
     55        9           0.000001031   -0.000002085   -0.000001401
 -------------------------------------------------------------------
 Cartesian Forces:  Max     0.000012224 RMS     0.000003317
 Leave Link  716 at Wed Jun  5 15:55:03 2019, MaxMem=  6442450944 cpu:               1.9 elap:               0.1
 (Enter /home/ekwan/sw/g16/l103.exe)

 GradGradGradGradGradGradGradGradGradGradGradGradGradGradGradGradGradGrad
 Berny optimization.
 FormGI is forming the generalized inverse of G from B-inverse, IUseBI=4.
 Internal  Forces:  Max     0.000012974 RMS     0.000002208
 Search for a local minimum.
 Step number   1 out of a maximum of  291
 All quantities printed in internal units (Hartrees-Bohrs-Radians)
 RMS Force = .22082D-05 SwitMx=.10000D-02 MixMth= 2
 Mixed Optimization -- En-DIIS/RFO-DIIS
 Second derivative matrix not updated -- first step.
 ITU=  0
     Eigenvalues ---    0.00440   0.00566   0.00604   0.00618   0.00657
     Eigenvalues ---    0.00669   0.00959   0.01378   0.01475   0.01481
     Eigenvalues ---    0.01486   0.01487   0.01508   0.01519   0.01543
     Eigenvalues ---    0.01567   0.01606   0.01610   0.01651   0.02180
     Eigenvalues ---    0.02182   0.02189   0.02195   0.02199   0.02204
     Eigenvalues ---    0.02309   0.02886   0.03301   0.04347   0.04554
     Eigenvalues ---    0.04625   0.04819   0.04900   0.05238   0.05260
     Eigenvalues ---    0.05774   0.06053   0.06548   0.06967   0.07017
     Eigenvalues ---    0.07144   0.07831   0.09299   0.09990   0.10019
     Eigenvalues ---    0.10049   0.10074   0.10582   0.10592   0.10614
     Eigenvalues ---    0.10615   0.10713   0.10727   0.10778   0.10916
     Eigenvalues ---    0.10931   0.10953   0.11469   0.11880   0.11886
     Eigenvalues ---    0.14167   0.15018   0.15999   0.16000   0.16000
     Eigenvalues ---    0.16000   0.16000   0.16000   0.16000   0.16000
     Eigenvalues ---    0.16000   0.16000   0.16000   0.16000   0.16000
     Eigenvalues ---    0.16000   0.16000   0.16456   0.16815   0.17505
     Eigenvalues ---    0.18717   0.19755   0.19799   0.20798   0.22140
     Eigenvalues ---    0.23480   0.23482   0.23501   0.24967   0.24974
     Eigenvalues ---    0.25000   0.25000   0.25000   0.25000   0.25000
     Eigenvalues ---    0.25000   0.25000   0.25000   0.25000   0.25000
     Eigenvalues ---    0.25000   0.25000   0.25000   0.27091   0.27561
     Eigenvalues ---    0.28610   0.28717   0.28999   0.29926   0.31529
     Eigenvalues ---    0.31620   0.33692   0.33960   0.33992   0.33992
     Eigenvalues ---    0.34005   0.34025   0.34039   0.34087   0.34115
     Eigenvalues ---    0.34181   0.34356   0.34370   0.34419   0.34583
     Eigenvalues ---    0.34661   0.34671   0.34675   0.34806   0.35000
     Eigenvalues ---    0.35731   0.35739   0.35799   0.37544   0.38397
     Eigenvalues ---    0.42724   0.42812   0.43007   0.43080   0.43134
     Eigenvalues ---    0.43144   0.43397   0.43524   0.44092   0.45115
     Eigenvalues ---    0.46780   0.46790   0.46904   0.46935   0.46956
     Eigenvalues ---    0.47085   0.55055   0.56015   0.56542   0.56657
     Eigenvalues ---    0.56851   0.56860   0.93664   0.96060
 RFO step:  Lambda= 0.00000000D+00 EMin= 4.40232350D-03
 Linear search not attempted -- first point.
 Iteration  1 RMS(Cart)=  0.00026382 RMS(Int)=  0.00000001
 Iteration  2 RMS(Cart)=  0.00000002 RMS(Int)=  0.00000000
 ITry= 1 IFail=0 DXMaxC= 1.15D-03 DCOld= 1.00D+10 DXMaxT= 3.00D-01 DXLimC= 3.00D+00 Rises=F
 Variable       Old X    -DE/DX   Delta X   Delta X   Delta X     New X
                                 (Linear)    (Quad)   (Total)
    R1        2.89092   0.00000   0.00000  -0.00001  -0.00001   2.89091
    R2        2.89117   0.00000   0.00000   0.00001   0.00001   2.89117
    R3        2.07265   0.00000   0.00000   0.00000   0.00000   2.07264
    R4        2.67028   0.00000   0.00000   0.00000   0.00000   2.67027
    R5        2.90644   0.00000   0.00000  -0.00001  -0.00001   2.90643
    R6        2.07853   0.00000   0.00000   0.00000   0.00000   2.07854
    R7        2.65142   0.00000   0.00000   0.00000   0.00000   2.65142
    R8        2.05675   0.00000   0.00000   0.00000   0.00000   2.05675
    R9        2.61151   0.00001   0.00000   0.00002   0.00002   2.61153
   R10        2.75033  -0.00001   0.00000  -0.00002  -0.00002   2.75031
   R11        2.89540  -0.00001   0.00000  -0.00002  -0.00002   2.89538
   R12        2.07343   0.00000   0.00000   0.00000   0.00000   2.07343
   R13        2.71857   0.00000   0.00000   0.00001   0.00001   2.71858
   R14        2.88112   0.00000   0.00000  -0.00001  -0.00001   2.88111
   R15        2.07025   0.00000   0.00000   0.00000   0.00000   2.07025
   R16        2.67183   0.00000   0.00000  -0.00001  -0.00001   2.67183
   R17        3.06791   0.00000   0.00000   0.00000   0.00000   3.06791
   R18        2.67571   0.00000   0.00000  -0.00001  -0.00001   2.67570
   R19        2.67504   0.00000   0.00000  -0.00001  -0.00001   2.67504
   R20        2.67661   0.00000   0.00000   0.00000   0.00000   2.67661
   R21        2.06358   0.00000   0.00000   0.00001   0.00001   2.06358
   R22        2.07321   0.00000   0.00000   0.00000   0.00000   2.07321
   R23        2.66345   0.00000   0.00000   0.00000   0.00000   2.66345
   R24        2.67492   0.00000   0.00000  -0.00001  -0.00001   2.67491
   R25        2.73959  -0.00001   0.00000  -0.00001  -0.00001   2.73958
   R26        2.74989  -0.00001   0.00000  -0.00001  -0.00001   2.74988
   R27        3.36809   0.00000   0.00000   0.00000   0.00000   3.36808
   R28        2.62873   0.00000   0.00000   0.00000   0.00000   2.62873
   R29        2.62912   0.00000   0.00000   0.00000   0.00000   2.62913
   R30        2.63210   0.00000   0.00000   0.00000   0.00000   2.63210
   R31        2.04492   0.00000   0.00000   0.00000   0.00000   2.04492
   R32        2.63052   0.00000   0.00000   0.00000   0.00000   2.63052
   R33        2.04398   0.00000   0.00000   0.00000   0.00000   2.04398
   R34        2.63212   0.00000   0.00000  -0.00001  -0.00001   2.63211
   R35        2.85015   0.00000   0.00000   0.00000   0.00000   2.85015
   R36        2.63311   0.00000   0.00000   0.00000   0.00000   2.63312
   R37        2.84845   0.00000   0.00000   0.00000   0.00000   2.84845
   R38        2.04504   0.00000   0.00000   0.00000   0.00000   2.04504
   R39        2.07136   0.00000   0.00000   0.00000   0.00000   2.07136
   R40        2.07288   0.00000   0.00000   0.00000   0.00000   2.07289
   R41        2.05992   0.00000   0.00000   0.00000   0.00000   2.05992
   R42        2.06212   0.00000   0.00000   0.00000   0.00000   2.06212
   R43        2.07343   0.00000   0.00000   0.00000   0.00000   2.07343
   R44        2.06629   0.00000   0.00000   0.00000   0.00000   2.06629
   R45        2.06207   0.00000   0.00000   0.00000   0.00000   2.06207
   R46        2.06734   0.00000   0.00000   0.00000   0.00000   2.06734
   R47        2.07183   0.00000   0.00000   0.00000   0.00000   2.07183
   R48        2.06229   0.00000   0.00000   0.00000   0.00000   2.06229
   R49        2.07398   0.00000   0.00000   0.00000   0.00000   2.07398
   R50        2.06711   0.00000   0.00000   0.00001   0.00001   2.06711
   R51        2.53688   0.00000   0.00000   0.00000   0.00000   2.53688
   R52        2.54241   0.00000   0.00000   0.00000   0.00000   2.54240
   R53        2.53787   0.00000   0.00000   0.00000   0.00000   2.53787
   R54        2.55083   0.00000   0.00000   0.00001   0.00001   2.55084
   R55        2.53515   0.00000   0.00000  -0.00001  -0.00001   2.53514
   R56        2.53523   0.00000   0.00000   0.00000   0.00000   2.53523
    A1        1.92335   0.00000   0.00000   0.00001   0.00001   1.92336
    A2        1.90684   0.00000   0.00000   0.00000   0.00000   1.90684
    A3        1.92768   0.00000   0.00000   0.00000   0.00000   1.92768
    A4        1.89388   0.00000   0.00000   0.00000   0.00000   1.89388
    A5        1.88463   0.00000   0.00000   0.00000   0.00000   1.88462
    A6        1.92714   0.00000   0.00000   0.00000   0.00000   1.92714
    A7        1.94054   0.00000   0.00000  -0.00002  -0.00002   1.94051
    A8        1.87945   0.00000   0.00000   0.00002   0.00002   1.87946
    A9        1.90463   0.00000   0.00000  -0.00003  -0.00003   1.90460
   A10        1.84559   0.00000   0.00000   0.00001   0.00001   1.84560
   A11        1.96345   0.00000   0.00000   0.00001   0.00001   1.96346
   A12        1.92792   0.00000   0.00000   0.00002   0.00002   1.92795
   A13        1.94918   0.00000   0.00000   0.00000   0.00000   1.94917
   A14        1.96869   0.00000   0.00000   0.00000   0.00000   1.96869
   A15        1.85910  -0.00001   0.00000  -0.00002  -0.00002   1.85908
   A16        1.85695   0.00000   0.00000  -0.00002  -0.00002   1.85692
   A17        1.88589   0.00000   0.00000  -0.00001  -0.00001   1.88588
   A18        1.94366   0.00001   0.00000   0.00006   0.00006   1.94372
   A19        1.89541   0.00000   0.00000   0.00001   0.00001   1.89542
   A20        1.93624   0.00000   0.00000  -0.00001  -0.00001   1.93623
   A21        1.97260   0.00000   0.00000   0.00000   0.00000   1.97261
   A22        1.89984   0.00000   0.00000   0.00002   0.00002   1.89985
   A23        1.87054   0.00000   0.00000   0.00002   0.00002   1.87057
   A24        1.88701   0.00000   0.00000  -0.00004  -0.00004   1.88697
   A25        1.94464   0.00000   0.00000   0.00001   0.00001   1.94466
   A26        1.89736   0.00000   0.00000  -0.00001  -0.00001   1.89735
   A27        1.91944   0.00000   0.00000   0.00000   0.00000   1.91944
   A28        1.89403   0.00000   0.00000   0.00001   0.00001   1.89404
   A29        1.87580   0.00000   0.00000  -0.00001  -0.00001   1.87579
   A30        1.93269   0.00000   0.00000   0.00000   0.00000   1.93269
   A31        2.01982   0.00000   0.00000   0.00002   0.00002   2.01984
   A32        2.08946   0.00001   0.00000   0.00003   0.00003   2.08949
   A33        2.00369   0.00000   0.00000   0.00000   0.00000   2.00370
   A34        2.00503   0.00000   0.00000  -0.00001  -0.00001   2.00501
   A35        2.00000   0.00000   0.00000   0.00000   0.00000   2.00000
   A36        1.86776   0.00001   0.00000   0.00004   0.00004   1.86780
   A37        1.90177   0.00000   0.00000  -0.00003  -0.00003   1.90174
   A38        2.01117  -0.00001   0.00000  -0.00004  -0.00004   2.01113
   A39        1.88874   0.00000   0.00000   0.00000   0.00000   1.88874
   A40        1.85516   0.00000   0.00000   0.00003   0.00003   1.85520
   A41        1.93412   0.00000   0.00000   0.00000   0.00000   1.93412
   A42        2.00975   0.00000   0.00000  -0.00001  -0.00001   2.00975
   A43        1.82518   0.00000   0.00000   0.00002   0.00002   1.82520
   A44        1.90306   0.00001   0.00000   0.00005   0.00005   1.90310
   A45        1.80891   0.00000   0.00000   0.00001   0.00001   1.80892
   A46        2.11774   0.00000   0.00000  -0.00002  -0.00002   2.11772
   A47        1.89223  -0.00001   0.00000  -0.00004  -0.00004   1.89218
   A48        1.89227   0.00000   0.00000   0.00000   0.00000   1.89227
   A49        2.07619   0.00000   0.00000  -0.00002  -0.00002   2.07617
   A50        2.08026   0.00001   0.00000   0.00002   0.00002   2.08029
   A51        2.12673   0.00000   0.00000  -0.00001  -0.00001   2.12672
   A52        2.07112   0.00000   0.00000   0.00001   0.00001   2.07113
   A53        2.09981   0.00000   0.00000   0.00000   0.00000   2.09981
   A54        2.11222   0.00000   0.00000  -0.00001  -0.00001   2.11222
   A55        2.07035   0.00000   0.00000  -0.00001  -0.00001   2.07034
   A56        2.10421   0.00000   0.00000   0.00001   0.00001   2.10421
   A57        2.10862   0.00000   0.00000   0.00000   0.00000   2.10862
   A58        2.10271   0.00000   0.00000   0.00000   0.00000   2.10271
   A59        2.08836   0.00000   0.00000   0.00000   0.00000   2.08836
   A60        2.09115   0.00000   0.00000   0.00000   0.00000   2.09116
   A61        2.10387   0.00000   0.00000   0.00001   0.00001   2.10388
   A62        2.08592   0.00000   0.00000   0.00000   0.00000   2.08591
   A63        2.09234   0.00000   0.00000  -0.00001  -0.00001   2.09233
   A64        2.09151   0.00000   0.00000  -0.00001  -0.00001   2.09151
   A65        2.09578   0.00000   0.00000   0.00001   0.00001   2.09578
   A66        2.09589   0.00000   0.00000   0.00000   0.00000   2.09589
   A67        1.96064   0.00000   0.00000   0.00001   0.00001   1.96065
   A68        1.94209   0.00000   0.00000   0.00000   0.00000   1.94209
   A69        1.85884   0.00000   0.00000   0.00000   0.00000   1.85884
   A70        1.90176   0.00000   0.00000   0.00000   0.00000   1.90176
   A71        1.89443   0.00000   0.00000  -0.00001  -0.00001   1.89443
   A72        1.90452   0.00000   0.00000   0.00000   0.00000   1.90453
   A73        1.85836   0.00000   0.00000   0.00000   0.00000   1.85836
   A74        1.94153   0.00000   0.00000   0.00000   0.00000   1.94153
   A75        1.95114   0.00000   0.00000   0.00000   0.00000   1.95114
   A76        1.89908   0.00000   0.00000   0.00000   0.00000   1.89908
   A77        1.90742   0.00000   0.00000   0.00000   0.00000   1.90741
   A78        1.90503   0.00000   0.00000   0.00000   0.00000   1.90504
   A79        1.85911   0.00000   0.00000   0.00000   0.00000   1.85911
   A80        1.94482   0.00000   0.00000   0.00000   0.00000   1.94482
   A81        1.94256   0.00000   0.00000   0.00000   0.00000   1.94256
   A82        1.90677   0.00000   0.00000   0.00000   0.00000   1.90677
   A83        1.90225   0.00000   0.00000   0.00000   0.00000   1.90225
   A84        1.90719   0.00000   0.00000   0.00000   0.00000   1.90719
   A85        1.86051   0.00000   0.00000   0.00002   0.00002   1.86052
   A86        1.93950   0.00000   0.00000   0.00001   0.00001   1.93950
   A87        1.96025   0.00000   0.00000  -0.00001  -0.00001   1.96024
   A88        1.90060   0.00000   0.00000   0.00000   0.00000   1.90060
   A89        1.90541   0.00000   0.00000  -0.00001  -0.00001   1.90541
   A90        1.89642   0.00000   0.00000  -0.00001  -0.00001   1.89642
   A91        1.94837   0.00000   0.00000   0.00000   0.00000   1.94837
   A92        1.94035   0.00000   0.00000  -0.00001  -0.00001   1.94034
   A93        1.94806   0.00000   0.00000  -0.00001  -0.00001   1.94805
   A94        1.87162   0.00000   0.00000   0.00001   0.00001   1.87162
   A95        1.88058   0.00000   0.00000   0.00001   0.00001   1.88059
   A96        1.87099   0.00000   0.00000   0.00000   0.00000   1.87098
   A97        1.93707  -0.00001   0.00000  -0.00003  -0.00003   1.93704
   A98        1.95213   0.00000   0.00000   0.00000   0.00000   1.95212
   A99        1.95081   0.00000   0.00000   0.00000   0.00000   1.95082
   A100       1.86787   0.00000   0.00000   0.00000   0.00000   1.86787
[...]
 .00001271,0.00001280,0.00004458,0.00000460,0.00000125,-0.00000911,0.00
 000858,0.00000147,-0.00062741,0.00007364,0.00026512,0.00011373,0.00005
 846,-0.00003464,-0.00032487,-0.00028025,0.00024533,0.00020894,-0.00006
 104,-0.00006425,0.00103795,0.00225670,-0.00167065,-0.00010071,-0.00050
 081,0.00052984,-0.00069096,-0.00070144,0.00025489,-0.00037110,-0.00028
 186,0.00062256,-0.01139767,-0.03627126,0.54899473,0.00001834,-0.000114
 77,-0.00004916,0.00003023,0.00000717,-0.00005356,-0.00003670,-0.000595
 24,0.00000549,-0.00020046,-0.00034745,-0.00032496,0.00008698,0.0001335
 8,0.00014825,-0.00001193,0.00002746,0.00000512,0.00002050,0.00000476,0
 .00000499,-0.00000536,0.00001250,-0.00000636,-0.00000212,0.00002790,-0
 .00000897,0.00002642,-0.00001322,-0.00000301,-0.00010609,0.00037935,0.
 00020363,0.00048949,0.00035956,0.00001277,-0.00004582,0.00007922,0.000
 04758,-0.00011226,0.00009569,-0.00002482,-0.00010236,0.00001654,-0.000
 05834,0.00144343,0.00037756,0.00035292,-0.00016896,0.00003802,-0.00011
 099,-0.00105055,0.00006298,-0.00038160,-0.00083464,-0.00019634,-0.0002
 8307,-0.00085933,0.00003568,0.00025423,0.00020582,-0.00018036,-0.00003
 865,0.00019481,-0.00000111,-0.00011248,0.00082414,-0.00092733,0.000488
 28,0.00043695,-0.00009744,-0.00052360,-0.00099269,-0.00091909,0.000814
 35,-0.00028044,0.00032973,-0.00009415,-0.00000653,-0.00003136,-0.00002
 448,0.00786443,-0.00550267,-0.00371367,-0.00016617,-0.00014807,-0.0002
 2165,0.00026925,0.00044557,0.00067584,-0.00005182,0.00017526,-0.000403
 29,0.00000378,-0.00000422,-0.00003808,0.00000139,-0.00000508,0.0000078
 3,0.00000364,-0.00000064,0.00000522,-0.00000546,0.00000615,0.00000499,
 0.00001564,-0.00005774,0.00003835,-0.00000960,0.00000718,-0.00000565,0
 .00000308,0.00000599,-0.00000782,-0.00000322,0.00001390,-0.00000014,0.
 00007010,0.00003596,0.00005237,-0.00000358,-0.00000375,-0.00001700,-0.
 00002041,-0.00000327,-0.00000263,0.00000912,0.00001091,0.00000628,0.00
 100867,-0.00032656,0.00038411,-0.00020078,-0.00003964,-0.00001717,-0.0
 0077841,0.00025054,-0.00002127,-0.00014514,0.00002514,0.00002935,0.000
 00911,0.00006967,-0.00039356,0.00005586,-0.00006673,0.00014254,-0.0000
 5608,-0.00005534,0.00007410,-0.00002459,0.00000950,0.00011782,-0.11004
 351,-0.06806345,-0.02743463,0.16194389,-0.00006853,-0.00011352,-0.0001
 2089,-0.00013331,0.00014701,-0.00006425,-0.00045671,-0.00116100,0.0002
 9585,-0.00025342,-0.00045019,-0.00047079,0.00001856,0.00006972,0.00003
 986,-0.00002892,0.00004911,-0.00000882,0.00009293,0.00000537,0.0000149
 8,-0.00000833,0.00002196,-0.00001902,-0.00000445,0.00003552,-0.0000401
 4,0.00004942,-0.00000412,0.00000378,0.00022085,0.00067764,0.00034273,0
 .00171152,0.00069897,-0.00006040,0.00009554,0.00001041,-0.00002550,0.0
 0004310,0.00006806,0.00004876,-0.00000317,0.00010795,0.00008123,0.0009
 3901,0.00006084,0.00043506,-0.00006421,0.00004890,-0.00005378,0.000529
 58,-0.00068033,0.00032365,-0.00049596,0.00024729,-0.00036281,-0.003649
 71,0.00154858,0.00147728,0.00085692,-0.00108231,-0.00022418,0.00090447
 ,-0.00034179,-0.00083274,0.00164895,-0.00022984,0.00160934,0.00015972,
 -0.00113517,0.00032621,-0.00273069,-0.00047469,0.00232956,0.00167011,-
 0.00006914,0.00198225,-0.00020330,-0.00006752,-0.00016304,-0.02194539,
 -0.04378447,-0.01278223,-0.00077301,-0.00049594,-0.00079857,0.00264845
 ,-0.00176452,-0.00272120,-0.00096276,-0.00048116,-0.00062644,-0.000062
 57,0.00000210,0.00005209,-0.00000475,-0.00000263,0.00001291,0.00001837
 ,0.00001588,-0.00000775,0.00000303,-0.00000514,-0.00000200,-0.00001666
 ,-0.00000294,0.00000681,0.00000763,0.00000256,0.00000115,0.00000038,-0
 .00000545,-0.00000290,-0.00000731,0.00000541,0.00000297,-0.00000299,-0
 .00006762,0.00001033,0.00000478,0.00000245,-0.00000008,-0.00000568,0.0
 0000716,-0.00000143,0.00001268,0.00002970,-0.00000261,0.00113852,-0.00
 029267,0.00054953,-0.00017089,-0.00001492,-0.00002523,-0.00003449,0.00
 034183,-0.00029775,-0.00021979,0.00002189,0.00002637,0.00187479,0.0007
 5550,-0.00242311,-0.00010509,-0.00061374,0.00104950,-0.00077820,-0.000
 53007,0.00038470,-0.00050771,0.00019536,0.00081895,-0.07096611,-0.2036
 3661,-0.04929790,0.12301770,0.24742902,0.00001586,-0.00007196,-0.00003
 736,0.00003307,-0.00001876,-0.00003231,0.00003740,-0.00017970,-0.00007
 232,-0.00011342,-0.00023214,-0.00027041,0.00006226,0.00009438,0.000093
 17,-0.00001358,0.00002508,0.00001056,-0.00000518,0.00000087,0.00000182
 ,-0.00000142,0.00000291,0.00000131,0.00000067,-0.00000090,0.00001240,0
 .00000528,-0.00001151,-0.00000241,-0.00009116,0.00017019,0.00018280,0.
 00000756,0.00010078,0.00008646,-0.00004173,0.00004899,0.00005840,-0.00
 008171,0.00005949,-0.00000931,-0.00007447,0.00000623,-0.00001859,0.000
 93348,0.00037682,0.00027867,-0.00008204,0.00001194,-0.00004268,-0.0005
 0357,-0.00003943,-0.00023930,-0.00047923,-0.00021448,0.00010814,0.0000
 0434,-0.00016226,-0.00042509,-0.00000311,0.00005859,0.00007435,0.00001
 357,-0.00000758,0.00015267,-0.00033929,0.00034354,-0.00056146,-0.00053
 746,0.00027436,0.00035610,0.00120999,0.00048414,-0.00025728,-0.0000539
 5,-0.00082613,0.00059172,-0.00000049,-0.00001903,0.00002365,-0.0008015
 2,0.00407499,0.01088439,-0.00021529,0.00030760,0.00001714,0.00026109,-
 0.00094016,-0.00041623,-0.00005364,-0.00003059,-0.00004562,0.00000854,
 -0.00000251,-0.00005199,0.00000611,-0.00000086,0.00000829,-0.00000338,
 -0.00000296,0.00000468,-0.00000302,0.00000307,0.00000563,0.00001197,-0
 .00003555,0.00001896,-0.00000755,0.00000438,-0.00000438,0.00000107,0.0
 0000342,-0.00000209,-0.00000172,0.00001006,-0.00000039,0.00005058,0.00
 002870,0.00003216,0.00000004,-0.00000368,-0.00000686,-0.00001646,-0.00
 000078,-0.00000112,0.00000657,0.00000457,0.00000041,0.00038214,-0.0000
 3167,-0.00001427,-0.00006366,-0.00002700,0.00001780,0.00021823,0.00009
 617,-0.00023786,-0.00009181,0.00002054,0.00003384,0.00005775,-0.000188
 70,-0.00007100,0.00001924,-0.00003018,0.00009086,0.00002460,0.00004814
 ,0.00001817,-0.00000275,0.00006892,0.00003479,-0.02772277,-0.04728966,
 -0.09097384,0.06480089,0.09667821,0.12566143,0.00009493,-0.00004861,0.
 00006146,0.00016619,-0.00014621,-0.00000791,0.00032709,0.00020617,-0.0
 0023409,0.00002275,-0.00001541,0.00011955,0.00009845,0.00007838,0.0001
 5396,0.00001662,-0.00001699,0.00001067,-0.00005369,0.00000428,-0.00001
 002,-0.00000073,0.00000011,0.00000470,0.00000327,0.00000870,0.00001604
 ,-0.00000019,-0.00001059,-0.00000981,-0.00032502,-0.00006802,-0.000091
 15,-0.00084932,-0.00015188,0.00003959,-0.00014948,0.00011523,0.0000788
 0,-0.00019258,0.00007543,-0.00008916,-0.00012952,-0.00006081,-0.000161
 45,0.00064950,0.00019990,0.00019784,-0.00007640,-0.00000123,-0.0000690
 2,0.00003842,-0.00006744,0.00014968,-0.00037737,-0.00013486,-0.0001344
 5,0.00206165,-0.00105133,-0.00101315,-0.00059541,0.00105521,0.00009424
 ,-0.00050223,0.00031096,0.00056630,-0.00090989,0.00072508,0.00136625,0
 .00002051,0.00019732,-0.00045474,0.00024001,0.00415740,-0.00488571,0.0
 0045782,0.00104064,-0.00054553,0.00007541,-0.00007945,-0.00011932,-0.0
 3000616,0.01227869,0.00484677,0.00038036,-0.00066936,-0.00019236,-0.00
 142784,-0.00087837,0.00380326,0.00054430,0.00003459,-0.00214415,0.0000
 6183,-0.00001205,-0.00009099,0.00000386,-0.00000795,-0.00000267,-0.000
 00708,-0.00001379,0.00001484,-0.00001284,0.00001588,0.00000748,0.00004
 075,-0.00008706,0.00005221,-0.00001959,0.00000751,-0.00000875,0.000004
 45,0.00001395,-0.00001126,0.00000207,0.00001484,-0.00000133,0.00009133
 ,0.00008980,0.00005928,-0.00000714,-0.00000796,-0.00002295,-0.00002220
 ,-0.00000898,-0.00000105,-0.00000055,-0.00000589,0.00000764,0.00047785
 ,-0.00007859,0.00017917,-0.00010987,-0.00005028,-0.00001477,0.00000018
 ,0.00020972,-0.00008074,-0.00002758,0.00001668,-0.00000201,-0.00134991
 ,-0.00031531,0.00121687,0.00014459,0.00025550,-0.00044970,0.00059842,0
 .00034936,-0.00019007,0.00039079,-0.00015904,-0.00044476,-0.25822942,0
 .06337461,0.01209223,-0.06893664,-0.02583109,-0.01276044,0.38815737,-0
 .00006459,-0.00002551,-0.00006975,-0.00012060,0.00011839,-0.00002498,-
 0.00031833,-0.00058955,0.00023032,-0.00011273,-0.00017013,-0.00021779,
 -0.00003211,-0.00000322,-0.00004440,-0.00001655,0.00002238,-0.00001049
 ,0.00006136,0.00000174,0.00001026,-0.00000326,0.00000921,-0.00001071,-
 0.00000317,0.00001236,-0.00002720,0.00001981,0.00000354,0.00000552,0.0
 0020292,0.00030911,0.00016048,0.00105125,0.00035797,-0.00004197,0.0000
 9810,-0.00003990,-0.00004724,0.00009243,-0.00000188,0.00005187,0.00004
 937,0.00006576,0.00009094,0.00013603,-0.00007663,0.00007444,-0.0000049
 9,0.00001991,0.00000111,0.00003313,-0.00012953,0.00003777,-0.00005568,
 0.00012864,-0.00008467,-0.00260239,0.00082148,0.00103264,0.00075317,-0
 .00097306,-0.00010719,0.00059557,-0.00020880,-0.00064134,0.00056078,-0
 .00200116,-0.00111899,0.00067237,-0.00057859,-0.00001303,-0.00004426,-
 0.00275507,0.00518179,0.00002605,-0.00011823,-0.00035197,0.00001004,0.
 00003502,0.00002302,0.03907794,-0.00641002,-0.00270421,0.00011267,0.00
 053091,0.00016362,0.00108898,-0.00081990,-0.00008739,0.00079579,-0.000
 87428,0.00091770,-0.00004970,0.00000542,0.00006250,-0.00000485,0.00000
 107,0.00000537,0.00001150,0.00001227,-0.00000895,0.00000578,-0.0000078
 2,-0.00000431,-0.00002241,0.00003183,-0.00001635,0.00001077,-0.0000018
 4,0.00000402,-0.00000134,-0.00000744,0.00000262,-0.00000376,-0.0000038
 1,0.00000181,-0.00003713,-0.00006078,-0.00001866,0.00000430,0.00000407
 ,0.00000821,0.00000690,0.00000581,-0.00000015,0.00000475,0.00001379,-0
 .00000353,0.00018316,-0.00006483,0.00009979,-0.00001374,0.00001292,-0.
 00000498,0.00001209,0.00005018,-0.00004393,-0.00004874,-0.00000123,0.0
 0000926,0.00107009,0.00058815,-0.00148548,-0.00005419,-0.00030790,0.00
 052463,-0.00050279,-0.00033925,0.00024457,-0.00033495,0.00009794,0.000
 50664,0.05774228,-0.09646410,0.00068217,-0.04209569,0.00819998,-0.0034
 4635,-0.06241097,0.08980796,0.00001640,-0.00000349,0.00000332,0.000029
 92,-0.00003531,0.00000217,0.00008209,0.00016123,-0.00009475,0.00001881
 ,-0.00000009,-0.00002376,0.00001419,0.00001062,0.00001365,-0.00000261,
 0.00000377,0.00000717,-0.00001963,-0.00000121,-0.00000240,0.00000103,-
 0.00000326,0.00000440,0.00000066,-0.00000850,0.00001359,-0.00000583,-0
 .00000371,-0.00000120,-0.00004656,-0.00005170,0.00002523,-0.00032859,-
 0.00009142,0.00006256,-0.00002822,0.00001502,0.00003271,-0.00002934,0.
 00000743,-0.00000517,-0.00002174,-0.00000944,-0.00000608,0.00009519,0.
 00006679,-0.00000121,0.00000293,-0.00000359,0.00000650,0.00001525,-0.0
 0001493,0.00002372,-0.00005319,-0.00005463,0.00007038,0.00069234,-0.00
 024384,-0.00055183,-0.00019163,0.00028179,0.00008342,-0.00015287,0.000
 02059,0.00027517,-0.00085523,0.00050719,0.00049291,-0.00016620,0.00026
 619,-0.00001869,0.00019788,0.00170848,-0.00169090,-0.00059269,-0.00027
 504,0.00061422,-0.00005426,0.00003753,0.00006002,-0.00970257,0.0049704
 5,0.01048638,-0.00030574,0.00029956,0.00007887,-0.00031051,0.00066126,
 -0.00196272,-0.00146627,0.00107296,0.00040674,0.00001110,-0.00000179,-
 0.00003465,0.00000496,0.00000066,0.00000275,-0.00000501,-0.00000348,0.
 00000295,-0.00000126,0.00000131,0.00000284,0.00000634,-0.00000926,0.00
 000164,-0.00000325,0.00000071,-0.00000162,-0.00000024,0.00000133,0.000
 00090,0.00000047,0.00000272,-0.00000033,0.00001471,0.00001354,0.000005
 78,0.00000068,-0.00000150,0.00000003,-0.00000503,-0.00000008,0.0000000
 8,0.00000103,-0.00000176,-0.00000093,0.00004102,-0.00000377,-0.0000485
 6,-0.00000683,-0.00000469,0.00000505,0.00003767,0.00002974,-0.00002602
 ,-0.00002356,0.00000739,0.00000760,-0.00021345,-0.00044448,0.00040006,
 -0.00001867,0.00013088,-0.00015565,0.00015908,0.00014996,-0.00005320,0
 .00005954,0.00006848,-0.00012081,0.01706991,-0.00117269,-0.07709235,-0
 .01854478,-0.00286023,0.01102958,-0.04425109,0.00794695,0.08553114,0.0
 0002221,-0.00001218,0.00002064,0.00003712,-0.00002738,-0.00000667,0.00
 006520,-0.00005702,-0.00001466,0.00000202,0.00000508,0.00007850,0.0000
 2408,0.00001392,0.00003517,0.00000984,-0.00001016,-0.00000281,-0.00000
 415,0.00000272,-0.00000171,-0.00000107,0.00000205,-0.00000194,0.000000
 73,0.00000756,-0.00000705,0.00000389,-0.00000074,-0.00000216,-0.000075
 90,0.00001849,-0.00005250,-0.00007761,0.00004180,-0.00002254,-0.000033
 63,0.00003264,0.00000806,-0.00004536,0.00002054,-0.00002635,-0.0000302
 8,-0.00001299,-0.00004790,0.00010148,0.00000113,0.00004947,-0.00001838
 ,0.00000044,-0.00002214,0.00000796,-0.00000681,0.00004020,-0.00006836,
 0.00000558,-0.00009539,0.00020376,-0.00039418,0.00008116,-0.00001230,0
 .00013303,-0.00003752,-0.00007402,0.00012419,0.00000896,0.00046730,-0.
 00050182,-0.00045568,0.00005237,0.00014118,-0.00010600,-0.00185476,0.0
 0081099,-0.00035689,0.00029614,-0.00002698,-0.00072816,0.00007616,0.00
 003061,-0.00005147,0.01037207,0.00155942,-0.00296230,0.00065447,0.0005
 6592,-0.00126051,-0.00058711,0.00133439,-0.00000436,0.00020545,0.00030
 514,-0.00035629,0.00001319,-0.00000353,-0.00001105,-0.00000147,-0.0000
 0395,-0.00000209,0.00000126,-0.00000223,0.00000343,-0.00000402,0.00000
 484,0.00000066,0.00001021,-0.00002386,0.00001569,-0.00000439,0.0000020
 1,-0.00000194,0.00000147,0.00000369,-0.00000423,0.00000037,0.00000343,
 0.00000008,0.00002033,0.00001960,0.00001444,-0.00000218,-0.00000190,-0
 .00000686,-0.00000449,-0.00000257,-0.00000016,-0.00000071,-0.00000044,
 0.00000249,0.00011083,-0.00002031,0.00008777,-0.00003019,-0.00001648,-
 0.00001235,-0.00003542,0.00005607,0.00002615,0.00002340,0.00000153,-0.
 00000732,-0.00031614,-0.00001044,0.00016233,0.00003463,0.00006659,-0.0
 0012028,0.00011515,0.00006520,-0.00002655,0.00007620,-0.00004263,-0.00
 006384,-0.07833451,-0.00006108,0.02832616,0.01022658,-0.00717181,-0.02
 400648,-0.03085214,0.00446952,0.05883366,0.08923272,-0.00004424,-0.000
 02912,-0.00004949,-0.00008445,0.00008056,-0.00001679,-0.00025537,-0.00
 049433,0.00016682,-0.00009505,-0.00014904,-0.00015544,-0.00001695,0.00
 000670,-0.00001614,-0.00001407,0.00001560,-0.00000636,0.00004682,0.000
 00266,0.00000676,-0.00000322,0.00000912,-0.00000969,-0.00000333,0.0000
 1531,-0.00002412,0.00001923,0.00000254,0.00000324,0.00014481,0.0002686
 4,0.00011492,0.00082107,0.00025346,-0.00002999,0.00006679,-0.00001716,
 -0.00003471,0.00005634,0.00000953,0.00003080,0.00002876,0.00005106,0.0
 0005359,0.00017210,-0.00006351,0.00010032,-0.00001580,0.00001697,-0.00
 001167,0.00005624,-0.00012104,0.00001991,-0.00008756,0.00011520,-0.000
 11824,-0.00183483,0.00100115,0.00057472,0.00041674,-0.00052655,-0.0000
 7083,0.00047493,-0.00021726,-0.00043196,-0.00057973,0.00016600,-0.0000
 2428,-0.00024627,-0.00039440,0.00085401,0.00081691,-0.00112482,0.00099
 511,-0.00116502,-0.00164854,0.00089414,-0.00001991,0.00002682,0.000050
 86,-0.00465538,0.00172611,0.03481188,0.00028206,-0.00112129,0.00129386
 ,0.00420091,-0.00287048,0.00026155,0.00012279,0.00036960,0.00018661,-0
 .00003629,0.00000240,0.00004533,-0.00000423,-0.00000043,0.00000381,0.0
 0001021,0.00000930,-0.00000593,0.00000315,-0.00000440,-0.00000306,-0.0
 0001443,0.00001494,-0.00000553,0.00000711,-0.00000050,0.00000243,-0.00
 000036,-0.00000443,-0.00000012,-0.00000308,-0.00000151,0.00000153,-0.0
 0002210,-0.00004345,-0.00000842,0.00000238,0.00000257,0.00000327,0.000
 00392,0.00000372,-0.00000030,0.00000366,0.00001197,-0.00000172,0.00020
 099,-0.00005956,0.00011626,-0.00002331,0.00000483,-0.00000772,-0.00001
 786,0.00004503,-0.00002029,-0.00003598,-0.00000047,0.00000497,0.001221
 09,0.00014261,-0.00160492,-0.00001399,-0.00034496,0.00065278,-0.000629
 78,-0.00035219,0.00026773,-0.00030954,0.00011419,0.00045799,0.00120193
 ,-0.08120363,0.02302813,-0.00626459,-0.00329870,-0.04959258,0.00755358
 ,0.01176662,-0.01314065,-0.00143779,0.07783657,0.00005892,-0.00003054,
 -0.00000056,0.00010519,-0.00009756,-0.00000928,0.00028507,0.00035512,-
 0.00030674,0.00004652,-0.00003910,-0.00012313,0.00006627,0.00005310,0.
 00007533,-0.00001128,0.00001922,0.00002305,-0.00005722,-0.00000387,-0.
 00000512,0.00000269,-0.00000933,0.00001399,0.00000404,-0.00002786,0.00
 004951,-0.00001868,-0.00001442,-0.00000537,-0.00023996,-0.00009683,0.0
 0012316,-0.00089437,-0.00017558,0.00020002,-0.00010419,0.00006312,0.00
 011696,-0.00011660,0.00003872,-0.00001989,-0.00009233,-0.00003357,-0.0
 0003671,0.00054863,0.00028455,0.00008128,-0.00002165,-0.00000927,0.000
 00244,0.00008938,-0.00007709,0.00002660,-0.00028879,-0.00022698,0.0002
 3687,0.00205916,-0.00101366,-0.00152441,-0.00052787,0.00065570,0.00024
 127,-0.00047211,0.00011621,0.00086619,-0.00011786,0.00129644,0.0005147
 1,-0.00032968,0.00031761,-0.00020249,0.00330975,-0.00155388,-0.0011994
 0,0.00183049,0.00065803,-0.00128627,-0.00012576,-0.00006533,0.00004276
 ,0.00815706,0.00575795,-0.03842326,-0.00199533,0.00067318,0.00012335,-
 0.00514142,0.00552045,-0.00042732,-0.00030816,-0.00064907,0.00045691,0
 .00003682,-0.00000589,-0.00012190,0.00001678,0.00000193,0.00001086,-0.
 00001641,-0.00001178,0.00001059,-0.00000457,0.00000497,0.00001047,0.00
 002345,-0.00003880,0.00001135,-0.00001265,0.00000342,-0.00000615,-0.00
 000016,0.00000550,0.00000225,0.00000110,0.00001124,-0.00000160,0.00006
 242,0.00005631,0.00003007,0.00000074,-0.00000557,-0.00000379,-0.000020
 21,-0.00000171,-0.00000056,0.00000411,-0.00000554,-0.00000143,0.000192
 96,-0.00000553,-0.00017736,-0.00003968,-0.00002381,0.00001836,0.000094
 63,0.00007038,-0.00009318,-0.00009327,0.00002902,0.00002890,-0.0015844
 0,-0.00050077,0.00171591,-0.00000413,0.00054808,-0.00090884,0.00078355
 ,0.00050899,-0.00022836,0.00031769,0.00001032,-0.00049398,0.02385215,0
 .02932853,-0.27246820,-0.01575775,-0.03460828,-0.05609617,0.04335581,-
 0.00744401,-0.02786067,-0.05690887,0.00038757,0.39699898\\-0.00000016,
 0.00000453,0.00000261,0.00000115,0.00000257,0.00000495,0.00000293,0.00
 001159,-0.00000901,-0.00000331,-0.00000309,-0.00000988,0.00000555,-0.0
 0000125,0.00000013,-0.00000014,-0.00000190,-0.00000004,-0.00000080,-0.
 00000288,-0.00000054,0.00000017,-0.00000093,-0.00000059,-0.00000024,0.
 00000036,-0.00000027,-0.00000041,0.,-0.00000124,0.00000130,-0.00001111
 ,0.00000411,-0.00000525,-0.00000484,0.00000679,-0.00000744,-0.00000334
 ,-0.00000291,0.00000022,-0.00000151,-0.00000310,0.00000092,-0.00000019
 ,0.00000122,0.00000061,-0.00000058,-0.00000190,0.00000483,-0.00000077,
 -0.00000169,0.00000007,0.00000235,0.00000095,-0.00000216,0.00000289,0.
 00000565,-0.00001116,0.00000798,0.00000292,0.00000231,-0.00001235,0.00
 000544,0.00000400,0.00000502,-0.00000634,-0.00000471,0.00000159,0.0000
 0008,-0.00000008,0.00000197,0.00000414,0.00000151,-0.00000313,0.000000
 92,-0.00000034,-0.00000280,0.00000239,-0.00000074,0.00000035,0.0000000
 3,-0.00000350,0.00000207,0.00000173,0.00000081,0.00000023,0.00000101,0
 .00000244,0.00000520,-0.00000084,0.00000100,0.00000071,0.00000141,0.00
 000290,-0.00000019,-0.00000474,-0.00000204,-0.00000124,0.00000051,-0.0
 0000194,-0.00000201,-0.00000053,-0.00000066,-0.00000089,0.00000006,0.0
 0000193,-0.00000326,0.00000068,-0.00000049,-0.00000106,-0.00000078,0.0
 0000023,-0.00000088,-0.00000180,-0.00000020,-0.00000040,-0.00000014,0.
 00000249,-0.00000003,-0.00000077,0.00000146,0.,-0.00000117,0.00000071,
 -0.00000058,-0.00000111,0.00000165,-0.00000080,-0.00000095,0.00000430,
 -0.00000200,-0.00000812,0.00000073,-0.00000086,0.00000093,-0.00000105,
 -0.00000006,0.00000028,-0.00000073,0.00000158,0.00000104,0.00000042,0.
 00000583,-0.00000221,0.00000049,0.00000130,0.00000245,-0.00000045,0.00
 000027,0.00000268,0.00000024,0.00000102,0.00000219,0.00000745,0.000000
 65,0.00000592,-0.00000164,0.00000022,-0.00000380,-0.00000412,0.0000025
 3,-0.00000023,-0.00000104,0.00000209,0.00000150\\\@


 "ANNA, YOU MUSN'T SPEAK OF OXIDIZED MURIATIC ACID
 ANYMORE, FROM NOW ON YOU MUST SAY CHLORINE."
   -- JENS JACOB BERZELIUS, IN 1820, TO HIS COOK, WHO HAD
 COMPLAINED OF THE SMELL OF THE FLASK SHE WAS CLEANING.
 Job cpu time:       0 days 20 hours 29 minutes 52.1 seconds.
 Elapsed time:       0 days  0 hours 41 minutes 20.1 seconds.
 File lengths (MBytes):  RWF=   2267 Int=      0 D2E=      0 Chk=     40 Scr=      1
 Normal termination of Gaussian 16 at Wed Jun  5 16:36:41 2019.
