 Entering Gaussian System, Link 0=g16
 Input=clay_new-glu_gluC6-BCDR-Na2_1Me2O-bisCF3-ts-bp86_d3bj-631gd-pcm_thf.gjf
 Output=clay_new-glu_gluC6-BCDR-Na2_1Me2O-bisCF3-ts-bp86_d3bj-631gd-pcm_thf.out
 Initial command:
 /home/ekwan/sw/g16/l1.exe "/scratch/users/ekwan/clay_new-glu_gluC6-BCDR-Na2_1Me2O-bisCF3-ts-bp86_d3bj-631gd-pcm_thf/Gau-9523.inp" -scrdir="/scratch/users/ekwan/clay_new-glu_gluC6-BCDR-Na2_1Me2O-bisCF3-ts-bp86_d3bj-631gd-pcm_thf/"
 Entering Link 1 = /home/ekwan/sw/g16/l1.exe PID=      9524.
  
 Copyright (c) 1988,1990,1992,1993,1995,1998,2003,2009,2016,
            Gaussian, Inc.  All Rights Reserved.
  
 This is part of the Gaussian(R) 16 program.  It is based on
 the Gaussian(R) 09 system (copyright 2009, Gaussian, Inc.),
 the Gaussian(R) 03 system (copyright 2003, Gaussian, Inc.),
 the Gaussian(R) 98 system (copyright 1998, Gaussian, Inc.),
 the Gaussian(R) 94 system (copyright 1995, Gaussian, Inc.),
 the Gaussian 92(TM) system (copyright 1992, Gaussian, Inc.),
 the Gaussian 90(TM) system (copyright 1990, Gaussian, Inc.),
 the Gaussian 88(TM) system (copyright 1988, Gaussian, Inc.),
 the Gaussian 86(TM) system (copyright 1986, Carnegie Mellon
 University), and the Gaussian 82(TM) system (copyright 1983,
 Carnegie Mellon University). Gaussian is a federally registered
 trademark of Gaussian, Inc.
  
 This software contains proprietary and confidential information,
 including trade secrets, belonging to Gaussian, Inc.
  
 This software is provided under written license and may be
 used, copied, transmitted, or stored only in accord with that
 written license.
  
 The following legend is applicable only to US Government
 contracts under FAR:
  
                    RESTRICTED RIGHTS LEGEND
  
 Use, reproduction and disclosure by the US Government is
 subject to restrictions as set forth in subparagraphs (a)
 and (c) of the Commercial Computer Software - Restricted
 Rights clause in FAR 52.227-19.
  
 Gaussian, Inc.
 340 Quinnipiac St., Bldg. 40, Wallingford CT 06492
  
  
 ---------------------------------------------------------------
 Warning -- This program may not be used in any manner that
 competes with the business of Gaussian, Inc. or will provide
 assistance to any competitor of Gaussian, Inc.  The licensee
 of this program is prohibited from giving any competitor of
 Gaussian, Inc. access to this program.  By using this program,
 the user acknowledges that Gaussian, Inc. is engaged in the
 business of creating and licensing software in the field of
 computational chemistry and represents and warrants to the
 licensee that it is not a competitor of Gaussian, Inc. and that
 it will not use this program in any manner prohibited above.
 ---------------------------------------------------------------
  

 Cite this work as:
 Gaussian 16, Revision A.03,
 M. J. Frisch, G. W. Trucks, H. B. Schlegel, G. E. Scuseria, 
 M. A. Robb, J. R. Cheeseman, G. Scalmani, V. Barone, 
 G. A. Petersson, H. Nakatsuji, X. Li, M. Caricato, A. V. Marenich, 
 J. Bloino, B. G. Janesko, R. Gomperts, B. Mennucci, H. P. Hratchian, 
 J. V. Ortiz, A. F. Izmaylov, J. L. Sonnenberg, D. Williams-Young, 
 F. Ding, F. Lipparini, F. Egidi, J. Goings, B. Peng, A. Petrone, 
 T. Henderson, D. Ranasinghe, V. G. Zakrzewski, J. Gao, N. Rega, 
 G. Zheng, W. Liang, M. Hada, M. Ehara, K. Toyota, R. Fukuda, 
 J. Hasegawa, M. Ishida, T. Nakajima, Y. Honda, O. Kitao, H. Nakai, 
 T. Vreven, K. Throssell, J. A. Montgomery, Jr., J. E. Peralta, 
 F. Ogliaro, M. J. Bearpark, J. J. Heyd, E. N. Brothers, K. N. Kudin, 
 V. N. Staroverov, T. A. Keith, R. Kobayashi, J. Normand, 
 K. Raghavachari, A. P. Rendell, J. C. Burant, S. S. Iyengar, 
 J. Tomasi, M. Cossi, J. M. Millam, M. Klene, C. Adamo, R. Cammi, 
 J. W. Ochterski, R. L. Martin, K. Morokuma, O. Farkas, 
 J. B. Foresman, and D. J. Fox, Gaussian, Inc., Wallingford CT, 2016.
 
 ******************************************
 Gaussian 16:  AS64L-G16RevA.03 25-Dec-2016
                 5-Jun-2019 
 ******************************************
 %nprocshared=32
 Will use up to   32 processors via shared memory.
 %mem=48GB
 ----------------------------------------------------------------------
 #p opt=(ts,calcfc,noeigentest,maxstep=5) freq=noraman pop=none 6-31g* 
 scrf=(pcm,solvent=tetrahydrofuran) bp86 empiricaldispersion=gd3bj
 ----------------------------------------------------------------------
 1/5=1,8=5,10=4,11=1,18=20,26=3,38=1/1,3;
 2/9=110,12=2,17=6,18=5,40=1/2;
 3/5=1,6=6,7=1,11=2,25=1,30=1,70=2201,71=2,72=20,74=404,124=41,140=1/1,2,3;
 4//1;
 5/5=2,38=5,53=20/2;
 8/6=4,10=90,11=11/1;
 11/6=1,8=1,9=11,15=111,16=1/1,2,10;
 10/6=1,13=1/2;
 7/10=1,18=20,25=1/1,2,3,16;
 1/5=1,8=5,10=4,11=1,18=20,26=3/3(2);
 2/9=110/2;
 99//99;
 2/9=110/2;
 3/5=1,6=6,7=1,11=2,25=1,30=1,70=2205,71=1,72=20,74=404,124=41/1,2,3;
 4/5=5,16=3,69=1/1;
 5/5=2,38=5,53=20/2;
 7//1,2,3,16;
 1/5=1,8=5,11=1,18=20,26=3/3(-5);
 2/9=110/2;
 99/9=1/99;
 Leave Link    1 at Wed Jun  5 11:39:23 2019, MaxMem=  6442450944 cpu:               4.7 elap:               0.2
 (Enter /home/ekwan/sw/g16/l101.exe)
 -----
 title
 -----
 Symbolic Z-matrix:
 Charge =  0 Multiplicity = 1
 6                    -1.73366   1.5564    2.23553 
 6                    -2.0023    2.38551   0.9708 
 6                    -1.07769   3.61189   0.92578 
 6                     0.63337   2.48112   2.21039 
 6                    -0.23947   1.21805   2.33036 
 1                    -1.16595   4.13246  -0.04987 
 1                    -1.7542    1.77431   0.08118 
 1                    -2.03366   2.15459   3.11942 
 1                     0.41529   3.13023   3.08208 
 1                    -0.00538   0.52158   1.50439 
 8                     0.29415   3.20488   0.99023 
 8                    -1.42976   4.47601   1.9812 
 8                    -3.35584   2.83915   0.91011 
 8                    -2.52996   0.36612   2.15716 
 8                     0.02949   0.58647   3.59272 
 6                     2.14892   2.20488   2.15044 
 1                     2.39728   1.69643   3.11769 
 1                     2.63584   3.2162    2.21828 
 8                     2.56641   1.51494   1.02524 
 6                    -4.18102   2.01046   0.08779 
 1                    -3.83271   2.00909  -0.96568 
 1                    -4.20334   0.96971   0.45574 
 1                    -5.19526   2.43966   0.1258 
 6                    -3.04063  -0.0577    3.42341 
 1                    -2.22588  -0.30094   4.12828 
 1                    -3.68641   0.72376   3.87497 
 1                    -3.64459  -0.9562    3.22879 
 6                     0.81408  -0.60437   3.45788 
 1                     0.24317  -1.39716   2.93961 
 1                     1.74818  -0.42326   2.89644 
 1                     1.05723  -0.93827   4.4798 
 6                     3.74449  -1.62528  -1.36507 
 6                     3.1515   -0.28108  -0.91229 
 6                     1.79051  -0.44418  -0.29377 
 6                     2.06816  -2.80078   0.13142 
 6                     3.55192  -2.64572  -0.22924 
 1                     1.14074   0.41141  -0.15302 
 1                     3.76315   0.12626  -0.07416 
 1                     3.22246  -1.96735  -2.27965 
 1                     1.51452  -3.19084  -0.74107 
 1                     4.10571  -2.2884    0.65867 
 8                     1.45372  -1.48867   0.42345 
 8                    -0.55909   0.23721  -3.89254 
 8                     3.04462   0.72283  -1.92077 
 8                     5.13982  -1.44266  -1.60806 
 8                     4.02642  -3.92969  -0.63853 
 6                     1.78826  -3.6769    1.33674 
 1                     2.05006  -4.72309   1.07166 
 1                     0.70245  -3.64396   1.56635 
 8                     2.55814  -3.20994   2.43683 
 16                   -0.32807   0.08924  -2.42982 
 8                    -0.16119   1.38657  -1.67355 
 8                     0.77506  -0.92306  -2.09578 
 6                    -1.81808  -0.66561  -1.73374 
 6                    -3.05597  -0.43077  -2.34408 
 6                    -1.71295  -1.45274  -0.58131 
 6                    -4.20944  -0.99298  -1.77606 
 1                    -3.11133   0.16933  -3.25578 
 6                    -2.87269  -2.02347  -0.03977 
 1                    -0.74112  -1.62739  -0.11441 
 6                    -4.12483  -1.79515  -0.62749 
 1                    -5.02539  -2.24139  -0.20003 
 6                     4.307     1.28725  -2.32436 
 1                     4.97322   1.43006  -1.45477 
 1                     4.81259   0.64604  -3.06514 
 1                     4.07265   2.26603  -2.77015 
 6                     5.61843  -2.18282  -2.73835 
 1                     5.44061  -3.2656   -2.61631 
 1                     5.13619  -1.83727  -3.67571 
 1                     6.70093  -1.98834  -2.79825 
 6                     5.00545  -4.47454   0.25879 
 1                     5.92386  -3.85692   0.26546 
 1                     4.60953  -4.54575   1.28973 
 1                     5.24346  -5.4818   -0.11667 
 6                     2.27807  -3.95539   3.62245 
 1                     2.90679  -3.531     4.41983 
 1                     1.21057  -3.86619   3.90993 
 1                     2.52319  -5.02973   3.49303 
 6                    -0.71993   5.72018   1.92983 
 1                    -1.12842   6.34783   2.73616 
 1                     0.36499   5.57505   2.08593 
 1                    -0.87786   6.22421   0.95437 
 11                    1.68756   2.63274  -0.84886 
 8                     3.37751   4.20826  -0.96999 
 6                     3.62471   5.38971  -1.73062 
 1                     4.5706    5.30315  -2.30308 
 1                     2.78292   5.50751  -2.431 
 1                     3.68527   6.28177  -1.07495 
 6                     4.41401   3.94704  -0.01294 
 1                     4.4863    4.77422   0.72135 
 1                     4.12586   3.00558   0.48899 
 1                     5.39338   3.83184  -0.52034 
 6                    -5.56171  -0.67812  -2.36801 
 9                    -6.09539   0.45297  -1.81049 
 9                    -6.45681  -1.68231  -2.15533 
 9                    -5.49083  -0.4622   -3.70983 
 6                    -2.75146  -2.97988   1.12012 
 9                    -1.71293  -2.66207   1.94798 
 9                    -2.52593  -4.25542   0.68599 
 9                    -3.88478  -3.01462   1.87845 
 
 Add virtual bond connecting atoms H37        and H10        Dist= 3.81D+00.
 Add virtual bond connecting atoms H37        and O19        Dist= 4.07D+00.
 Add virtual bond connecting atoms H38        and O19        Dist= 4.04D+00.
 Add virtual bond connecting atoms O52        and H37        Dist= 4.21D+00.
 Add virtual bond connecting atoms O53        and C34        Dist= 4.01D+00.
 Add virtual bond connecting atoms H60        and O42        Dist= 4.28D+00.
 Add virtual bond connecting atoms H91        and H18        Dist= 4.33D+00.
 Add virtual bond connecting atoms H91        and O19        Dist= 4.20D+00.
 Add virtual bond connecting atoms O11        and Na83       Dist= 4.49D+00.
 Add virtual bond connecting atoms O19        and Na83       Dist= 4.45D+00.
 Add virtual bond connecting atoms H37        and Na83       Dist= 4.52D+00.
 Add virtual bond connecting atoms O52        and Na83       Dist= 4.49D+00.
 Add virtual bond connecting atoms O84        and Na83       Dist= 4.37D+00.
 ITRead=  0  0  0  0  0  0  0  0  0  0  0  0  0  0  0  0  0  0  0  0
 ITRead=  0  0  0  0  0  0  0  0  0  0  0  0  0  0  0  0  0  0  0  0
 ITRead=  0  0  0  0  0  0  0  0  0  0  0  0  0  0  0  0  0  0  0  0
 ITRead=  0  0  0  0  0  0  0  0  0  0  0  0  0  0  0  0  0  0  0  0
 ITRead=  0  0  0  0  0  0  0  0  0  0  0  0  0  0  0  0  0  0  0  0
 MicOpt= -1 -1 -1 -1 -1 -1 -1 -1 -1 -1 -1 -1 -1 -1 -1 -1 -1 -1 -1 -1
 MicOpt= -1 -1 -1 -1 -1 -1 -1 -1 -1 -1 -1 -1 -1 -1 -1 -1 -1 -1 -1 -1
 MicOpt= -1 -1 -1 -1 -1 -1 -1 -1 -1 -1 -1 -1 -1 -1 -1 -1 -1 -1 -1 -1
 MicOpt= -1 -1 -1 -1 -1 -1 -1 -1 -1 -1 -1 -1 -1 -1 -1 -1 -1 -1 -1 -1
 MicOpt= -1 -1 -1 -1 -1 -1 -1 -1 -1 -1 -1 -1 -1 -1 -1 -1 -1 -1 -1 -1
 NAtoms=    100 NQM=      100 NQMF=       0 NMMI=      0 NMMIF=      0
                NMic=       0 NMicF=      0.
                    Isotopes and Nuclear Properties:
 (Nuclear quadrupole moments (NQMom) in fm**2, nuclear magnetic moments (NMagM)
  in nuclear magnetons)

  Atom         1           2           3           4           5           6           7           8           9          10
 IAtWgt=          12          12          12          12          12           1           1           1           1           1
 AtmWgt=  12.0000000  12.0000000  12.0000000  12.0000000  12.0000000   1.0078250   1.0078250   1.0078250   1.0078250   1.0078250
 NucSpn=           0           0           0           0           0           1           1           1           1           1
 AtZEff=   0.0000000   0.0000000   0.0000000   0.0000000   0.0000000   0.0000000   0.0000000   0.0000000   0.0000000   0.0000000
 NQMom=    0.0000000   0.0000000   0.0000000   0.0000000   0.0000000   0.0000000   0.0000000   0.0000000   0.0000000   0.0000000
 NMagM=    0.0000000   0.0000000   0.0000000   0.0000000   0.0000000   2.7928460   2.7928460   2.7928460   2.7928460   2.7928460
 AtZNuc=   6.0000000   6.0000000   6.0000000   6.0000000   6.0000000   1.0000000   1.0000000   1.0000000   1.0000000   1.0000000

  Atom        11          12          13          14          15          16          17          18          19          20
 IAtWgt=          16          16          16          16          16          12           1           1          16          12
 AtmWgt=  15.9949146  15.9949146  15.9949146  15.9949146  15.9949146  12.0000000   1.0078250   1.0078250  15.9949146  12.0000000
 NucSpn=           0           0           0           0           0           0           1           1           0           0
 AtZEff=   0.0000000   0.0000000   0.0000000   0.0000000   0.0000000   0.0000000   0.0000000   0.0000000   0.0000000   0.0000000
 NQMom=    0.0000000   0.0000000   0.0000000   0.0000000   0.0000000   0.0000000   0.0000000   0.0000000   0.0000000   0.0000000
 NMagM=    0.0000000   0.0000000   0.0000000   0.0000000   0.0000000   0.0000000   2.7928460   2.7928460   0.0000000   0.0000000
 AtZNuc=   8.0000000   8.0000000   8.0000000   8.0000000   8.0000000   6.0000000   1.0000000   1.0000000   8.0000000   6.0000000

  Atom        21          22          23          24          25          26          27          28          29          30
 IAtWgt=           1           1           1          12           1           1           1          12           1           1
 AtmWgt=   1.0078250   1.0078250   1.0078250  12.0000000   1.0078250   1.0078250   1.0078250  12.0000000   1.0078250   1.0078250
 NucSpn=           1           1           1           0           1           1           1           0           1           1
 AtZEff=   0.0000000   0.0000000   0.0000000   0.0000000   0.0000000   0.0000000   0.0000000   0.0000000   0.0000000   0.0000000
 NQMom=    0.0000000   0.0000000   0.0000000   0.0000000   0.0000000   0.0000000   0.0000000   0.0000000   0.0000000   0.0000000
 NMagM=    2.7928460   2.7928460   2.7928460   0.0000000   2.7928460   2.7928460   2.7928460   0.0000000   2.7928460   2.7928460
 AtZNuc=   1.0000000   1.0000000   1.0000000   6.0000000   1.0000000   1.0000000   1.0000000   6.0000000   1.0000000   1.0000000

  Atom        31          32          33          34          35          36          37          38          39          40
 IAtWgt=           1          12          12          12          12          12           1           1           1           1
 AtmWgt=   1.0078250  12.0000000  12.0000000  12.0000000  12.0000000  12.0000000   1.0078250   1.0078250   1.0078250   1.0078250
 NucSpn=           1           0           0           0           0           0           1           1           1           1
 AtZEff=   0.0000000   0.0000000   0.0000000   0.0000000   0.0000000   0.0000000   0.0000000   0.0000000   0.0000000   0.0000000
 NQMom=    0.0000000   0.0000000   0.0000000   0.0000000   0.0000000   0.0000000   0.0000000   0.0000000   0.0000000   0.0000000
 NMagM=    2.7928460   0.0000000   0.0000000   0.0000000   0.0000000   0.0000000   2.7928460   2.7928460   2.7928460   2.7928460
 AtZNuc=   1.0000000   6.0000000   6.0000000   6.0000000   6.0000000   6.0000000   1.0000000   1.0000000   1.0000000   1.0000000

  Atom        41          42          43          44          45          46          47          48          49          50
 IAtWgt=           1          16          16          16          16          16          12           1           1          16
 AtmWgt=   1.0078250  15.9949146  15.9949146  15.9949146  15.9949146  15.9949146  12.0000000   1.0078250   1.0078250  15.9949146
 NucSpn=           1           0           0           0           0           0           0           1           1           0
 AtZEff=   0.0000000   0.0000000   0.0000000   0.0000000   0.0000000   0.0000000   0.0000000   0.0000000   0.0000000   0.0000000
 NQMom=    0.0000000   0.0000000   0.0000000   0.0000000   0.0000000   0.0000000   0.0000000   0.0000000   0.0000000   0.0000000
 NMagM=    2.7928460   0.0000000   0.0000000   0.0000000   0.0000000   0.0000000   0.0000000   2.7928460   2.7928460   0.0000000
 AtZNuc=   1.0000000   8.0000000   8.0000000   8.0000000   8.0000000   8.0000000   6.0000000   1.0000000   1.0000000   8.0000000

  Atom        51          52          53          54          55          56          57          58          59          60
 IAtWgt=          32          16          16          12          12          12          12           1          12           1
 AtmWgt=  31.9720718  15.9949146  15.9949146  12.0000000  12.0000000  12.0000000  12.0000000   1.0078250  12.0000000   1.0078250
 NucSpn=           0           0           0           0           0           0           0           1           0           1
 AtZEff=   0.0000000   0.0000000   0.0000000   0.0000000   0.0000000   0.0000000   0.0000000   0.0000000   0.0000000   0.0000000
 NQMom=    0.0000000   0.0000000   0.0000000   0.0000000   0.0000000   0.0000000   0.0000000   0.0000000   0.0000000   0.0000000
 NMagM=    0.0000000   0.0000000   0.0000000   0.0000000   0.0000000   0.0000000   0.0000000   2.7928460   0.0000000   2.7928460
 AtZNuc=  16.0000000   8.0000000   8.0000000   6.0000000   6.0000000   6.0000000   6.0000000   1.0000000   6.0000000   1.0000000

  Atom        61          62          63          64          65          66          67          68          69          70
 IAtWgt=          12           1          12           1           1           1          12           1           1           1
 AtmWgt=  12.0000000   1.0078250  12.0000000   1.0078250   1.0078250   1.0078250  12.0000000   1.0078250   1.0078250   1.0078250
 NucSpn=           0           1           0           1           1           1           0           1           1           1
 AtZEff=   0.0000000   0.0000000   0.0000000   0.0000000   0.0000000   0.0000000   0.0000000   0.0000000   0.0000000   0.0000000
 NQMom=    0.0000000   0.0000000   0.0000000   0.0000000   0.0000000   0.0000000   0.0000000   0.0000000   0.0000000   0.0000000
 NMagM=    0.0000000   2.7928460   0.0000000   2.7928460   2.7928460   2.7928460   0.0000000   2.7928460   2.7928460   2.7928460
 AtZNuc=   6.0000000   1.0000000   6.0000000   1.0000000   1.0000000   1.0000000   6.0000000   1.0000000   1.0000000   1.0000000

  Atom        71          72          73          74          75          76          77          78          79          80
 IAtWgt=          12           1           1           1          12           1           1           1          12           1
 AtmWgt=  12.0000000   1.0078250   1.0078250   1.0078250  12.0000000   1.0078250   1.0078250   1.0078250  12.0000000   1.0078250
 NucSpn=           0           1           1           1           0           1           1           1           0           1
 AtZEff=   0.0000000   0.0000000   0.0000000   0.0000000   0.0000000   0.0000000   0.0000000   0.0000000   0.0000000   0.0000000
 NQMom=    0.0000000   0.0000000   0.0000000   0.0000000   0.0000000   0.0000000   0.0000000   0.0000000   0.0000000   0.0000000
 NMagM=    0.0000000   2.7928460   2.7928460   2.7928460   0.0000000   2.7928460   2.7928460   2.7928460   0.0000000   2.7928460
 AtZNuc=   6.0000000   1.0000000   1.0000000   1.0000000   6.0000000   1.0000000   1.0000000   1.0000000   6.0000000   1.0000000

  Atom        81          82          83          84          85          86          87          88          89          90
 IAtWgt=           1           1          23          16          12           1           1           1          12           1
 AtmWgt=   1.0078250   1.0078250  22.9897697  15.9949146  12.0000000   1.0078250   1.0078250   1.0078250  12.0000000   1.0078250
 NucSpn=           1           1           3           0           0           1           1           1           0           1
 AtZEff=   0.0000000   0.0000000   0.0000000   0.0000000   0.0000000   0.0000000   0.0000000   0.0000000   0.0000000   0.0000000
 NQMom=    0.0000000   0.0000000  10.4000000   0.0000000   0.0000000   0.0000000   0.0000000   0.0000000   0.0000000   0.0000000
 NMagM=    2.7928460   2.7928460   2.2175200   0.0000000   0.0000000   2.7928460   2.7928460   2.7928460   0.0000000   2.7928460
 AtZNuc=   1.0000000   1.0000000  11.0000000   8.0000000   6.0000000   1.0000000   1.0000000   1.0000000   6.0000000   1.0000000

  Atom        91          92          93          94          95          96          97          98          99         100
 IAtWgt=           1           1          12          19          19          19          12          19          19          19
 AtmWgt=   1.0078250   1.0078250  12.0000000  18.9984033  18.9984033  18.9984033  12.0000000  18.9984033  18.9984033  18.9984033
 NucSpn=           1           1           0           1           1           1           0           1           1           1
 AtZEff=   0.0000000   0.0000000   0.0000000   0.0000000   0.0000000   0.0000000   0.0000000   0.0000000   0.0000000   0.0000000
 NQMom=    0.0000000   0.0000000   0.0000000   0.0000000   0.0000000   0.0000000   0.0000000   0.0000000   0.0000000   0.0000000
 NMagM=    2.7928460   2.7928460   0.0000000   2.6288670   2.6288670   2.6288670   0.0000000   2.6288670   2.6288670   2.6288670
 AtZNuc=   1.0000000   1.0000000   6.0000000   9.0000000   9.0000000   9.0000000   6.0000000   9.0000000   9.0000000   9.0000000
 Leave Link  101 at Wed Jun  5 11:39:24 2019, MaxMem=  6442450944 cpu:              17.8 elap:               0.7
 (Enter /home/ekwan/sw/g16/l103.exe)

 GradGradGradGradGradGradGradGradGradGradGradGradGradGradGradGradGradGrad
 Berny optimization.
 Initialization pass.
                           ----------------------------
                           !    Initial Parameters    !
                           ! (Angstroms and Degrees)  !
 --------------------------                            --------------------------
 ! Name  Definition              Value          Derivative Info.                !
 --------------------------------------------------------------------------------
 ! R1    R(1,2)                  1.536          calculate D2E/DX2 analytically  !
 ! R2    R(1,5)                  1.535          calculate D2E/DX2 analytically  !
 ! R3    R(1,8)                  1.1086         calculate D2E/DX2 analytically  !
 ! R4    R(1,14)                 1.4342         calculate D2E/DX2 analytically  !
 ! R5    R(2,3)                  1.5365         calculate D2E/DX2 analytically  !
 ! R6    R(2,7)                  1.1075         calculate D2E/DX2 analytically  !
 ! R7    R(2,13)                 1.4288         calculate D2E/DX2 analytically  !
 ! R8    R(3,6)                  1.1094         calculate D2E/DX2 analytically  !
 ! R9    R(3,11)                 1.4324         calculate D2E/DX2 analytically  !
 ! R10   R(3,12)                 1.4088         calculate D2E/DX2 analytically  !
 ! R11   R(4,5)                  1.54           calculate D2E/DX2 analytically  !
 ! R12   R(4,9)                  1.1085         calculate D2E/DX2 analytically  !
 ! R13   R(4,11)                 1.4587         calculate D2E/DX2 analytically  !
 ! R14   R(4,16)                 1.5417         calculate D2E/DX2 analytically  !
 ! R15   R(5,10)                 1.1055         calculate D2E/DX2 analytically  !
 ! R16   R(5,15)                 1.4369         calculate D2E/DX2 analytically  !
 ! R17   R(10,37)                2.0181         calculate D2E/DX2 analytically  !
 ! R18   R(11,83)                2.3772         calculate D2E/DX2 analytically  !
 ! R19   R(12,79)                1.4333         calculate D2E/DX2 analytically  !
 ! R20   R(13,20)                1.4296         calculate D2E/DX2 analytically  !
 ! R21   R(14,24)                1.4296         calculate D2E/DX2 analytically  !
 ! R22   R(15,28)                1.4324         calculate D2E/DX2 analytically  !
 ! R23   R(16,17)                1.1206         calculate D2E/DX2 analytically  !
 ! R24   R(16,18)                1.1245         calculate D2E/DX2 analytically  !
 ! R25   R(16,19)                1.3843         calculate D2E/DX2 analytically  !
 ! R26   R(18,91)                2.2924         calculate D2E/DX2 analytically  !
 ! R27   R(19,37)                2.1537         calculate D2E/DX2 analytically  !
 ! R28   R(19,38)                2.1376         calculate D2E/DX2 analytically  !
 ! R29   R(19,83)                2.3525         calculate D2E/DX2 analytically  !
 ! R30   R(19,91)                2.2229         calculate D2E/DX2 analytically  !
 ! R31   R(20,21)                1.1096         calculate D2E/DX2 analytically  !
 ! R32   R(20,22)                1.1041         calculate D2E/DX2 analytically  !
 ! R33   R(20,23)                1.102          calculate D2E/DX2 analytically  !
 ! R34   R(24,25)                1.1045         calculate D2E/DX2 analytically  !
 ! R35   R(24,26)                1.1098         calculate D2E/DX2 analytically  !
 ! R36   R(24,27)                1.1            calculate D2E/DX2 analytically  !
 ! R37   R(28,29)                1.1059         calculate D2E/DX2 analytically  !
 ! R38   R(28,30)                1.1048         calculate D2E/DX2 analytically  !
 ! R39   R(28,31)                1.1022         calculate D2E/DX2 analytically  !
 ! R40   R(32,33)                1.5374         calculate D2E/DX2 analytically  !
 ! R41   R(32,36)                1.539          calculate D2E/DX2 analytically  !
 ! R42   R(32,39)                1.1072         calculate D2E/DX2 analytically  !
 ! R43   R(32,45)                1.4281         calculate D2E/DX2 analytically  !
 ! R44   R(33,34)                1.5038         calculate D2E/DX2 analytically  !
 ! R45   R(33,38)                1.1147         calculate D2E/DX2 analytically  !
 ! R46   R(33,44)                1.427          calculate D2E/DX2 analytically  !
 ! R47   R(34,37)                1.0835         calculate D2E/DX2 analytically  !
 ! R48   R(34,42)                1.311          calculate D2E/DX2 analytically  !
 ! R49   R(34,53)                2.1231         calculate D2E/DX2 analytically  !
 ! R50   R(35,36)                1.5348         calculate D2E/DX2 analytically  !
 ! R51   R(35,40)                1.1045         calculate D2E/DX2 analytically  !
 ! R52   R(35,42)                1.478          calculate D2E/DX2 analytically  !
 ! R53   R(35,47)                1.5162         calculate D2E/DX2 analytically  !
 ! R54   R(36,41)                1.1058         calculate D2E/DX2 analytically  !
 ! R55   R(36,46)                1.4287         calculate D2E/DX2 analytically  !
 ! R56   R(37,52)                2.2266         calculate D2E/DX2 analytically  !
 ! R57   R(37,83)                2.3911         calculate D2E/DX2 analytically  !
 ! R58   R(42,60)                2.264          calculate D2E/DX2 analytically  !
 ! R59   R(43,51)                1.4882         calculate D2E/DX2 analytically  !
 ! R60   R(44,63)                1.4405         calculate D2E/DX2 analytically  !
 ! R61   R(45,67)                1.4333         calculate D2E/DX2 analytically  !
 ! R62   R(46,71)                1.4355         calculate D2E/DX2 analytically  !
 ! R63   R(47,48)                1.1106         calculate D2E/DX2 analytically  !
 ! R64   R(47,49)                1.1103         calculate D2E/DX2 analytically  !
 ! R65   R(47,50)                1.4216         calculate D2E/DX2 analytically  !
 ! R66   R(50,75)                1.4282         calculate D2E/DX2 analytically  !
 ! R67   R(51,52)                1.5109         calculate D2E/DX2 analytically  !
 ! R68   R(51,53)                1.534          calculate D2E/DX2 analytically  !
 ! R69   R(51,54)                1.8096         calculate D2E/DX2 analytically  !
 ! R70   R(52,83)                2.3772         calculate D2E/DX2 analytically  !
 ! R71   R(54,55)                1.4            calculate D2E/DX2 analytically  !
 ! R72   R(54,56)                1.3995         calculate D2E/DX2 analytically  !
 ! R73   R(55,57)                1.4033         calculate D2E/DX2 analytically  !
 ! R74   R(55,58)                1.0929         calculate D2E/DX2 analytically  !
 ! R75   R(56,59)                1.4014         calculate D2E/DX2 analytically  !
 ! R76   R(56,60)                1.0922         calculate D2E/DX2 analytically  !
 ! R77   R(57,61)                1.4035         calculate D2E/DX2 analytically  !
 ! R78   R(57,93)                1.5094         calculate D2E/DX2 analytically  !
 ! R79   R(59,61)                1.4019         calculate D2E/DX2 analytically  !
 ! R80   R(59,97)                1.5082         calculate D2E/DX2 analytically  !
 ! R81   R(61,62)                1.0922         calculate D2E/DX2 analytically  !
 ! R82   R(63,64)                1.1047         calculate D2E/DX2 analytically  !
 ! R83   R(63,65)                1.1025         calculate D2E/DX2 analytically  !
 ! R84   R(63,66)                1.1008         calculate D2E/DX2 analytically  !
 ! R85   R(67,68)                1.1041         calculate D2E/DX2 analytically  !
 ! R86   R(67,69)                1.1093         calculate D2E/DX2 analytically  !
 ! R87   R(67,70)                1.1015         calculate D2E/DX2 analytically  !
 ! R88   R(71,72)                1.1068         calculate D2E/DX2 analytically  !
 ! R89   R(71,73)                1.1066         calculate D2E/DX2 analytically  !
 ! R90   R(71,74)                1.101          calculate D2E/DX2 analytically  !
 ! R91   R(75,76)                1.1006         calculate D2E/DX2 analytically  !
 ! R92   R(75,77)                1.1091         calculate D2E/DX2 analytically  !
 ! R93   R(75,78)                1.1095         calculate D2E/DX2 analytically  !
 ! R94   R(79,80)                1.1004         calculate D2E/DX2 analytically  !
 ! R95   R(79,81)                1.1057         calculate D2E/DX2 analytically  !
 ! R96   R(79,82)                1.1093         calculate D2E/DX2 analytically  !
 ! R97   R(83,84)                2.3136         calculate D2E/DX2 analytically  !
 ! R98   R(84,85)                1.4267         calculate D2E/DX2 analytically  !
 ! R99   R(84,89)                1.4347         calculate D2E/DX2 analytically  !
 ! R100  R(85,86)                1.109          calculate D2E/DX2 analytically  !
 ! R101  R(85,87)                1.1014         calculate D2E/DX2 analytically  !
 ! R102  R(85,88)                1.1088         calculate D2E/DX2 analytically  !
 ! R103  R(89,90)                1.1084         calculate D2E/DX2 analytically  !
 ! R104  R(89,91)                1.1051         calculate D2E/DX2 analytically  !
 ! R105  R(89,92)                1.109          calculate D2E/DX2 analytically  !
 ! R106  R(93,94)                1.3693         calculate D2E/DX2 analytically  !
 ! R107  R(93,95)                1.3619         calculate D2E/DX2 analytically  !
 ! R108  R(93,96)                1.3609         calculate D2E/DX2 analytically  !
 ! R109  R(97,98)                1.3656         calculate D2E/DX2 analytically  !
 ! R110  R(97,99)                1.3661         calculate D2E/DX2 analytically  !
 ! R111  R(97,100)               1.3641         calculate D2E/DX2 analytically  !
 ! A1    A(2,1,5)              109.8837         calculate D2E/DX2 analytically  !
 ! A2    A(2,1,8)              108.5359         calculate D2E/DX2 analytically  !
 ! A3    A(2,1,14)             107.8118         calculate D2E/DX2 analytically  !
 ! A4    A(5,1,8)              109.4568         calculate D2E/DX2 analytically  !
 ! A5    A(5,1,14)             111.1557         calculate D2E/DX2 analytically  !
 ! A6    A(8,1,14)             109.9453         calculate D2E/DX2 analytically  !
 ! A7    A(1,2,3)              110.4707         calculate D2E/DX2 analytically  !
 ! A8    A(1,2,7)              108.9256         calculate D2E/DX2 analytically  !
 ! A9    A(1,2,13)             111.8414         calculate D2E/DX2 analytically  !
 ! A10   A(3,2,7)              106.388          calculate D2E/DX2 analytically  !
 ! A11   A(3,2,13)             108.3847         calculate D2E/DX2 analytically  !
 ! A12   A(7,2,13)             110.6901         calculate D2E/DX2 analytically  !
 ! A13   A(2,3,6)              110.6357         calculate D2E/DX2 analytically  !
 ! A14   A(2,3,11)             110.3776         calculate D2E/DX2 analytically  !
 ! A15   A(2,3,12)             108.4959         calculate D2E/DX2 analytically  !
 ! A16   A(6,3,11)             104.4248         calculate D2E/DX2 analytically  !
 ! A17   A(6,3,12)             110.559          calculate D2E/DX2 analytically  !
 ! A18   A(11,3,12)            112.3296         calculate D2E/DX2 analytically  !
 ! A19   A(5,4,9)              107.9098         calculate D2E/DX2 analytically  !
 ! A20   A(5,4,11)             109.8966         calculate D2E/DX2 analytically  !
 ! A21   A(5,4,16)             114.4082         calculate D2E/DX2 analytically  !
 ! A22   A(9,4,11)             108.7534         calculate D2E/DX2 analytically  !
 ! A23   A(9,4,16)             109.2018         calculate D2E/DX2 analytically  !
 ! A24   A(11,4,16)            106.5581         calculate D2E/DX2 analytically  !
 ! A25   A(1,5,4)              111.4764         calculate D2E/DX2 analytically  !
 ! A26   A(1,5,10)             107.3877         calculate D2E/DX2 analytically  !
 ! A27   A(1,5,15)             109.4732         calculate D2E/DX2 analytically  !
 ! A28   A(4,5,10)             109.7857         calculate D2E/DX2 analytically  !
 ! A29   A(4,5,15)             108.8353         calculate D2E/DX2 analytically  !
 ! A30   A(10,5,15)            109.8674         calculate D2E/DX2 analytically  !
 ! A31   A(5,10,37)            140.1985         calculate D2E/DX2 analytically  !
 ! A32   A(3,11,4)             113.6625         calculate D2E/DX2 analytically  !
 ! A33   A(3,11,83)            126.5087         calculate D2E/DX2 analytically  !
 ! A34   A(4,11,83)            113.0422         calculate D2E/DX2 analytically  !
 ! A35   A(3,12,79)            112.4468         calculate D2E/DX2 analytically  !
 ! A36   A(2,13,20)            112.7791         calculate D2E/DX2 analytically  !
 ! A37   A(1,14,24)            113.3259         calculate D2E/DX2 analytically  !
 ! A38   A(5,15,28)            112.6576         calculate D2E/DX2 analytically  !
 ! A39   A(4,16,17)            105.4029         calculate D2E/DX2 analytically  !
 ! A40   A(4,16,18)            105.1998         calculate D2E/DX2 analytically  !
 ! A41   A(4,16,19)            114.6692         calculate D2E/DX2 analytically  !
 ! A42   A(17,16,18)           105.0713         calculate D2E/DX2 analytically  !
 ! A43   A(17,16,19)           114.1167         calculate D2E/DX2 analytically  !
 ! A44   A(18,16,19)           111.511          calculate D2E/DX2 analytically  !
 ! A45   A(16,18,91)            98.8192         calculate D2E/DX2 analytically  !
 ! A46   A(16,19,37)           120.0264         calculate D2E/DX2 analytically  !
 ! A47   A(16,19,38)           155.597          calculate D2E/DX2 analytically  !
 ! A48   A(16,19,83)           107.3397         calculate D2E/DX2 analytically  !
 ! A49   A(16,19,91)            94.2113         calculate D2E/DX2 analytically  !
 ! A50   A(37,19,38)            75.8986         calculate D2E/DX2 analytically  !
 ! A51   A(37,19,91)           132.5309         calculate D2E/DX2 analytically  !
 ! A52   A(38,19,83)            96.2065         calculate D2E/DX2 analytically  !
 ! A53   A(38,19,91)            85.3432         calculate D2E/DX2 analytically  !
 ! A54   A(83,19,91)            75.5977         calculate D2E/DX2 analytically  !
 ! A55   A(13,20,21)           111.4468         calculate D2E/DX2 analytically  !
 ! A56   A(13,20,22)           111.4923         calculate D2E/DX2 analytically  !
 ! A57   A(13,20,23)           106.5968         calculate D2E/DX2 analytically  !
 ! A58   A(21,20,22)           108.7589         calculate D2E/DX2 analytically  !
 ! A59   A(21,20,23)           108.7936         calculate D2E/DX2 analytically  !
 ! A60   A(22,20,23)           109.6966         calculate D2E/DX2 analytically  !
 ! A61   A(14,24,25)           111.534          calculate D2E/DX2 analytically  !
 ! A62   A(14,24,26)           111.0695         calculate D2E/DX2 analytically  !
 ! A63   A(14,24,27)           106.3542         calculate D2E/DX2 analytically  !
 ! A64   A(25,24,26)           108.9452         calculate D2E/DX2 analytically  !
 ! A65   A(25,24,27)           109.7593         calculate D2E/DX2 analytically  !
 ! A66   A(26,24,27)           109.1274         calculate D2E/DX2 analytically  !
 ! A67   A(15,28,29)           110.9351         calculate D2E/DX2 analytically  !
 ! A68   A(15,28,30)           112.0035         calculate D2E/DX2 analytically  !
 ! A69   A(15,28,31)           106.582          calculate D2E/DX2 analytically  !
 ! A70   A(29,28,30)           108.4117         calculate D2E/DX2 analytically  !
 ! A71   A(29,28,31)           109.3415         calculate D2E/DX2 analytically  !
 ! A72   A(30,28,31)           109.5305         calculate D2E/DX2 analytically  !
 ! A73   A(33,32,36)           108.3079         calculate D2E/DX2 analytically  !
 ! A74   A(33,32,39)           109.3624         calculate D2E/DX2 analytically  !
 ! A75   A(33,32,45)           108.3716         calculate D2E/DX2 analytically  !
 ! A76   A(36,32,39)           110.2295         calculate D2E/DX2 analytically  !
 ! A77   A(36,32,45)           109.4286         calculate D2E/DX2 analytically  !
 ! A78   A(39,32,45)           111.0764         calculate D2E/DX2 analytically  !
 ! A79   A(32,33,34)           112.0481         calculate D2E/DX2 analytically  !
 ! A80   A(32,33,38)           109.2272         calculate D2E/DX2 analytically  !
 ! A81   A(32,33,44)           115.8404         calculate D2E/DX2 analytically  !
 ! A82   A(34,33,38)           103.1194         calculate D2E/DX2 analytically  !
 ! A83   A(34,33,44)           107.409          calculate D2E/DX2 analytically  !
 ! A84   A(38,33,44)           108.3849         calculate D2E/DX2 analytically  !
 ! A85   A(33,34,37)           120.6979         calculate D2E/DX2 analytically  !
 ! A86   A(33,34,42)           122.9499         calculate D2E/DX2 analytically  !
 ! A87   A(33,34,53)            96.2132         calculate D2E/DX2 analytically  !
 ! A88   A(37,34,42)           113.8274         calculate D2E/DX2 analytically  !
 ! A89   A(37,34,53)            90.0881         calculate D2E/DX2 analytically  !
 ! A90   A(42,34,53)            99.3085         calculate D2E/DX2 analytically  !
 ! A91   A(36,35,40)           109.5507         calculate D2E/DX2 analytically  !
 ! A92   A(36,35,42)           111.0164         calculate D2E/DX2 analytically  !
 ! A93   A(36,35,47)           115.0659         calculate D2E/DX2 analytically  !
 ! A94   A(40,35,42)           105.1423         calculate D2E/DX2 analytically  !
 ! A95   A(40,35,47)           109.3528         calculate D2E/DX2 analytically  !
 ! A96   A(42,35,47)           106.2111         calculate D2E/DX2 analytically  !
 ! A97   A(32,36,35)           111.1847         calculate D2E/DX2 analytically  !
 ! A98   A(32,36,41)           108.4024         calculate D2E/DX2 analytically  !
 ! A99   A(32,36,46)           110.0537         calculate D2E/DX2 analytically  !
 ! A100  A(35,36,41)           109.1545         calculate D2E/DX2 analytically  !
 ! A101  A(35,36,46)           107.3129         calculate D2E/DX2 analytically  !
 ! A102  A(41,36,46)           110.739          calculate D2E/DX2 analytically  !
 ! A103  A(10,37,19)            84.1841         calculate D2E/DX2 analytically  !
 ! A104  A(10,37,34)           119.3638         calculate D2E/DX2 analytically  !
 ! A105  A(10,37,52)           101.8209         calculate D2E/DX2 analytically  !
 ! A106  A(10,37,83)           108.5515         calculate D2E/DX2 analytically  !
 ! A107  A(19,37,34)            94.5132         calculate D2E/DX2 analytically  !
 ! A108  A(19,37,52)           122.4278         calculate D2E/DX2 analytically  !
 ! A109  A(34,37,52)           127.4271         calculate D2E/DX2 analytically  !
 ! A110  A(34,37,83)           123.9601         calculate D2E/DX2 analytically  !
 ! A111  A(19,38,33)           108.4766         calculate D2E/DX2 analytically  !
 ! A112  A(34,42,35)           119.4984         calculate D2E/DX2 analytically  !
 ! A113  A(34,42,60)            99.6653         calculate D2E/DX2 analytically  !
 ! A114  A(35,42,60)           107.5589         calculate D2E/DX2 analytically  !
 ! A115  A(33,44,63)           114.0805         calculate D2E/DX2 analytically  !
 ! A116  A(32,45,67)           113.2295         calculate D2E/DX2 analytically  !
 ! A117  A(36,46,71)           112.8637         calculate D2E/DX2 analytically  !
 ! A118  A(35,47,48)           108.1245         calculate D2E/DX2 analytically  !
 ! A119  A(35,47,49)           109.1351         calculate D2E/DX2 analytically  !
 ! A120  A(35,47,50)           108.9898         calculate D2E/DX2 analytically  !
 ! A121  A(48,47,49)           107.9296         calculate D2E/DX2 analytically  !
 ! A122  A(48,47,50)           111.4985         calculate D2E/DX2 analytically  !
 ! A123  A(49,47,50)           111.0904         calculate D2E/DX2 analytically  !
 ! A124  A(47,50,75)           111.392          calculate D2E/DX2 analytically  !
 ! A125  A(43,51,52)           115.0709         calculate D2E/DX2 analytically  !
 ! A126  A(43,51,53)           113.033          calculate D2E/DX2 analytically  !
 ! A127  A(43,51,54)           106.9615         calculate D2E/DX2 analytically  !
 ! A128  A(52,51,53)           112.222          calculate D2E/DX2 analytically  !
 ! A129  A(52,51,54)           104.8674         calculate D2E/DX2 analytically  !
 ! A130  A(53,51,54)           103.4788         calculate D2E/DX2 analytically  !
 ! A131  A(37,52,51)            91.739          calculate D2E/DX2 analytically  !
 ! A132  A(51,52,83)           135.2078         calculate D2E/DX2 analytically  !
 ! A133  A(34,53,51)           112.3281         calculate D2E/DX2 analytically  !
 ! A134  A(51,54,55)           119.3667         calculate D2E/DX2 analytically  !
 ! A135  A(51,54,56)           119.3081         calculate D2E/DX2 analytically  !
 ! A136  A(55,54,56)           121.3147         calculate D2E/DX2 analytically  !
 ! A137  A(54,55,57)           118.8899         calculate D2E/DX2 analytically  !
 ! A138  A(54,55,58)           120.0377         calculate D2E/DX2 analytically  !
 ! A139  A(57,55,58)           121.0662         calculate D2E/DX2 analytically  !
 ! A140  A(54,56,59)           119.0171         calculate D2E/DX2 analytically  !
 ! A141  A(54,56,60)           120.5821         calculate D2E/DX2 analytically  !
 ! A142  A(59,56,60)           120.3988         calculate D2E/DX2 analytically  !
 ! A143  A(55,57,61)           120.7087         calculate D2E/DX2 analytically  !
 ! A144  A(55,57,93)           119.6111         calculate D2E/DX2 analytically  !
 ! A145  A(61,57,93)           119.616          calculate D2E/DX2 analytically  !
 ! A146  A(56,59,61)           120.7171         calculate D2E/DX2 analytically  !
 ! A147  A(56,59,97)           119.2688         calculate D2E/DX2 analytically  !
 ! A148  A(61,59,97)           119.8325         calculate D2E/DX2 analytically  !
 ! A149  A(42,60,56)           162.6179         calculate D2E/DX2 analytically  !
 ! A150  A(57,61,59)           119.341          calculate D2E/DX2 analytically  !
 ! A151  A(57,61,62)           120.2717         calculate D2E/DX2 analytically  !
 ! A152  A(59,61,62)           120.3864         calculate D2E/DX2 analytically  !
 ! A153  A(44,63,64)           111.0145         calculate D2E/DX2 analytically  !
 ! A154  A(44,63,65)           111.2382         calculate D2E/DX2 analytically  !
 ! A155  A(44,63,66)           105.9798         calculate D2E/DX2 analytically  !
 ! A156  A(64,63,65)           109.1183         calculate D2E/DX2 analytically  !
 ! A157  A(64,63,66)           109.404          calculate D2E/DX2 analytically  !
 ! A158  A(65,63,66)           110.0392         calculate D2E/DX2 analytically  !
 ! A159  A(45,67,68)           111.4377         calculate D2E/DX2 analytically  !
 ! A160  A(45,67,69)           111.1191         calculate D2E/DX2 analytically  !
 ! A161  A(45,67,70)           106.2529         calculate D2E/DX2 analytically  !
 ! A162  A(68,67,69)           109.2009         calculate D2E/DX2 analytically  !
 ! A163  A(68,67,70)           109.7229         calculate D2E/DX2 analytically  !
 ! A164  A(69,67,70)           109.0433         calculate D2E/DX2 analytically  !
 ! A165  A(46,71,72)           110.9721         calculate D2E/DX2 analytically  !
 ! A166  A(46,71,73)           111.2697         calculate D2E/DX2 analytically  !
 ! A167  A(46,71,74)           106.3501         calculate D2E/DX2 analytically  !
 ! A168  A(72,71,73)           109.0976         calculate D2E/DX2 analytically  !
 ! A169  A(72,71,74)           109.4627         calculate D2E/DX2 analytically  !
 ! A170  A(73,71,74)           109.6431         calculate D2E/DX2 analytically  !
 ! A171  A(50,75,76)           106.748          calculate D2E/DX2 analytically  !
 ! A172  A(50,75,77)           111.2188         calculate D2E/DX2 analytically  !
 ! A173  A(50,75,78)           111.4225         calculate D2E/DX2 analytically  !
 ! A174  A(76,75,77)           109.3317         calculate D2E/DX2 analytically  !
 ! A175  A(76,75,78)           109.371          calculate D2E/DX2 analytically  !
 ! A176  A(77,75,78)           108.7073         calculate D2E/DX2 analytically  !
 ! A177  A(12,79,80)           106.5585         calculate D2E/DX2 analytically  !
 ! A178  A(12,79,81)           111.5275         calculate D2E/DX2 analytically  !
 ! A179  A(12,79,82)           110.8192         calculate D2E/DX2 analytically  !
 ! A180  A(80,79,81)           109.6122         calculate D2E/DX2 analytically  !
 ! A181  A(80,79,82)           109.4101         calculate D2E/DX2 analytically  !
 ! A182  A(81,79,82)           108.8742         calculate D2E/DX2 analytically  !
 ! A183  A(11,83,19)            73.5622         calculate D2E/DX2 analytically  !
 ! A184  A(11,83,37)            82.2073         calculate D2E/DX2 analytically  !
 ! A185  A(11,83,52)            86.4858         calculate D2E/DX2 analytically  !
 ! A186  A(11,83,84)           107.7434         calculate D2E/DX2 analytically  !
 ! A187  A(19,83,52)           108.5315         calculate D2E/DX2 analytically  !
 ! A188  A(19,83,84)            95.3018         calculate D2E/DX2 analytically  !
 ! A189  A(37,83,84)           144.5767         calculate D2E/DX2 analytically  !
 ! A190  A(52,83,84)           155.0785         calculate D2E/DX2 analytically  !
 ! A191  A(83,84,85)           135.9212         calculate D2E/DX2 analytically  !
 ! A192  A(83,84,89)           111.6399         calculate D2E/DX2 analytically  !
 ! A193  A(85,84,89)           112.4099         calculate D2E/DX2 analytically  !
 ! A194  A(84,85,86)           110.9981         calculate D2E/DX2 analytically  !
 ! A195  A(84,85,87)           107.1673         calculate D2E/DX2 analytically  !
 ! A196  A(84,85,88)           111.1268         calculate D2E/DX2 analytically  !
 ! A197  A(86,85,87)           109.39           calculate D2E/DX2 analytically  !
 ! A198  A(86,85,88)           108.7518         calculate D2E/DX2 analytically  !
 ! A199  A(87,85,88)           109.3753         calculate D2E/DX2 analytically  !
 ! A200  A(84,89,90)           110.6788         calculate D2E/DX2 analytically  !
 ! A201  A(84,89,91)           105.6471         calculate D2E/DX2 analytically  !
 ! A202  A(84,89,92)           110.5913         calculate D2E/DX2 analytically  !
 ! A203  A(90,89,91)           110.6014         calculate D2E/DX2 analytically  !
 ! A204  A(90,89,92)           108.8449         calculate D2E/DX2 analytically  !
 ! A205  A(91,89,92)           110.4612         calculate D2E/DX2 analytically  !
 ! A206  A(18,91,19)            54.8056         calculate D2E/DX2 analytically  !
 ! A207  A(18,91,89)           115.7108         calculate D2E/DX2 analytically  !
 ! A208  A(19,91,89)           149.7389         calculate D2E/DX2 analytically  !
 ! A209  A(57,93,94)           111.2113         calculate D2E/DX2 analytically  !
 ! A210  A(57,93,95)           111.9488         calculate D2E/DX2 analytically  !
 ! A211  A(57,93,96)           111.9075         calculate D2E/DX2 analytically  !
 ! A212  A(94,93,95)           106.818          calculate D2E/DX2 analytically  !
 ! A213  A(94,93,96)           106.8987         calculate D2E/DX2 analytically  !
 ! A214  A(95,93,96)           107.769          calculate D2E/DX2 analytically  !
 ! A215  A(59,97,98)           112.3184         calculate D2E/DX2 analytically  !
 ! A216  A(59,97,99)           111.1589         calculate D2E/DX2 analytically  !
 ! A217  A(59,97,100)          112.142          calculate D2E/DX2 analytically  !
 ! A218  A(98,97,99)           106.522          calculate D2E/DX2 analytically  !
 ! A219  A(98,97,100)          107.5032         calculate D2E/DX2 analytically  !
 ! A220  A(99,97,100)          106.8607         calculate D2E/DX2 analytically  !
 ! D1    D(5,1,2,3)            -53.2623         calculate D2E/DX2 analytically  !
 ! D2    D(5,1,2,7)             63.2484         calculate D2E/DX2 analytically  !
 ! D3    D(5,1,2,13)          -174.0804         calculate D2E/DX2 analytically  !
 ! D4    D(8,1,2,3)             66.3982         calculate D2E/DX2 analytically  !
 ! D5    D(8,1,2,7)           -177.0911         calculate D2E/DX2 analytically  !
 ! D6    D(8,1,2,13)           -54.4199         calculate D2E/DX2 analytically  !
 ! D7    D(14,1,2,3)          -174.5482         calculate D2E/DX2 analytically  !
 ! D8    D(14,1,2,7)           -58.0375         calculate D2E/DX2 analytically  !
 ! D9    D(14,1,2,13)           64.6337         calculate D2E/DX2 analytically  !
 ! D10   D(2,1,5,4)             52.5363         calculate D2E/DX2 analytically  !
 ! D11   D(2,1,5,10)           -67.7539         calculate D2E/DX2 analytically  !
 ! D12   D(2,1,5,15)           173.0074         calculate D2E/DX2 analytically  !
 ! D13   D(8,1,5,4)            -66.561          calculate D2E/DX2 analytically  !
 ! D14   D(8,1,5,10)           173.1488         calculate D2E/DX2 analytically  !
 ! D15   D(8,1,5,15)            53.9101         calculate D2E/DX2 analytically  !
 ! D16   D(14,1,5,4)           171.795          calculate D2E/DX2 analytically  !
 ! D17   D(14,1,5,10)           51.5048         calculate D2E/DX2 analytically  !
 ! D18   D(14,1,5,15)          -67.7339         calculate D2E/DX2 analytically  !
 ! D19   D(2,1,14,24)         -143.8305         calculate D2E/DX2 analytically  !
 ! D20   D(5,1,14,24)           95.6795         calculate D2E/DX2 analytically  !
 ! D21   D(8,1,14,24)          -25.6791         calculate D2E/DX2 analytically  !
 ! D22   D(1,2,3,6)            171.9683         calculate D2E/DX2 analytically  !
 ! D23   D(1,2,3,11)            56.8909         calculate D2E/DX2 analytically  !
 ! D24   D(1,2,3,12)           -66.588          calculate D2E/DX2 analytically  !
 ! D25   D(7,2,3,6)             53.892          calculate D2E/DX2 analytically  !
 ! D26   D(7,2,3,11)           -61.1854         calculate D2E/DX2 analytically  !
 ! D27   D(7,2,3,12)           175.3357         calculate D2E/DX2 analytically  !
 ! D28   D(13,2,3,6)           -65.1746         calculate D2E/DX2 analytically  !
 ! D29   D(13,2,3,11)          179.748          calculate D2E/DX2 analytically  !
 ! D30   D(13,2,3,12)           56.2691         calculate D2E/DX2 analytically  !
 ! D31   D(1,2,13,20)          -97.9002         calculate D2E/DX2 analytically  !
 ! D32   D(3,2,13,20)          140.0773         calculate D2E/DX2 analytically  !
 ! D33   D(7,2,13,20)           23.7604         calculate D2E/DX2 analytically  !
 ! D34   D(2,3,11,4)           -60.6874         calculate D2E/DX2 analytically  !
 ! D35   D(2,3,11,83)           88.1844         calculate D2E/DX2 analytically  !
 ! D36   D(6,3,11,4)          -179.6169         calculate D2E/DX2 analytically  !
 ! D37   D(6,3,11,83)          -30.7451         calculate D2E/DX2 analytically  !
 ! D38   D(12,3,11,4)           60.5387         calculate D2E/DX2 analytically  !
 ! D39   D(12,3,11,83)        -150.5894         calculate D2E/DX2 analytically  !
 ! D40   D(2,3,12,79)         -173.4278         calculate D2E/DX2 analytically  !
 ! D41   D(6,3,12,79)          -51.937          calculate D2E/DX2 analytically  !
 ! D42   D(11,3,12,79)          64.2735         calculate D2E/DX2 analytically  !
 ! D43   D(9,4,5,1)             64.2572         calculate D2E/DX2 analytically  !
 ! D44   D(9,4,5,10)          -176.8735         calculate D2E/DX2 analytically  !
 ! D45   D(9,4,5,15)           -56.5877         calculate D2E/DX2 analytically  !
 ! D46   D(11,4,5,1)           -54.1858         calculate D2E/DX2 analytically  !
 ! D47   D(11,4,5,10)           64.6835         calculate D2E/DX2 analytically  !
 ! D48   D(11,4,5,15)         -175.0307         calculate D2E/DX2 analytically  !
 ! D49   D(16,4,5,1)          -173.9919         calculate D2E/DX2 analytically  !
 ! D50   D(16,4,5,10)          -55.1226         calculate D2E/DX2 analytically  !
 ! D51   D(16,4,5,15)           65.1632         calculate D2E/DX2 analytically  !
 ! D52   D(5,4,11,3)            59.0567         calculate D2E/DX2 analytically  !
 ! D53   D(5,4,11,83)          -94.1011         calculate D2E/DX2 analytically  !
 ! D54   D(9,4,11,3)           -58.8646         calculate D2E/DX2 analytically  !
 ! D55   D(9,4,11,83)          147.9776         calculate D2E/DX2 analytically  !
 ! D56   D(16,4,11,3)         -176.4654         calculate D2E/DX2 analytically  !
 ! D57   D(16,4,11,83)          30.3768         calculate D2E/DX2 analytically  !
 ! D58   D(5,4,16,17)          -61.1564         calculate D2E/DX2 analytically  !
 ! D59   D(5,4,16,18)         -171.9091         calculate D2E/DX2 analytically  !
 ! D60   D(5,4,16,19)           65.2082         calculate D2E/DX2 analytically  !
 ! D61   D(9,4,16,17)           59.8838         calculate D2E/DX2 analytically  !
 ! D62   D(9,4,16,18)          -50.8689         calculate D2E/DX2 analytically  !
 ! D63   D(9,4,16,19)         -173.7516         calculate D2E/DX2 analytically  !
 ! D64   D(11,4,16,17)         177.1878         calculate D2E/DX2 analytically  !
 ! D65   D(11,4,16,18)          66.4351         calculate D2E/DX2 analytically  !
 ! D66   D(11,4,16,19)         -56.4476         calculate D2E/DX2 analytically  !
 ! D67   D(1,5,10,37)          117.7622         calculate D2E/DX2 analytically  !
 ! D68   D(4,5,10,37)           -3.5948         calculate D2E/DX2 analytically  !
 ! D69   D(15,5,10,37)        -123.2521         calculate D2E/DX2 analytically  !
 ! D70   D(1,5,15,28)          132.0032         calculate D2E/DX2 analytically  !
 ! D71   D(4,5,15,28)         -105.9292         calculate D2E/DX2 analytically  !
 ! D72   D(10,5,15,28)          14.3061         calculate D2E/DX2 analytically  !
 ! D73   D(5,10,37,19)          36.2545         calculate D2E/DX2 analytically  !
 ! D74   D(5,10,37,34)         128.1712         calculate D2E/DX2 analytically  !
 ! D75   D(5,10,37,52)         -85.7086         calculate D2E/DX2 analytically  !
 ! D76   D(5,10,37,83)         -21.7019         calculate D2E/DX2 analytically  !
 ! D77   D(3,11,83,19)        -154.7071         calculate D2E/DX2 analytically  !
 ! D78   D(3,11,83,37)        -100.0313         calculate D2E/DX2 analytically  !
 ! D79   D(3,11,83,52)         -44.2129         calculate D2E/DX2 analytically  !
 ! D80   D(3,11,83,84)         114.9063         calculate D2E/DX2 analytically  !
 ! D81   D(4,11,83,19)          -5.674          calculate D2E/DX2 analytically  !
 ! D82   D(4,11,83,37)          49.0018         calculate D2E/DX2 analytically  !
 ! D83   D(4,11,83,52)         104.8201         calculate D2E/DX2 analytically  !
 ! D84   D(4,11,83,84)         -96.0607         calculate D2E/DX2 analytically  !
 ! D85   D(3,12,79,80)         175.1742         calculate D2E/DX2 analytically  !
 ! D86   D(3,12,79,81)         -65.2406         calculate D2E/DX2 analytically  !
 ! D87   D(3,12,79,82)          56.2284         calculate D2E/DX2 analytically  !
 ! D88   D(2,13,20,21)         -62.292          calculate D2E/DX2 analytically  !
 ! D89   D(2,13,20,22)          59.4444         calculate D2E/DX2 analytically  !
 ! D90   D(2,13,20,23)         179.1361         calculate D2E/DX2 analytically  !
 ! D91   D(1,14,24,25)         -61.5428         calculate D2E/DX2 analytically  !
 ! D92   D(1,14,24,26)          60.1963         calculate D2E/DX2 analytically  !
 ! D93   D(1,14,24,27)         178.8167         calculate D2E/DX2 analytically  !
 ! D94   D(5,15,28,29)         -67.4246         calculate D2E/DX2 analytically  !
 ! D95   D(5,15,28,30)          53.8625         calculate D2E/DX2 analytically  !
 ! D96   D(5,15,28,31)         173.6343         calculate D2E/DX2 analytically  !
 ! D97   D(4,16,18,91)        -132.5263         calculate D2E/DX2 analytically  !
 ! D98   D(17,16,18,91)        116.4841         calculate D2E/DX2 analytically  !
 ! D99   D(19,16,18,91)         -7.6385         calculate D2E/DX2 analytically  !
 ! D100  D(4,16,19,37)         -18.4116         calculate D2E/DX2 analytically  !
 ! D101  D(4,16,19,38)        -144.7689         calculate D2E/DX2 analytically  !
 ! D102  D(4,16,19,83)          51.0071         calculate D2E/DX2 analytically  !
 ! D103  D(4,16,19,91)         127.2217         calculate D2E/DX2 analytically  !
 ! D104  D(17,16,19,37)        103.3136         calculate D2E/DX2 analytically  !
 ! D105  D(17,16,19,38)        -23.0436         calculate D2E/DX2 analytically  !
 ! D106  D(17,16,19,83)        172.7323         calculate D2E/DX2 analytically  !
 ! D107  D(17,16,19,91)       -111.053          calculate D2E/DX2 analytically  !
 ! D108  D(18,16,19,37)       -137.8273         calculate D2E/DX2 analytically  !
 ! D109  D(18,16,19,38)         95.8154         calculate D2E/DX2 analytically  !
 ! D110  D(18,16,19,83)        -68.4086         calculate D2E/DX2 analytically  !
 ! D111  D(18,16,19,91)          7.806          calculate D2E/DX2 analytically  !
 ! D112  D(16,18,91,19)          5.4075         calculate D2E/DX2 analytically  !
 ! D113  D(16,18,91,89)        151.8672         calculate D2E/DX2 analytically  !
 ! D114  D(16,19,37,10)        -18.8159         calculate D2E/DX2 analytically  !
 ! D115  D(16,19,37,34)       -137.9191         calculate D2E/DX2 analytically  !
 ! D116  D(16,19,37,52)         81.5098         calculate D2E/DX2 analytically  !
 ! D117  D(38,19,37,10)        141.1204         calculate D2E/DX2 analytically  !
 ! D118  D(38,19,37,34)         22.0172         calculate D2E/DX2 analytically  !
 ! D119  D(38,19,37,52)       -118.5539         calculate D2E/DX2 analytically  !
 ! D120  D(91,19,37,10)       -149.0025         calculate D2E/DX2 analytically  !
 ! D121  D(91,19,37,34)         91.8943         calculate D2E/DX2 analytically  !
 ! D122  D(91,19,37,52)        -48.6768         calculate D2E/DX2 analytically  !
 ! D123  D(16,19,38,33)        149.9519         calculate D2E/DX2 analytically  !
 ! D124  D(37,19,38,33)         15.9173         calculate D2E/DX2 analytically  !
 ! D125  D(83,19,38,33)        -45.1805         calculate D2E/DX2 analytically  !
 ! D126  D(91,19,38,33)       -120.1175         calculate D2E/DX2 analytically  !
 ! D127  D(16,19,83,11)        -23.2487         calculate D2E/DX2 analytically  !
 ! D128  D(16,19,83,52)       -103.6759         calculate D2E/DX2 analytically  !
 ! D129  D(16,19,83,84)         83.7128         calculate D2E/DX2 analytically  !
 ! D130  D(38,19,83,11)        163.239          calculate D2E/DX2 analytically  !
 ! D131  D(38,19,83,52)         82.8117         calculate D2E/DX2 analytically  !
 ! D132  D(38,19,83,84)        -89.7996         calculate D2E/DX2 analytically  !
 ! D133  D(91,19,83,11)       -113.2056         calculate D2E/DX2 analytically  !
 ! D134  D(91,19,83,52)        166.3672         calculate D2E/DX2 analytically  !
 ! D135  D(91,19,83,84)         -6.2441         calculate D2E/DX2 analytically  !
 ! D136  D(16,19,91,18)         -4.35           calculate D2E/DX2 analytically  !
 ! D137  D(16,19,91,89)        -85.4112         calculate D2E/DX2 analytically  !
 ! D138  D(37,19,91,18)        134.1047         calculate D2E/DX2 analytically  !
 ! D139  D(37,19,91,89)         53.0434         calculate D2E/DX2 analytically  !
 ! D140  D(38,19,91,18)       -159.8766         calculate D2E/DX2 analytically  !
 ! D141  D(38,19,91,89)        119.0622         calculate D2E/DX2 analytically  !
 ! D142  D(83,19,91,18)        102.4858         calculate D2E/DX2 analytically  !
 ! D143  D(83,19,91,89)         21.4246         calculate D2E/DX2 analytically  !
 ! D144  D(36,32,33,34)        -46.4188         calculate D2E/DX2 analytically  !
 ! D145  D(36,32,33,38)         67.1976         calculate D2E/DX2 analytically  !
 ! D146  D(36,32,33,44)       -170.1156         calculate D2E/DX2 analytically  !
 ! D147  D(39,32,33,34)         73.7352         calculate D2E/DX2 analytically  !
 ! D148  D(39,32,33,38)       -172.6484         calculate D2E/DX2 analytically  !
 ! D149  D(39,32,33,44)        -49.9616         calculate D2E/DX2 analytically  !
 ! D150  D(45,32,33,34)       -165.0432         calculate D2E/DX2 analytically  !
 ! D151  D(45,32,33,38)        -51.4268         calculate D2E/DX2 analytically  !
 ! D152  D(45,32,33,44)         71.26           calculate D2E/DX2 analytically  !
 ! D153  D(33,32,36,35)         58.1392         calculate D2E/DX2 analytically  !
 ! D154  D(33,32,36,41)        -61.848          calculate D2E/DX2 analytically  !
 ! D155  D(33,32,36,46)        176.905          calculate D2E/DX2 analytically  !
 ! D156  D(39,32,36,35)        -61.4716         calculate D2E/DX2 analytically  !
 ! D157  D(39,32,36,41)        178.5412         calculate D2E/DX2 analytically  !
 ! D158  D(39,32,36,46)         57.2942         calculate D2E/DX2 analytically  !
 ! D159  D(45,32,36,35)        176.0912         calculate D2E/DX2 analytically  !
 ! D160  D(45,32,36,41)         56.104          calculate D2E/DX2 analytically  !
 ! D161  D(45,32,36,46)        -65.1429         calculate D2E/DX2 analytically  !
 ! D162  D(33,32,45,67)       -142.1083         calculate D2E/DX2 analytically  !
 ! D163  D(36,32,45,67)         99.9796         calculate D2E/DX2 analytically  !
 ! D164  D(39,32,45,67)        -21.9503         calculate D2E/DX2 analytically  !
 ! D165  D(32,33,34,37)       -164.589          calculate D2E/DX2 analytically  !
 ! D166  D(32,33,34,42)         34.555          calculate D2E/DX2 analytically  !
 ! D167  D(32,33,34,53)        -70.7798         calculate D2E/DX2 analytically  !
 ! D168  D(38,33,34,37)         78.0746         calculate D2E/DX2 analytically  !
 ! D169  D(38,33,34,42)        -82.7813         calculate D2E/DX2 analytically  !
 ! D170  D(38,33,34,53)        171.8838         calculate D2E/DX2 analytically  !
 ! D171  D(44,33,34,37)        -36.2859         calculate D2E/DX2 analytically  !
 ! D172  D(44,33,34,42)        162.8581         calculate D2E/DX2 analytically  !
 ! D173  D(44,33,34,53)         57.5233         calculate D2E/DX2 analytically  !
 ! D174  D(32,33,38,19)       -158.1252         calculate D2E/DX2 analytically  !
 ! D175  D(34,33,38,19)        -38.8174         calculate D2E/DX2 analytically  !
 ! D176  D(44,33,38,19)         74.8356         calculate D2E/DX2 analytically  !
 ! D177  D(32,33,44,63)        -71.8629         calculate D2E/DX2 analytically  !
 ! D178  D(34,33,44,63)        162.0537         calculate D2E/DX2 analytically  !
 ! D179  D(38,33,44,63)         51.2672         calculate D2E/DX2 analytically  !
 ! D180  D(33,34,37,10)       -142.6236         calculate D2E/DX2 analytically  !
 ! D181  D(33,34,37,19)        -56.7651         calculate D2E/DX2 analytically  !
 ! D182  D(33,34,37,52)         80.7759         calculate D2E/DX2 analytically  !
 ! D183  D(33,34,37,83)          2.3682         calculate D2E/DX2 analytically  !
 ! D184  D(42,34,37,10)         19.8687         calculate D2E/DX2 analytically  !
 ! D185  D(42,34,37,19)        105.7272         calculate D2E/DX2 analytically  !
 ! D186  D(42,34,37,52)       -116.7318         calculate D2E/DX2 analytically  !
 ! D187  D(42,34,37,83)        164.8605         calculate D2E/DX2 analytically  !
 ! D188  D(53,34,37,10)        120.0929         calculate D2E/DX2 analytically  !
 ! D189  D(53,34,37,19)       -154.0486         calculate D2E/DX2 analytically  !
 ! D190  D(53,34,37,52)        -16.5075         calculate D2E/DX2 analytically  !
 ! D191  D(53,34,37,83)        -94.9152         calculate D2E/DX2 analytically  !
 ! D192  D(33,34,42,35)        -30.5407         calculate D2E/DX2 analytically  !
 ! D193  D(33,34,42,60)       -147.1536         calculate D2E/DX2 analytically  !
 ! D194  D(37,34,42,35)        167.4139         calculate D2E/DX2 analytically  !
 ! D195  D(37,34,42,60)         50.8011         calculate D2E/DX2 analytically  !
 ! D196  D(53,34,42,35)         73.165          calculate D2E/DX2 analytically  !
 ! D197  D(53,34,42,60)        -43.4478         calculate D2E/DX2 analytically  !
 ! D198  D(33,34,53,51)       -119.1948         calculate D2E/DX2 analytically  !
 ! D199  D(37,34,53,51)          1.7155         calculate D2E/DX2 analytically  !
 ! D200  D(42,34,53,51)        115.8969         calculate D2E/DX2 analytically  !
 ! D201  D(40,35,36,32)         62.402          calculate D2E/DX2 analytically  !
 ! D202  D(40,35,36,41)       -178.0579         calculate D2E/DX2 analytically  !
 ! D203  D(40,35,36,46)        -57.9967         calculate D2E/DX2 analytically  !
 ! D204  D(42,35,36,32)        -53.2805         calculate D2E/DX2 analytically  !
 ! D205  D(42,35,36,41)         66.2596         calculate D2E/DX2 analytically  !
 ! D206  D(42,35,36,46)       -173.6792         calculate D2E/DX2 analytically  !
 ! D207  D(47,35,36,32)       -173.9347         calculate D2E/DX2 analytically  !
 ! D208  D(47,35,36,41)        -54.3947         calculate D2E/DX2 analytically  !
 ! D209  D(47,35,36,46)         65.6666         calculate D2E/DX2 analytically  !
 ! D210  D(36,35,42,34)         38.7113         calculate D2E/DX2 analytically  !
 ! D211  D(36,35,42,60)        151.128          calculate D2E/DX2 analytically  !
 ! D212  D(40,35,42,34)        -79.6708         calculate D2E/DX2 analytically  !
 ! D213  D(40,35,42,60)         32.7459         calculate D2E/DX2 analytically  !
 ! D214  D(47,35,42,34)        164.4679         calculate D2E/DX2 analytically  !
 ! D215  D(47,35,42,60)        -83.1154         calculate D2E/DX2 analytically  !
 ! D216  D(36,35,47,48)        -68.1346         calculate D2E/DX2 analytically  !
 ! D217  D(36,35,47,49)        174.7081         calculate D2E/DX2 analytically  !
 ! D218  D(36,35,47,50)         53.2276         calculate D2E/DX2 analytically  !
 ! D219  D(40,35,47,48)         55.6334         calculate D2E/DX2 analytically  !
 ! D220  D(40,35,47,49)        -61.524          calculate D2E/DX2 analytically  !
 ! D221  D(40,35,47,50)        176.9955         calculate D2E/DX2 analytically  !
 ! D222  D(42,35,47,48)        168.6152         calculate D2E/DX2 analytically  !
 ! D223  D(42,35,47,49)         51.4579         calculate D2E/DX2 analytically  !
 ! D224  D(42,35,47,50)        -70.0226         calculate D2E/DX2 analytically  !
 ! D225  D(32,36,46,71)        124.8374         calculate D2E/DX2 analytically  !
 ! D226  D(35,36,46,71)       -114.0488         calculate D2E/DX2 analytically  !
 ! D227  D(41,36,46,71)          4.9983         calculate D2E/DX2 analytically  !
 ! D228  D(10,37,52,51)       -113.4294         calculate D2E/DX2 analytically  !
 ! D229  D(19,37,52,51)        155.9798         calculate D2E/DX2 analytically  !
 ! D230  D(34,37,52,51)         28.8521         calculate D2E/DX2 analytically  !
 ! D231  D(10,37,83,11)         -2.6924         calculate D2E/DX2 analytically  !
 ! D232  D(10,37,83,84)        107.0802         calculate D2E/DX2 analytically  !
 ! D233  D(34,37,83,11)       -150.863          calculate D2E/DX2 analytically  !
 ! D234  D(34,37,83,84)        -41.0905         calculate D2E/DX2 analytically  !
 ! D235  D(34,42,60,56)          5.9721         calculate D2E/DX2 analytically  !
 ! D236  D(35,42,60,56)       -119.3232         calculate D2E/DX2 analytically  !
 ! D237  D(33,44,63,64)        -39.5823         calculate D2E/DX2 analytically  !
 ! D238  D(33,44,63,65)         82.1344         calculate D2E/DX2 analytically  !
 ! D239  D(33,44,63,66)       -158.2814         calculate D2E/DX2 analytically  !
 ! D240  D(32,45,67,68)        -58.5917         calculate D2E/DX2 analytically  !
 ! D241  D(32,45,67,69)         63.4428         calculate D2E/DX2 analytically  !
 ! D242  D(32,45,67,70)       -178.0715         calculate D2E/DX2 analytically  !
 ! D243  D(36,46,71,72)        -64.7737         calculate D2E/DX2 analytically  !
 ! D244  D(36,46,71,73)         56.9088         calculate D2E/DX2 analytically  !
 ! D245  D(36,46,71,74)        176.2584         calculate D2E/DX2 analytically  !
 ! D246  D(35,47,50,75)        176.8056         calculate D2E/DX2 analytically  !
 ! D247  D(48,47,50,75)        -63.9107         calculate D2E/DX2 analytically  !
 ! D248  D(49,47,50,75)         56.5224         calculate D2E/DX2 analytically  !
 ! D249  D(47,50,75,76)       -179.7759         calculate D2E/DX2 analytically  !
 ! D250  D(47,50,75,77)        -60.5878         calculate D2E/DX2 analytically  !
 ! D251  D(47,50,75,78)         60.8736         calculate D2E/DX2 analytically  !
 ! D252  D(43,51,52,37)       -151.1006         calculate D2E/DX2 analytically  !
 ! D253  D(43,51,52,83)        -99.8226         calculate D2E/DX2 analytically  !
 ! D254  D(53,51,52,37)        -19.9731         calculate D2E/DX2 analytically  !
 ! D255  D(53,51,52,83)         31.305          calculate D2E/DX2 analytically  !
 ! D256  D(54,51,52,37)         91.6786         calculate D2E/DX2 analytically  !
 ! D257  D(54,51,52,83)        142.9566         calculate D2E/DX2 analytically  !
 ! D258  D(43,51,53,34)        150.0197         calculate D2E/DX2 analytically  !
 ! D259  D(52,51,53,34)         17.8691         calculate D2E/DX2 analytically  !
 ! D260  D(54,51,53,34)        -94.6469         calculate D2E/DX2 analytically  !
 ! D261  D(43,51,54,55)        -29.5061         calculate D2E/DX2 analytically  !
 ! D262  D(43,51,54,56)        151.6592         calculate D2E/DX2 analytically  !
 ! D263  D(52,51,54,55)         93.1313         calculate D2E/DX2 analytically  !
 ! D264  D(52,51,54,56)        -85.7033         calculate D2E/DX2 analytically  !
 ! D265  D(53,51,54,55)       -149.0932         calculate D2E/DX2 analytically  !
 ! D266  D(53,51,54,56)         32.0722         calculate D2E/DX2 analytically  !
 ! D267  D(51,52,83,11)       -144.5211         calculate D2E/DX2 analytically  !
 ! D268  D(51,52,83,19)        -73.1596         calculate D2E/DX2 analytically  !
 ! D269  D(51,52,83,84)         89.1493         calculate D2E/DX2 analytically  !
 ! D270  D(51,54,55,57)       -178.3804         calculate D2E/DX2 analytically  !
 ! D271  D(51,54,55,58)          2.5149         calculate D2E/DX2 analytically  !
 ! D272  D(56,54,55,57)          0.4301         calculate D2E/DX2 analytically  !
 ! D273  D(56,54,55,58)       -178.6746         calculate D2E/DX2 analytically  !
 ! D274  D(51,54,56,59)        179.3702         calculate D2E/DX2 analytically  !
 ! D275  D(51,54,56,60)         -1.1308         calculate D2E/DX2 analytically  !
 ! D276  D(55,54,56,59)          0.559          calculate D2E/DX2 analytically  !
 ! D277  D(55,54,56,60)       -179.942          calculate D2E/DX2 analytically  !
 ! D278  D(54,55,57,61)         -0.9949         calculate D2E/DX2 analytically  !
 ! D279  D(54,55,57,93)        176.0788         calculate D2E/DX2 analytically  !
 ! D280  D(58,55,57,61)        178.1004         calculate D2E/DX2 analytically  !
 ! D281  D(58,55,57,93)         -4.826          calculate D2E/DX2 analytically  !
 ! D282  D(54,56,59,61)         -1.0045         calculate D2E/DX2 analytically  !
 ! D283  D(54,56,59,97)        174.09           calculate D2E/DX2 analytically  !
 ! D284  D(60,56,59,61)        179.4955         calculate D2E/DX2 analytically  !
 ! D285  D(60,56,59,97)         -5.4099         calculate D2E/DX2 analytically  !
 ! D286  D(54,56,60,42)         12.0127         calculate D2E/DX2 analytically  !
 ! D287  D(59,56,60,42)       -168.4952         calculate D2E/DX2 analytically  !
 ! D288  D(55,57,61,59)          0.5612         calculate D2E/DX2 analytically  !
 ! D289  D(55,57,61,62)       -179.0815         calculate D2E/DX2 analytically  !
 ! D290  D(93,57,61,59)       -176.5123         calculate D2E/DX2 analytically  !
 ! D291  D(93,57,61,62)          3.845          calculate D2E/DX2 analytically  !
 ! D292  D(55,57,93,94)        -88.2643         calculate D2E/DX2 analytically  !
 ! D293  D(55,57,93,95)        152.3286         calculate D2E/DX2 analytically  !
 ! D294  D(55,57,93,96)         31.2175         calculate D2E/DX2 analytically  !
 ! D295  D(61,57,93,94)         88.8416         calculate D2E/DX2 analytically  !
 ! D296  D(61,57,93,95)        -30.5655         calculate D2E/DX2 analytically  !
 ! D297  D(61,57,93,96)       -151.6765         calculate D2E/DX2 analytically  !
 ! D298  D(56,59,61,57)          0.4532         calculate D2E/DX2 analytically  !
 ! D299  D(56,59,61,62)       -179.9045         calculate D2E/DX2 analytically  !
 ! D300  D(97,59,61,57)       -174.6138         calculate D2E/DX2 analytically  !
 ! D301  D(97,59,61,62)          5.0285         calculate D2E/DX2 analytically  !
 ! D302  D(56,59,97,98)         33.165          calculate D2E/DX2 analytically  !
 ! D303  D(56,59,97,99)        -86.0784         calculate D2E/DX2 analytically  !
 ! D304  D(56,59,97,100)       154.3658         calculate D2E/DX2 analytically  !
 ! D305  D(61,59,97,98)       -151.6964         calculate D2E/DX2 analytically  !
 ! D306  D(61,59,97,99)         89.0602         calculate D2E/DX2 analytically  !
 ! D307  D(61,59,97,100)       -30.4956         calculate D2E/DX2 analytically  !
 ! D308  D(11,83,84,85)        -98.3117         calculate D2E/DX2 analytically  !
 ! D309  D(11,83,84,89)         79.511          calculate D2E/DX2 analytically  !
 ! D310  D(19,83,84,85)       -172.7254         calculate D2E/DX2 analytically  !
 ! D311  D(19,83,84,89)          5.0973         calculate D2E/DX2 analytically  !
 ! D312  D(37,83,84,85)        159.9028         calculate D2E/DX2 analytically  !
 ! D313  D(37,83,84,89)        -22.2745         calculate D2E/DX2 analytically  !
 ! D314  D(52,83,84,85)         24.0947         calculate D2E/DX2 analytically  !
 ! D315  D(52,83,84,89)       -158.0826         calculate D2E/DX2 analytically  !
 ! D316  D(83,84,85,86)       -121.511          calculate D2E/DX2 analytically  !
 ! D317  D(83,84,85,87)         -2.1199         calculate D2E/DX2 analytically  !
 ! D318  D(83,84,85,88)        117.3269         calculate D2E/DX2 analytically  !
 ! D319  D(89,84,85,86)         60.6781         calculate D2E/DX2 analytically  !
 ! D320  D(89,84,85,87)       -179.9307         calculate D2E/DX2 analytically  !
 ! D321  D(89,84,85,88)        -60.4839         calculate D2E/DX2 analytically  !
 ! D322  D(83,84,89,90)       -116.7123         calculate D2E/DX2 analytically  !
 ! D323  D(83,84,89,91)          3.0423         calculate D2E/DX2 analytically  !
 ! D324  D(83,84,89,92)        122.5825         calculate D2E/DX2 analytically  !
 ! D325  D(85,84,89,90)         61.6495         calculate D2E/DX2 analytically  !
 ! D326  D(85,84,89,91)       -178.5959         calculate D2E/DX2 analytically  !
 ! D327  D(85,84,89,92)        -59.0557         calculate D2E/DX2 analytically  !
 ! D328  D(84,89,91,18)        -83.3744         calculate D2E/DX2 analytically  !
 ! D329  D(84,89,91,19)        -19.7394         calculate D2E/DX2 analytically  !
 ! D330  D(90,89,91,18)         36.4313         calculate D2E/DX2 analytically  !
 ! D331  D(90,89,91,19)        100.0662         calculate D2E/DX2 analytically  !
 ! D332  D(92,89,91,18)        156.9997         calculate D2E/DX2 analytically  !
 ! D333  D(92,89,91,19)       -139.3653         calculate D2E/DX2 analytically  !
 --------------------------------------------------------------------------------
 Trust Radius=5.00D-02 FncErr=1.00D-07 GrdErr=1.00D-06 EigMax=2.50D+02 EigMin=1.00D-04
 Number of steps in this run=    600 maximum allowed number of steps=    600.
 Search for a saddle point of order  1.
 GradGradGradGradGradGradGradGradGradGradGradGradGradGradGradGradGradGrad

 Leave Link  103 at Wed Jun  5 11:39:24 2019, MaxMem=  6442450944 cpu:               5.3 elap:               0.2
 (Enter /home/ekwan/sw/g16/l202.exe)
 Stoichiometry    C30H47F6NaO15S
 Framework group  C1[X(C30H47F6NaO15S)]
 Deg. of freedom   294
 Full point group                 C1      NOp   1
 Largest Abelian subgroup         C1      NOp   1
 Largest concise Abelian subgroup C1      NOp   1
                         Standard orientation:                         
 ---------------------------------------------------------------------
 Center     Atomic      Atomic             Coordinates (Angstroms)
 Number     Number       Type             X           Y           Z
 ---------------------------------------------------------------------
      1          6           0       -1.733663    1.556398    2.235534
      2          6           0       -2.002296    2.385513    0.970801
      3          6           0       -1.077686    3.611889    0.925776
      4          6           0        0.633365    2.481123    2.210388
      5          6           0       -0.239466    1.218047    2.330364
      6          1           0       -1.165949    4.132455   -0.049872
      7          1           0       -1.754197    1.774306    0.081182
      8          1           0       -2.033661    2.154587    3.119419
      9          1           0        0.415294    3.130233    3.082076
     10          1           0       -0.005384    0.521576    1.504385
     11          8           0        0.294154    3.204882    0.990231
     12          8           0       -1.429759    4.476013    1.981201
     13          8           0       -3.355842    2.839154    0.910112
     14          8           0       -2.529955    0.366121    2.157161
     15          8           0        0.029494    0.586471    3.592722
     16          6           0        2.148918    2.204882    2.150440
[...]
 000887,0.00010742,0.00000272,-0.00003980,-0.00015506,0.00008114,0.0000
 0733,0.00010255,-0.00046871,-0.00012265,0.00000583,0.00019823,-0.00002
 658,0.00342071,0.00085967,-0.00123957,-0.00092746,-0.00088824,-0.00001
 625,-0.00154450,0.00032519,-0.00013621,-0.00021385,0.00087423,0.002022
 42,0.00024159,-0.00072244,0.00039866,0.00324780,0.00006142,0.00009143,
 0.00022235,0.00056521,0.00262310,0.00007265,-0.00019790,-0.00016763,0.
 00940718,-0.04317117,-0.00038497,0.00022246,-0.00068436,-0.00079912,-0
 .00383718,-0.00156746,-0.00018622,0.00030168,-0.00073124,-0.00084947,0
 .00011485,0.00005275,-0.00005643,-0.00002040,-0.00000651,-0.00000703,-
 0.00002930,0.00000166,0.00002033,-0.00000641,-0.00001335,0.00000801,0.
 00002523,-0.00005893,-0.00007292,-0.00000382,0.00001955,0.00000450,0.0
 0000123,-0.00000045,0.00001005,-0.00000944,0.00000596,0.00001093,0.000
 03981,-0.00003456,0.00005032,-0.00000013,0.00000843,-0.00000873,0.0000
 0052,-0.00001156,-0.00001497,-0.00002418,0.00001710,0.00000144,0.00003
 109,-0.00010588,0.00007119,0.00001370,0.00001355,-0.00000111,-0.000002
 49,-0.00004834,0.00000074,-0.00004620,0.00005011,0.00000123,0.00007283
 ,0.00014343,-0.00002037,-0.00000201,-0.00003034,-0.00001343,-0.0000251
 7,-0.00000927,0.00000453,-0.00000974,-0.00001973,0.00002172,0.00020656
 ,0.00018959,-0.00002130,-0.00004074,-0.00004588,0.00001474,0.00001870,
 0.00003980,-0.00002627,-0.00001224,-0.00000345,0.00000728,0.00000223,0
 .00000084,-0.00000121,-0.00000198,-0.00000946,-0.00000178,0.00001761,-
 0.00000807,0.00000814,-0.00000231,-0.00000944,-0.00000061,0.00005059,0
 .00003318,-0.00000775,-0.00001466,-0.00000564,0.00001201,-0.00293169,0
 .00035382,-0.00091468,0.00080490,-0.00050287,0.00005312,0.00090243,0.0
 0030775,0.00017247,0.00072181,-0.00027599,0.00093344,0.02614177,-0.219
 24545,-0.03020838,-0.02330400,-0.03131750,-0.03514685,-0.04148914,0.30
 731589,0.00025809,0.00032154,-0.00002320,-0.00010615,0.00000550,-0.000
 15437,0.00000143,0.00000041,0.00001090,-0.00001599,0.00009659,-0.00006
 092,-0.00003055,0.00009463,-0.00016616,-0.00000776,-0.00003036,0.00001
 176,0.00001092,-0.00001981,-0.00000328,-0.00003229,-0.00005311,-0.0000
 0401,-0.00001069,-0.00000394,0.00000912,-0.00001509,0.00000958,-0.0000
 1396,0.00001633,-0.00005155,0.00008880,0.00000287,-0.00001178,0.000026
 45,0.00014387,0.00007841,0.00017345,-0.00003326,-0.00064605,0.00010187
 ,0.00001267,-0.00031447,0.00009804,0.00007043,-0.00003600,-0.00012060,
 0.00001365,0.00000343,0.00004253,-0.00002190,0.00001106,0.00003395,-0.
 00004415,0.00004983,0.00014259,-0.00005820,-0.00010712,-0.00016675,-0.
 00002541,-0.00004382,0.00009171,-0.00000026,0.00000544,-0.00009323,-0.
 00000745,0.00002040,0.00001722,0.00026928,0.00043260,-0.00001599,-0.00
 000011,-0.00000130,0.00007969,-0.00004335,-0.00019198,0.00000023,-0.00
 031016,0.00018945,0.00032090,0.00006648,0.00050164,0.00024231,0.000135
 25,-0.00014848,-0.00006702,-0.00008589,-0.00008502,-0.00006702,-0.0000
 4096,-0.00004951,-0.00004687,-0.00003953,0.00001075,-0.00002838,0.0000
 1668,0.00001265,0.00000787,-0.00023819,-0.00004796,-0.00041896,-0.0000
 8201,0.00003581,-0.00014334,0.00001224,-0.00001694,0.00001793,-0.00000
 298,-0.00000609,-0.00002322,0.00001056,-0.00000853,-0.00001592,-0.0000
 0705,0.00000600,0.00001478,-0.00002042,0.00000510,0.00003315,0.0000175
 1,0.00000466,-0.00000050,0.00008341,-0.00009526,0.00017814,0.00028945,
 0.00015794,-0.00021279,0.00003400,0.00000008,0.00002067,0.00001151,-0.
 00000361,0.00002534,0.00001498,-0.00001417,0.00002764,0.00031001,0.000
 01691,-0.00009201,-0.00007588,0.00002709,0.00002743,0.00011702,-0.0001
 2100,-0.00001787,-0.00011109,0.00001594,0.00005716,-0.00116432,-0.0004
 4488,0.00024962,0.00030144,0.00036053,0.00009424,0.00060784,-0.0000280
 5,0.00017747,-0.00009990,-0.00071856,-0.00049339,-0.00008312,0.0003846
 1,-0.00037624,-0.00108807,0.00033813,0.00012872,0.00031867,-0.00058543
 ,-0.00068761,-0.00002357,0.00003888,0.00008221,-0.00287149,0.01774642,
 0.00806224,0.00003967,0.00034641,-0.00004532,0.00111485,0.00062094,0.0
 0041640,-0.00023632,0.00026413,0.00001247,-0.00001931,-0.00001603,0.00
 000797,0.00000782,0.00000227,0.00000351,0.00000213,0.00000135,-0.00000
 174,-0.00000038,0.00000032,-0.00000236,-0.00000466,-0.00000427,-0.0000
 1090,-0.00000163,0.00000222,-0.00000297,0.00000038,-0.00000402,0.00000
 553,0.00000386,0.00000136,0.00000061,-0.00001019,0.00000779,-0.0000275
 5,0.00000268,0.00000150,0.00000326,0.00000706,-0.00000732,0.00000795,-
 0.00000254,0.00000157,0.00000231,0.00011695,-0.00002372,-0.00003303,-0
 .00001272,-0.00000154,0.00000277,-0.00003655,-0.00000833,0.00002743,-0
 .00001989,0.00001643,0.00000754,0.00000384,0.00001651,-0.00000392,-0.0
 0000058,0.00000115,-0.00000019,-0.00000006,-0.00000009,-0.00000115,0.0
 0000011,-0.00000533,0.00000573,-0.00004549,-0.00005593,-0.00005679,0.0
 0000788,0.00000583,0.00001194,-0.00000266,-0.00000350,-0.00000336,-0.0
 0000061,-0.00000031,-0.00000019,0.00000173,-0.00000211,0.00000087,0.00
 000070,0.00000249,0.00000216,-0.00000739,0.00000236,-0.00001044,0.0000
 0223,0.00000514,0.00000191,-0.00000482,-0.00000594,-0.00000046,0.00000
 108,-0.00000011,0.00000118,0.00097331,-0.00032028,0.00022813,-0.000281
 33,0.00022159,0.00000987,-0.00028635,-0.00004114,-0.00002980,-0.000224
 48,0.00011450,-0.00019908,0.00497522,-0.02833651,-0.07186850,-0.015954
 91,-0.04355143,-0.01700304,-0.01484160,0.08759830,0.09508057,-0.000164
 15,-0.00008904,-0.00000527,-0.00002939,0.00008682,0.00005615,-0.000135
 26,0.00012778,0.00001505,0.00005986,0.00005782,-0.00005778,-0.00009343
 ,0.00029249,-0.00000515,0.00001537,0.00000007,0.00000153,-0.00001595,0
 .00001912,-0.00001467,0.00001608,-0.00003605,-0.00003127,-0.00000309,-
 0.00003960,-0.00001639,0.00002257,-0.00002557,-0.00005476,0.00007663,-
 0.00012709,0.00002859,0.00003466,-0.00009572,-0.00005239,0.00011586,-0
 .00006531,-0.00006864,0.00065055,0.00001789,-0.00039919,0.00025734,-0.
 00052723,-0.00005937,-0.00007158,0.00008102,0.00016602,0.00002713,0.00
 000985,-0.00002813,-0.00000734,-0.00008287,-0.00003935,-0.00003439,-0.
 00019779,-0.00013956,-0.00004756,-0.00005094,0.00009593,0.00003661,0.0
 0006411,-0.00008658,-0.00003321,0.00000524,0.00008836,0.00003159,-0.00
 003372,-0.00000017,-0.00083680,-0.00081381,0.00056470,0.00014386,0.000
 24930,0.00013523,0.00011733,0.00012725,0.00000547,-0.00005193,-0.00096
 148,-0.00106220,0.00006955,0.00092265,0.00040666,0.00008804,-0.0001841
 1,-0.00000098,-0.00007058,-0.00011087,-0.00009061,-0.00009000,-0.00009
 900,-0.00011119,0.00008097,0.00002539,-0.00007444,-0.00002599,0.000053
 05,-0.00002556,0.00034450,0.00060555,-0.00004648,0.00009202,0.00002026
 ,-0.00013343,0.00015388,-0.00011288,0.00001496,-0.00000233,0.00002354,
 0.00000228,0.00000910,0.00000517,0.00002993,0.00000446,-0.00000402,-0.
 00000132,0.00003755,-0.00001904,-0.00005229,-0.00001540,0.00000484,-0.
 00000438,-0.00031184,-0.00039819,0.00025379,-0.00027075,-0.00020405,0.
 00052034,-0.00012285,-0.00010023,0.00007166,-0.00016439,-0.00000440,0.
 00010181,-0.00015610,0.00008893,0.00000092,0.00092371,0.00016859,0.000
 09825,-0.00018997,0.00003265,0.00004531,0.00006680,-0.00037775,0.00012
 449,-0.00042089,0.00002537,-0.00037838,0.00123256,0.00063201,-0.000445
 35,-0.00031772,-0.00051970,-0.00010025,-0.00047663,-0.00009369,0.00005
 118,-0.00068649,-0.00043903,-0.00024068,0.00028936,0.00008506,0.000058
 32,0.00188490,-0.00096356,0.00238180,0.00112743,-0.00081633,0.00065766
 ,0.00016388,0.00010428,0.00001418,-0.01047737,-0.00182829,0.01408228,0
 .00053359,0.00057989,-0.00045593,-0.00317312,0.00018702,-0.00294413,0.
 00213153,0.00068053,0.00041599,0.00009883,0.00005315,-0.00003005,-0.00
 001417,-0.00000080,-0.00000766,-0.00002001,0.00000185,0.00000921,-0.00
 000802,-0.00001627,0.00001062,0.00003209,-0.00004577,-0.00007644,0.000
 00855,0.00000724,0.00000141,0.00000386,0.00000489,0.00001456,-0.000017
 81,0.00000213,0.00001070,0.00010549,-0.00004527,0.00006011,-0.00002775
 ,-0.00000726,-0.00000709,0.00001573,-0.00001184,-0.00000529,-0.0000109
 9,0.00001654,0.00000100,0.00008867,-0.00019742,0.00020366,-0.00003526,
 0.00000186,-0.00003900,-0.00000989,0.00001256,0.00003261,-0.00001197,0
 .00005786,-0.00000101,0.00000692,0.00003774,-0.00000453,0.00000068,-0.
 00001058,-0.00000559,-0.00000036,0.00000094,0.00000354,-0.00000286,-0.
 00000382,0.00000551,0.00005932,0.00015030,-0.00001301,-0.00001074,-0.0
 0004254,0.00001108,0.00000693,0.00003385,-0.00001748,-0.00000434,-0.00
 000332,0.00000384,0.00000148,0.00000017,0.00000311,-0.00000296,-0.0000
 0943,-0.00000266,-0.00000142,0.00000157,0.00000054,-0.00000133,-0.0000
 1093,0.00000009,0.00003810,0.00002913,-0.00000481,-0.00000428,-0.00000
 341,0.00000611,-0.00114771,-0.00004769,0.00006925,0.00036258,-0.000216
 39,-0.00006182,0.00038559,0.00017615,-0.00004663,0.00024132,-0.0000579
 9,0.00012678,-0.16363810,-0.01546363,0.08326111,-0.07203526,-0.0133643
 4,0.00252416,-0.02033978,0.02882978,0.02838360,0.26354615,0.00018693,0
 .00029231,0.00006686,-0.00007519,0.00002522,0.00002400,0.00005932,0.00
 014184,0.00005704,-0.00000897,0.00007263,0.00000100,0.00003392,-0.0000
 1670,0.00008994,-0.00001200,-0.00002843,0.00000295,0.00000261,0.000021
 27,-0.00000561,-0.00001631,-0.00002666,-0.00002073,0.00000089,-0.00001
 818,-0.00001282,0.00002087,-0.00001146,-0.00000923,-0.00003760,-0.0000
 6566,-0.00002726,-0.00002612,-0.00013157,-0.00003866,-0.00002661,-0.00
 013187,-0.00006902,-0.00009783,-0.00027765,-0.00012949,-0.00013258,0.0
 0002304,-0.00006364,0.00000459,-0.00000706,0.00007839,0.00000319,0.000
 00843,-0.00002595,-0.00002390,-0.00003947,-0.00001666,-0.00006566,-0.0
 0005801,-0.00006368,0.00001083,0.00013690,0.00004454,0.00001453,0.0000
 3798,-0.00003842,-0.00003467,-0.00001633,0.00003749,0.00003102,-0.0000
 3730,-0.00000755,0.00091344,0.00031520,-0.00059243,-0.00014188,-0.0002
 0791,-0.00008300,-0.00024206,-0.00040076,-0.00012546,-0.00117061,-0.00
 215959,-0.00057103,0.00009032,-0.00004588,0.00003482,-0.00000848,0.000
 00341,0.00000668,-0.00001238,0.00000403,0.00000596,-0.00002015,0.00000
 134,-0.00003317,0.00005397,-0.00003085,-0.00001576,-0.00000633,0.00000
 012,-0.00003228,0.00026208,0.00012334,0.00030100,0.00007737,-0.0002054
 7,-0.00001336,0.00004069,-0.00002443,0.00000862,0.00002283,0.00001223,
 0.00000295,-0.00000720,-0.00000287,0.00001643,0.00000559,-0.00000673,-
 0.00000567,0.00000119,-0.00001246,0.00001013,-0.00000133,0.00000139,0.
 00000080,-0.00018345,0.00010600,-0.00007245,-0.00036082,-0.00012586,0.
 00050750,-0.00008279,-0.00001489,0.00002179,-0.00006002,0.00002722,0.0
 0002785,-0.00005142,0.00007245,-0.00000395,0.00005563,0.00001652,0.000
 01601,-0.00004800,0.00002329,-0.00000128,0.00000383,-0.00014768,-0.000
 01880,-0.00001324,0.00006321,-0.00006518,0.00174343,0.00024348,-0.0005
 4306,-0.00051220,-0.00047545,-0.00007006,-0.00069950,0.00012783,-0.000
 08569,-0.00048636,-0.00142908,0.00027202,-0.00046528,-0.00027304,0.000
 39054,0.00186211,-0.00003646,0.00275221,-0.00008019,-0.00007433,-0.000
 10306,0.00000434,0.00004202,0.00002479,-0.01795444,0.00403249,0.016471
 64,0.00010199,0.00042236,-0.00002442,-0.00040703,-0.00058312,0.0007954
 0,-0.00002441,-0.00036063,0.00078582,0.00005386,0.00002727,-0.00002526
 ,-0.00001018,-0.00000305,-0.00000380,-0.00001287,0.00000055,0.00000860
 ,-0.00000278,-0.00000644,0.00000407,0.00001267,-0.00002395,-0.00003050
 ,-0.00000026,0.00000710,0.00000242,0.00000071,0.00000109,0.00000372,-0
 .00000574,0.00000198,0.00000473,0.00002541,-0.00001770,0.00002908,-0.0
 0000304,0.00000184,-0.00000439,-0.00000022,-0.00000318,-0.00000747,-0.
 00000861,0.00000705,-0.00000002,-0.00001694,-0.00004981,0.00005646,0.0
 0000525,0.00000466,-0.00000476,0.00000910,-0.00001121,-0.00000512,-0.0
 0000949,0.00001777,-0.00000183,0.00003320,0.00006444,-0.00000782,-0.00
 000096,-0.00001406,-0.00000638,-0.00001148,-0.00000450,0.00000230,-0.0
 0000497,-0.00000906,0.00000942,0.00009670,0.00009424,-0.00000357,-0.00
 001813,-0.00002176,0.00000472,0.00000807,0.00001856,-0.00001117,-0.000
 00501,-0.00000154,0.00000321,0.00000076,0.00000073,-0.00000041,-0.0000
 0103,-0.00000473,-0.00000119,0.00000829,-0.00000340,0.00000516,-0.0000
 0125,-0.00000509,-0.00000062,0.00002282,0.00001540,-0.00000316,-0.0000
 0626,-0.00000235,0.00000498,-0.00113580,0.00014683,-0.00048191,0.00033
 470,-0.00019396,0.00003267,0.00037370,0.00011290,0.00007257,0.00023186
 ,-0.00008116,0.00029644,-0.01327502,-0.06969806,0.01458809,-0.01269997
 ,0.00887997,0.00127923,0.03982361,-0.01047961,-0.03394342,0.00417883,0
 .07231849,0.00031367,0.00039429,0.00009230,-0.00012935,-0.00005917,-0.
 00022404,0.00009123,-0.00010413,0.00000379,-0.00006694,0.00006973,-0.0
 0003322,0.00003451,-0.00010648,-0.00020193,-0.00001950,-0.00003516,0.0
 0001257,0.00002924,-0.00003906,0.00000799,-0.00002634,0.00001185,0.000
 02913,-0.00000918,0.00002437,0.00002410,-0.00003017,0.00003724,0.00002
 745,-0.00002459,0.00003617,0.00009014,-0.00001546,0.00006513,0.0000692
 8,0.00010486,0.00014849,0.00024168,-0.00055925,-0.00058150,0.00052257,
 -0.00016722,-0.00000493,0.00016629,0.00012595,-0.00009597,-0.00025372,
 -0.00000308,-0.00000399,0.00006954,-0.00001779,0.00007212,0.00006556,-
 0.00001150,0.00019032,0.00026320,-0.00005092,-0.00012222,-0.00022063,-
 0.00004264,-0.00009543,0.00013906,0.00000767,0.00000944,-0.00016172,-0
 .00002664,0.00004527,0.00002002,0.00175629,0.00098057,-0.00084069,-0.0
 0015245,-0.00023564,-0.00000473,-0.00032210,-0.00054454,-0.00003738,-0
 .00123801,-0.00050662,0.00023915,0.00005123,-0.00011241,-0.00005197,0.
 00001544,0.00001113,-0.00000696,-0.00003852,-0.00000105,-0.00000071,0.
 00002040,0.00001604,0.00002984,-0.00010442,0.00001777,0.00001677,0.000
 03886,-0.00000657,0.00004049,-0.00055841,-0.00041132,-0.00060812,-0.00
 015672,0.00016532,-0.00006040,-0.00008015,0.00004497,0.00000276,-0.000
 01252,-0.00002530,-0.00003329,0.00001219,-0.00001211,-0.00004163,-0.00
 001210,0.00001289,0.00001831,-0.00002995,0.00002125,0.00004232,0.00002
 262,0.00000120,0.00000105,0.00034758,0.00001704,0.00011839,0.00073378,
 0.00036020,-0.00093784,0.00013859,0.00005364,-0.00002216,0.00011808,-0
 .00001748,-0.00003752,0.00011060,-0.00009209,0.00002607,-0.00012683,-0
 .00001840,-0.00013613,0.00001957,-0.00000015,0.00001388,0.00008202,-0.
 00001097,-0.00003515,0.00007444,-0.00002159,0.00023026,-0.00310229,-0.
 00085889,0.00057883,0.00081671,0.00100229,0.00028139,0.00132947,-0.000
 11442,0.00024525,0.00206631,0.00137978,-0.00036773,0.00019210,0.000334
 54,-0.00048823,-0.00415892,0.00247562,-0.00534717,0.00007499,0.0004132
 0,-0.00013705,-0.00003797,-0.00004929,-0.00003843,0.03447336,0.0071784
 2,-0.01909297,-0.00015000,-0.00032615,0.00003636,0.00174444,0.00029072
 ,-0.00045732,-0.00020409,0.00039351,-0.00184350,-0.00009428,-0.0000560
 7,0.00003709,0.00002064,0.00000443,0.00000866,0.00001902,0.00000036,-0
 .00001083,0.00000465,0.00001131,-0.00000974,-0.00002573,0.00002996,0.0
 0004196,-0.00000477,-0.00000536,-0.00000458,-0.00000181,-0.00000609,-0
 .00000375,0.00001460,-0.00000104,-0.00000699,-0.00006828,0.00003476,-0
 .00006610,0.00001635,0.00000396,0.00000800,0.00000004,-0.00000057,0.00
 001310,0.00000686,-0.00000952,0.00000245,0.00006694,0.00007813,-0.0001
 3045,0.00000556,-0.00000282,0.00002056,-0.00003345,-0.00001026,0.00000
 404,-0.00001179,-0.00001552,0.00000820,-0.00000542,-0.00001452,-0.0000
 0042,-0.00000131,0.00000961,0.00000382,0.00000219,-0.00000037,-0.00000
 390,0.00000243,-0.00000245,0.00000173,-0.00012267,-0.00018344,-0.00006
 403,0.00002072,0.00003699,0.00000522,-0.00000946,-0.00002850,0.0000099
 9,0.00000356,0.00000211,-0.00000334,0.00000073,-0.00000270,-0.00000056
 ,0.00000286,0.00000946,0.00000403,-0.00001017,0.00000330,-0.00001328,0
 .00000380,0.00001335,0.00000215,-0.00003413,-0.00002799,0.00000327,0.0
 0000575,0.00000263,-0.00000365,0.00199120,-0.00045131,0.00057719,-0.00
 064156,0.00047217,0.00003477,-0.00064018,-0.00013742,-0.00008457,-0.00
 041697,0.00017196,-0.00046775,0.07429700,0.01597786,-0.13690862,-0.008
 89877,-0.00068862,0.02097949,0.02895773,-0.02514783,-0.01372182,-0.127
 68207,-0.00173142,0.15769520\\-0.00000052,0.00000041,-0.00000069,0.000
 00013,0.00000028,-0.00000078,-0.00000110,-0.00000039,-0.00000146,-0.00
 000074,0.00000008,0.00000032,0.,0.00000002,-0.00000086,-0.00000026,-0.
 00000038,-0.00000117,-0.00000011,-0.00000048,-0.00000116,-0.00000087,0
 .00000039,-0.00000103,-0.00000080,0.00000041,-0.00000074,-0.00000101,0
 .00000042,-0.00000038,-0.00000067,-0.00000024,-0.00000080,-0.00000092,
 0.00000044,-0.00000116,-0.00000061,-0.00000030,-0.00000123,-0.00000047
 ,-0.00000063,-0.00000092,-0.00000080,0.00000114,0.00000004,-0.00000091
 ,0.00000083,0.00000047,-0.00000088,0.00000039,0.00000024,-0.00000115,0
 .00000076,-0.00000042,-0.00000020,0.00000061,0.00000075,0.00000006,-0.
 00000017,-0.00000160,0.00000011,-0.00000063,-0.00000140,-0.00000028,-0
 .00000073,-0.00000130,-0.00000016,-0.00000069,-0.00000184,-0.00000099,
 0.00000020,-0.00000119,-0.00000071,0.00000035,-0.00000048,-0.00000104,
 0.00000021,-0.00000113,-0.00000048,0.00000028,-0.00000094,-0.00000073,
 -0.00000024,-0.00000024,-0.00000017,0.00000073,0.00000043,-0.00000057,
 0.00000023,0.00000033,-0.00000109,0.00000081,0.00000034,0.00000043,0.0
 0000028,0.00000103,0.00000023,-0.00000087,-0.00000034,0.00000097,0.000
 00010,-0.00000008,-0.00000033,-0.00000033,0.00000062,0.00000069,0.0000
 0071,0.00000184,-0.00000031,0.00000052,0.00000255,0.00000026,0.0000008
 8,0.00000057,0.00000080,-0.00000004,0.00000069,0.00000056,0.00000005,0
 .00000093,-0.00000014,0.00000042,0.00000085,0.00000102,0.00000086,0.00
 000097,0.00000151,-0.00000069,0.00000031,0.,-0.00000024,0.00000299,0.0
 0000046,-0.00000005,0.00000127,0.00000088,0.00000021,0.00000122,-0.000
 00003,0.00000070,0.00000090,0.00000039,-0.00000004,0.00000113,0.000000
 19,0.00000019,0.00000065,0.00000023,0.00000023,0.00000108,0.00000024,-
 0.00000096,-0.00000126,0.00000070,-0.00000018,-0.00000033,0.00000023,-
 0.00000057,-0.00000102,0.00000040,-0.00000091,-0.00000029,0.00000097,-
 0.00000048,-0.00000088,0.00000113,0.00000097,-0.00000030,0.00000029,-0
 .00000075,-0.00000131,0.00000094,-0.00000096,-0.00000108,-0.00000015,-
 0.00000095,0.00000024,0.00000056,-0.00000120,-0.00000097,-0.00000002,-
 0.00000126,-0.00000095,0.00000044,-0.00000056,-0.00000104,0.00000042,0
 .00000105,0.00000032,0.00000021,0.00000052,0.00000102,0.00000110,-0.00
 000053,0.00000075,0.00000220,-0.00000174,0.00000158,0.00000126,-0.0000
 0007,0.00000219,0.00000107,-0.00000008,0.00000178,0.00000127,-0.000000
 33,0.00000147,0.00000074,-0.00000001,0.00000191,-0.00000046,0.00000039
 ,0.00000202,0.00000082,0.00000082,0.00000215,0.00000015,0.00000043,0.0
 0000189,0.00000073,0.00000034,0.00000230,-0.00000017,0.00000062,0.0000
 0060,-0.00000060,0.00000111,0.00000141,-0.00000088,0.00000067,0.000000
 99,-0.00000055,0.00000086,0.00000153,-0.00000038,-0.00000047,-0.000001
 08,-0.00000135,0.00000035,-0.00000138,-0.00000146,0.00000050,-0.000001
 02,-0.00000082,0.00000010,-0.00000168,0.00000024,0.00000136,-0.0000024
 1,-0.00000066,-0.00000121,0.00000037,-0.00000006,0.00000090,0.00000105
 ,0.00000015,0.00000002,0.00000019,-0.00000004,-0.00000027,-0.00000063,
 -0.00000034,0.00000003,-0.00000039,-0.00000057,-0.00000082,-0.00000062
 ,-0.00000033,0.00000063,0.00000043,0.00000019,0.00000048,0.00000040,-0
 .00000038,0.00000018,0.00000059,0.00000118,-0.00000098,-0.00000168,0.0
 0000045,-0.00000076,-0.00000181,0.00000055,-0.00000128,-0.00000145,0.0
 0000111,-0.00000162,-0.00000131,-0.00000027,0.00000048,-0.00000077,-0.
 00000035,0.00000011,0.00000007,0.00000036,-0.00000076,-0.00000017,-0.0
 0000010,-0.00000025,-0.00000055\\\@


 My opinions may have changed, but not the fact that I am right.
                       -- Ashleigh Brilliant
 Job cpu time:       3 days  4 hours 56 minutes 10.9 seconds.
 Elapsed time:       0 days  2 hours 27 minutes 36.9 seconds.
 File lengths (MBytes):  RWF=   9728 Int=      0 D2E=      0 Chk=     87 Scr=      1
 Normal termination of Gaussian 16 at Wed Jun  5 16:39:48 2019.
