 Entering Gaussian System, Link 0=g16
 Input=clay_new-glu_gluC6-bisCF3-sm-m062x-631gd-pcm_thf.gjf
 Output=clay_new-glu_gluC6-bisCF3-sm-m062x-631gd-pcm_thf.out
 Initial command:
 /home/ekwan/sw/g16/l1.exe "/scratch/users/ekwan/clay_new-glu_gluC6-bisCF3-sm-m062x-631gd-pcm_thf/Gau-38042.inp" -scrdir="/scratch/users/ekwan/clay_new-glu_gluC6-bisCF3-sm-m062x-631gd-pcm_thf/"
 Entering Link 1 = /home/ekwan/sw/g16/l1.exe PID=     38043.
  
 Copyright (c) 1988,1990,1992,1993,1995,1998,2003,2009,2016,
            Gaussian, Inc.  All Rights Reserved.
  
 This is part of the Gaussian(R) 16 program.  It is based on
 the Gaussian(R) 09 system (copyright 2009, Gaussian, Inc.),
 the Gaussian(R) 03 system (copyright 2003, Gaussian, Inc.),
 the Gaussian(R) 98 system (copyright 1998, Gaussian, Inc.),
 the Gaussian(R) 94 system (copyright 1995, Gaussian, Inc.),
 the Gaussian 92(TM) system (copyright 1992, Gaussian, Inc.),
 the Gaussian 90(TM) system (copyright 1990, Gaussian, Inc.),
 the Gaussian 88(TM) system (copyright 1988, Gaussian, Inc.),
 the Gaussian 86(TM) system (copyright 1986, Carnegie Mellon
 University), and the Gaussian 82(TM) system (copyright 1983,
 Carnegie Mellon University). Gaussian is a federally registered
 trademark of Gaussian, Inc.
  
 This software contains proprietary and confidential information,
 including trade secrets, belonging to Gaussian, Inc.
  
 This software is provided under written license and may be
 used, copied, transmitted, or stored only in accord with that
 written license.
  
 The following legend is applicable only to US Government
 contracts under FAR:
  
                    RESTRICTED RIGHTS LEGEND
  
 Use, reproduction and disclosure by the US Government is
 subject to restrictions as set forth in subparagraphs (a)
 and (c) of the Commercial Computer Software - Restricted
 Rights clause in FAR 52.227-19.
  
 Gaussian, Inc.
 340 Quinnipiac St., Bldg. 40, Wallingford CT 06492
  
  
 ---------------------------------------------------------------
 Warning -- This program may not be used in any manner that
 competes with the business of Gaussian, Inc. or will provide
 assistance to any competitor of Gaussian, Inc.  The licensee
 of this program is prohibited from giving any competitor of
 Gaussian, Inc. access to this program.  By using this program,
 the user acknowledges that Gaussian, Inc. is engaged in the
 business of creating and licensing software in the field of
 computational chemistry and represents and warrants to the
 licensee that it is not a competitor of Gaussian, Inc. and that
 it will not use this program in any manner prohibited above.
 ---------------------------------------------------------------
  

 Cite this work as:
 Gaussian 16, Revision A.03,
 M. J. Frisch, G. W. Trucks, H. B. Schlegel, G. E. Scuseria, 
 M. A. Robb, J. R. Cheeseman, G. Scalmani, V. Barone, 
 G. A. Petersson, H. Nakatsuji, X. Li, M. Caricato, A. V. Marenich, 
 J. Bloino, B. G. Janesko, R. Gomperts, B. Mennucci, H. P. Hratchian, 
 J. V. Ortiz, A. F. Izmaylov, J. L. Sonnenberg, D. Williams-Young, 
 F. Ding, F. Lipparini, F. Egidi, J. Goings, B. Peng, A. Petrone, 
 T. Henderson, D. Ranasinghe, V. G. Zakrzewski, J. Gao, N. Rega, 
 G. Zheng, W. Liang, M. Hada, M. Ehara, K. Toyota, R. Fukuda, 
 J. Hasegawa, M. Ishida, T. Nakajima, Y. Honda, O. Kitao, H. Nakai, 
 T. Vreven, K. Throssell, J. A. Montgomery, Jr., J. E. Peralta, 
 F. Ogliaro, M. J. Bearpark, J. J. Heyd, E. N. Brothers, K. N. Kudin, 
 V. N. Staroverov, T. A. Keith, R. Kobayashi, J. Normand, 
 K. Raghavachari, A. P. Rendell, J. C. Burant, S. S. Iyengar, 
 J. Tomasi, M. Cossi, J. M. Millam, M. Klene, C. Adamo, R. Cammi, 
 J. W. Ochterski, R. L. Martin, K. Morokuma, O. Farkas, 
 J. B. Foresman, and D. J. Fox, Gaussian, Inc., Wallingford CT, 2016.
 
 ******************************************
 Gaussian 16:  AS64L-G16RevA.03 25-Dec-2016
                 5-Jun-2019 
 ******************************************
 %nprocshared=32
 Will use up to   32 processors via shared memory.
 %mem=48GB
 ----------------------------------------------------------------------
 #p opt freq=noraman pop=none 6-31g* scrf=(pcm,solvent=tetrahydrofuran)
  m062x
 ----------------------------------------------------------------------
 1/18=20,19=15,26=3,38=1/1,3;
 2/9=110,12=2,17=6,18=5,40=1/2;
 3/5=1,6=6,7=1,11=2,25=1,30=1,70=2201,71=1,72=20,74=-55/1,2,3;
 4//1;
 5/5=2,38=5,53=20/2;
 7//1,2,3,16;
 1/18=20,19=15,26=3/3(2);
 2/9=110/2;
 99//99;
 2/9=110/2;
 3/5=1,6=6,7=1,11=2,25=1,30=1,70=2205,71=1,72=20,74=-55/1,2,3;
 4/5=5,16=3,69=1/1;
 5/5=2,38=5,53=20/2;
 7//1,2,3,16;
 1/18=20,19=15,26=3/3(-5);
 2/9=110/2;
 99/9=1/99;
 Leave Link    1 at Wed Jun  5 17:37:34 2019, MaxMem=  6442450944 cpu:               5.5 elap:               0.2
 (Enter /home/ekwan/sw/g16/l101.exe)
 -----
 title
 -----
 Symbolic Z-matrix:
 Charge =  0 Multiplicity = 1
 6                     3.38139   0.30007   0.63839 
 6                     3.31088  -0.46098  -0.6831 
 6                     1.85468  -0.74095  -1.07862 
 6                     1.0338    1.09062   0.1986 
 6                     2.44642   1.50197   0.60625 
 1                     1.77338  -1.15365  -2.08567 
 1                     3.72555   0.18296  -1.47708 
 1                     3.06522  -0.36857   1.45321 
 1                     0.61783   0.4254    0.97 
 1                     2.82563   2.22556  -0.12918 
 8                     1.05955   0.39298  -1.05594 
 8                     1.37615  -1.73287  -0.13799 
 8                     4.06527  -1.6339   -0.55294 
 8                     4.68777   0.77614   0.86735 
 8                     2.36613   2.08661   1.88561 
 6                     0.11002   2.29422   0.06648 
 1                    -0.1194    2.64757   1.07463 
 1                    -0.8237    1.977    -0.42051 
 8                     0.67624   3.38849  -0.61383 
 16                    0.08833  -2.60994  -0.55313 
 8                     0.05053  -3.68446   0.41205 
 8                     0.15061  -2.86937  -1.97893 
 6                    -1.27289  -1.51352  -0.23781 
 6                    -1.76824  -1.42128   1.05732 
 6                    -1.78934  -0.76164  -1.2861 
 6                    -2.81401  -0.53657   1.30105 
 1                    -1.3497   -2.02866   1.8537 
 6                    -2.83549   0.1122   -1.01402 
 1                    -1.38345  -0.85857  -2.28754 
 6                    -3.35072   0.23245   0.27356 
 1                    -4.16536   0.92091   0.47406 
 6                     4.18569  -2.38299  -1.74789 
 1                     3.24558  -2.88767  -2.00541 
 1                     4.49304  -1.74342  -2.58572 
 1                     4.95194  -3.1384   -1.57171 
 6                     5.46181  -0.04079   1.7274 
 1                     6.43535   0.44239   1.82737 
 1                     4.99426  -0.11325   2.7179 
 1                     5.59081  -1.04521   1.31356 
 6                     3.04939   3.32374   1.98828 
 1                     2.91555   3.67508   3.01292 
 1                     4.1171    3.19744   1.78055 
 1                     2.62329   4.0574    1.29278 
 6                     0.77915   3.21022  -2.01461 
 1                     0.97878   4.1929   -2.44582 
 1                    -0.15915   2.81593  -2.42605 
 1                     1.59211   2.52536  -2.28088 
 6                    -3.41115  -0.45026   2.68059 
 9                    -2.51433  -0.76357   3.62253 
 9                    -4.44439  -1.29187   2.81725 
 9                    -3.86713   0.78185   2.93702 
 6                    -3.36722   0.99772  -2.10794 
 9                    -2.73207   2.183    -2.11991 
 9                    -4.66934   1.25359  -1.94419 
 9                    -3.1995    0.44769  -3.31438 
 
 ITRead=  0  0  0  0  0  0  0  0  0  0  0  0  0  0  0  0  0  0  0  0
 ITRead=  0  0  0  0  0  0  0  0  0  0  0  0  0  0  0  0  0  0  0  0
 ITRead=  0  0  0  0  0  0  0  0  0  0  0  0  0  0  0
 MicOpt= -1 -1 -1 -1 -1 -1 -1 -1 -1 -1 -1 -1 -1 -1 -1 -1 -1 -1 -1 -1
 MicOpt= -1 -1 -1 -1 -1 -1 -1 -1 -1 -1 -1 -1 -1 -1 -1 -1 -1 -1 -1 -1
 MicOpt= -1 -1 -1 -1 -1 -1 -1 -1 -1 -1 -1 -1 -1 -1 -1
 NAtoms=     55 NQM=       55 NQMF=       0 NMMI=      0 NMMIF=      0
                NMic=       0 NMicF=      0.
                    Isotopes and Nuclear Properties:
 (Nuclear quadrupole moments (NQMom) in fm**2, nuclear magnetic moments (NMagM)
  in nuclear magnetons)

  Atom         1           2           3           4           5           6           7           8           9          10
 IAtWgt=          12          12          12          12          12           1           1           1           1           1
 AtmWgt=  12.0000000  12.0000000  12.0000000  12.0000000  12.0000000   1.0078250   1.0078250   1.0078250   1.0078250   1.0078250
 NucSpn=           0           0           0           0           0           1           1           1           1           1
 AtZEff=   0.0000000   0.0000000   0.0000000   0.0000000   0.0000000   0.0000000   0.0000000   0.0000000   0.0000000   0.0000000
 NQMom=    0.0000000   0.0000000   0.0000000   0.0000000   0.0000000   0.0000000   0.0000000   0.0000000   0.0000000   0.0000000
 NMagM=    0.0000000   0.0000000   0.0000000   0.0000000   0.0000000   2.7928460   2.7928460   2.7928460   2.7928460   2.7928460
 AtZNuc=   6.0000000   6.0000000   6.0000000   6.0000000   6.0000000   1.0000000   1.0000000   1.0000000   1.0000000   1.0000000

  Atom        11          12          13          14          15          16          17          18          19          20
 IAtWgt=          16          16          16          16          16          12           1           1          16          32
 AtmWgt=  15.9949146  15.9949146  15.9949146  15.9949146  15.9949146  12.0000000   1.0078250   1.0078250  15.9949146  31.9720718
 NucSpn=           0           0           0           0           0           0           1           1           0           0
 AtZEff=   0.0000000   0.0000000   0.0000000   0.0000000   0.0000000   0.0000000   0.0000000   0.0000000   0.0000000   0.0000000
 NQMom=    0.0000000   0.0000000   0.0000000   0.0000000   0.0000000   0.0000000   0.0000000   0.0000000   0.0000000   0.0000000
 NMagM=    0.0000000   0.0000000   0.0000000   0.0000000   0.0000000   0.0000000   2.7928460   2.7928460   0.0000000   0.0000000
 AtZNuc=   8.0000000   8.0000000   8.0000000   8.0000000   8.0000000   6.0000000   1.0000000   1.0000000   8.0000000  16.0000000

  Atom        21          22          23          24          25          26          27          28          29          30
 IAtWgt=          16          16          12          12          12          12           1          12           1          12
 AtmWgt=  15.9949146  15.9949146  12.0000000  12.0000000  12.0000000  12.0000000   1.0078250  12.0000000   1.0078250  12.0000000
 NucSpn=           0           0           0           0           0           0           1           0           1           0
 AtZEff=   0.0000000   0.0000000   0.0000000   0.0000000   0.0000000   0.0000000   0.0000000   0.0000000   0.0000000   0.0000000
 NQMom=    0.0000000   0.0000000   0.0000000   0.0000000   0.0000000   0.0000000   0.0000000   0.0000000   0.0000000   0.0000000
 NMagM=    0.0000000   0.0000000   0.0000000   0.0000000   0.0000000   0.0000000   2.7928460   0.0000000   2.7928460   0.0000000
 AtZNuc=   8.0000000   8.0000000   6.0000000   6.0000000   6.0000000   6.0000000   1.0000000   6.0000000   1.0000000   6.0000000

  Atom        31          32          33          34          35          36          37          38          39          40
 IAtWgt=           1          12           1           1           1          12           1           1           1          12
 AtmWgt=   1.0078250  12.0000000   1.0078250   1.0078250   1.0078250  12.0000000   1.0078250   1.0078250   1.0078250  12.0000000
 NucSpn=           1           0           1           1           1           0           1           1           1           0
 AtZEff=   0.0000000   0.0000000   0.0000000   0.0000000   0.0000000   0.0000000   0.0000000   0.0000000   0.0000000   0.0000000
 NQMom=    0.0000000   0.0000000   0.0000000   0.0000000   0.0000000   0.0000000   0.0000000   0.0000000   0.0000000   0.0000000
 NMagM=    2.7928460   0.0000000   2.7928460   2.7928460   2.7928460   0.0000000   2.7928460   2.7928460   2.7928460   0.0000000
 AtZNuc=   1.0000000   6.0000000   1.0000000   1.0000000   1.0000000   6.0000000   1.0000000   1.0000000   1.0000000   6.0000000

  Atom        41          42          43          44          45          46          47          48          49          50
 IAtWgt=           1           1           1          12           1           1           1          12          19          19
 AtmWgt=   1.0078250   1.0078250   1.0078250  12.0000000   1.0078250   1.0078250   1.0078250  12.0000000  18.9984033  18.9984033
 NucSpn=           1           1           1           0           1           1           1           0           1           1
 AtZEff=   0.0000000   0.0000000   0.0000000   0.0000000   0.0000000   0.0000000   0.0000000   0.0000000   0.0000000   0.0000000
 NQMom=    0.0000000   0.0000000   0.0000000   0.0000000   0.0000000   0.0000000   0.0000000   0.0000000   0.0000000   0.0000000
 NMagM=    2.7928460   2.7928460   2.7928460   0.0000000   2.7928460   2.7928460   2.7928460   0.0000000   2.6288670   2.6288670
 AtZNuc=   1.0000000   1.0000000   1.0000000   6.0000000   1.0000000   1.0000000   1.0000000   6.0000000   9.0000000   9.0000000

  Atom        51          52          53          54          55
 IAtWgt=          19          12          19          19          19
 AtmWgt=  18.9984033  12.0000000  18.9984033  18.9984033  18.9984033
 NucSpn=           1           0           1           1           1
 AtZEff=   0.0000000   0.0000000   0.0000000   0.0000000   0.0000000
 NQMom=    0.0000000   0.0000000   0.0000000   0.0000000   0.0000000
 NMagM=    2.6288670   0.0000000   2.6288670   2.6288670   2.6288670
 AtZNuc=   9.0000000   6.0000000   9.0000000   9.0000000   9.0000000
 Leave Link  101 at Wed Jun  5 17:37:35 2019, MaxMem=  6442450944 cpu:              17.1 elap:               0.6
 (Enter /home/ekwan/sw/g16/l103.exe)

 GradGradGradGradGradGradGradGradGradGradGradGradGradGradGradGradGradGrad
 Berny optimization.
 Initialization pass.
                           ----------------------------
                           !    Initial Parameters    !
                           ! (Angstroms and Degrees)  !
 --------------------------                            --------------------------
 ! Name  Definition              Value          Derivative Info.                !
 --------------------------------------------------------------------------------
 ! R1    R(1,2)                  1.5266         estimate D2E/DX2                !
 ! R2    R(1,5)                  1.5231         estimate D2E/DX2                !
 ! R3    R(1,8)                  1.1004         estimate D2E/DX2                !
 ! R4    R(1,14)                 1.4092         estimate D2E/DX2                !
 ! R5    R(2,3)                  1.5347         estimate D2E/DX2                !
 ! R6    R(2,7)                  1.1032         estimate D2E/DX2                !
 ! R7    R(2,13)                 1.4006         estimate D2E/DX2                !
 ! R8    R(3,6)                  1.0914         estimate D2E/DX2                !
 ! R9    R(3,11)                 1.3851         estimate D2E/DX2                !
 ! R10   R(3,12)                 1.4483         estimate D2E/DX2                !
 ! R11   R(4,5)                  1.5267         estimate D2E/DX2                !
 ! R12   R(4,9)                  1.1003         estimate D2E/DX2                !
 ! R13   R(4,11)                 1.4357         estimate D2E/DX2                !
 ! R14   R(4,16)                 1.523          estimate D2E/DX2                !
 ! R15   R(5,10)                 1.0992         estimate D2E/DX2                !
 ! R16   R(5,15)                 1.4089         estimate D2E/DX2                !
 ! R17   R(12,20)                1.6125         estimate D2E/DX2                !
 ! R18   R(13,32)                1.4155         estimate D2E/DX2                !
 ! R19   R(14,36)                1.4164         estimate D2E/DX2                !
 ! R20   R(15,40)                1.417          estimate D2E/DX2                !
 ! R21   R(16,17)                1.0926         estimate D2E/DX2                !
 ! R22   R(16,18)                1.0998         estimate D2E/DX2                !
 ! R23   R(16,19)                1.4074         estimate D2E/DX2                !
 ! R24   R(19,44)                1.4158         estimate D2E/DX2                !
 ! R25   R(20,21)                1.4448         estimate D2E/DX2                !
 ! R26   R(20,22)                1.4505         estimate D2E/DX2                !
 ! R27   R(20,23)                1.7761         estimate D2E/DX2                !
 ! R28   R(23,24)                1.3897         estimate D2E/DX2                !
 ! R29   R(23,25)                1.3896         estimate D2E/DX2                !
 ! R30   R(24,26)                1.3913         estimate D2E/DX2                !
 ! R31   R(24,27)                1.0855         estimate D2E/DX2                !
 ! R32   R(25,28)                1.39           estimate D2E/DX2                !
 ! R33   R(25,29)                1.0849         estimate D2E/DX2                !
 ! R34   R(26,30)                1.3911         estimate D2E/DX2                !
 ! R35   R(26,48)                1.5057         estimate D2E/DX2                !
 ! R36   R(28,30)                1.392          estimate D2E/DX2                !
 ! R37   R(28,52)                1.5045         estimate D2E/DX2                !
 ! R38   R(30,31)                1.0853         estimate D2E/DX2                !
 ! R39   R(32,33)                1.0976         estimate D2E/DX2                !
 ! R40   R(32,34)                1.0979         estimate D2E/DX2                !
 ! R41   R(32,35)                1.0903         estimate D2E/DX2                !
 ! R42   R(36,37)                1.0914         estimate D2E/DX2                !
 ! R43   R(36,38)                1.0977         estimate D2E/DX2                !
 ! R44   R(36,39)                1.094          estimate D2E/DX2                !
 ! R45   R(40,41)                1.0914         estimate D2E/DX2                !
 ! R46   R(40,42)                1.095          estimate D2E/DX2                !
 ! R47   R(40,43)                1.0971         estimate D2E/DX2                !
 ! R48   R(44,45)                1.0915         estimate D2E/DX2                !
 ! R49   R(44,46)                1.0978         estimate D2E/DX2                !
 ! R50   R(44,47)                1.0958         estimate D2E/DX2                !
 ! R51   R(48,49)                1.3378         estimate D2E/DX2                !
 ! R52   R(48,50)                1.3396         estimate D2E/DX2                !
 ! R53   R(48,51)                1.3386         estimate D2E/DX2                !
 ! R54   R(52,53)                1.3448         estimate D2E/DX2                !
 ! R55   R(52,54)                1.3371         estimate D2E/DX2                !
 ! R56   R(52,55)                1.3365         estimate D2E/DX2                !
 ! A1    A(2,1,5)              110.2905         estimate D2E/DX2                !
 ! A2    A(2,1,8)              108.9523         estimate D2E/DX2                !
 ! A3    A(2,1,14)             110.6026         estimate D2E/DX2                !
 ! A4    A(5,1,8)              108.5871         estimate D2E/DX2                !
 ! A5    A(5,1,14)             107.8142         estimate D2E/DX2                !
 ! A6    A(8,1,14)             110.5685         estimate D2E/DX2                !
 ! A7    A(1,2,3)              110.9685         estimate D2E/DX2                !
 ! A8    A(1,2,7)              108.341          estimate D2E/DX2                !
 ! A9    A(1,2,13)             108.1896         estimate D2E/DX2                !
 ! A10   A(3,2,7)              106.1199         estimate D2E/DX2                !
 ! A11   A(3,2,13)             112.4718         estimate D2E/DX2                !
 ! A12   A(7,2,13)             110.6857         estimate D2E/DX2                !
 ! A13   A(2,3,6)              112.1775         estimate D2E/DX2                !
 ! A14   A(2,3,11)             113.0247         estimate D2E/DX2                !
 ! A15   A(2,3,12)             105.7272         estimate D2E/DX2                !
 ! A16   A(6,3,11)             106.3743         estimate D2E/DX2                !
 ! A17   A(6,3,12)             108.4019         estimate D2E/DX2                !
 ! A18   A(11,3,12)            111.1231         estimate D2E/DX2                !
 ! A19   A(5,4,9)              108.996          estimate D2E/DX2                !
 ! A20   A(5,4,11)             110.3431         estimate D2E/DX2                !
 ! A21   A(5,4,16)             111.8061         estimate D2E/DX2                !
 ! A22   A(9,4,11)             109.0035         estimate D2E/DX2                !
 ! A23   A(9,4,16)             108.0176         estimate D2E/DX2                !
 ! A24   A(11,4,16)            108.6081         estimate D2E/DX2                !
 ! A25   A(1,5,4)              111.1622         estimate D2E/DX2                !
 ! A26   A(1,5,10)             108.7733         estimate D2E/DX2                !
 ! A27   A(1,5,15)             110.0765         estimate D2E/DX2                !
 ! A28   A(4,5,10)             108.5371         estimate D2E/DX2                !
 ! A29   A(4,5,15)             107.5492         estimate D2E/DX2                !
 ! A30   A(10,5,15)            110.7348         estimate D2E/DX2                !
 ! A31   A(3,11,4)             114.9863         estimate D2E/DX2                !
 ! A32   A(3,12,20)            117.9818         estimate D2E/DX2                !
 ! A33   A(2,13,32)            114.2393         estimate D2E/DX2                !
 ! A34   A(1,14,36)            114.2321         estimate D2E/DX2                !
 ! A35   A(5,15,40)            113.6155         estimate D2E/DX2                !
 ! A36   A(4,16,17)            107.6315         estimate D2E/DX2                !
 ! A37   A(4,16,18)            108.9914         estimate D2E/DX2                !
 ! A38   A(4,16,19)            114.3527         estimate D2E/DX2                !
 ! A39   A(17,16,18)           108.8789         estimate D2E/DX2                !
 ! A40   A(17,16,19)           106.2017         estimate D2E/DX2                !
 ! A41   A(18,16,19)           110.5957         estimate D2E/DX2                !
 ! A42   A(16,19,44)           114.1779         estimate D2E/DX2                !
 ! A43   A(12,20,21)           104.6803         estimate D2E/DX2                !
 ! A44   A(12,20,22)           108.4245         estimate D2E/DX2                !
 ! A45   A(12,20,23)           103.3332         estimate D2E/DX2                !
 ! A46   A(21,20,22)           121.6504         estimate D2E/DX2                !
 ! A47   A(21,20,23)           108.6899         estimate D2E/DX2                !
 ! A48   A(22,20,23)           108.5313         estimate D2E/DX2                !
 ! A49   A(20,23,24)           118.6604         estimate D2E/DX2                !
 ! A50   A(20,23,25)           119.0082         estimate D2E/DX2                !
 ! A51   A(24,23,25)           122.3213         estimate D2E/DX2                !
 ! A52   A(23,24,26)           118.2542         estimate D2E/DX2                !
 ! A53   A(23,24,27)           120.6075         estimate D2E/DX2                !
 ! A54   A(26,24,27)           121.1378         estimate D2E/DX2                !
 ! A55   A(23,25,28)           118.1785         estimate D2E/DX2                !
 ! A56   A(23,25,29)           120.5947         estimate D2E/DX2                !
 ! A57   A(28,25,29)           121.2268         estimate D2E/DX2                !
 ! A58   A(24,26,30)           120.8054         estimate D2E/DX2                !
 ! A59   A(24,26,48)           119.6723         estimate D2E/DX2                !
 ! A60   A(30,26,48)           119.4741         estimate D2E/DX2                !
 ! A61   A(25,28,30)           120.9258         estimate D2E/DX2                !
 ! A62   A(25,28,52)           119.5838         estimate D2E/DX2                !
 ! A63   A(30,28,52)           119.3984         estimate D2E/DX2                !
 ! A64   A(26,30,28)           119.5138         estimate D2E/DX2                !
 ! A65   A(26,30,31)           120.2536         estimate D2E/DX2                !
 ! A66   A(28,30,31)           120.2326         estimate D2E/DX2                !
 ! A67   A(13,32,33)           111.6242         estimate D2E/DX2                !
 ! A68   A(13,32,34)           111.085          estimate D2E/DX2                !
 ! A69   A(13,32,35)           106.8596         estimate D2E/DX2                !
 ! A70   A(33,32,34)           109.1815         estimate D2E/DX2                !
 ! A71   A(33,32,35)           108.7392         estimate D2E/DX2                !
 ! A72   A(34,32,35)           109.2788         estimate D2E/DX2                !
 ! A73   A(14,36,37)           106.7221         estimate D2E/DX2                !
 ! A74   A(14,36,38)           110.6839         estimate D2E/DX2                !
 ! A75   A(14,36,39)           111.3639         estimate D2E/DX2                !
 ! A76   A(37,36,38)           109.0565         estimate D2E/DX2                !
 ! A77   A(37,36,39)           109.6296         estimate D2E/DX2                !
 ! A78   A(38,36,39)           109.3276         estimate D2E/DX2                !
 ! A79   A(15,40,41)           106.8542         estimate D2E/DX2                !
 ! A80   A(15,40,42)           110.8374         estimate D2E/DX2                !
 ! A81   A(15,40,43)           110.527          estimate D2E/DX2                !
 ! A82   A(41,40,42)           109.5593         estimate D2E/DX2                !
 ! A83   A(41,40,43)           109.4059         estimate D2E/DX2                !
 ! A84   A(42,40,43)           109.6077         estimate D2E/DX2                !
 ! A85   A(19,44,45)           106.9046         estimate D2E/DX2                !
 ! A86   A(19,44,46)           110.7262         estimate D2E/DX2                !
 ! A87   A(19,44,47)           111.902          estimate D2E/DX2                !
 ! A88   A(45,44,46)           109.366          estimate D2E/DX2                !
 ! A89   A(45,44,47)           109.3281         estimate D2E/DX2                !
 ! A90   A(46,44,47)           108.5757         estimate D2E/DX2                !
 ! A91   A(26,48,49)           111.4579         estimate D2E/DX2                !
 ! A92   A(26,48,50)           111.3054         estimate D2E/DX2                !
 ! A93   A(26,48,51)           111.3076         estimate D2E/DX2                !
 ! A94   A(49,48,50)           107.3429         estimate D2E/DX2                !
 ! A95   A(49,48,51)           108.0018         estimate D2E/DX2                !
 ! A96   A(50,48,51)           107.2175         estimate D2E/DX2                !
 ! A97   A(28,52,53)           110.997          estimate D2E/DX2                !
 ! A98   A(28,52,54)           111.5777         estimate D2E/DX2                !
 ! A99   A(28,52,55)           111.7014         estimate D2E/DX2                !
 ! A100  A(53,52,54)           107.0003         estimate D2E/DX2                !
 ! A101  A(53,52,55)           107.1837         estimate D2E/DX2                !
 ! A102  A(54,52,55)           108.1507         estimate D2E/DX2                !
 ! D1    D(5,1,2,3)            -49.5658         estimate D2E/DX2                !
 ! D2    D(5,1,2,7)             66.5571         estimate D2E/DX2                !
 ! D3    D(5,1,2,13)          -173.3999         estimate D2E/DX2                !
 ! D4    D(8,1,2,3)             69.5301         estimate D2E/DX2                !
 ! D5    D(8,1,2,7)           -174.347          estimate D2E/DX2                !
 ! D6    D(8,1,2,13)           -54.304          estimate D2E/DX2                !
 ! D7    D(14,1,2,3)          -168.7386         estimate D2E/DX2                !
 ! D8    D(14,1,2,7)           -52.6157         estimate D2E/DX2                !
 ! D9    D(14,1,2,13)           67.4273         estimate D2E/DX2                !
 ! D10   D(2,1,5,4)             52.4263         estimate D2E/DX2                !
 ! D11   D(2,1,5,10)           -67.0227         estimate D2E/DX2                !
 ! D12   D(2,1,5,15)           171.4867         estimate D2E/DX2                !
 ! D13   D(8,1,5,4)            -66.8917         estimate D2E/DX2                !
 ! D14   D(8,1,5,10)           173.6594         estimate D2E/DX2                !
 ! D15   D(8,1,5,15)            52.1687         estimate D2E/DX2                !
 ! D16   D(14,1,5,4)           173.281          estimate D2E/DX2                !
 ! D17   D(14,1,5,10)           53.832          estimate D2E/DX2                !
 ! D18   D(14,1,5,15)          -67.6586         estimate D2E/DX2                !
 ! D19   D(2,1,14,36)          -98.0076         estimate D2E/DX2                !
 ! D20   D(5,1,14,36)          141.3332         estimate D2E/DX2                !
 ! D21   D(8,1,14,36)           22.767          estimate D2E/DX2                !
 ! D22   D(1,2,3,6)            171.7016         estimate D2E/DX2                !
 ! D23   D(1,2,3,11)            51.4351         estimate D2E/DX2                !
 ! D24   D(1,2,3,12)           -70.3323         estimate D2E/DX2                !
 ! D25   D(7,2,3,6)             54.2152         estimate D2E/DX2                !
 ! D26   D(7,2,3,11)           -66.0513         estimate D2E/DX2                !
 ! D27   D(7,2,3,12)           172.1814         estimate D2E/DX2                !
 ! D28   D(13,2,3,6)           -66.9467         estimate D2E/DX2                !
 ! D29   D(13,2,3,11)          172.7868         estimate D2E/DX2                !
 ! D30   D(13,2,3,12)           51.0194         estimate D2E/DX2                !
 ! D31   D(1,2,13,32)         -174.6697         estimate D2E/DX2                !
 ! D32   D(3,2,13,32)           62.4051         estimate D2E/DX2                !
 ! D33   D(7,2,13,32)          -56.1074         estimate D2E/DX2                !
 ! D34   D(2,3,11,4)           -56.3674         estimate D2E/DX2                !
 ! D35   D(6,3,11,4)          -179.8966         estimate D2E/DX2                !
 ! D36   D(12,3,11,4)           62.3128         estimate D2E/DX2                !
 ! D37   D(2,3,12,20)         -159.4992         estimate D2E/DX2                !
 ! D38   D(6,3,12,20)          -39.0364         estimate D2E/DX2                !
 ! D39   D(11,3,12,20)          77.5172         estimate D2E/DX2                !
 ! D40   D(9,4,5,1)             64.664          estimate D2E/DX2                !
 ! D41   D(9,4,5,10)          -175.7462         estimate D2E/DX2                !
 ! D42   D(9,4,5,15)           -55.8992         estimate D2E/DX2                !
 ! D43   D(11,4,5,1)           -55.0008         estimate D2E/DX2                !
 ! D44   D(11,4,5,10)           64.589          estimate D2E/DX2                !
 ! D45   D(11,4,5,15)         -175.564          estimate D2E/DX2                !
 ! D46   D(16,4,5,1)          -175.9909         estimate D2E/DX2                !
 ! D47   D(16,4,5,10)          -56.4012         estimate D2E/DX2                !
 ! D48   D(16,4,5,15)           63.4459         estimate D2E/DX2                !
 ! D49   D(5,4,11,3)            57.7858         estimate D2E/DX2                !
 ! D50   D(9,4,11,3)           -61.8745         estimate D2E/DX2                !
 ! D51   D(16,4,11,3)         -179.3352         estimate D2E/DX2                !
 ! D52   D(5,4,16,17)          -73.4712         estimate D2E/DX2                !
 ! D53   D(5,4,16,18)          168.5954         estimate D2E/DX2                !
 ! D54   D(5,4,16,19)           44.2534         estimate D2E/DX2                !
 ! D55   D(9,4,16,17)           46.4496         estimate D2E/DX2                !
 ! D56   D(9,4,16,18)          -71.4838         estimate D2E/DX2                !
 ! D57   D(9,4,16,19)          164.1743         estimate D2E/DX2                !
 ! D58   D(11,4,16,17)         164.537          estimate D2E/DX2                !
 ! D59   D(11,4,16,18)          46.6036         estimate D2E/DX2                !
 ! D60   D(11,4,16,19)         -77.7383         estimate D2E/DX2                !
 ! D61   D(1,5,15,40)          107.1607         estimate D2E/DX2                !
 ! D62   D(4,5,15,40)         -131.5936         estimate D2E/DX2                !
 ! D63   D(10,5,15,40)         -13.1529         estimate D2E/DX2                !
 ! D64   D(3,12,20,21)         167.1622         estimate D2E/DX2                !
 ! D65   D(3,12,20,22)          35.9368         estimate D2E/DX2                !
 ! D66   D(3,12,20,23)         -79.1016         estimate D2E/DX2                !
 ! D67   D(2,13,32,33)         -72.8921         estimate D2E/DX2                !
 ! D68   D(2,13,32,34)          49.2245         estimate D2E/DX2                !
 ! D69   D(2,13,32,35)         168.3416         estimate D2E/DX2                !
 ! D70   D(1,14,36,37)        -179.3951         estimate D2E/DX2                !
 ! D71   D(1,14,36,38)         -60.8511         estimate D2E/DX2                !
 ! D72   D(1,14,36,39)          60.9896         estimate D2E/DX2                !
 ! D73   D(5,15,40,41)         179.9181         estimate D2E/DX2                !
 ! D74   D(5,15,40,42)         -60.7679         estimate D2E/DX2                !
 ! D75   D(5,15,40,43)          60.9621         estimate D2E/DX2                !
 ! D76   D(4,16,19,44)          74.1738         estimate D2E/DX2                !
 ! D77   D(17,16,19,44)       -167.2882         estimate D2E/DX2                !
 ! D78   D(18,16,19,44)        -49.3093         estimate D2E/DX2                !
 ! D79   D(16,19,44,45)        165.5888         estimate D2E/DX2                !
 ! D80   D(16,19,44,46)         46.5399         estimate D2E/DX2                !
 ! D81   D(16,19,44,47)        -74.7403         estimate D2E/DX2                !
 ! D82   D(12,20,23,24)        -83.1412         estimate D2E/DX2                !
 ! D83   D(12,20,23,25)         95.7263         estimate D2E/DX2                !
 ! D84   D(21,20,23,24)         27.6595         estimate D2E/DX2                !
 ! D85   D(21,20,23,25)       -153.473          estimate D2E/DX2                !
 ! D86   D(22,20,23,24)        161.8969         estimate D2E/DX2                !
 ! D87   D(22,20,23,25)        -19.2356         estimate D2E/DX2                !
 ! D88   D(20,23,24,26)        178.5167         estimate D2E/DX2                !
 ! D89   D(20,23,24,27)         -1.7341         estimate D2E/DX2                !
 ! D90   D(25,23,24,26)         -0.3112         estimate D2E/DX2                !
 ! D91   D(25,23,24,27)        179.4379         estimate D2E/DX2                !
 ! D92   D(20,23,25,28)       -178.6307         estimate D2E/DX2                !
 ! D93   D(20,23,25,29)          1.3995         estimate D2E/DX2                !
 ! D94   D(24,23,25,28)          0.1933         estimate D2E/DX2                !
 ! D95   D(24,23,25,29)       -179.7765         estimate D2E/DX2                !
 ! D96   D(23,24,26,30)          0.1512         estimate D2E/DX2                !
 ! D97   D(23,24,26,48)        177.6126         estimate D2E/DX2                !
 ! D98   D(27,24,26,30)       -179.5966         estimate D2E/DX2                !
 ! D99   D(27,24,26,48)         -2.1352         estimate D2E/DX2                !
 ! D100  D(23,25,28,30)          0.0874         estimate D2E/DX2                !
 ! D101  D(23,25,28,52)        176.5792         estimate D2E/DX2                !
 ! D102  D(29,25,28,30)       -179.943          estimate D2E/DX2                !
 ! D103  D(29,25,28,52)         -3.4512         estimate D2E/DX2                !
 ! D104  D(24,26,30,28)          0.1169         estimate D2E/DX2                !
 ! D105  D(24,26,30,31)       -179.9034         estimate D2E/DX2                !
 ! D106  D(48,26,30,28)       -177.3494         estimate D2E/DX2                !
 ! D107  D(48,26,30,31)          2.6302         estimate D2E/DX2                !
 ! D108  D(24,26,48,49)         28.5151         estimate D2E/DX2                !
 ! D109  D(24,26,48,50)        -91.2917         estimate D2E/DX2                !
 ! D110  D(24,26,48,51)        149.1613         estimate D2E/DX2                !
 ! D111  D(30,26,48,49)       -153.9894         estimate D2E/DX2                !
 ! D112  D(30,26,48,50)         86.2037         estimate D2E/DX2                !
 ! D113  D(30,26,48,51)        -33.3432         estimate D2E/DX2                !
 ! D114  D(25,28,30,26)         -0.2396         estimate D2E/DX2                !
 ! D115  D(25,28,30,31)        179.7808         estimate D2E/DX2                !
 ! D116  D(52,28,30,26)       -176.7377         estimate D2E/DX2                !
 ! D117  D(52,28,30,31)          3.2826         estimate D2E/DX2                !
 ! D118  D(25,28,52,53)        -91.411          estimate D2E/DX2                !
 ! D119  D(25,28,52,54)        149.343          estimate D2E/DX2                !
 ! D120  D(25,28,52,55)         28.1488         estimate D2E/DX2                !
 ! D121  D(30,28,52,53)         85.1347         estimate D2E/DX2                !
 ! D122  D(30,28,52,54)        -34.1113         estimate D2E/DX2                !
 ! D123  D(30,28,52,55)       -155.3054         estimate D2E/DX2                !
 --------------------------------------------------------------------------------
 Trust Radius=3.00D-01 FncErr=1.00D-07 GrdErr=1.00D-06 EigMax=2.50D+02 EigMin=1.00D-04
 Number of steps in this run=    291 maximum allowed number of steps=    330.
 GradGradGradGradGradGradGradGradGradGradGradGradGradGradGradGradGradGrad

 Leave Link  103 at Wed Jun  5 17:37:35 2019, MaxMem=  6442450944 cpu:               1.5 elap:               0.1
 (Enter /home/ekwan/sw/g16/l202.exe)
 Stoichiometry    C18H22F6O8S
 Framework group  C1[X(C18H22F6O8S)]
 Deg. of freedom   159
 Full point group                 C1      NOp   1
 Largest Abelian subgroup         C1      NOp   1
 Largest concise Abelian subgroup C1      NOp   1
                         Standard orientation:                         
 ---------------------------------------------------------------------
 Center     Atomic      Atomic             Coordinates (Angstroms)
 Number     Number       Type             X           Y           Z
 ---------------------------------------------------------------------
      1          6           0        3.381385    0.300073    0.638394
      2          6           0        3.310882   -0.460976   -0.683095
      3          6           0        1.854681   -0.740945   -1.078615
      4          6           0        1.033799    1.090623    0.198601
      5          6           0        2.446424    1.501970    0.606246
      6          1           0        1.773375   -1.153648   -2.085669
      7          1           0        3.725545    0.182959   -1.477081
      8          1           0        3.065219   -0.368571    1.453210
      9          1           0        0.617831    0.425400    0.970002
     10          1           0        2.825626    2.225558   -0.129183
     11          8           0        1.059550    0.392982   -1.055943
     12          8           0        1.376154   -1.732865   -0.137987
     13          8           0        4.065265   -1.633903   -0.552940
     14          8           0        4.687773    0.776139    0.867349
     15          8           0        2.366126    2.086606    1.885606
     16          6           0        0.110015    2.294215    0.066481
     17          1           0       -0.119403    2.647571    1.074626
     18          1           0       -0.823700    1.976997   -0.420506
     19          8           0        0.676240    3.388493   -0.613826
     20         16           0        0.088331   -2.609943   -0.553130
     21          8           0        0.050528   -3.684455    0.412048
     22          8           0        0.150610   -2.869372   -1.978932
     23          6           0       -1.272889   -1.513518   -0.237808
     24          6           0       -1.768241   -1.421279    1.057324
     25          6           0       -1.789339   -0.761641   -1.286095
     26          6           0       -2.814010   -0.536565    1.301053
     27          1           0       -1.349704   -2.028661    1.853696
     28          6           0       -2.835492    0.112204   -1.014019
     29          1           0       -1.383448   -0.858570   -2.287535
     30          6           0       -3.350720    0.232454    0.273555
     31          1           0       -4.165362    0.920909    0.474056
     32          6           0        4.185688   -2.382985   -1.747893
     33          1           0        3.245576   -2.887667   -2.005411
     34          1           0        4.493036   -1.743419   -2.585719
     35          1           0        4.951935   -3.138398   -1.571707
     36          6           0        5.461814   -0.040791    1.727399
     37          1           0        6.435346    0.442391    1.827365
     38          1           0        4.994262   -0.113248    2.717902
     39          1           0        5.590809   -1.045209    1.313561
     40          6           0        3.049387    3.323738    1.988275
     41          1           0        2.915546    3.675082    3.012918
     42          1           0        4.117097    3.197443    1.780548
     43          1           0        2.623288    4.057397    1.292782
     44          6           0        0.779151    3.210215   -2.014610
     45          1           0        0.978775    4.192897   -2.445815
     46          1           0       -0.159145    2.815930   -2.426045
     47          1           0        1.592114    2.525359   -2.280878
     48          6           0       -3.411152   -0.450260    2.680591
     49          9           0       -2.514332   -0.763572    3.622534
     50          9           0       -4.444392   -1.291872    2.817249
     51          9           0       -3.867131    0.781848    2.937023
     52          6           0       -3.367215    0.997720   -2.107940
     53          9           0       -2.732073    2.183002   -2.119912
     54          9           0       -4.669341    1.253585   -1.944190
     55          9           0       -3.199497    0.447685   -3.314381
 ---------------------------------------------------------------------
 Rotational constants (GHZ):           0.1521793           0.0858152           0.0835224
 Leave Link  202 at Wed Jun  5 17:37:35 2019, MaxMem=  6442450944 cpu:               5.6 elap:               0.2
 (Enter /home/ekwan/sw/g16/l301.exe)
 Standard basis: 6-31G(d) (6D, 7F)
 Ernie: Thresh=  0.10000D-02 Tol=  0.10000D-05 Strict=F.
 There are   543 symmetry adapted cartesian basis functions of A   symmetry.
 There are   543 symmetry adapted basis functions of A   symmetry.
   543 basis functions,  1036 primitive gaussians,   543 cartesian basis functions
   132 alpha electrons      132 beta electrons
       nuclear repulsion energy      4366.7597553671 Hartrees.
 IExCor= 4336 DFT=T Ex+Corr=M062X ExCW=0 ScaHFX=  0.540000
 ScaDFX=  1.000000  1.000000  1.000000  1.000000 ScalE2=  1.000000  1.000000
 IRadAn=      5 IRanWt=     -1 IRanGd=            0 ICorTp=0 IEmpDi=  4
 NAtoms=   55 NActive=   55 NUniq=   55 SFac= 1.00D+00 NAtFMM=   60 NAOKFM=F Big=F
 Integral buffers will be    131072 words long.
 Raffenetti 2 integral format.
 Two-electron integral symmetry is turned on.
 ------------------------------------------------------------------------------
 Polarizable Continuum Model (PCM)
 =================================
 Model                : PCM.
 Atomic radii         : UFF (Universal Force Field).
 Polarization charges : Total charges.
 Charge compensation  : None.
 Solution method      : On-the-fly selection.
 Cavity type          : Scaled VdW (van der Waals Surface) (Alpha=1.100).
 Cavity algorithm     : GePol (No added spheres)
                        Default sphere list used, NSphG=   55.
                        Lebedev-Laikov grids with approx.  5.0 points / Ang**2.
                        Smoothing algorithm: York/Karplus (Gamma=1.0000).
                        Polarization charges: spherical gaussians, with
                                              point-specific exponents (IZeta= 3).
                        Self-potential: point-specific (ISelfS= 7).
                        Self-field    : sphere-specific E.n sum rule (ISelfD= 2).
 1st derivatives      : Analytical E(r).r(x)/FMM algorithm (CHGder, D1EAlg=3).
                        Cavity 1st derivative terms included.
 Solvent              : TetraHydroFuran, Eps=   7.425700 Eps(inf)=   1.974025
 ------------------------------------------------------------------------------
 GePol: Number of generator spheres                  =      55
 GePol: Total number of spheres                      =      55
 GePol: Number of exposed spheres                    =      55 (100.00%)
 GePol: Number of points                             =    3861
 GePol: Average weight of points                     =       0.13
 GePol: Minimum weight of points                     =   0.21D-08
 GePol: Maximum weight of points                     =    0.20577
 GePol: Number of points with low weight             =     256
 GePol: Fraction of low-weight points (<1% of avg)   =       6.63%
 GePol: Cavity surface area                          =    487.752 Ang**2
 GePol: Cavity volume                                =    571.816 Ang**3
 Leave Link  301 at Wed Jun  5 17:37:36 2019, MaxMem=  6442450944 cpu:               9.3 elap:               0.4
 (Enter /home/ekwan/sw/g16/l302.exe)
 NPDir=0 NMtPBC=     1 NCelOv=     1 NCel=       1 NClECP=     1 NCelD=      1
         NCelK=      1 NCelE2=     1 NClLst=     1 CellRange=     0.0.
 One-electron integrals computed using PRISM.
 One-electron integral symmetry used in STVInt
 NBasis=   543 RedAO= T EigKep=  4.10D-04  NBF=   543
 NBsUse=   543 1.00D-06 EigRej= -1.00D+00 NBFU=   543
 Precomputing XC quadrature grid using
 IXCGrd= 4 IRadAn=           5 IRanWt=          -1 IRanGd=           0 AccXCQ= 0.00D+00.
 Generated NRdTot=       0 NPtTot=           0 NUsed=           0 NTot=          32
 NSgBfM=   532   531   531   532   532 MxSgAt=    55 MxSgA2=    55.
 Leave Link  302 at Wed Jun  5 17:37:42 2019, MaxMem=  6442450944 cpu:             186.8 elap:               6.3
 (Enter /home/ekwan/sw/g16/l303.exe)
 DipDrv:  MaxL=1.
 Leave Link  303 at Wed Jun  5 17:37:42 2019, MaxMem=  6442450944 cpu:              10.6 elap:               0.4
 (Enter /home/ekwan/sw/g16/l401.exe)
 ExpMin= 1.17D-01 ExpMax= 2.19D+04 ExpMxC= 3.30D+03 IAcc=3 IRadAn=         5 AccDes= 0.00D+00
 Harris functional with IExCor= 1009 and IRadAn=       5 diagonalized for initial guess.
 HarFok:  IExCor= 1009 AccDes= 0.00D+00 IRadAn=         5 IDoV= 1 UseB2=F ITyADJ=14
 ICtDFT=  3500011 ScaDFX=  1.000000  1.000000  1.000000  1.000000
 FoFCou: FMM=F IPFlag=           0 FMFlag=      100000 FMFlg1=           0
         NFxFlg=           0 DoJE=T BraDBF=F KetDBF=T FulRan=T
         wScrn=  0.000000 ICntrl=       500 IOpCl=  0 I1Cent=   200000004 NGrid=           0
         NMat0=    1 NMatS0=      1 NMatT0=    0 NMatD0=    1 NMtDS0=    0 NMtDT0=    0
 Petite list used in FoFCou.
 Harris En= -2296.14470527176    
 JPrj=0 DoOrth=F DoCkMO=F.
 Leave Link  401 at Wed Jun  5 17:37:50 2019, MaxMem=  6442450944 cpu:             231.9 elap:               7.6
 (Enter /home/ekwan/sw/g16/l502.exe)
 Integral symmetry usage will be decided dynamically.
 Closed shell SCF:
 Using DIIS extrapolation, IDIIS=  1040.
 NGot=  6442450944 LenX=  6441838015 LenY=  6441542623
 Requested convergence on RMS density matrix=1.00D-08 within 128 cycles.
 Requested convergence on MAX density matrix=1.00D-06.
 Requested convergence on             energy=1.00D-06.
 No special actions if energy rises.
 Fock matrices will be formed incrementally for  20 cycles.

 Cycle   1  Pass 1  IDiag  1:
 FoFJK:  IHMeth= 1 ICntrl=       0 DoSepK=F KAlg= 0 I1Cent=           0 FoldK=F
 IRaf= 700000000 NMat=       1 IRICut=       1 DoRegI=T DoRafI=F ISym2E= 0 IDoP0=0 IntGTp=1.
 FoFCou: FMM=F IPFlag=           0 FMFlag=      100000 FMFlg1=           0
         NFxFlg=           0 DoJE=F BraDBF=F KetDBF=F FulRan=T
         wScrn=  0.000000 ICntrl=         0 IOpCl=  0 I1Cent=           0 NGrid=           0
         NMat0=    1 NMatS0=      1 NMatT0=    0 NMatD0=    1 NMtDS0=    0 NMtDT0=    0
 Symmetry not used in FoFCou.
 Inv3:  Mode=1 IEnd=    44721963.
 Iteration    1 A*A^-1 deviation from unit magnitude is 6.11D-15 for   3853.
 Iteration    1 A*A^-1 deviation from orthogonality  is 7.02D-15 for   3846   2651.
 Iteration    1 A^-1*A deviation from unit magnitude is 6.11D-15 for   3853.
 Iteration    1 A^-1*A deviation from orthogonality  is 1.29D-14 for   2961   2942.
 E= -2296.68869577417    
 DIIS: error= 2.63D-02 at cycle   1 NSaved=   1.
 NSaved= 1 IEnMin= 1 EnMin= -2296.68869577417     IErMin= 1 ErrMin= 2.63D-02
 ErrMax= 2.63D-02  0.00D+00 EMaxC= 1.00D-01 BMatC= 9.26D-01 BMatP= 9.26D-01
 IDIUse=3 WtCom= 7.37D-01 WtEn= 2.63D-01
 Coeff-Com:  0.100D+01
 Coeff-En:   0.100D+01
 Coeff:      0.100D+01
 Gap=     0.280 Goal=   None    Shift=    0.000
 GapD=    0.280 DampG=1.000 DampE=0.500 DampFc=0.5000 IDamp=-1.
 Damping current iteration by 5.00D-01
 RMSDP=2.92D-03 MaxDP=3.73D-01              OVMax= 1.47D-01

 Cycle   2  Pass 1  IDiag  1:
 RMSU=  1.46D-03    CP:  9.95D-01
 E= -2296.99749435612     Delta-E=       -0.308798581944 Rises=F Damp=T
 DIIS: error= 9.56D-03 at cycle   2 NSaved=   2.
 NSaved= 2 IEnMin= 2 EnMin= -2296.99749435612     IErMin= 2 ErrMin= 9.56D-03
 ErrMax= 9.56D-03  0.00D+00 EMaxC= 1.00D-01 BMatC= 8.41D-02 BMatP= 9.26D-01
 IDIUse=3 WtCom= 9.04D-01 WtEn= 9.56D-02
 Coeff-Com: -0.223D-01 0.102D+01
 Coeff-En:   0.219D-02 0.998D+00
 Coeff:     -0.200D-01 0.102D+01
 Gap=     0.302 Goal=   None    Shift=    0.000
 RMSDP=8.30D-04 MaxDP=9.47D-02 DE=-3.09D-01 OVMax= 1.03D-01

 Cycle   3  Pass 1  IDiag  1:
 RMSU=  8.14D-04    CP:  9.89D-01  9.11D-01
 E= -2297.32465061599     Delta-E=       -0.327156259871 Rises=F Damp=F
 DIIS: error= 6.64D-03 at cycle   3 NSaved=   3.
 NSaved= 3 IEnMin= 3 EnMin= -2297.32465061599     IErMin= 3 ErrMin= 6.64D-03
 ErrMax= 6.64D-03  0.00D+00 EMaxC= 1.00D-01 BMatC= 3.86D-02 BMatP= 8.41D-02
 IDIUse=3 WtCom= 9.34D-01 WtEn= 6.64D-02
 Coeff-Com: -0.938D-01 0.415D+00 0.679D+00
 Coeff-En:   0.000D+00 0.000D+00 0.100D+01
 Coeff:     -0.875D-01 0.388D+00 0.700D+00
 Gap=     0.272 Goal=   None    Shift=    0.000
 RMSDP=4.62D-04 MaxDP=4.51D-02 DE=-3.27D-01 OVMax= 4.21D-02

 Cycle   4  Pass 1  IDiag  1:
 RMSU=  2.93D-04    CP:  9.91D-01  1.04D+00  6.32D-01
 E= -2297.34825978754     Delta-E=       -0.023609171555 Rises=F Damp=F
 DIIS: error= 2.58D-03 at cycle   4 NSaved=   4.
 NSaved= 4 IEnMin= 4 EnMin= -2297.34825978754     IErMin= 4 ErrMin= 2.58D-03
 ErrMax= 2.58D-03  0.00D+00 EMaxC= 1.00D-01 BMatC= 7.92D-03 BMatP= 3.86D-02
 IDIUse=3 WtCom= 9.74D-01 WtEn= 2.58D-02
 Coeff-Com: -0.409D-01 0.101D+00 0.364D+00 0.575D+00
 Coeff-En:   0.000D+00 0.000D+00 0.153D+00 0.847D+00
 Coeff:     -0.399D-01 0.986D-01 0.359D+00 0.582D+00
 Gap=     0.274 Goal=   None    Shift=    0.000
 RMSDP=1.73D-04 MaxDP=1.24D-02 DE=-2.36D-02 OVMax= 1.57D-02

 Cycle   5  Pass 1  IDiag  1:
 RMSU=  6.55D-05    CP:  9.91D-01  1.03D+00  7.51D-01  5.73D-01
 E= -2297.35457561420     Delta-E=       -0.006315826657 Rises=F Damp=F
 DIIS: error= 4.23D-04 at cycle   5 NSaved=   5.
 NSaved= 5 IEnMin= 5 EnMin= -2297.35457561420     IErMin= 5 ErrMin= 4.23D-04
 ErrMax= 4.23D-04  0.00D+00 EMaxC= 1.00D-01 BMatC= 2.85D-04 BMatP= 7.92D-03
 IDIUse=3 WtCom= 9.96D-01 WtEn= 4.23D-03
 Coeff-Com: -0.125D-01 0.243D-01 0.117D+00 0.253D+00 0.619D+00
 Coeff-En:   0.000D+00 0.000D+00 0.000D+00 0.000D+00 0.100D+01
 Coeff:     -0.125D-01 0.242D-01 0.116D+00 0.252D+00 0.620D+00
 Gap=     0.274 Goal=   None    Shift=    0.000
 RMSDP=3.15D-05 MaxDP=2.20D-03 DE=-6.32D-03 OVMax= 3.87D-03

 Cycle   6  Pass 1  IDiag  1:
 RMSU=  1.97D-05    CP:  9.90D-01  1.03D+00  7.53D-01  6.27D-01  7.36D-01
 E= -2297.35480257812     Delta-E=       -0.000226963916 Rises=F Damp=F
 DIIS: error= 1.54D-04 at cycle   6 NSaved=   6.
 NSaved= 6 IEnMin= 6 EnMin= -2297.35480257812     IErMin= 6 ErrMin= 1.54D-04
 ErrMax= 1.54D-04  0.00D+00 EMaxC= 1.00D-01 BMatC= 1.72D-05 BMatP= 2.85D-04
 IDIUse=3 WtCom= 9.98D-01 WtEn= 1.54D-03
 Coeff-Com: -0.171D-02 0.167D-02 0.140D-01 0.495D-01 0.242D+00 0.695D+00
 Coeff-En:   0.000D+00 0.000D+00 0.000D+00 0.000D+00 0.000D+00 0.100D+01
 Coeff:     -0.171D-02 0.167D-02 0.140D-01 0.494D-01 0.241D+00 0.695D+00
 Gap=     0.274 Goal=   None    Shift=    0.000
 RMSDP=8.68D-06 MaxDP=4.67D-04 DE=-2.27D-04 OVMax= 1.26D-03

 Cycle   7  Pass 1  IDiag  1:
 RMSU=  6.33D-06    CP:  9.90D-01  1.03D+00  7.54D-01  6.33D-01  7.87D-01
                    CP:  7.77D-01
 E= -2297.35481760731     Delta-E=       -0.000015029189 Rises=F Damp=F
 DIIS: error= 2.42D-05 at cycle   7 NSaved=   7.
 NSaved= 7 IEnMin= 7 EnMin= -2297.35481760731     IErMin= 7 ErrMin= 2.42D-05
 ErrMax= 2.42D-05  0.00D+00 EMaxC= 1.00D-01 BMatC= 9.22D-07 BMatP= 1.72D-05
 IDIUse=1 WtCom= 1.00D+00 WtEn= 0.00D+00
 Coeff-Com:  0.707D-03-0.192D-02-0.836D-02-0.110D-01 0.865D-02 0.179D+00
 Coeff-Com:  0.833D+00
 Coeff:      0.707D-03-0.192D-02-0.836D-02-0.110D-01 0.865D-02 0.179D+00
 Coeff:      0.833D+00
 Gap=     0.274 Goal=   None    Shift=    0.000
 RMSDP=2.99D-06 MaxDP=2.02D-04 DE=-1.50D-05 OVMax= 4.60D-04

 Cycle   8  Pass 1  IDiag  1:
 RMSU=  1.89D-06    CP:  9.90D-01  1.03D+00  7.55D-01  6.35D-01  8.05D-01
                    CP:  8.66D-01  9.39D-01
 E= -2297.35481860334     Delta-E=       -0.000000996036 Rises=F Damp=F
 DIIS: error= 1.29D-05 at cycle   8 NSaved=   8.
 NSaved= 8 IEnMin= 8 EnMin= -2297.35481860334     IErMin= 8 ErrMin= 1.29D-05
 ErrMax= 1.29D-05  0.00D+00 EMaxC= 1.00D-01 BMatC= 1.55D-07 BMatP= 9.22D-07
 IDIUse=1 WtCom= 1.00D+00 WtEn= 0.00D+00
 Coeff-Com:  0.399D-03-0.805D-03-0.446D-02-0.871D-02-0.181D-01 0.930D-02
 Coeff-Com:  0.343D+00 0.679D+00
 Coeff:      0.399D-03-0.805D-03-0.446D-02-0.871D-02-0.181D-01 0.930D-02
 Coeff:      0.343D+00 0.679D+00
 Gap=     0.274 Goal=   None    Shift=    0.000
 RMSDP=9.21D-07 MaxDP=4.71D-05 DE=-9.96D-07 OVMax= 1.19D-04

 Cycle   9  Pass 1  IDiag  1:
 RMSU=  5.67D-07    CP:  9.90D-01  1.03D+00  7.55D-01  6.35D-01  8.08D-01
                    CP:  8.72D-01  1.03D+00  8.13D-01
 E= -2297.35481875465     Delta-E=       -0.000000151313 Rises=F Damp=F
 DIIS: error= 4.39D-06 at cycle   9 NSaved=   9.
 NSaved= 9 IEnMin= 9 EnMin= -2297.35481875465     IErMin= 9 ErrMin= 4.39D-06
 ErrMax= 4.39D-06  0.00D+00 EMaxC= 1.00D-01 BMatC= 1.34D-08 BMatP= 1.55D-07
 IDIUse=1 WtCom= 1.00D+00 WtEn= 0.00D+00
 Coeff-Com:  0.859D-04-0.126D-03-0.930D-03-0.235D-02-0.826D-02-0.118D-01
 Coeff-Com:  0.580D-01 0.252D+00 0.713D+00
 Coeff:      0.859D-04-0.126D-03-0.930D-03-0.235D-02-0.826D-02-0.118D-01
 Coeff:      0.580D-01 0.252D+00 0.713D+00
 Gap=     0.274 Goal=   None    Shift=    0.000
 RMSDP=3.13D-07 MaxDP=1.93D-05 DE=-1.51D-07 OVMax= 4.03D-05

 Cycle  10  Pass 1  IDiag  1:
 RMSU=  2.34D-07    CP:  9.90D-01  1.03D+00  7.55D-01  6.35D-01  8.08D-01
                    CP:  8.75D-01  1.05D+00  8.77D-01  8.73D-01
 E= -2297.35481876722     Delta-E=       -0.000000012565 Rises=F Damp=F
 DIIS: error= 1.46D-06 at cycle  10 NSaved=  10.
 NSaved=10 IEnMin=10 EnMin= -2297.35481876722     IErMin=10 ErrMin= 1.46D-06
 ErrMax= 1.46D-06  0.00D+00 EMaxC= 1.00D-01 BMatC= 2.59D-09 BMatP= 1.34D-08
 IDIUse=1 WtCom= 1.00D+00 WtEn= 0.00D+00
 Coeff-Com: -0.206D-04 0.580D-04 0.273D-03 0.310D-03-0.102D-02-0.627D-02
 Coeff-Com: -0.289D-01-0.250D-02 0.313D+00 0.725D+00
 Coeff:     -0.206D-04 0.580D-04 0.273D-03 0.310D-03-0.102D-02-0.627D-02
 Coeff:     -0.289D-01-0.250D-02 0.313D+00 0.725D+00
 Gap=     0.274 Goal=   None    Shift=    0.000
 RMSDP=1.36D-07 MaxDP=9.41D-06 DE=-1.26D-08 OVMax= 2.45D-05

 Cycle  11  Pass 1  IDiag  1:
 RMSU=  7.96D-08    CP:  9.90D-01  1.03D+00  7.55D-01  6.35D-01  8.08D-01
                    CP:  8.77D-01  1.05D+00  9.00D-01  1.01D+00  8.25D-01
 E= -2297.35481876986     Delta-E=       -0.000000002641 Rises=F Damp=F
 DIIS: error= 6.99D-07 at cycle  11 NSaved=  11.
 NSaved=11 IEnMin=11 EnMin= -2297.35481876986     IErMin=11 ErrMin= 6.99D-07
 ErrMax= 6.99D-07  0.00D+00 EMaxC= 1.00D-01 BMatC= 2.87D-10 BMatP= 2.59D-09
 IDIUse=1 WtCom= 1.00D+00 WtEn= 0.00D+00
 Coeff-Com: -0.161D-04 0.339D-04 0.210D-03 0.382D-03 0.448D-03-0.107D-02
 Coeff-Com: -0.178D-01-0.303D-01 0.470D-01 0.299D+00 0.703D+00
 Coeff:     -0.161D-04 0.339D-04 0.210D-03 0.382D-03 0.448D-03-0.107D-02
 Coeff:     -0.178D-01-0.303D-01 0.470D-01 0.299D+00 0.703D+00
 Gap=     0.274 Goal=   None    Shift=    0.000
 RMSDP=4.37D-08 MaxDP=2.84D-06 DE=-2.64D-09 OVMax= 7.41D-06

 Cycle  12  Pass 1  IDiag  1:
 RMSU=  3.12D-08    CP:  9.90D-01  1.03D+00  7.55D-01  6.35D-01  8.08D-01
                    CP:  8.77D-01  1.06D+00  9.05D-01  1.02D+00  9.17D-01
                    CP:  8.49D-01
 E= -2297.35481877009     Delta-E=       -0.000000000233 Rises=F Damp=F
 DIIS: error= 1.94D-07 at cycle  12 NSaved=  12.
 NSaved=12 IEnMin=12 EnMin= -2297.35481877009     IErMin=12 ErrMin= 1.94D-07
 ErrMax= 1.94D-07  0.00D+00 EMaxC= 1.00D-01 BMatC= 4.05D-11 BMatP= 2.87D-10
 IDIUse=1 WtCom= 1.00D+00 WtEn= 0.00D+00
 Coeff-Com: -0.337D-05 0.573D-05 0.513D-04 0.114D-03 0.296D-03 0.418D-03
 Coeff-Com: -0.336D-02-0.121D-01-0.215D-01 0.271D-01 0.305D+00 0.704D+00
 Coeff:     -0.337D-05 0.573D-05 0.513D-04 0.114D-03 0.296D-03 0.418D-03
 Coeff:     -0.336D-02-0.121D-01-0.215D-01 0.271D-01 0.305D+00 0.704D+00
 Gap=     0.274 Goal=   None    Shift=    0.000
 RMSDP=1.52D-08 MaxDP=7.98D-07 DE=-2.33D-10 OVMax= 2.78D-06

 Cycle  13  Pass 1  IDiag  1:
 RMSU=  8.88D-09    CP:  9.90D-01  1.03D+00  7.55D-01  6.35D-01  8.08D-01
                    CP:  8.77D-01  1.06D+00  9.05D-01  1.03D+00  9.36D-01
                    CP:  9.50D-01  8.20D-01
 E= -2297.35481877016     Delta-E=       -0.000000000072 Rises=F Damp=F
 DIIS: error= 3.27D-08 at cycle  13 NSaved=  13.
 NSaved=13 IEnMin=13 EnMin= -2297.35481877016     IErMin=13 ErrMin= 3.27D-08
 ErrMax= 3.27D-08  0.00D+00 EMaxC= 1.00D-01 BMatC= 3.18D-12 BMatP= 4.05D-11
 IDIUse=1 WtCom= 1.00D+00 WtEn= 0.00D+00
 Coeff-Com:  0.600D-06-0.169D-05-0.226D-05 0.173D-05 0.623D-04 0.274D-03
 Coeff-Com:  0.551D-03-0.117D-02-0.123D-01-0.236D-01 0.314D-01 0.251D+00
 Coeff-Com:  0.754D+00
 Coeff:      0.600D-06-0.169D-05-0.226D-05 0.173D-05 0.623D-04 0.274D-03
 Coeff:      0.551D-03-0.117D-02-0.123D-01-0.236D-01 0.314D-01 0.251D+00
 Coeff:      0.754D+00
 Gap=     0.274 Goal=   None    Shift=    0.000
 RMSDP=4.77D-09 MaxDP=2.33D-07 DE=-7.19D-11 OVMax= 7.08D-07

 Error on total polarization charges =  0.00880
 SCF Done:  E(RM062X) =  -2297.35481877     A.U. after   13 cycles
            NFock= 13  Conv=0.48D-08     -V/T= 2.0069
 KE= 2.281652590133D+03 PE=-1.413873303947D+04 EE= 5.192965875198D+03
 Leave Link  502 at Wed Jun  5 17:43:33 2019, MaxMem=  6442450944 cpu:           10395.2 elap:             343.4
 (Enter /home/ekwan/sw/g16/l701.exe)
 ... and contract with generalized density number  0.
 Compute integral first derivatives.
 D1PCM: PCM CHGder 1st derivatives, ID1Alg=3 FixD1E=F DoIter=F DoCFld=F I1PDM=0.
 GePol: Maximum number of non-zero 1st derivatives   =     218
 Leave Link  701 at Wed Jun  5 17:43:47 2019, MaxMem=  6442450944 cpu:             377.2 elap:              13.1
 (Enter /home/ekwan/sw/g16/l702.exe)
 L702 exits ... SP integral derivatives will be done elsewhere.
 Leave Link  702 at Wed Jun  5 17:43:47 2019, MaxMem=  6442450944 cpu:               2.6 elap:               0.1
 (Enter /home/ekwan/sw/g16/l703.exe)
 Integral derivatives from FoFJK, PRISM(SPDF).
 Compute integral first derivatives, UseDBF=F ICtDFT=           0.
 Calling FoFJK, ICntrl=      2127 FMM=F ISym2X=0 I1Cent= 0 IOpClX= 0 NMat=1 NMatS=1 NMatT=0.
 FoFJK:  IHMeth= 1 ICntrl=    2127 DoSepK=F KAlg= 0 I1Cent=           0 FoldK=F
 IRaf=         0 NMat=       1 IRICut=       1 DoRegI=T DoRafI=F ISym2E= 0 IDoP0=0 IntGTp=1.
 FoFCou: FMM=F IPFlag=           0 FMFlag=      100000 FMFlg1=         800
         NFxFlg=           0 DoJE=F BraDBF=F KetDBF=F FulRan=T
         wScrn=  0.000000 ICntrl=      2127 IOpCl=  0 I1Cent=           0 NGrid=           0
         NMat0=    1 NMatS0=      1 NMatT0=    0 NMatD0=    1 NMtDS0=    0 NMtDT0=    0
 Symmetry not used in FoFCou.
 Leave Link  703 at Wed Jun  5 17:44:26 2019, MaxMem=  6442450944 cpu:            1129.4 elap:              38.9
 (Enter /home/ekwan/sw/g16/l716.exe)
 Dipole        = 2.99269869D-01 1.03104791D+00-6.10815605D-01
 ***** Axes restored to original set *****
 -------------------------------------------------------------------
 Center     Atomic                   Forces (Hartrees/Bohr)
 Number     Number              X              Y              Z
 -------------------------------------------------------------------
      1        6          -0.000004118    0.000009320    0.000008510
      2        6           0.000005670   -0.000002318    0.000000729
      3        6          -0.000003740    0.000004232   -0.000003659
      4        6           0.000000915   -0.000002709   -0.000002376
      5        6          -0.000002184   -0.000001502   -0.000001960
      6        1           0.000004447    0.000000163    0.000000443
      7        1          -0.000000360    0.000001449   -0.000001148
      8        1           0.000000416   -0.000000225   -0.000001187
      9        1           0.000001824   -0.000001101    0.000000700
     10        1           0.000000404    0.000000699   -0.000001100
     11        8           0.000002440   -0.000002678    0.000002769
     12        8           0.000001882   -0.000009832    0.000001358
     13        8          -0.000003386    0.000004120   -0.000002104
     14        8           0.000003592   -0.000000529   -0.000003564
     15        8           0.000004791    0.000001313    0.000001981
     16        6           0.000002201    0.000011743    0.000000843
     17        1          -0.000004123    0.000000611   -0.000002087
     18        1          -0.000005928   -0.000004447   -0.000002923
     19        8          -0.000002558   -0.000004944    0.000000638
     20       16          -0.000000376   -0.000006465   -0.000000538
     21        8           0.000003863    0.000011660   -0.000008529
     22        8           0.000001615   -0.000004267    0.000014615
     23        6           0.000003752   -0.000003072   -0.000001467
     24        6          -0.000002235   -0.000000078    0.000001630
     25        6          -0.000003266   -0.000002707    0.000000340
     26        6           0.000002978   -0.000002748   -0.000003742
     27        1           0.000001688    0.000000179    0.000000821
     28        6           0.000003040   -0.000003560    0.000004511
     29        1           0.000001577   -0.000001788    0.000002723
     30        6           0.000002847    0.000001055   -0.000000638
     31        1          -0.000000061   -0.000004240   -0.000000051
     32        6           0.000003788    0.000005137    0.000002901
     33        1           0.000000886   -0.000000741    0.000000500
     34        1           0.000000537    0.000000164    0.000001325
     35        1           0.000000448    0.000000534    0.000001831
     36        6          -0.000003862    0.000007632    0.000000599
     37        1           0.000000395    0.000003523    0.000000013
     38        1           0.000001118    0.000002909    0.000000864
     39        1           0.000001754    0.000002175    0.000000417
     40        6          -0.000007303    0.000000824   -0.000005089
     41        1          -0.000001128    0.000001908   -0.000001238
     42        1           0.000000092    0.000002683   -0.000001033
     43        1          -0.000001377    0.000002109   -0.000001959
     44        6          -0.000001942    0.000001257   -0.000002208
     45        1          -0.000002680   -0.000001411   -0.000002748
     46        1          -0.000001803   -0.000001900   -0.000001632
     47        1          -0.000000544   -0.000000012   -0.000001208
     48        6          -0.000004796   -0.000001837    0.000009147
     49        9          -0.000000090   -0.000000262   -0.000001300
     50        9           0.000003385   -0.000000081    0.000000918
     51        9          -0.000000465   -0.000001560    0.000000321
     52        6          -0.000004011    0.000002218   -0.000006523
     53        9          -0.000002526   -0.000008206    0.000002177
     54        9           0.000002613   -0.000002057   -0.000000790
     55        9          -0.000000100   -0.000002339   -0.000000825
 -------------------------------------------------------------------
 Cartesian Forces:  Max     0.000014615 RMS     0.000003522
 Leave Link  716 at Wed Jun  5 17:44:26 2019, MaxMem=  6442450944 cpu:               2.1 elap:               0.1
 (Enter /home/ekwan/sw/g16/l103.exe)

 GradGradGradGradGradGradGradGradGradGradGradGradGradGradGradGradGradGrad
 Berny optimization.
 FormGI is forming the generalized inverse of G from B-inverse, IUseBI=4.
 GSVD:  received Info=                   1 from GESDD.
 Internal  Forces:  Max     0.000015822 RMS     0.000002748
 Search for a local minimum.
 Step number   1 out of a maximum of  291
 All quantities printed in internal units (Hartrees-Bohrs-Radians)
 RMS Force = .27483D-05 SwitMx=.10000D-02 MixMth= 2
 Mixed Optimization -- En-DIIS/RFO-DIIS
 Second derivative matrix not updated -- first step.
 ITU=  0
     Eigenvalues ---    0.00462   0.00608   0.00687   0.00690   0.00705
     Eigenvalues ---    0.00706   0.01052   0.01430   0.01467   0.01475
     Eigenvalues ---    0.01482   0.01487   0.01571   0.01574   0.01581
     Eigenvalues ---    0.01593   0.01639   0.01652   0.01683   0.02200
     Eigenvalues ---    0.02203   0.02211   0.02214   0.02224   0.02225
     Eigenvalues ---    0.02454   0.02967   0.03353   0.04516   0.04651
     Eigenvalues ---    0.04760   0.04873   0.04942   0.05250   0.05284
     Eigenvalues ---    0.05817   0.06036   0.06584   0.06998   0.07074
     Eigenvalues ---    0.07199   0.07798   0.09320   0.10080   0.10106
     Eigenvalues ---    0.10140   0.10200   0.10566   0.10585   0.10614
     Eigenvalues ---    0.10620   0.10702   0.10776   0.10860   0.10904
     Eigenvalues ---    0.10947   0.11003   0.11405   0.11816   0.11992
     Eigenvalues ---    0.14101   0.14803   0.16000   0.16000   0.16000
     Eigenvalues ---    0.16000   0.16000   0.16000   0.16000   0.16000
     Eigenvalues ---    0.16000   0.16000   0.16000   0.16000   0.16000
     Eigenvalues ---    0.16000   0.16000   0.16432   0.16900   0.17414
     Eigenvalues ---    0.18635   0.19603   0.19782   0.20782   0.22148
     Eigenvalues ---    0.23479   0.23487   0.23503   0.24953   0.24976
     Eigenvalues ---    0.24995   0.25000   0.25000   0.25000   0.25000
     Eigenvalues ---    0.25000   0.25000   0.25000   0.25000   0.25000
     Eigenvalues ---    0.25000   0.25000   0.25000   0.27369   0.28094
     Eigenvalues ---    0.28904   0.29265   0.29421   0.30081   0.31786
     Eigenvalues ---    0.31909   0.33333   0.33633   0.33651   0.33702
     Eigenvalues ---    0.33771   0.33912   0.33928   0.33937   0.33944
     Eigenvalues ---    0.34010   0.34148   0.34237   0.34359   0.34510
     Eigenvalues ---    0.34636   0.34646   0.34648   0.34655   0.34774
     Eigenvalues ---    0.35339   0.35365   0.35408   0.38464   0.38746
     Eigenvalues ---    0.42916   0.42922   0.43007   0.43053   0.43095
     Eigenvalues ---    0.43151   0.44137   0.44176   0.44410   0.45515
     Eigenvalues ---    0.46234   0.47047   0.47199   0.47242   0.47366
     Eigenvalues ---    0.48878   0.56146   0.57291   0.57527   0.57701
     Eigenvalues ---    0.57862   0.58002   0.95695   0.98279
 RFO step:  Lambda=-4.60637821D-08 EMin= 4.61974020D-03
 Linear search not attempted -- first point.
 Iteration  1 RMS(Cart)=  0.00157191 RMS(Int)=  0.00000024
 Iteration  2 RMS(Cart)=  0.00000062 RMS(Int)=  0.00000000
 ITry= 1 IFail=0 DXMaxC= 7.08D-03 DCOld= 1.00D+10 DXMaxT= 3.00D-01 DXLimC= 3.00D+00 Rises=F
 Variable       Old X    -DE/DX   Delta X   Delta X   Delta X     New X
                                 (Linear)    (Quad)   (Total)
    R1        2.88485   0.00000   0.00000   0.00002   0.00002   2.88487
    R2        2.87819   0.00000   0.00000  -0.00001  -0.00001   2.87818
    R3        2.07953   0.00000   0.00000   0.00000   0.00000   2.07953
    R4        2.66291   0.00000   0.00000   0.00000   0.00000   2.66291
    R5        2.90018   0.00000   0.00000   0.00001   0.00001   2.90019
    R6        2.08471   0.00000   0.00000   0.00000   0.00000   2.08472
    R7        2.64683  -0.00001   0.00000  -0.00001  -0.00001   2.64681
    R8        2.06239   0.00000   0.00000   0.00000   0.00000   2.06239
    R9        2.61748   0.00000   0.00000  -0.00001  -0.00001   2.61748
   R10        2.73696   0.00001   0.00000   0.00002   0.00002   2.73697
   R11        2.88509   0.00000   0.00000   0.00000   0.00000   2.88509
   R12        2.07922   0.00000   0.00000   0.00000   0.00000   2.07923
   R13        2.71309   0.00000   0.00000  -0.00001  -0.00001   2.71308
   R14        2.87801   0.00001   0.00000   0.00003   0.00003   2.87804
   R15        2.07718   0.00000   0.00000   0.00000   0.00000   2.07718
   R16        2.66244   0.00000   0.00000   0.00000   0.00000   2.66244
   R17        3.04715   0.00000   0.00000  -0.00001  -0.00001   3.04714
   R18        2.67484   0.00000   0.00000   0.00000   0.00000   2.67483
   R19        2.67662   0.00000   0.00000   0.00000   0.00000   2.67661
   R20        2.67774   0.00000   0.00000  -0.00001  -0.00001   2.67773
   R21        2.06478   0.00000   0.00000   0.00000   0.00000   2.06478
   R22        2.07836   0.00001   0.00000   0.00002   0.00002   2.07838
   R23        2.65967   0.00000   0.00000  -0.00001  -0.00001   2.65966
   R24        2.67553   0.00000   0.00000   0.00000   0.00000   2.67553
   R25        2.73036  -0.00002   0.00000  -0.00002  -0.00002   2.73034
   R26        2.74114  -0.00001   0.00000  -0.00001  -0.00001   2.74113
   R27        3.35632   0.00000   0.00000   0.00000   0.00000   3.35633
   R28        2.62614   0.00000   0.00000   0.00000   0.00000   2.62615
   R29        2.62593   0.00000   0.00000   0.00000   0.00000   2.62593
   R30        2.62920   0.00000   0.00000   0.00000   0.00000   2.62920
   R31        2.05128   0.00000   0.00000   0.00000   0.00000   2.05128
   R32        2.62670   0.00000   0.00000   0.00000   0.00000   2.62670
   R33        2.05018   0.00000   0.00000   0.00000   0.00000   2.05017
   R34        2.62883   0.00000   0.00000   0.00000   0.00000   2.62883
   R35        2.84537   0.00001   0.00000   0.00003   0.00003   2.84540
   R36        2.63057   0.00000   0.00000   0.00000   0.00000   2.63057
   R37        2.84310   0.00001   0.00000   0.00002   0.00002   2.84312
   R38        2.05086   0.00000   0.00000   0.00000   0.00000   2.05086
   R39        2.07425   0.00000   0.00000   0.00000   0.00000   2.07426
   R40        2.07480   0.00000   0.00000   0.00000   0.00000   2.07479
   R41        2.06043   0.00000   0.00000   0.00000   0.00000   2.06043
   R42        2.06251   0.00000   0.00000   0.00000   0.00000   2.06251
   R43        2.07436   0.00000   0.00000   0.00000   0.00000   2.07436
   R44        2.06729   0.00000   0.00000   0.00000   0.00000   2.06730
   R45        2.06253   0.00000   0.00000   0.00000   0.00000   2.06253
   R46        2.06932   0.00000   0.00000   0.00000   0.00000   2.06932
   R47        2.07313   0.00000   0.00000   0.00000   0.00000   2.07313
   R48        2.06270   0.00000   0.00000   0.00000   0.00000   2.06270
   R49        2.07452   0.00000   0.00000   0.00000   0.00000   2.07452
   R50        2.07081   0.00000   0.00000   0.00000   0.00000   2.07081
   R51        2.52807   0.00000   0.00000   0.00000   0.00000   2.52807
   R52        2.53151   0.00000   0.00000   0.00000   0.00000   2.53150
   R53        2.52953   0.00000   0.00000   0.00000   0.00000   2.52953
   R54        2.54127  -0.00001   0.00000  -0.00001  -0.00001   2.54126
   R55        2.52674   0.00000   0.00000   0.00000   0.00000   2.52673
   R56        2.52557   0.00000   0.00000   0.00000   0.00000   2.52557
    A1        1.92493   0.00000   0.00000   0.00000   0.00000   1.92493
    A2        1.90158   0.00000   0.00000  -0.00001  -0.00001   1.90157
    A3        1.93038   0.00000   0.00000  -0.00001  -0.00001   1.93037
    A4        1.89520   0.00000   0.00000   0.00001   0.00001   1.89521
    A5        1.88171   0.00000   0.00000   0.00000   0.00000   1.88171
    A6        1.92978   0.00000   0.00000   0.00001   0.00001   1.92979
    A7        1.93677   0.00000   0.00000   0.00001   0.00001   1.93678
    A8        1.89091   0.00000   0.00000  -0.00001  -0.00001   1.89090
    A9        1.88826   0.00000   0.00000   0.00001   0.00001   1.88828
   A10        1.85214   0.00000   0.00000  -0.00001  -0.00001   1.85213
   A11        1.96300   0.00000   0.00000  -0.00002  -0.00002   1.96299
   A12        1.93183   0.00000   0.00000   0.00001   0.00001   1.93184
   A13        1.95787   0.00000   0.00000   0.00000   0.00000   1.95786
   A14        1.97265   0.00000   0.00000   0.00000   0.00000   1.97266
   A15        1.84529   0.00000   0.00000   0.00002   0.00002   1.84531
   A16        1.85658   0.00000   0.00000  -0.00002  -0.00002   1.85656
   A17        1.89197   0.00000   0.00000   0.00000   0.00000   1.89197
   A18        1.93946   0.00000   0.00000   0.00000   0.00000   1.93946
   A19        1.90234   0.00000   0.00000  -0.00001  -0.00001   1.90233
   A20        1.92585   0.00000   0.00000  -0.00003  -0.00003   1.92582
   A21        1.95138   0.00001   0.00000   0.00004   0.00004   1.95143
   A22        1.90247   0.00000   0.00000   0.00000   0.00000   1.90247
   A23        1.88526   0.00000   0.00000   0.00001   0.00001   1.88527
   A24        1.89557   0.00000   0.00000  -0.00001  -0.00001   1.89556
   A25        1.94015   0.00000   0.00000  -0.00001  -0.00001   1.94013
   A26        1.89845   0.00000   0.00000   0.00000   0.00000   1.89845
   A27        1.92120   0.00000   0.00000  -0.00001  -0.00001   1.92119
   A28        1.89433   0.00000   0.00000   0.00001   0.00001   1.89434
   A29        1.87709   0.00000   0.00000   0.00002   0.00002   1.87711
   A30        1.93269   0.00000   0.00000   0.00000   0.00000   1.93268
   A31        2.00689   0.00000   0.00000   0.00003   0.00003   2.00692
   A32        2.05917  -0.00001   0.00000  -0.00004  -0.00004   2.05913
   A33        1.99385   0.00000   0.00000   0.00000   0.00000   1.99385
   A34        1.99373   0.00000   0.00000   0.00000   0.00000   1.99373
   A35        1.98297   0.00000   0.00000  -0.00002  -0.00002   1.98295
   A36        1.87852   0.00000   0.00000   0.00002   0.00002   1.87854
   A37        1.90226   0.00000   0.00000  -0.00003  -0.00003   1.90223
   A38        1.99583   0.00000   0.00000   0.00002   0.00002   1.99585
   A39        1.90030   0.00000   0.00000  -0.00002  -0.00002   1.90028
   A40        1.85357   0.00000   0.00000   0.00001   0.00001   1.85358
   A41        1.93026   0.00000   0.00000   0.00000   0.00000   1.93026
   A42        1.99278   0.00000   0.00000   0.00002   0.00002   1.99280
   A43        1.82702   0.00000   0.00000   0.00001   0.00001   1.82703
   A44        1.89236   0.00000   0.00000   0.00001   0.00001   1.89237
   A45        1.80350  -0.00001   0.00000  -0.00006  -0.00006   1.80344
   A46        2.12320   0.00000   0.00000  -0.00001  -0.00001   2.12319
   A47        1.89700   0.00000   0.00000   0.00000   0.00000   1.89700
   A48        1.89423   0.00001   0.00000   0.00004   0.00004   1.89427
   A49        2.07101   0.00000   0.00000  -0.00001  -0.00001   2.07100
   A50        2.07708   0.00000   0.00000   0.00002   0.00002   2.07710
   A51        2.13491   0.00000   0.00000  -0.00001  -0.00001   2.13490
   A52        2.06393   0.00000   0.00000   0.00001   0.00001   2.06394
   A53        2.10500   0.00000   0.00000  -0.00001  -0.00001   2.10499
   A54        2.11425   0.00000   0.00000   0.00000   0.00000   2.11425
   A55        2.06260   0.00000   0.00000   0.00000   0.00000   2.06261
   A56        2.10477   0.00000   0.00000  -0.00001  -0.00001   2.10477
   A57        2.11581   0.00000   0.00000   0.00001   0.00001   2.11581
   A58        2.10845   0.00000   0.00000  -0.00001  -0.00001   2.10845
   A59        2.08868   0.00000   0.00000   0.00000   0.00000   2.08867
   A60        2.08522   0.00000   0.00000   0.00001   0.00001   2.08523
   A61        2.11055   0.00000   0.00000   0.00000   0.00000   2.11055
   A62        2.08713   0.00000   0.00000   0.00000   0.00000   2.08713
   A63        2.08390   0.00000   0.00000   0.00000   0.00000   2.08389
   A64        2.08591   0.00000   0.00000   0.00000   0.00000   2.08591
   A65        2.09882   0.00000   0.00000  -0.00001  -0.00001   2.09882
   A66        2.09845   0.00000   0.00000   0.00000   0.00000   2.09846
   A67        1.94821   0.00000   0.00000   0.00000   0.00000   1.94821
   A68        1.93880   0.00000   0.00000   0.00000   0.00000   1.93880
   A69        1.86505   0.00000   0.00000   0.00000   0.00000   1.86505
   A70        1.90558   0.00000   0.00000   0.00000   0.00000   1.90557
   A71        1.89786   0.00000   0.00000  -0.00001  -0.00001   1.89785
   A72        1.90727   0.00000   0.00000   0.00001   0.00001   1.90728
   A73        1.86265   0.00000   0.00000   0.00000   0.00000   1.86265
   A74        1.93180   0.00000   0.00000   0.00001   0.00001   1.93181
   A75        1.94367   0.00000   0.00000   0.00000   0.00000   1.94367
   A76        1.90340   0.00000   0.00000  -0.00001  -0.00001   1.90339
   A77        1.91340   0.00000   0.00000  -0.00001  -0.00001   1.91339
   A78        1.90813   0.00000   0.00000   0.00000   0.00000   1.90812
   A79        1.86496   0.00000   0.00000  -0.00001  -0.00001   1.86495
   A80        1.93448   0.00000   0.00000   0.00000   0.00000   1.93448
   A81        1.92906   0.00000   0.00000   0.00001   0.00001   1.92907
   A82        1.91217   0.00000   0.00000  -0.00001  -0.00001   1.91216
   A83        1.90949   0.00000   0.00000   0.00000   0.00000   1.90950
   A84        1.91302   0.00000   0.00000   0.00000   0.00000   1.91301
   A85        1.86584   0.00000   0.00000   0.00001   0.00001   1.86584
   A86        1.93254   0.00000   0.00000   0.00000   0.00000   1.93254
   A87        1.95306   0.00000   0.00000   0.00000   0.00000   1.95306
   A88        1.90880   0.00000   0.00000  -0.00001  -0.00001   1.90879
   A89        1.90813   0.00000   0.00000   0.00000   0.00000   1.90813
   A90        1.89500   0.00000   0.00000   0.00000   0.00000   1.89500
   A91        1.94531   0.00000   0.00000  -0.00001  -0.00001   1.94530
   A92        1.94265   0.00000   0.00000   0.00000   0.00000   1.94265
   A93        1.94268   0.00000   0.00000   0.00001   0.00001   1.94269
   A94        1.87349   0.00000   0.00000   0.00000   0.00000   1.87348
   A95        1.88499   0.00000   0.00000   0.00000   0.00000   1.88499
   A96        1.87130   0.00000   0.00000   0.00000   0.00000   1.87130
   A97        1.93726  -0.00001   0.00000  -0.00004  -0.00004   1.93723
   A98        1.94740   0.00000   0.00000   0.00001   0.00001   1.94741
   A99        1.94956   0.00000   0.00000   0.00002   0.00002   1.94958
[...]
 0000588,-0.00000333,-0.00002493,0.00000971,-0.00015844,-0.00028049,-0.
 00001138,0.00000517,0.00003106,0.00001919,0.00004877,0.00002037,-0.000
 00686,-0.00000781,0.00001735,-0.00001316,0.00002597,0.00007819,0.00075
 510,0.00001954,0.00006792,-0.00008249,-0.00017590,0.00003981,0.0000744
 0,0.00003719,-0.00005520,-0.00002858,0.00194716,0.00056633,-0.00501342
 ,0.00003376,-0.00023242,0.00164212,-0.00130888,-0.00067042,0.00121133,
 -0.00065414,0.00048900,0.00141441,0.00667375,-0.02098937,0.62019101,0.
 00006335,-0.00014258,-0.00000097,0.00006881,-0.00002860,-0.00004686,0.
 00012147,-0.00058155,0.00014844,-0.00015322,-0.00064376,-0.00023449,0.
 00005850,0.00025946,0.00013795,-0.00001769,0.00002931,-0.00000508,0.00
 001328,0.00000805,-0.00000071,-0.00000878,0.00001074,-0.00000839,-0.00
 001381,0.00004688,-0.00003153,0.00004791,-0.00000817,0.00000750,-0.000
 21793,0.00046971,0.00004771,0.00033507,0.00037815,-0.00010693,-0.00008
 709,0.00011633,0.00002911,-0.00018400,0.00007581,-0.00007894,-0.000144
 04,-0.00004850,-0.00011110,0.00155699,0.00113436,0.00039588,-0.0002360
 9,-0.00002395,-0.00018559,-0.00163280,-0.00043765,-0.00063426,-0.00072
 409,-0.00065619,-0.00047633,-0.00054041,-0.00015223,0.00013637,0.00012
 665,-0.00004477,0.00000082,0.00012463,0.00003516,-0.00003296,0.0006733
 6,-0.00064171,0.00045448,0.00031371,-0.00020803,-0.00048489,-0.0006360
 8,-0.00087754,0.00108703,-0.00051995,0.00017857,-0.00024106,0.00001468
 ,-0.00002179,0.00001019,0.00985271,-0.00098167,-0.00229029,-0.00013562
 ,-0.00012987,0.00001423,0.00008871,0.00088790,0.00061379,-0.00005161,0
 .00013201,-0.00040731,0.00000360,-0.00003278,-0.00004869,0.00000294,-0
 .00000076,0.00000987,0.00000577,0.00000227,0.00000562,-0.00000837,0.00
 000904,0.00000337,0.00003813,-0.00005741,0.00007332,-0.00001496,0.0000
 0423,-0.00000995,0.00000211,0.00000625,-0.00001134,-0.00000528,0.00001
 387,-0.00000562,0.00008441,0.00009063,0.00004680,-0.00000681,-0.000013
 00,-0.00002272,-0.00002441,-0.00000927,-0.00000131,0.00001383,0.000024
 66,0.00000881,0.00121077,0.00052679,0.00095938,-0.00023856,-0.00015181
 ,-0.00003596,-0.00115733,-0.00010793,-0.00041931,-0.00034316,-0.000108
 05,-0.00005932,-0.00018776,-0.00009441,-0.00010567,0.00007262,0.000014
 45,0.00004083,0.00002951,0.00001801,0.00002760,0.00003031,0.00002203,0
 .00003704,-0.10881407,-0.07836430,0.00651863,0.15802058,-0.00002853,-0
 .00018250,-0.00007771,-0.00011650,0.00001434,-0.00006775,-0.00028775,-
 0.00087974,0.00054770,-0.00025935,-0.00088087,-0.00031253,-0.00000526,
 0.00016621,0.00002031,-0.00004089,0.00005220,-0.00002066,0.00007123,0.
 00002316,0.00000091,-0.00001660,0.00001937,-0.00002464,-0.00009249,0.0
 0003996,-0.00010323,0.00008883,0.00000905,0.00001624,0.00023431,0.0008
 4258,0.00008587,0.00144241,0.00064190,-0.00027156,0.00006948,0.0000632
 3,-0.00000325,-0.00002128,0.00010699,0.00000042,-0.00006104,0.00013283
 ,0.00001090,0.00114680,0.00062103,0.00063854,-0.00013865,0.00000919,-0
 .00012825,0.00035488,-0.00105970,0.00063338,-0.00048403,0.00000079,-0.
 00061480,-0.00315716,0.00161538,0.00066918,0.00075903,-0.00094195,0.00
 019256,0.00082347,-0.00055246,-0.00053897,0.00150654,0.00064076,0.0007
 9436,0.00004766,-0.00057199,0.00084198,-0.00145925,0.00021020,0.002423
 28,0.00172809,0.00060771,0.00164002,-0.00021924,-0.00009022,-0.0001141
 4,-0.01780733,-0.03862992,0.01041102,-0.00087547,-0.00059873,-0.000372
 01,0.00251963,-0.00254604,-0.00146444,-0.00093610,-0.00076196,-0.00016
 101,-0.00006572,-0.00002176,0.00001938,-0.00000019,0.00001778,0.000013
 62,0.00000975,0.00001197,-0.00000944,0.00000918,0.00000130,0.00000349,
 -0.00000330,-0.00002140,0.00002730,0.00000182,0.00000458,-0.00000265,0
 .00000192,-0.00000270,-0.00000510,-0.00000958,0.00000786,-0.00000263,0
 .00003190,-0.00004846,0.00005113,0.00000160,0.00000115,-0.00000821,-0.
 00001363,0.00000442,-0.00000572,0.00001782,0.00004015,-0.00000780,0.00
 113546,0.00071392,0.00110760,-0.00019421,-0.00011584,-0.00005120,0.000
 36300,-0.00026924,-0.00068946,-0.00045622,-0.00012642,-0.00009684,0.00
 132469,-0.00054344,-0.00227381,0.00001679,-0.00004883,0.00104882,-0.00
 059225,-0.00020274,0.00055235,-0.00035306,0.00052471,0.00061982,-0.080
 76255,-0.25321847,0.02051219,0.14512711,0.34206543,0.00005368,-0.00003
 944,0.00001927,0.00011020,-0.00003161,-0.00000581,0.00024628,0.0001572
 9,-0.00028346,-0.00002646,-0.00019597,-0.00018158,0.00004393,0.0001569
 1,0.00008312,-0.00000921,0.00001139,0.00001168,-0.00003987,-0.00001024
 ,0.00000105,0.00000504,-0.00000385,0.00001289,0.00004286,0.00001006,0.
 00005654,-0.00002248,-0.00001830,-0.00000323,-0.00026933,-0.00009145,0
 .00013197,-0.00072080,-0.00011237,0.00018354,-0.00009683,0.00005380,0.
 00005659,-0.00013251,0.00001218,-0.00004472,-0.00008585,-0.00008282,-0
 .00005168,0.00063471,0.00091373,-0.00004733,-0.00008175,-0.00003894,-0
 .00003697,-0.00135832,0.00000164,-0.00121687,-0.00029352,-0.00045729,0
 .00050059,0.00151004,-0.00120368,-0.00072157,-0.00037271,0.00056248,-0
 .00005531,-0.00037127,0.00033604,0.00044708,-0.00122160,-0.00010435,-0
 .00129168,-0.00073976,0.00079835,0.00006178,0.00213158,0.00005989,-0.0
 0185535,-0.00054274,-0.00087862,0.00033615,0.00009939,0.00002897,0.000
 09371,0.00755934,0.02904611,0.00416138,0.00015026,0.00060286,0.0000071
 3,-0.00094279,-0.00015521,0.00056356,0.00032848,0.00009216,0.00017003,
 0.00003717,-0.00001658,-0.00006992,0.00000666,-0.00000639,-0.00000252,
 -0.00000718,-0.00000902,0.00001274,-0.00000936,0.00000509,0.00000352,0
 .00002840,-0.00003115,0.00003327,-0.00001236,0.00000067,-0.00000682,-0
 .00000052,0.00000539,-0.00000241,-0.00000004,0.00000765,-0.00000348,0.
 00005047,0.00008856,0.00000638,-0.00000214,-0.00000989,-0.00000670,-0.
 00001530,-0.00000668,0.00000175,0.00000318,-0.00000441,0.00000425,-0.0
 0010983,-0.00008445,-0.00043821,0.00002938,-0.00000099,0.00005353,0.00
 021086,0.00001547,-0.00002493,0.00004229,0.00003084,0.00003899,-0.0005
 6431,0.00000650,0.00114161,0.00001132,0.00004449,-0.00042251,0.0003181
 9,0.00016218,-0.00028236,0.00016558,-0.00014165,-0.00030470,0.00692977
 ,0.02117685,-0.07676274,-0.00146325,0.00143757,0.07526965,0.00012185,-
 0.00002950,0.00007857,0.00021040,-0.00008126,0.00001125,0.00040272,0.0
 0001633,-0.00029195,0.00005869,-0.00000910,0.00006049,0.00009767,0.000
 16443,0.00018068,0.00001722,-0.00001111,0.00001215,-0.00004714,-0.0000
 0984,-0.00000621,0.00000069,0.00000039,0.00000749,0.00004831,0.0000337
 4,0.00003949,0.00000033,-0.00001437,-0.00000506,-0.00047818,-0.0000538
 2,-0.00006546,-0.00091634,-0.00008017,0.00008949,-0.00018901,0.0001245
 4,0.00003991,-0.00024375,0.00001742,-0.00012336,-0.00014664,-0.0001610
 2,-0.00017338,0.00073628,0.00052825,0.00023181,-0.00010665,-0.00003336
 ,-0.00010024,-0.00001567,-0.00012575,0.00016544,-0.00042020,-0.0003758
 5,-0.00013516,0.00220781,-0.00160889,-0.00065843,-0.00066096,0.0011360
 7,-0.00033446,-0.00056565,0.00059131,0.00047460,-0.00080934,0.00153698
 ,0.00101794,-0.00011142,-0.00002088,-0.00057941,-0.00070179,0.00182716
 ,-0.00667650,0.00027107,0.00080528,-0.00083994,0.00006604,-0.00015222,
 -0.00004306,-0.03500050,0.01256643,0.00228411,0.00034442,-0.00074981,0
 .00003823,-0.00112066,0.00094028,0.00355179,-0.00030001,-0.00059572,-0
 .00186147,0.00006422,-0.00003393,-0.00008464,0.00000557,-0.00001858,0.
 00000333,0.00000165,-0.00000490,0.00001506,-0.00002310,0.00001272,0.00
 000107,0.00006365,-0.00007060,0.00008855,-0.00002237,0.00000184,-0.000
 01189,0.00000184,0.00001123,-0.00001430,0.00000059,0.00001406,-0.00000
 478,0.00009082,0.00014610,0.00003007,-0.00000819,-0.00001926,-0.000024
 07,-0.00002370,-0.00001371,0.00000360,0.00000378,0.00000469,0.00001288
 ,0.00052752,0.00028268,0.00037223,-0.00011599,-0.00009740,-0.00000787,
 0.00008451,-0.00001480,-0.00025855,-0.00013050,-0.00003853,-0.00002978
 ,-0.00128071,0.00024802,0.00151367,0.00009136,0.00003301,-0.00058105,0
 .00059928,0.00022877,-0.00041004,0.00035887,-0.00034846,-0.00041527,-0
 .29493866,0.05949189,0.00201642,-0.06595596,-0.03303361,0.00698673,0.4
 2415007,-0.00004764,-0.00004501,-0.00004792,-0.00010343,0.00002796,-0.
 00002451,-0.00021607,-0.00029271,0.00027628,-0.00010265,-0.00026011,-0
 .00010173,-0.00003156,-0.00000538,-0.00005443,-0.00001712,0.00001701,-
 0.00001100,0.00003799,0.00001133,0.00000180,-0.00000553,0.00000576,-0.
 00001076,-0.00004697,0.00000308,-0.00004873,0.00002865,0.00000802,0.00
 000676,0.00020894,0.00027437,0.00004268,0.00072372,0.00023526,-0.00010
 549,0.00008119,-0.00001794,-0.00001510,0.00007126,0.00002783,0.0000381
 9,0.00002749,0.00009390,0.00005792,0.00012860,-0.00000144,0.00008596,-
 0.00001480,0.00001501,-0.00000739,0.00002397,-0.00021810,0.00013845,-0
 .00004154,0.00011567,-0.00016216,-0.00187146,0.00086266,0.00045479,0.0
 0056416,-0.00069345,0.00019655,0.00044250,-0.00033797,-0.00034870,0.00
 000090,-0.00172634,0.00011999,0.00063445,-0.00038380,0.00005034,0.0003
 2494,0.00011319,0.00373282,-0.00031036,-0.00016709,-0.00004206,-0.0000
 1514,0.00008193,-0.00000595,0.03096595,0.00021622,0.00065421,-0.000017
 68,0.00063774,-0.00005497,0.00064508,-0.00106412,-0.00031541,0.0002478
 4,-0.00019667,0.00087078,-0.00004200,0.00000273,0.00003352,-0.00000190
 ,0.00001121,0.00000379,0.00000317,0.00000594,-0.00000805,0.00000979,-0
 .00000351,0.00000056,-0.00002080,0.00001504,-0.00001901,0.00000781,0.0
 0000089,0.00000301,0.00000011,-0.00000447,0.00000270,-0.00000325,-0.00
 000196,0.00000086,-0.00001943,-0.00006315,0.00000648,0.00000322,0.0000
 0652,0.00000513,0.00000335,0.00000578,-0.00000285,0.00000419,0.0000112
 8,-0.00000682,0.00020294,0.00010049,0.00023830,-0.00002427,-0.00000207
 ,-0.00001500,0.00009460,-0.00003695,-0.00013126,-0.00009024,-0.0000244
 9,-0.00001936,0.00066579,-0.00022612,-0.00118194,-0.00001058,-0.000010
 16,0.00042909,-0.00031185,-0.00009811,0.00028989,-0.00021200,0.0002695
 9,0.00032337,0.05659089,-0.08915511,0.00266166,-0.05128160,0.00190703,
 0.00344160,-0.06481848,0.09135306,0.00004040,0.00001487,0.00002368,0.0
 0008152,-0.00002687,0.00001515,0.00018016,0.00022286,-0.00026857,0.000
 07911,0.00010751,0.00001004,0.00003013,0.00002070,0.00004185,-0.000000
 12,-0.00000100,0.00001050,-0.00003439,-0.00001033,-0.00000105,0.000004
 28,-0.00000426,0.00001072,0.00003523,0.00000177,0.00004415,-0.00001904
 ,-0.00000949,-0.00000352,-0.00016409,-0.00015784,0.00004576,-0.0006541
 0,-0.00015655,0.00014426,-0.00006739,0.00002963,0.00003701,-0.00006709
 ,-0.00000922,-0.00002367,-0.00003727,-0.00005560,-0.00003071,0.0000298
 9,0.00009422,-0.00004863,0.00001367,-0.00000789,0.00001170,0.00001821,
 0.00006272,-0.00004001,-0.00005229,-0.00009706,0.00017476,0.00155251,-
 0.00086000,-0.00067246,-0.00045545,0.00060902,-0.00011223,-0.00034922,
 0.00028468,0.00043528,-0.00084986,0.00155900,0.00017968,-0.00052317,0.
 00043925,-0.00011792,-0.00024775,0.00044831,-0.00397642,-0.00049244,0.
 00003865,0.00091069,-0.00004228,0.00003404,0.00006313,-0.02381565,0.00
 917239,0.00857105,-0.00035817,0.00007474,-0.00003682,-0.00081934,-0.00
 012357,-0.00218001,-0.00138178,0.00108893,-0.00041875,0.00003011,-0.00
 001066,-0.00004821,0.00000537,-0.00000579,-0.00000358,-0.00000595,-0.0
 0000725,0.00000898,-0.00000713,0.00000296,0.00000171,0.00001837,-0.000
 01551,0.00001385,-0.00000677,-0.00000064,-0.00000329,-0.00000082,0.000
 00329,-0.00000046,0.00000130,0.00000356,-0.00000127,0.00002279,0.00004
 542,-0.00000181,-0.00000033,-0.00000474,-0.00000184,-0.00000712,-0.000
 00294,0.00000156,0.00000025,-0.00000524,0.00000188,-0.00006789,-0.0000
 4569,-0.00016404,0.00000763,-0.00000509,0.00001340,0.00001378,0.000017
 80,0.00001919,0.00001798,0.00001526,0.00000834,-0.00040837,-0.00014485
 ,0.00116707,-0.00004700,0.00005830,-0.00040138,0.00028439,0.00015220,-
 0.00026766,0.00012926,-0.00010015,-0.00031786,0.00957177,0.00051596,-0
 .08079967,0.00820228,0.00232660,0.01195349,-0.04381267,0.00835578,0.08
 654141,0.00003352,-0.00000103,0.00002853,0.00006080,-0.00002468,0.0000
 0044,0.00012629,-0.00002111,-0.00003936,0.00000818,0.00003372,0.000066
 10,0.00002917,0.00003912,0.00004396,0.00001431,-0.00001039,0.00000061,
 -0.00000926,-0.00000084,-0.00000200,-0.00000017,-0.00000002,0.00000014
 ,0.00001014,0.00000819,0.00000072,0.00000115,-0.00000207,-0.00000159,-
 0.00012167,-0.00002488,-0.00006548,-0.00021369,0.00001239,-0.00001606,
 -0.00005444,0.00003586,0.00000299,-0.00006687,0.00000235,-0.00003844,-
 0.00003884,-0.00004847,-0.00005363,0.00014491,0.00010985,0.00004901,-0
 .00002312,-0.00000982,-0.00002529,0.00000537,-0.00004727,0.00006895,-0
 .00008476,-0.00008599,-0.00006125,0.00055118,-0.00056560,0.00014549,-0
 .00009911,0.00022322,-0.00010998,-0.00017091,0.00020767,0.00003885,0.0
 0054709,-0.00050310,-0.00032982,-0.00001812,0.00010079,-0.00024028,-0.
 00197082,0.00033323,-0.00054230,0.00035019,-0.00025755,-0.00089455,0.0
 0006062,-0.00001395,-0.00006162,0.01048816,-0.00123322,-0.00930034,0.0
 0034692,0.00000434,-0.00161365,-0.00126935,0.00162791,-0.00068252,0.00
 010368,0.00005443,-0.00039625,0.00001777,-0.00000912,-0.00001758,0.000
 00055,-0.00000654,0.00000202,0.00000258,0.00000005,0.00000319,-0.00000
 736,0.00000387,-0.00000070,0.00001865,-0.00002038,0.00002638,-0.000006
 13,0.00000052,-0.00000317,0.00000073,0.00000317,-0.00000478,0.00000040
 ,0.00000371,-0.00000098,0.00002356,0.00004004,0.00000760,-0.00000237,-
 0.00000556,-0.00000697,-0.00000584,-0.00000393,0.00000136,0.00000020,0
 .00000084,0.00000379,0.00011555,0.00005703,0.00008645,-0.00002705,-0.0
 0002680,-0.00000448,-0.00000361,0.00003506,-0.00000326,-0.00000719,-0.
 00000391,-0.00000237,-0.00047371,0.00011370,0.00044847,0.00001071,0.00
 001594,-0.00026558,0.00020004,0.00007958,-0.00013354,0.00010982,-0.000
 10481,-0.00011604,-0.07733377,0.00975277,0.01723855,0.00908548,-0.0173
 4220,-0.01822371,-0.02629416,0.02693487,0.05442454,0.08583463,-0.00000
 410,-0.00006251,-0.00002867,-0.00002992,0.00000375,-0.00001903,-0.0000
 7100,-0.00027977,0.00011286,-0.00006651,-0.00028344,-0.00013003,0.0000
 0495,0.00005382,0.00001086,-0.00002294,0.00002118,-0.00000248,0.000016
 45,0.00000587,0.00000028,-0.00000437,0.00000510,-0.00000544,-0.0000246
 4,0.00001100,-0.00001925,0.00002228,0.00000024,0.00000405,0.00002697,0
 .00027718,0.00007115,0.00034624,0.00019403,-0.00000710,0.00001225,0.00
 003125,0.00001553,-0.00001479,0.00003685,0.00000266,-0.00002757,0.0000
 4256,0.00000859,0.00041847,0.00023969,0.00016546,-0.00004963,-0.000000
 42,-0.00003369,0.00006930,-0.00028449,0.00015262,-0.00021106,-0.000024
 33,-0.00009474,-0.00082355,0.00037067,-0.00027304,0.00015964,-0.000170
 10,0.00010444,0.00025467,-0.00014798,0.00003140,-0.00060477,0.00073879
 ,-0.00012356,-0.00032238,0.00015278,0.00078824,0.00225418,-0.00161571,
 0.00085211,-0.00010279,-0.00098235,0.00082787,-0.00007306,0.00002920,0
 .00005816,0.00021988,0.01060569,0.01200154,-0.00054178,-0.00001557,0.0
 0132418,0.00155504,-0.00018419,-0.00007750,0.00001400,0.00018768,0.000
 24526,-0.00002077,-0.00001389,-0.00001103,0.00000295,0.00000709,0.0000
 0337,0.00000062,0.00000176,-0.00000077,0.00000280,0.00000071,0.0000024
 5,0.00000067,-0.00000870,0.00000759,-0.00000004,0.00000136,-0.00000134
 ,0.00000014,-0.00000071,-0.00000053,-0.00000342,0.00000348,-0.00000118
 ,0.00001369,-0.00001221,0.00001548,0.00000126,0.00000003,-0.00000149,-
 0.00000623,0.00000145,-0.00000184,0.00000636,0.00001225,-0.00000367,0.
 00031528,0.00012825,0.00019543,-0.00004376,-0.00002500,-0.00000783,0.0
 0012038,-0.00002343,-0.00014305,-0.00012330,-0.00002414,-0.00002278,0.
 00034915,-0.00039664,-0.00061980,0.00000331,0.00002245,0.00020534,-0.0
 0020284,-0.00001456,0.00018663,-0.00012020,0.00018712,0.00014605,0.008
 69611,-0.10213813,-0.07312243,-0.01377192,-0.04880176,-0.05553137,0.02
 186129,-0.00140026,-0.02393218,-0.01946099,0.14353702,0.00009338,-0.00
 003312,0.00002356,0.00016251,-0.00004398,-0.00000170,0.00039635,0.0001
 7636,-0.00047891,0.00012064,-0.00003541,-0.00014061,0.00008078,0.00011
 149,0.00012130,-0.00002024,0.00002194,0.00001776,-0.00006030,-0.000017
 57,0.00000050,0.00000605,-0.00000547,0.00002052,0.00007434,0.00001590,
 0.00009359,-0.00002641,-0.00002395,-0.00000436,-0.00045635,-0.00009963
 ,0.00019871,-0.00108356,-0.00009067,0.00026857,-0.00014956,0.00009839,
 0.00010301,-0.00017803,0.00001451,-0.00005228,-0.00012195,-0.00010151,
 -0.00006950,0.00057376,0.00050265,0.00005981,-0.00003313,-0.00001957,-
 0.00001922,0.00002237,-0.00002986,0.00000771,-0.00037209,-0.00031628,0
 .00034003,0.00250438,-0.00196058,-0.00110765,-0.00064300,0.00088369,-0
 .00007698,-0.00059608,0.00058540,0.00086285,0.00011361,0.00111922,0.00
 002439,-0.00031569,0.00014780,-0.00064090,0.00258681,-0.00135307,-0.00
 118168,0.00185941,0.00036600,-0.00216214,-0.00008244,-0.00007061,0.000
 10712,0.00541537,-0.01833829,-0.04754799,-0.00194610,0.00079000,-0.000
 87190,-0.00656788,0.00552163,-0.00292920,-0.00025827,-0.00046050,0.000
 68775,0.00005097,-0.00003626,-0.00012499,0.00001476,-0.00000621,-0.000
 00471,-0.00001378,-0.00001576,0.00002089,-0.00001337,0.00000758,0.0000
 0680,0.00004361,-0.00004448,0.00004000,-0.00001670,-0.00000006,-0.0000
 0925,-0.00000176,0.00000737,-0.00000113,-0.00000034,0.00001185,-0.0000
 0465,0.00007106,0.00010784,0.00001107,-0.00000092,-0.00001180,-0.00000
 744,-0.00002346,-0.00000723,0.00000177,0.00000673,-0.00000150,0.000003
 24,0.00016951,0.00004284,-0.00018411,-0.00003609,-0.00004384,0.0000253
 5,0.00013206,-0.00002406,-0.00013218,-0.00009121,0.00000582,-0.0000055
 9,-0.00162803,0.00054575,0.00237335,-0.00013655,0.00009406,-0.00125513
 ,0.00085784,0.00034961,-0.00062599,0.00033304,-0.00030802,-0.00061935,
 0.01184877,-0.06570323,-0.28763202,-0.01145618,-0.03921876,-0.01129438
 ,0.03822191,-0.01978268,-0.02051845,-0.03943058,0.13667622,0.37428474\
 \0.00000173,-0.00000290,-0.00000141,-0.00000235,0.00000124,-0.00000152
 ,0.00000261,-0.00000480,-0.00000140,-0.00000036,-0.00000079,0.00000126
 ,0.00000364,-0.00000223,0.00000117,0.00000073,0.00000085,-0.00000036,0
 .00000021,-0.00000116,-0.00000034,-0.00000149,-0.00000119,0.00000077,0
 .00000112,-0.00000050,0.00000015,0.00000018,-0.00000049,0.00000086,0.0
 0000216,0.00000316,0.00000131,0.00000112,-0.00000229,0.00000194,-0.000
 00243,-0.00000211,-0.00000075,-0.00000195,0.00000136,0.00000226,-0.000
 00285,-0.00000089,-0.00000009,0.00000147,-0.00000013,0.00000235,0.0000
 0130,0.00000030,0.00000127,0.00000006,0.00000152,0.00000026,0.00000055
 ,0.00000461,0.00000122,-0.00000542,0.00000405,-0.00000123,-0.00000037,
 -0.00000024,-0.00000325,-0.00000162,-0.00000353,-0.00000361,-0.0000032
 5,0.00000037,-0.00000071,-0.00000049,0.00000208,-0.00000230,-0.0000012
 2,-0.00000017,-0.00000151,-0.00000006,0.00000018,-0.00000010,-0.000001
 62,0.00000022,-0.00000112,-0.00000070,0.00000245,0.00000069,-0.0000005
 5,0.00000228,0.00000082,0.00000117,0.00000278,-0.00000020,0.00000060,0
 .00000125,0.00000001,-0.00000213,-0.00000166,-0.00000244,-0.00000186,0
 .00000012,-0.00000125,-0.00000119,-0.00000112,-0.00000074,-0.00000154,
 -0.00000106,-0.00000157,0.00000233,-0.00000657,-0.00000056,-0.00000022
 ,-0.00000347,0.00000022,-0.00000013,-0.00000366,0.00000021,-0.00000070
 ,-0.00000221,0.00000031,0.00000463,-0.00000351,0.00000116,0.00000107,-
 0.00000305,0.00000143,0.00000111,-0.00000232,0.00000160,0.00000146,-0.
 00000148,0.00000133,0.00000343,0.00000188,-0.00000056,0.00000224,0.000
 00107,0.00000174,0.00000197,0.00000175,0.00000088,0.00000059,0.0000014
 4,0.00000130,0.00000112,0.00000082,-0.00000064,-0.00000205,-0.00000097
 ,-0.00000098,-0.00000217,0.00000122,-0.00000027,-0.00000074,0.00000259
 ,0.00000175,0.00000119,0.00000091,0.00000091,-0.00000147,0.00000199,0.
 00000178,0.00000050,0.00000685,0.00000029,0.00000061,0.00000513,-0.000
 00235\\\@


 There was a great rattling of the words for the fewness of ideas.
                   -- Charles Baxter in Gryphon
 Job cpu time:       1 days  7 hours 28 minutes 22.8 seconds.
 Elapsed time:       0 days  1 hours  0 minutes 49.3 seconds.
 File lengths (MBytes):  RWF=   2243 Int=      0 D2E=      0 Chk=     37 Scr=      1
 Normal termination of Gaussian 16 at Wed Jun  5 18:54:11 2019.
