 Entering Gaussian System, Link 0=g16
 Input=clay_new-glu_gluC6-bisCF3-sm-mpw3pbe-631gd-pcm_thf.gjf
 Output=clay_new-glu_gluC6-bisCF3-sm-mpw3pbe-631gd-pcm_thf.out
 Initial command:
 /home/ekwan/sw/g16/l1.exe "/scratch/users/ekwan/clay_new-glu_gluC6-bisCF3-sm-mpw3pbe-631gd-pcm_thf/Gau-7800.inp" -scrdir="/scratch/users/ekwan/clay_new-glu_gluC6-bisCF3-sm-mpw3pbe-631gd-pcm_thf/"
 Entering Link 1 = /home/ekwan/sw/g16/l1.exe PID=      7801.
  
 Copyright (c) 1988,1990,1992,1993,1995,1998,2003,2009,2016,
            Gaussian, Inc.  All Rights Reserved.
  
 This is part of the Gaussian(R) 16 program.  It is based on
 the Gaussian(R) 09 system (copyright 2009, Gaussian, Inc.),
 the Gaussian(R) 03 system (copyright 2003, Gaussian, Inc.),
 the Gaussian(R) 98 system (copyright 1998, Gaussian, Inc.),
 the Gaussian(R) 94 system (copyright 1995, Gaussian, Inc.),
 the Gaussian 92(TM) system (copyright 1992, Gaussian, Inc.),
 the Gaussian 90(TM) system (copyright 1990, Gaussian, Inc.),
 the Gaussian 88(TM) system (copyright 1988, Gaussian, Inc.),
 the Gaussian 86(TM) system (copyright 1986, Carnegie Mellon
 University), and the Gaussian 82(TM) system (copyright 1983,
 Carnegie Mellon University). Gaussian is a federally registered
 trademark of Gaussian, Inc.
  
 This software contains proprietary and confidential information,
 including trade secrets, belonging to Gaussian, Inc.
  
 This software is provided under written license and may be
 used, copied, transmitted, or stored only in accord with that
 written license.
  
 The following legend is applicable only to US Government
 contracts under FAR:
  
                    RESTRICTED RIGHTS LEGEND
  
 Use, reproduction and disclosure by the US Government is
 subject to restrictions as set forth in subparagraphs (a)
 and (c) of the Commercial Computer Software - Restricted
 Rights clause in FAR 52.227-19.
  
 Gaussian, Inc.
 340 Quinnipiac St., Bldg. 40, Wallingford CT 06492
  
  
 ---------------------------------------------------------------
 Warning -- This program may not be used in any manner that
 competes with the business of Gaussian, Inc. or will provide
 assistance to any competitor of Gaussian, Inc.  The licensee
 of this program is prohibited from giving any competitor of
 Gaussian, Inc. access to this program.  By using this program,
 the user acknowledges that Gaussian, Inc. is engaged in the
 business of creating and licensing software in the field of
 computational chemistry and represents and warrants to the
 licensee that it is not a competitor of Gaussian, Inc. and that
 it will not use this program in any manner prohibited above.
 ---------------------------------------------------------------
  

 Cite this work as:
 Gaussian 16, Revision A.03,
 M. J. Frisch, G. W. Trucks, H. B. Schlegel, G. E. Scuseria, 
 M. A. Robb, J. R. Cheeseman, G. Scalmani, V. Barone, 
 G. A. Petersson, H. Nakatsuji, X. Li, M. Caricato, A. V. Marenich, 
 J. Bloino, B. G. Janesko, R. Gomperts, B. Mennucci, H. P. Hratchian, 
 J. V. Ortiz, A. F. Izmaylov, J. L. Sonnenberg, D. Williams-Young, 
 F. Ding, F. Lipparini, F. Egidi, J. Goings, B. Peng, A. Petrone, 
 T. Henderson, D. Ranasinghe, V. G. Zakrzewski, J. Gao, N. Rega, 
 G. Zheng, W. Liang, M. Hada, M. Ehara, K. Toyota, R. Fukuda, 
 J. Hasegawa, M. Ishida, T. Nakajima, Y. Honda, O. Kitao, H. Nakai, 
 T. Vreven, K. Throssell, J. A. Montgomery, Jr., J. E. Peralta, 
 F. Ogliaro, M. J. Bearpark, J. J. Heyd, E. N. Brothers, K. N. Kudin, 
 V. N. Staroverov, T. A. Keith, R. Kobayashi, J. Normand, 
 K. Raghavachari, A. P. Rendell, J. C. Burant, S. S. Iyengar, 
 J. Tomasi, M. Cossi, J. M. Millam, M. Klene, C. Adamo, R. Cammi, 
 J. W. Ochterski, R. L. Martin, K. Morokuma, O. Farkas, 
 J. B. Foresman, and D. J. Fox, Gaussian, Inc., Wallingford CT, 2016.
 
 ******************************************
 Gaussian 16:  AS64L-G16RevA.03 25-Dec-2016
                 5-Jun-2019 
 ******************************************
 %nprocshared=32
 Will use up to   32 processors via shared memory.
 %mem=48GB
 ----------------------------------------------------------------------
 #p opt freq=noraman pop=none 6-31g* scrf=(pcm,solvent=tetrahydrofuran)
  mpw3pbe
 ----------------------------------------------------------------------
 1/18=20,19=15,26=3,38=1/1,3;
 2/9=110,12=2,17=6,18=5,40=1/2;
 3/5=1,6=6,7=1,11=2,25=1,30=1,70=2201,71=1,72=20,74=-12/1,2,3;
 4//1;
 5/5=2,38=5,53=20/2;
 7//1,2,3,16;
 1/18=20,19=15,26=3/3(2);
 2/9=110/2;
 99//99;
 2/9=110/2;
 3/5=1,6=6,7=1,11=2,25=1,30=1,70=2205,71=1,72=20,74=-12/1,2,3;
 4/5=5,16=3,69=1/1;
 5/5=2,38=5,53=20/2;
 7//1,2,3,16;
 1/18=20,19=15,26=3/3(-5);
 2/9=110/2;
 99/9=1/99;
 Leave Link    1 at Wed Jun  5 18:25:23 2019, MaxMem=  6442450944 cpu:               3.1 elap:               0.1
 (Enter /home/ekwan/sw/g16/l101.exe)
 -----
 title
 -----
 Symbolic Z-matrix:
 Charge =  0 Multiplicity = 1
 6                     3.52403  -0.22219   0.71814 
 6                     3.34459  -0.50376  -0.77358 
 6                     1.86813  -0.3882   -1.18446 
 6                     1.36959   1.09606   0.61515 
 6                     2.8223    1.08153   1.09641 
 1                     1.74304  -0.45007  -2.26717 
 1                     3.87633   0.28535  -1.33195 
 1                     3.07433  -1.04204   1.29807 
 1                     0.80717   0.32926   1.16856 
 1                     3.35224   1.92011   0.62354 
 8                     1.2922    0.80694  -0.79199 
 8                     1.18806  -1.52531  -0.5854 
 8                     3.88679  -1.76411  -1.06882 
 8                     4.89309  -0.08524   1.04004 
 8                     2.80073   1.23365   2.50178 
 6                     0.68544   2.43392   0.86459 
 1                     0.58813   2.54575   1.94915 
 1                    -0.32346   2.41021   0.42693 
 8                     1.40094   3.5608    0.41102 
 16                   -0.10614  -2.15897  -1.33937 
 8                    -0.20304  -3.51298  -0.8235 
 8                     0.00596  -1.89362  -2.7687 
 6                    -1.47284  -1.21301  -0.69807 
 6                    -2.13639  -1.6732    0.43444 
 6                    -1.84526  -0.03809  -1.34376 
 6                    -3.20146  -0.92588   0.93234 
 1                    -1.83095  -2.59931   0.91017 
 6                    -2.90493   0.6991   -0.82293 
 1                    -1.32359   0.2914   -2.23552 
 6                    -3.58541   0.26029   0.31141 
 1                    -4.41357   0.83882   0.70726 
 6                     4.18208  -1.97111  -2.43836 
 1                     3.27497  -2.04433  -3.05426 
 1                     4.81898  -1.1672   -2.8352 
 1                     4.72155  -2.91903  -2.50177 
 6                     5.49436  -1.25288   1.57037 
 1                     6.53216  -0.99327   1.79758 
 1                     4.9967   -1.56972   2.49881 
 1                     5.47508  -2.08056   0.85258 
 6                     3.71394   2.1975    2.9962 
 1                     3.59045   2.21707   4.08271 
 1                     4.74877   1.92872   2.75333 
 1                     3.49436   3.19654   2.59346 
 6                     1.20294   3.8786   -0.95464 
 1                     1.64351   4.86688  -1.11455 
 1                     0.13104   3.92202  -1.19884 
 1                     1.68469   3.15588  -1.62394 
 6                    -3.97934  -1.43719   2.11656 
 9                    -3.2026   -2.15634   2.9431 
 9                    -4.9919   -2.23343   1.72718 
 9                    -4.51523  -0.43046   2.82653 
 6                    -3.27615   2.01278  -1.45719 
 9                    -2.58019   3.03089  -0.9056 
 9                    -4.57803   2.29395  -1.29414 
 9                    -3.01151   2.02144  -2.77265 
 
 ITRead=  0  0  0  0  0  0  0  0  0  0  0  0  0  0  0  0  0  0  0  0
 ITRead=  0  0  0  0  0  0  0  0  0  0  0  0  0  0  0  0  0  0  0  0
 ITRead=  0  0  0  0  0  0  0  0  0  0  0  0  0  0  0
 MicOpt= -1 -1 -1 -1 -1 -1 -1 -1 -1 -1 -1 -1 -1 -1 -1 -1 -1 -1 -1 -1
 MicOpt= -1 -1 -1 -1 -1 -1 -1 -1 -1 -1 -1 -1 -1 -1 -1 -1 -1 -1 -1 -1
 MicOpt= -1 -1 -1 -1 -1 -1 -1 -1 -1 -1 -1 -1 -1 -1 -1
 NAtoms=     55 NQM=       55 NQMF=       0 NMMI=      0 NMMIF=      0
                NMic=       0 NMicF=      0.
                    Isotopes and Nuclear Properties:
 (Nuclear quadrupole moments (NQMom) in fm**2, nuclear magnetic moments (NMagM)
  in nuclear magnetons)

  Atom         1           2           3           4           5           6           7           8           9          10
 IAtWgt=          12          12          12          12          12           1           1           1           1           1
 AtmWgt=  12.0000000  12.0000000  12.0000000  12.0000000  12.0000000   1.0078250   1.0078250   1.0078250   1.0078250   1.0078250
 NucSpn=           0           0           0           0           0           1           1           1           1           1
 AtZEff=   0.0000000   0.0000000   0.0000000   0.0000000   0.0000000   0.0000000   0.0000000   0.0000000   0.0000000   0.0000000
 NQMom=    0.0000000   0.0000000   0.0000000   0.0000000   0.0000000   0.0000000   0.0000000   0.0000000   0.0000000   0.0000000
 NMagM=    0.0000000   0.0000000   0.0000000   0.0000000   0.0000000   2.7928460   2.7928460   2.7928460   2.7928460   2.7928460
 AtZNuc=   6.0000000   6.0000000   6.0000000   6.0000000   6.0000000   1.0000000   1.0000000   1.0000000   1.0000000   1.0000000

  Atom        11          12          13          14          15          16          17          18          19          20
 IAtWgt=          16          16          16          16          16          12           1           1          16          32
 AtmWgt=  15.9949146  15.9949146  15.9949146  15.9949146  15.9949146  12.0000000   1.0078250   1.0078250  15.9949146  31.9720718
 NucSpn=           0           0           0           0           0           0           1           1           0           0
 AtZEff=   0.0000000   0.0000000   0.0000000   0.0000000   0.0000000   0.0000000   0.0000000   0.0000000   0.0000000   0.0000000
 NQMom=    0.0000000   0.0000000   0.0000000   0.0000000   0.0000000   0.0000000   0.0000000   0.0000000   0.0000000   0.0000000
 NMagM=    0.0000000   0.0000000   0.0000000   0.0000000   0.0000000   0.0000000   2.7928460   2.7928460   0.0000000   0.0000000
 AtZNuc=   8.0000000   8.0000000   8.0000000   8.0000000   8.0000000   6.0000000   1.0000000   1.0000000   8.0000000  16.0000000

  Atom        21          22          23          24          25          26          27          28          29          30
 IAtWgt=          16          16          12          12          12          12           1          12           1          12
 AtmWgt=  15.9949146  15.9949146  12.0000000  12.0000000  12.0000000  12.0000000   1.0078250  12.0000000   1.0078250  12.0000000
 NucSpn=           0           0           0           0           0           0           1           0           1           0
 AtZEff=   0.0000000   0.0000000   0.0000000   0.0000000   0.0000000   0.0000000   0.0000000   0.0000000   0.0000000   0.0000000
 NQMom=    0.0000000   0.0000000   0.0000000   0.0000000   0.0000000   0.0000000   0.0000000   0.0000000   0.0000000   0.0000000
 NMagM=    0.0000000   0.0000000   0.0000000   0.0000000   0.0000000   0.0000000   2.7928460   0.0000000   2.7928460   0.0000000
 AtZNuc=   8.0000000   8.0000000   6.0000000   6.0000000   6.0000000   6.0000000   1.0000000   6.0000000   1.0000000   6.0000000

  Atom        31          32          33          34          35          36          37          38          39          40
 IAtWgt=           1          12           1           1           1          12           1           1           1          12
 AtmWgt=   1.0078250  12.0000000   1.0078250   1.0078250   1.0078250  12.0000000   1.0078250   1.0078250   1.0078250  12.0000000
 NucSpn=           1           0           1           1           1           0           1           1           1           0
 AtZEff=   0.0000000   0.0000000   0.0000000   0.0000000   0.0000000   0.0000000   0.0000000   0.0000000   0.0000000   0.0000000
 NQMom=    0.0000000   0.0000000   0.0000000   0.0000000   0.0000000   0.0000000   0.0000000   0.0000000   0.0000000   0.0000000
 NMagM=    2.7928460   0.0000000   2.7928460   2.7928460   2.7928460   0.0000000   2.7928460   2.7928460   2.7928460   0.0000000
 AtZNuc=   1.0000000   6.0000000   1.0000000   1.0000000   1.0000000   6.0000000   1.0000000   1.0000000   1.0000000   6.0000000

  Atom        41          42          43          44          45          46          47          48          49          50
 IAtWgt=           1           1           1          12           1           1           1          12          19          19
 AtmWgt=   1.0078250   1.0078250   1.0078250  12.0000000   1.0078250   1.0078250   1.0078250  12.0000000  18.9984033  18.9984033
 NucSpn=           1           1           1           0           1           1           1           0           1           1
 AtZEff=   0.0000000   0.0000000   0.0000000   0.0000000   0.0000000   0.0000000   0.0000000   0.0000000   0.0000000   0.0000000
 NQMom=    0.0000000   0.0000000   0.0000000   0.0000000   0.0000000   0.0000000   0.0000000   0.0000000   0.0000000   0.0000000
 NMagM=    2.7928460   2.7928460   2.7928460   0.0000000   2.7928460   2.7928460   2.7928460   0.0000000   2.6288670   2.6288670
 AtZNuc=   1.0000000   1.0000000   1.0000000   6.0000000   1.0000000   1.0000000   1.0000000   6.0000000   9.0000000   9.0000000

  Atom        51          52          53          54          55
 IAtWgt=          19          12          19          19          19
 AtmWgt=  18.9984033  12.0000000  18.9984033  18.9984033  18.9984033
 NucSpn=           1           0           1           1           1
 AtZEff=   0.0000000   0.0000000   0.0000000   0.0000000   0.0000000
 NQMom=    0.0000000   0.0000000   0.0000000   0.0000000   0.0000000
 NMagM=    2.6288670   0.0000000   2.6288670   2.6288670   2.6288670
 AtZNuc=   9.0000000   6.0000000   9.0000000   9.0000000   9.0000000
 Leave Link  101 at Wed Jun  5 18:25:23 2019, MaxMem=  6442450944 cpu:              15.2 elap:               0.6
 (Enter /home/ekwan/sw/g16/l103.exe)

 GradGradGradGradGradGradGradGradGradGradGradGradGradGradGradGradGradGrad
 Berny optimization.
 Initialization pass.
                           ----------------------------
                           !    Initial Parameters    !
                           ! (Angstroms and Degrees)  !
 --------------------------                            --------------------------
 ! Name  Definition              Value          Derivative Info.                !
 --------------------------------------------------------------------------------
 ! R1    R(1,2)                  1.5286         estimate D2E/DX2                !
 ! R2    R(1,5)                  1.5281         estimate D2E/DX2                !
 ! R3    R(1,8)                  1.1003         estimate D2E/DX2                !
 ! R4    R(1,14)                 1.413          estimate D2E/DX2                !
 ! R5    R(2,3)                  1.5369         estimate D2E/DX2                !
 ! R6    R(2,7)                  1.1033         estimate D2E/DX2                !
 ! R7    R(2,13)                 1.4034         estimate D2E/DX2                !
 ! R8    R(3,6)                  1.0917         estimate D2E/DX2                !
 ! R9    R(3,11)                 1.3835         estimate D2E/DX2                !
 ! R10   R(3,12)                 1.4541         estimate D2E/DX2                !
 ! R11   R(4,5)                  1.5304         estimate D2E/DX2                !
 ! R12   R(4,9)                  1.1003         estimate D2E/DX2                !
 ! R13   R(4,11)                 1.4386         estimate D2E/DX2                !
 ! R14   R(4,16)                 1.5232         estimate D2E/DX2                !
 ! R15   R(5,10)                 1.0989         estimate D2E/DX2                !
 ! R16   R(5,15)                 1.4137         estimate D2E/DX2                !
 ! R17   R(12,20)                1.6263         estimate D2E/DX2                !
 ! R18   R(13,32)                1.4162         estimate D2E/DX2                !
 ! R19   R(14,36)                1.4164         estimate D2E/DX2                !
 ! R20   R(15,40)                1.4168         estimate D2E/DX2                !
 ! R21   R(16,17)                1.0946         estimate D2E/DX2                !
 ! R22   R(16,18)                1.1            estimate D2E/DX2                !
 ! R23   R(16,19)                1.4098         estimate D2E/DX2                !
 ! R24   R(19,44)                1.4161         estimate D2E/DX2                !
 ! R25   R(20,21)                1.4522         estimate D2E/DX2                !
 ! R26   R(20,22)                1.4581         estimate D2E/DX2                !
 ! R27   R(20,23)                1.7816         estimate D2E/DX2                !
 ! R28   R(23,24)                1.3909         estimate D2E/DX2                !
 ! R29   R(23,25)                1.3914         estimate D2E/DX2                !
 ! R30   R(24,26)                1.3931         estimate D2E/DX2                !
 ! R31   R(24,27)                1.085          estimate D2E/DX2                !
 ! R32   R(25,28)                1.392          estimate D2E/DX2                !
 ! R33   R(25,29)                1.0844         estimate D2E/DX2                !
 ! R34   R(26,30)                1.3928         estimate D2E/DX2                !
 ! R35   R(26,48)                1.5063         estimate D2E/DX2                !
 ! R36   R(28,30)                1.3937         estimate D2E/DX2                !
 ! R37   R(28,52)                1.5053         estimate D2E/DX2                !
 ! R38   R(30,31)                1.085          estimate D2E/DX2                !
 ! R39   R(32,33)                1.0989         estimate D2E/DX2                !
 ! R40   R(32,34)                1.0997         estimate D2E/DX2                !
 ! R41   R(32,35)                1.0925         estimate D2E/DX2                !
 ! R42   R(36,37)                1.0936         estimate D2E/DX2                !
 ! R43   R(36,38)                1.1            estimate D2E/DX2                !
 ! R44   R(36,39)                1.0957         estimate D2E/DX2                !
 ! R45   R(40,41)                1.0937         estimate D2E/DX2                !
 ! R46   R(40,42)                1.0964         estimate D2E/DX2                !
 ! R47   R(40,43)                1.0993         estimate D2E/DX2                !
 ! R48   R(44,45)                1.0938         estimate D2E/DX2                !
 ! R49   R(44,46)                1.1002         estimate D2E/DX2                !
 ! R50   R(44,47)                1.0965         estimate D2E/DX2                !
 ! R51   R(48,49)                1.343          estimate D2E/DX2                !
 ! R52   R(48,50)                1.3457         estimate D2E/DX2                !
 ! R53   R(48,51)                1.3434         estimate D2E/DX2                !
 ! R54   R(52,53)                1.351          estimate D2E/DX2                !
 ! R55   R(52,54)                1.3418         estimate D2E/DX2                !
 ! R56   R(52,55)                1.3418         estimate D2E/DX2                !
 ! A1    A(2,1,5)              110.1699         estimate D2E/DX2                !
 ! A2    A(2,1,8)              109.2146         estimate D2E/DX2                !
 ! A3    A(2,1,14)             110.7257         estimate D2E/DX2                !
 ! A4    A(5,1,8)              108.5139         estimate D2E/DX2                !
 ! A5    A(5,1,14)             107.8083         estimate D2E/DX2                !
 ! A6    A(8,1,14)             110.3726         estimate D2E/DX2                !
 ! A7    A(1,2,3)              111.0879         estimate D2E/DX2                !
 ! A8    A(1,2,7)              107.7918         estimate D2E/DX2                !
 ! A9    A(1,2,13)             108.9872         estimate D2E/DX2                !
 ! A10   A(3,2,7)              105.8982         estimate D2E/DX2                !
 ! A11   A(3,2,13)             112.4841         estimate D2E/DX2                !
 ! A12   A(7,2,13)             110.466          estimate D2E/DX2                !
 ! A13   A(2,3,6)              111.7748         estimate D2E/DX2                !
 ! A14   A(2,3,11)             112.8938         estimate D2E/DX2                !
 ! A15   A(2,3,12)             106.2816         estimate D2E/DX2                !
 ! A16   A(6,3,11)             106.416          estimate D2E/DX2                !
 ! A17   A(6,3,12)             108.1008         estimate D2E/DX2                !
 ! A18   A(11,3,12)            111.3445         estimate D2E/DX2                !
 ! A19   A(5,4,9)              108.6886         estimate D2E/DX2                !
 ! A20   A(5,4,11)             110.8998         estimate D2E/DX2                !
 ! A21   A(5,4,16)             112.5313         estimate D2E/DX2                !
 ! A22   A(9,4,11)             108.9301         estimate D2E/DX2                !
 ! A23   A(9,4,16)             107.4677         estimate D2E/DX2                !
 ! A24   A(11,4,16)            108.2121         estimate D2E/DX2                !
 ! A25   A(1,5,4)              111.4782         estimate D2E/DX2                !
 ! A26   A(1,5,10)             108.8481         estimate D2E/DX2                !
 ! A27   A(1,5,15)             110.1745         estimate D2E/DX2                !
 ! A28   A(4,5,10)             108.3721         estimate D2E/DX2                !
 ! A29   A(4,5,15)             107.2831         estimate D2E/DX2                !
 ! A30   A(10,5,15)            110.6708         estimate D2E/DX2                !
 ! A31   A(3,11,4)             115.3843         estimate D2E/DX2                !
 ! A32   A(3,12,20)            119.0698         estimate D2E/DX2                !
 ! A33   A(2,13,32)            114.535          estimate D2E/DX2                !
 ! A34   A(1,14,36)            114.6259         estimate D2E/DX2                !
 ! A35   A(5,15,40)            114.221          estimate D2E/DX2                !
 ! A36   A(4,16,17)            106.9725         estimate D2E/DX2                !
 ! A37   A(4,16,18)            109.1394         estimate D2E/DX2                !
 ! A38   A(4,16,19)            114.9241         estimate D2E/DX2                !
 ! A39   A(17,16,18)           108.3541         estimate D2E/DX2                !
 ! A40   A(17,16,19)           106.3923         estimate D2E/DX2                !
 ! A41   A(18,16,19)           110.7757         estimate D2E/DX2                !
 ! A42   A(16,19,44)           114.7525         estimate D2E/DX2                !
 ! A43   A(12,20,21)           104.5781         estimate D2E/DX2                !
 ! A44   A(12,20,22)           108.807          estimate D2E/DX2                !
 ! A45   A(12,20,23)           103.6923         estimate D2E/DX2                !
 ! A46   A(21,20,22)           121.537          estimate D2E/DX2                !
 ! A47   A(21,20,23)           108.4219         estimate D2E/DX2                !
 ! A48   A(22,20,23)           108.3736         estimate D2E/DX2                !
 ! A49   A(20,23,24)           118.9068         estimate D2E/DX2                !
 ! A50   A(20,23,25)           119.1201         estimate D2E/DX2                !
 ! A51   A(24,23,25)           121.9732         estimate D2E/DX2                !
 ! A52   A(23,24,26)           118.5709         estimate D2E/DX2                !
 ! A53   A(23,24,27)           120.3372         estimate D2E/DX2                !
 ! A54   A(26,24,27)           121.09           estimate D2E/DX2                !
 ! A55   A(23,25,28)           118.5104         estimate D2E/DX2                !
 ! A56   A(23,25,29)           120.6254         estimate D2E/DX2                !
 ! A57   A(28,25,29)           120.8635         estimate D2E/DX2                !
 ! A58   A(24,26,30)           120.5484         estimate D2E/DX2                !
 ! A59   A(24,26,48)           119.5844         estimate D2E/DX2                !
 ! A60   A(30,26,48)           119.8156         estimate D2E/DX2                !
 ! A61   A(25,28,30)           120.6302         estimate D2E/DX2                !
 ! A62   A(25,28,52)           119.4898         estimate D2E/DX2                !
 ! A63   A(30,28,52)           119.8228         estimate D2E/DX2                !
 ! A64   A(26,30,28)           119.7615         estimate D2E/DX2                !
 ! A65   A(26,30,31)           120.1227         estimate D2E/DX2                !
 ! A66   A(28,30,31)           120.1155         estimate D2E/DX2                !
 ! A67   A(13,32,33)           112.3111         estimate D2E/DX2                !
 ! A68   A(13,32,34)           111.2766         estimate D2E/DX2                !
 ! A69   A(13,32,35)           106.6128         estimate D2E/DX2                !
 ! A70   A(33,32,34)           108.9367         estimate D2E/DX2                !
 ! A71   A(33,32,35)           108.4981         estimate D2E/DX2                !
 ! A72   A(34,32,35)           109.1069         estimate D2E/DX2                !
 ! A73   A(14,36,37)           106.5547         estimate D2E/DX2                !
 ! A74   A(14,36,38)           111.1868         estimate D2E/DX2                !
 ! A75   A(14,36,39)           111.7133         estimate D2E/DX2                !
 ! A76   A(37,36,38)           108.8042         estimate D2E/DX2                !
 ! A77   A(37,36,39)           109.396          estimate D2E/DX2                !
 ! A78   A(38,36,39)           109.1091         estimate D2E/DX2                !
 ! A79   A(15,40,41)           106.6227         estimate D2E/DX2                !
 ! A80   A(15,40,42)           111.3634         estimate D2E/DX2                !
 ! A81   A(15,40,43)           111.201          estimate D2E/DX2                !
 ! A82   A(41,40,42)           109.331          estimate D2E/DX2                !
 ! A83   A(41,40,43)           108.9734         estimate D2E/DX2                !
 ! A84   A(42,40,43)           109.2786         estimate D2E/DX2                !
 ! A85   A(19,44,45)           106.7054         estimate D2E/DX2                !
 ! A86   A(19,44,46)           111.0469         estimate D2E/DX2                !
 ! A87   A(19,44,47)           112.2909         estimate D2E/DX2                !
 ! A88   A(45,44,46)           108.9241         estimate D2E/DX2                !
 ! A89   A(45,44,47)           109.2281         estimate D2E/DX2                !
 ! A90   A(46,44,47)           108.5762         estimate D2E/DX2                !
 ! A91   A(26,48,49)           111.5267         estimate D2E/DX2                !
 ! A92   A(26,48,50)           111.2195         estimate D2E/DX2                !
 ! A93   A(26,48,51)           111.5372         estimate D2E/DX2                !
 ! A94   A(49,48,50)           107.243          estimate D2E/DX2                !
 ! A95   A(49,48,51)           107.863          estimate D2E/DX2                !
 ! A96   A(50,48,51)           107.2283         estimate D2E/DX2                !
 ! A97   A(28,52,53)           111.0146         estimate D2E/DX2                !
 ! A98   A(28,52,54)           111.7739         estimate D2E/DX2                !
 ! A99   A(28,52,55)           111.72           estimate D2E/DX2                !
 ! A100  A(53,52,54)           106.9946         estimate D2E/DX2                !
 ! A101  A(53,52,55)           107.0856         estimate D2E/DX2                !
 ! A102  A(54,52,55)           108.0058         estimate D2E/DX2                !
 ! D1    D(5,1,2,3)            -49.9815         estimate D2E/DX2                !
 ! D2    D(5,1,2,7)             65.6186         estimate D2E/DX2                !
 ! D3    D(5,1,2,13)          -174.4634         estimate D2E/DX2                !
 ! D4    D(8,1,2,3)             69.1136         estimate D2E/DX2                !
 ! D5    D(8,1,2,7)           -175.2863         estimate D2E/DX2                !
 ! D6    D(8,1,2,13)           -55.3683         estimate D2E/DX2                !
 ! D7    D(14,1,2,3)          -169.1479         estimate D2E/DX2                !
 ! D8    D(14,1,2,7)           -53.5478         estimate D2E/DX2                !
 ! D9    D(14,1,2,13)           66.3701         estimate D2E/DX2                !
 ! D10   D(2,1,5,4)             51.5807         estimate D2E/DX2                !
 ! D11   D(2,1,5,10)           -67.9057         estimate D2E/DX2                !
 ! D12   D(2,1,5,15)           170.5737         estimate D2E/DX2                !
 ! D13   D(8,1,5,4)            -67.9409         estimate D2E/DX2                !
 ! D14   D(8,1,5,10)           172.5728         estimate D2E/DX2                !
 ! D15   D(8,1,5,15)            51.0521         estimate D2E/DX2                !
 ! D16   D(14,1,5,4)           172.5102         estimate D2E/DX2                !
 ! D17   D(14,1,5,10)           53.0239         estimate D2E/DX2                !
 ! D18   D(14,1,5,15)          -68.4967         estimate D2E/DX2                !
 ! D19   D(2,1,14,36)          -97.8347         estimate D2E/DX2                !
 ! D20   D(5,1,14,36)          141.584          estimate D2E/DX2                !
 ! D21   D(8,1,14,36)           23.2209         estimate D2E/DX2                !
 ! D22   D(1,2,3,6)            172.1159         estimate D2E/DX2                !
 ! D23   D(1,2,3,11)            52.1799         estimate D2E/DX2                !
 ! D24   D(1,2,3,12)           -70.1602         estimate D2E/DX2                !
 ! D25   D(7,2,3,6)             55.3497         estimate D2E/DX2                !
 ! D26   D(7,2,3,11)           -64.5863         estimate D2E/DX2                !
 ! D27   D(7,2,3,12)           173.0736         estimate D2E/DX2                !
 ! D28   D(13,2,3,6)           -65.4042         estimate D2E/DX2                !
 ! D29   D(13,2,3,11)          174.6598         estimate D2E/DX2                !
 ! D30   D(13,2,3,12)           52.3197         estimate D2E/DX2                !
 ! D31   D(1,2,13,32)         -160.5321         estimate D2E/DX2                !
 ! D32   D(3,2,13,32)           75.8112         estimate D2E/DX2                !
 ! D33   D(7,2,13,32)          -42.2819         estimate D2E/DX2                !
 ! D34   D(2,3,11,4)           -56.0488         estimate D2E/DX2                !
 ! D35   D(6,3,11,4)          -179.0192         estimate D2E/DX2                !
 ! D36   D(12,3,11,4)           63.4079         estimate D2E/DX2                !
 ! D37   D(2,3,12,20)         -149.5016         estimate D2E/DX2                !
 ! D38   D(6,3,12,20)          -29.3659         estimate D2E/DX2                !
 ! D39   D(11,3,12,20)          87.1823         estimate D2E/DX2                !
 ! D40   D(9,4,5,1)             66.4168         estimate D2E/DX2                !
 ! D41   D(9,4,5,10)          -173.815          estimate D2E/DX2                !
 ! D42   D(9,4,5,15)           -54.2849         estimate D2E/DX2                !
 ! D43   D(11,4,5,1)           -53.303          estimate D2E/DX2                !
 ! D44   D(11,4,5,10)           66.4651         estimate D2E/DX2                !
 ! D45   D(11,4,5,15)         -174.0047         estimate D2E/DX2                !
 ! D46   D(16,4,5,1)          -174.6762         estimate D2E/DX2                !
 ! D47   D(16,4,5,10)          -54.908          estimate D2E/DX2                !
 ! D48   D(16,4,5,15)           64.6221         estimate D2E/DX2                !
 ! D49   D(5,4,11,3)            56.4            estimate D2E/DX2                !
 ! D50   D(9,4,11,3)           -63.1753         estimate D2E/DX2                !
 ! D51   D(16,4,11,3)         -179.7207         estimate D2E/DX2                !
 ! D52   D(5,4,16,17)          -67.5001         estimate D2E/DX2                !
 ! D53   D(5,4,16,18)          175.4727         estimate D2E/DX2                !
 ! D54   D(5,4,16,19)           50.3523         estimate D2E/DX2                !
 ! D55   D(9,4,16,17)           52.1183         estimate D2E/DX2                !
 ! D56   D(9,4,16,18)          -64.9089         estimate D2E/DX2                !
 ! D57   D(9,4,16,19)          169.9707         estimate D2E/DX2                !
 ! D58   D(11,4,16,17)         169.6067         estimate D2E/DX2                !
 ! D59   D(11,4,16,18)          52.5794         estimate D2E/DX2                !
 ! D60   D(11,4,16,19)         -72.541          estimate D2E/DX2                !
 ! D61   D(1,5,15,40)          105.5368         estimate D2E/DX2                !
 ! D62   D(4,5,15,40)         -132.9398         estimate D2E/DX2                !
 ! D63   D(10,5,15,40)         -14.893          estimate D2E/DX2                !
 ! D64   D(3,12,20,21)         158.0193         estimate D2E/DX2                !
 ! D65   D(3,12,20,22)          26.7574         estimate D2E/DX2                !
 ! D66   D(3,12,20,23)         -88.4377         estimate D2E/DX2                !
 ! D67   D(2,13,32,33)         -69.2033         estimate D2E/DX2                !
 ! D68   D(2,13,32,34)          53.2248         estimate D2E/DX2                !
 ! D69   D(2,13,32,35)         172.0906         estimate D2E/DX2                !
 ! D70   D(1,14,36,37)        -178.3564         estimate D2E/DX2                !
 ! D71   D(1,14,36,38)         -59.9404         estimate D2E/DX2                !
 ! D72   D(1,14,36,39)          62.2183         estimate D2E/DX2                !
 ! D73   D(5,15,40,41)         179.7067         estimate D2E/DX2                !
 ! D74   D(5,15,40,42)         -61.1019         estimate D2E/DX2                !
 ! D75   D(5,15,40,43)          61.0379         estimate D2E/DX2                !
 ! D76   D(4,16,19,44)          84.8124         estimate D2E/DX2                !
 ! D77   D(17,16,19,44)       -157.0084         estimate D2E/DX2                !
 ! D78   D(18,16,19,44)        -39.4495         estimate D2E/DX2                !
 ! D79   D(16,19,44,45)        168.8311         estimate D2E/DX2                !
 ! D80   D(16,19,44,46)         50.2569         estimate D2E/DX2                !
 ! D81   D(16,19,44,47)        -71.5227         estimate D2E/DX2                !
 ! D82   D(12,20,23,24)        -91.1215         estimate D2E/DX2                !
 ! D83   D(12,20,23,25)         88.9153         estimate D2E/DX2                !
 ! D84   D(21,20,23,24)         19.623          estimate D2E/DX2                !
 ! D85   D(21,20,23,25)       -160.3401         estimate D2E/DX2                !
 ! D86   D(22,20,23,24)        153.3757         estimate D2E/DX2                !
 ! D87   D(22,20,23,25)        -26.5875         estimate D2E/DX2                !
 ! D88   D(20,23,24,26)        179.8051         estimate D2E/DX2                !
 ! D89   D(20,23,24,27)         -0.6816         estimate D2E/DX2                !
 ! D90   D(25,23,24,26)         -0.2329         estimate D2E/DX2                !
 ! D91   D(25,23,24,27)        179.2805         estimate D2E/DX2                !
 ! D92   D(20,23,25,28)       -179.2693         estimate D2E/DX2                !
 ! D93   D(20,23,25,29)          1.0394         estimate D2E/DX2                !
 ! D94   D(24,23,25,28)          0.7688         estimate D2E/DX2                !
 ! D95   D(24,23,25,29)       -178.9226         estimate D2E/DX2                !
 ! D96   D(23,24,26,30)         -0.3843         estimate D2E/DX2                !
 ! D97   D(23,24,26,48)        176.9979         estimate D2E/DX2                !
 ! D98   D(27,24,26,30)       -179.8938         estimate D2E/DX2                !
 ! D99   D(27,24,26,48)         -2.5116         estimate D2E/DX2                !
 ! D100  D(23,25,28,30)         -0.697          estimate D2E/DX2                !
 ! D101  D(23,25,28,52)        176.5487         estimate D2E/DX2                !
 ! D102  D(29,25,28,30)        178.9936         estimate D2E/DX2                !
 ! D103  D(29,25,28,52)         -3.7607         estimate D2E/DX2                !
 ! D104  D(24,26,30,28)          0.4487         estimate D2E/DX2                !
 ! D105  D(24,26,30,31)       -179.7692         estimate D2E/DX2                !
 ! D106  D(48,26,30,28)       -176.9275         estimate D2E/DX2                !
 ! D107  D(48,26,30,31)          2.8546         estimate D2E/DX2                !
 ! D108  D(24,26,48,49)         31.3827         estimate D2E/DX2                !
 ! D109  D(24,26,48,50)        -88.2856         estimate D2E/DX2                !
 ! D110  D(24,26,48,51)        152.0577         estimate D2E/DX2                !
 ! D111  D(30,26,48,49)       -151.2156         estimate D2E/DX2                !
 ! D112  D(30,26,48,50)         89.1161         estimate D2E/DX2                !
 ! D113  D(30,26,48,51)        -30.5407         estimate D2E/DX2                !
 ! D114  D(25,28,30,26)          0.1035         estimate D2E/DX2                !
 ! D115  D(25,28,30,31)       -179.6786         estimate D2E/DX2                !
 ! D116  D(52,28,30,26)       -177.1331         estimate D2E/DX2                !
 ! D117  D(52,28,30,31)          3.0848         estimate D2E/DX2                !
 ! D118  D(25,28,52,53)        -88.8139         estimate D2E/DX2                !
 ! D119  D(25,28,52,54)        151.8054         estimate D2E/DX2                !
 ! D120  D(25,28,52,55)         30.6461         estimate D2E/DX2                !
 ! D121  D(30,28,52,53)         88.4544         estimate D2E/DX2                !
 ! D122  D(30,28,52,54)        -30.9264         estimate D2E/DX2                !
 ! D123  D(30,28,52,55)       -152.0857         estimate D2E/DX2                !
 --------------------------------------------------------------------------------
 Trust Radius=3.00D-01 FncErr=1.00D-07 GrdErr=1.00D-06 EigMax=2.50D+02 EigMin=1.00D-04
 Number of steps in this run=    291 maximum allowed number of steps=    330.
 GradGradGradGradGradGradGradGradGradGradGradGradGradGradGradGradGradGrad

 Leave Link  103 at Wed Jun  5 18:25:23 2019, MaxMem=  6442450944 cpu:               2.2 elap:               0.1
 (Enter /home/ekwan/sw/g16/l202.exe)
 Stoichiometry    C18H22F6O8S
 Framework group  C1[X(C18H22F6O8S)]
 Deg. of freedom   159
 Full point group                 C1      NOp   1
 Largest Abelian subgroup         C1      NOp   1
 Largest concise Abelian subgroup C1      NOp   1
                         Standard orientation:                         
 ---------------------------------------------------------------------
 Center     Atomic      Atomic             Coordinates (Angstroms)
 Number     Number       Type             X           Y           Z
 ---------------------------------------------------------------------
      1          6           0        3.524033   -0.222190    0.718138
      2          6           0        3.344591   -0.503760   -0.773583
      3          6           0        1.868126   -0.388198   -1.184456
      4          6           0        1.369585    1.096061    0.615150
      5          6           0        2.822302    1.081530    1.096413
      6          1           0        1.743036   -0.450068   -2.267166
      7          1           0        3.876331    0.285350   -1.331952
      8          1           0        3.074334   -1.042043    1.298069
      9          1           0        0.807171    0.329257    1.168558
     10          1           0        3.352244    1.920111    0.623543
     11          8           0        1.292199    0.806939   -0.791987
     12          8           0        1.188059   -1.525306   -0.585398
     13          8           0        3.886794   -1.764114   -1.068824
     14          8           0        4.893086   -0.085237    1.040041
     15          8           0        2.800728    1.233651    2.501781
     16          6           0        0.685435    2.433915    0.864593
     17          1           0        0.588132    2.545749    1.949145
     18          1           0       -0.323464    2.410206    0.426925
     19          8           0        1.400940    3.560800    0.411023
     20         16           0       -0.106137   -2.158970   -1.339371
     21          8           0       -0.203040   -3.512975   -0.823503
     22          8           0        0.005956   -1.893617   -2.768704
     23          6           0       -1.472840   -1.213008   -0.698073
     24          6           0       -2.136393   -1.673195    0.434439
     25          6           0       -1.845258   -0.038091   -1.343758
     26          6           0       -3.201458   -0.925880    0.932336
     27          1           0       -1.830950   -2.599307    0.910169
     28          6           0       -2.904925    0.699096   -0.822925
     29          1           0       -1.323593    0.291402   -2.235525
     30          6           0       -3.585412    0.260286    0.311407
     31          1           0       -4.413575    0.838820    0.707259
     32          6           0        4.182076   -1.971112   -2.438355
     33          1           0        3.274975   -2.044327   -3.054258
     34          1           0        4.818983   -1.167197   -2.835204
     35          1           0        4.721549   -2.919026   -2.501767
     36          6           0        5.494358   -1.252881    1.570367
     37          1           0        6.532159   -0.993273    1.797575
     38          1           0        4.996695   -1.569721    2.498808
     39          1           0        5.475081   -2.080557    0.852580
     40          6           0        3.713942    2.197497    2.996200
     41          1           0        3.590445    2.217074    4.082706
     42          1           0        4.748769    1.928718    2.753334
     43          1           0        3.494358    3.196536    2.593461
     44          6           0        1.202941    3.878601   -0.954643
     45          1           0        1.643506    4.866875   -1.114549
     46          1           0        0.131040    3.922022   -1.198838
     47          1           0        1.684685    3.155878   -1.623943
     48          6           0       -3.979342   -1.437194    2.116564
     49          9           0       -3.202598   -2.156345    2.943098
     50          9           0       -4.991901   -2.233434    1.727180
     51          9           0       -4.515226   -0.430460    2.826533
     52          6           0       -3.276149    2.012778   -1.457188
     53          9           0       -2.580192    3.030889   -0.905595
     54          9           0       -4.578035    2.293954   -1.294142
     55          9           0       -3.011510    2.021439   -2.772650
 ---------------------------------------------------------------------
 Rotational constants (GHZ):           0.1512234           0.0805272           0.0742376
 Leave Link  202 at Wed Jun  5 18:25:24 2019, MaxMem=  6442450944 cpu:               2.6 elap:               0.1
 (Enter /home/ekwan/sw/g16/l301.exe)
 Standard basis: 6-31G(d) (6D, 7F)
 Ernie: Thresh=  0.10000D-02 Tol=  0.10000D-05 Strict=F.
 There are   543 symmetry adapted cartesian basis functions of A   symmetry.
 There are   543 symmetry adapted basis functions of A   symmetry.
   543 basis functions,  1036 primitive gaussians,   543 cartesian basis functions
   132 alpha electrons      132 beta electrons
       nuclear repulsion energy      4279.3086191361 Hartrees.
 IExCor=  909 DFT=T Ex+Corr=mPW3PBE ExCW=0 ScaHFX=  0.200000
 ScaDFX=  0.800000  0.720000  1.000000  0.810000 ScalE2=  1.000000  1.000000
 IRadAn=      5 IRanWt=     -1 IRanGd=            0 ICorTp=0 IEmpDi=  4
 NAtoms=   55 NActive=   55 NUniq=   55 SFac= 1.00D+00 NAtFMM=   60 NAOKFM=F Big=F
 Integral buffers will be    131072 words long.
 Raffenetti 2 integral format.
 Two-electron integral symmetry is turned on.
 ------------------------------------------------------------------------------
 Polarizable Continuum Model (PCM)
 =================================
 Model                : PCM.
 Atomic radii         : UFF (Universal Force Field).
 Polarization charges : Total charges.
 Charge compensation  : None.
 Solution method      : On-the-fly selection.
 Cavity type          : Scaled VdW (van der Waals Surface) (Alpha=1.100).
 Cavity algorithm     : GePol (No added spheres)
                        Default sphere list used, NSphG=   55.
                        Lebedev-Laikov grids with approx.  5.0 points / Ang**2.
                        Smoothing algorithm: York/Karplus (Gamma=1.0000).
                        Polarization charges: spherical gaussians, with
                                              point-specific exponents (IZeta= 3).
                        Self-potential: point-specific (ISelfS= 7).
                        Self-field    : sphere-specific E.n sum rule (ISelfD= 2).
 1st derivatives      : Analytical E(r).r(x)/FMM algorithm (CHGder, D1EAlg=3).
                        Cavity 1st derivative terms included.
 Solvent              : TetraHydroFuran, Eps=   7.425700 Eps(inf)=   1.974025
 ------------------------------------------------------------------------------
 GePol: Number of generator spheres                  =      55
 GePol: Total number of spheres                      =      55
 GePol: Number of exposed spheres                    =      55 (100.00%)
 GePol: Number of points                             =    4004
 GePol: Average weight of points                     =       0.13
 GePol: Minimum weight of points                     =   0.37D-10
 GePol: Maximum weight of points                     =    0.20577
 GePol: Number of points with low weight             =     269
 GePol: Fraction of low-weight points (<1% of avg)   =       6.72%
 GePol: Cavity surface area                          =    505.708 Ang**2
 GePol: Cavity volume                                =    579.808 Ang**3
 Leave Link  301 at Wed Jun  5 18:25:24 2019, MaxMem=  6442450944 cpu:               6.0 elap:               0.3
 (Enter /home/ekwan/sw/g16/l302.exe)
 NPDir=0 NMtPBC=     1 NCelOv=     1 NCel=       1 NClECP=     1 NCelD=      1
         NCelK=      1 NCelE2=     1 NClLst=     1 CellRange=     0.0.
 One-electron integrals computed using PRISM.
 One-electron integral symmetry used in STVInt
 NBasis=   543 RedAO= T EigKep=  4.11D-04  NBF=   543
 NBsUse=   543 1.00D-06 EigRej= -1.00D+00 NBFU=   543
 Precomputing XC quadrature grid using
 IXCGrd= 4 IRadAn=           5 IRanWt=          -1 IRanGd=           0 AccXCQ= 0.00D+00.
 Generated NRdTot=       0 NPtTot=           0 NUsed=           0 NTot=          32
 NSgBfM=   531   530   531   531   531 MxSgAt=    55 MxSgA2=    55.
 Leave Link  302 at Wed Jun  5 18:25:32 2019, MaxMem=  6442450944 cpu:             219.7 elap:               7.9
 (Enter /home/ekwan/sw/g16/l303.exe)
 DipDrv:  MaxL=1.
 Leave Link  303 at Wed Jun  5 18:25:32 2019, MaxMem=  6442450944 cpu:              10.9 elap:               0.5
 (Enter /home/ekwan/sw/g16/l401.exe)
 ExpMin= 1.17D-01 ExpMax= 2.19D+04 ExpMxC= 3.30D+03 IAcc=3 IRadAn=         5 AccDes= 0.00D+00
 Harris functional with IExCor=  909 and IRadAn=       5 diagonalized for initial guess.
 HarFok:  IExCor=  909 AccDes= 0.00D+00 IRadAn=         5 IDoV= 1 UseB2=F ITyADJ=14
 ICtDFT=  3500011 ScaDFX=  1.000000  1.000000  1.000000  1.000000
 FoFCou: FMM=F IPFlag=           0 FMFlag=      100000 FMFlg1=           0
         NFxFlg=           0 DoJE=T BraDBF=F KetDBF=T FulRan=T
         wScrn=  0.000000 ICntrl=       500 IOpCl=  0 I1Cent=   200000004 NGrid=           0
         NMat0=    1 NMatS0=      1 NMatT0=    0 NMatD0=    1 NMtDS0=    0 NMtDT0=    0
 Petite list used in FoFCou.
 Harris En= -2297.55435698703    
 JPrj=0 DoOrth=F DoCkMO=F.
 Leave Link  401 at Wed Jun  5 18:25:41 2019, MaxMem=  6442450944 cpu:             248.5 elap:               8.4
 (Enter /home/ekwan/sw/g16/l502.exe)
 Integral symmetry usage will be decided dynamically.
 Closed shell SCF:
 Using DIIS extrapolation, IDIIS=  1040.
 NGot=  6442450944 LenX=  6441838015 LenY=  6441542623
 Requested convergence on RMS density matrix=1.00D-08 within 128 cycles.
 Requested convergence on MAX density matrix=1.00D-06.
 Requested convergence on             energy=1.00D-06.
 No special actions if energy rises.
 Fock matrices will be formed incrementally for  20 cycles.

 Cycle   1  Pass 1  IDiag  1:
 FoFJK:  IHMeth= 1 ICntrl=       0 DoSepK=F KAlg= 0 I1Cent=           0 FoldK=F
 IRaf= 680000000 NMat=       1 IRICut=       1 DoRegI=T DoRafI=F ISym2E= 0 IDoP0=0 IntGTp=1.
 FoFCou: FMM=F IPFlag=           0 FMFlag=      100000 FMFlg1=           0
         NFxFlg=           0 DoJE=F BraDBF=F KetDBF=F FulRan=T
         wScrn=  0.000000 ICntrl=         0 IOpCl=  0 I1Cent=           0 NGrid=           0
         NMat0=    1 NMatS0=      1 NMatT0=    0 NMatD0=    1 NMtDS0=    0 NMtDT0=    0
 Symmetry not used in FoFCou.
 Inv3:  Mode=1 IEnd=    48096048.
 Iteration    1 A*A^-1 deviation from unit magnitude is 6.33D-15 for   3993.
 Iteration    1 A*A^-1 deviation from orthogonality  is 2.71D-15 for   3993   2785.
 Iteration    1 A^-1*A deviation from unit magnitude is 6.33D-15 for   3993.
 Iteration    1 A^-1*A deviation from orthogonality  is 2.11D-15 for   3835   2988.
 E= -2296.15587216789    
 DIIS: error= 2.74D-02 at cycle   1 NSaved=   1.
 NSaved= 1 IEnMin= 1 EnMin= -2296.15587216789     IErMin= 1 ErrMin= 2.74D-02
 ErrMax= 2.74D-02  0.00D+00 EMaxC= 1.00D-01 BMatC= 7.88D-01 BMatP= 7.88D-01
 IDIUse=3 WtCom= 7.26D-01 WtEn= 2.74D-01
 Coeff-Com:  0.100D+01
 Coeff-En:   0.100D+01
 Coeff:      0.100D+01
 Gap=     0.152 Goal=   None    Shift=    0.000
 GapD=    0.152 DampG=1.000 DampE=0.500 DampFc=0.5000 IDamp=-1.
 Damping current iteration by 5.00D-01
 RMSDP=3.66D-03 MaxDP=5.44D-01              OVMax= 1.91D-01

 Cycle   2  Pass 1  IDiag  1:
 RMSU=  1.83D-03    CP:  9.97D-01
 E= -2296.34294192391     Delta-E=       -0.187069756022 Rises=F Damp=T
 DIIS: error= 7.79D-03 at cycle   2 NSaved=   2.
 NSaved= 2 IEnMin= 2 EnMin= -2296.34294192391     IErMin= 2 ErrMin= 7.79D-03
 ErrMax= 7.79D-03  0.00D+00 EMaxC= 1.00D-01 BMatC= 9.82D-02 BMatP= 7.88D-01
 IDIUse=3 WtCom= 9.22D-01 WtEn= 7.79D-02
 Coeff-Com:  0.195D+00 0.805D+00
 Coeff-En:   0.327D+00 0.673D+00
 Coeff:      0.205D+00 0.795D+00
 Gap=     0.201 Goal=   None    Shift=    0.000
 RMSDP=1.07D-03 MaxDP=1.29D-01 DE=-1.87D-01 OVMax= 1.60D-01

 Cycle   3  Pass 1  IDiag  1:
 RMSU=  9.08D-04    CP:  9.92D-01  6.91D-01
 E= -2296.74026481678     Delta-E=       -0.397322892872 Rises=F Damp=F
 DIIS: error= 7.01D-03 at cycle   3 NSaved=   3.
 NSaved= 3 IEnMin= 3 EnMin= -2296.74026481678     IErMin= 3 ErrMin= 7.01D-03
 ErrMax= 7.01D-03  0.00D+00 EMaxC= 1.00D-01 BMatC= 6.18D-02 BMatP= 9.82D-02
 IDIUse=3 WtCom= 9.30D-01 WtEn= 7.01D-02
 Coeff-Com:  0.503D-01 0.442D+00 0.508D+00
 Coeff-En:   0.000D+00 0.000D+00 0.100D+01
 Coeff:      0.467D-01 0.411D+00 0.542D+00
 Gap=     0.172 Goal=   None    Shift=    0.000
 RMSDP=6.31D-04 MaxDP=4.16D-02 DE=-3.97D-01 OVMax= 5.72D-02

 Cycle   4  Pass 1  IDiag  1:
 RMSU=  3.79D-04    CP:  9.95D-01  7.94D-01  4.88D-01
 E= -2296.78262187868     Delta-E=       -0.042357061900 Rises=F Damp=F
 DIIS: error= 2.73D-03 at cycle   4 NSaved=   4.
 NSaved= 4 IEnMin= 4 EnMin= -2296.78262187868     IErMin= 4 ErrMin= 2.73D-03
 ErrMax= 2.73D-03  0.00D+00 EMaxC= 1.00D-01 BMatC= 1.24D-02 BMatP= 6.18D-02
 IDIUse=3 WtCom= 9.73D-01 WtEn= 2.73D-02
 Coeff-Com: -0.371D-02 0.111D+00 0.326D+00 0.567D+00
 Coeff-En:   0.000D+00 0.000D+00 0.176D+00 0.824D+00
 Coeff:     -0.360D-02 0.108D+00 0.322D+00 0.574D+00
 Gap=     0.172 Goal=   None    Shift=    0.000
 RMSDP=2.21D-04 MaxDP=1.62D-02 DE=-4.24D-02 OVMax= 2.30D-02

 Cycle   5  Pass 1  IDiag  1:
 RMSU=  9.90D-05    CP:  9.95D-01  7.75D-01  6.17D-01  5.91D-01
 E= -2296.79197404496     Delta-E=       -0.009352166282 Rises=F Damp=F
 DIIS: error= 1.06D-03 at cycle   5 NSaved=   5.
 NSaved= 5 IEnMin= 5 EnMin= -2296.79197404496     IErMin= 5 ErrMin= 1.06D-03
 ErrMax= 1.06D-03  0.00D+00 EMaxC= 1.00D-01 BMatC= 9.26D-04 BMatP= 1.24D-02
 IDIUse=3 WtCom= 9.89D-01 WtEn= 1.06D-02
 Coeff-Com: -0.492D-02 0.275D-01 0.130D+00 0.312D+00 0.536D+00
 Coeff-En:   0.000D+00 0.000D+00 0.000D+00 0.000D+00 0.100D+01
 Coeff:     -0.487D-02 0.272D-01 0.128D+00 0.309D+00 0.541D+00
 Gap=     0.172 Goal=   None    Shift=    0.000
 RMSDP=5.98D-05 MaxDP=4.44D-03 DE=-9.35D-03 OVMax= 7.87D-03

 Cycle   6  Pass 1  IDiag  1:
 RMSU=  3.28D-05    CP:  9.94D-01  7.81D-01  6.19D-01  6.46D-01  5.58D-01
 E= -2296.79272298370     Delta-E=       -0.000748938734 Rises=F Damp=F
 DIIS: error= 2.33D-04 at cycle   6 NSaved=   6.
 NSaved= 6 IEnMin= 6 EnMin= -2296.79272298370     IErMin= 6 ErrMin= 2.33D-04
 ErrMax= 2.33D-04  0.00D+00 EMaxC= 1.00D-01 BMatC= 5.84D-05 BMatP= 9.26D-04
 IDIUse=3 WtCom= 9.98D-01 WtEn= 2.33D-03
 Coeff-Com: -0.216D-02 0.449D-02 0.352D-01 0.102D+00 0.269D+00 0.591D+00
 Coeff-En:   0.000D+00 0.000D+00 0.000D+00 0.000D+00 0.000D+00 0.100D+01
 Coeff:     -0.216D-02 0.448D-02 0.351D-01 0.101D+00 0.269D+00 0.592D+00
 Gap=     0.172 Goal=   None    Shift=    0.000
 RMSDP=1.66D-05 MaxDP=9.14D-04 DE=-7.49D-04 OVMax= 1.99D-03

 Cycle   7  Pass 1  IDiag  1:
 RMSU=  8.17D-06    CP:  9.94D-01  7.80D-01  6.20D-01  6.51D-01  6.16D-01
                    CP:  6.05D-01
 E= -2296.79277129412     Delta-E=       -0.000048310421 Rises=F Damp=F
 DIIS: error= 3.74D-05 at cycle   7 NSaved=   7.
 NSaved= 7 IEnMin= 7 EnMin= -2296.79277129412     IErMin= 7 ErrMin= 3.74D-05
 ErrMax= 3.74D-05  0.00D+00 EMaxC= 1.00D-01 BMatC= 3.09D-06 BMatP= 5.84D-05
 IDIUse=1 WtCom= 1.00D+00 WtEn= 0.00D+00
 Coeff-Com: -0.868D-03 0.649D-03 0.103D-01 0.337D-01 0.106D+00 0.291D+00
 Coeff-Com:  0.559D+00
 Coeff:     -0.868D-03 0.649D-03 0.103D-01 0.337D-01 0.106D+00 0.291D+00
 Coeff:      0.559D+00
 Gap=     0.173 Goal=   None    Shift=    0.000
 RMSDP=3.94D-06 MaxDP=2.27D-04 DE=-4.83D-05 OVMax= 4.58D-04

 Cycle   8  Pass 1  IDiag  1:
 RMSU=  2.39D-06    CP:  9.94D-01  7.80D-01  6.20D-01  6.51D-01  6.16D-01
                    CP:  6.52D-01  6.70D-01
 E= -2296.79277370139     Delta-E=       -0.000002407270 Rises=F Damp=F
 DIIS: error= 1.54D-05 at cycle   8 NSaved=   8.
 NSaved= 8 IEnMin= 8 EnMin= -2296.79277370139     IErMin= 8 ErrMin= 1.54D-05
 ErrMax= 1.54D-05  0.00D+00 EMaxC= 1.00D-01 BMatC= 3.46D-07 BMatP= 3.09D-06
 IDIUse=1 WtCom= 1.00D+00 WtEn= 0.00D+00
 Coeff-Com: -0.213D-03-0.125D-03 0.138D-02 0.590D-02 0.255D-01 0.870D-01
 Coeff-Com:  0.291D+00 0.590D+00
 Coeff:     -0.213D-03-0.125D-03 0.138D-02 0.590D-02 0.255D-01 0.870D-01
 Coeff:      0.291D+00 0.590D+00
 Gap=     0.173 Goal=   None    Shift=    0.000
 RMSDP=1.29D-06 MaxDP=9.01D-05 DE=-2.41D-06 OVMax= 1.21D-04

 Cycle   9  Pass 1  IDiag  1:
 RMSU=  8.67D-07    CP:  9.94D-01  7.80D-01  6.20D-01  6.51D-01  6.18D-01
                    CP:  6.55D-01  7.08D-01  6.40D-01
 E= -2296.79277392608     Delta-E=       -0.000000224695 Rises=F Damp=F
 DIIS: error= 8.56D-06 at cycle   9 NSaved=   9.
 NSaved= 9 IEnMin= 9 EnMin= -2296.79277392608     IErMin= 9 ErrMin= 8.56D-06
 ErrMax= 8.56D-06  0.00D+00 EMaxC= 1.00D-01 BMatC= 5.86D-08 BMatP= 3.46D-07
 IDIUse=1 WtCom= 1.00D+00 WtEn= 0.00D+00
 Coeff-Com: -0.321D-04-0.943D-04-0.246D-03-0.232D-03 0.326D-02 0.183D-01
 Coeff-Com:  0.106D+00 0.347D+00 0.526D+00
 Coeff:     -0.321D-04-0.943D-04-0.246D-03-0.232D-03 0.326D-02 0.183D-01
 Coeff:      0.106D+00 0.347D+00 0.526D+00
 Gap=     0.173 Goal=   None    Shift=    0.000
 RMSDP=5.40D-07 MaxDP=4.67D-05 DE=-2.25D-07 OVMax= 6.07D-05

 Cycle  10  Pass 1  IDiag  1:
 RMSU=  2.76D-07    CP:  9.94D-01  7.80D-01  6.20D-01  6.51D-01  6.19D-01
                    CP:  6.54D-01  7.19D-01  7.15D-01  5.26D-01
 E= -2296.79277396841     Delta-E=       -0.000000042323 Rises=F Damp=F
 DIIS: error= 2.71D-06 at cycle  10 NSaved=  10.
 NSaved=10 IEnMin=10 EnMin= -2296.79277396841     IErMin=10 ErrMin= 2.71D-06
 ErrMax= 2.71D-06  0.00D+00 EMaxC= 1.00D-01 BMatC= 6.26D-09 BMatP= 5.86D-08
 IDIUse=1 WtCom= 1.00D+00 WtEn= 0.00D+00
 Coeff-Com: -0.939D-06-0.373D-04-0.267D-03-0.689D-03-0.564D-03 0.239D-02
 Coeff-Com:  0.333D-01 0.145D+00 0.312D+00 0.509D+00
 Coeff:     -0.939D-06-0.373D-04-0.267D-03-0.689D-03-0.564D-03 0.239D-02
 Coeff:      0.333D-01 0.145D+00 0.312D+00 0.509D+00
 Gap=     0.173 Goal=   None    Shift=    0.000
 RMSDP=1.62D-07 MaxDP=1.19D-05 DE=-4.23D-08 OVMax= 1.69D-05

 Cycle  11  Pass 1  IDiag  1:
 RMSU=  9.85D-08    CP:  9.94D-01  7.80D-01  6.20D-01  6.51D-01  6.19D-01
                    CP:  6.55D-01  7.23D-01  7.18D-01  5.98D-01  6.17D-01
 E= -2296.79277397308     Delta-E=       -0.000000004676 Rises=F Damp=F
 DIIS: error= 4.79D-07 at cycle  11 NSaved=  11.
 NSaved=11 IEnMin=11 EnMin= -2296.79277397308     IErMin=11 ErrMin= 4.79D-07
 ErrMax= 4.79D-07  0.00D+00 EMaxC= 1.00D-01 BMatC= 4.40D-10 BMatP= 6.26D-09
 IDIUse=1 WtCom= 1.00D+00 WtEn= 0.00D+00
 Coeff-Com:  0.262D-05-0.104D-04-0.125D-03-0.358D-03-0.737D-03-0.911D-03
 Coeff-Com:  0.498D-02 0.357D-01 0.106D+00 0.267D+00 0.588D+00
 Coeff:      0.262D-05-0.104D-04-0.125D-03-0.358D-03-0.737D-03-0.911D-03
 Coeff:      0.498D-02 0.357D-01 0.106D+00 0.267D+00 0.588D+00
 Gap=     0.173 Goal=   None    Shift=    0.000
 RMSDP=4.53D-08 MaxDP=3.79D-06 DE=-4.68D-09 OVMax= 3.11D-06

 Cycle  12  Pass 1  IDiag  1:
 RMSU=  2.45D-08    CP:  9.94D-01  7.80D-01  6.20D-01  6.51D-01  6.19D-01
                    CP:  6.55D-01  7.23D-01  7.22D-01  6.08D-01  6.72D-01
                    CP:  6.87D-01
 E= -2296.79277397350     Delta-E=       -0.000000000417 Rises=F Damp=F
 DIIS: error= 1.18D-07 at cycle  12 NSaved=  12.
 NSaved=12 IEnMin=12 EnMin= -2296.79277397350     IErMin=12 ErrMin= 1.18D-07
 ErrMax= 1.18D-07  0.00D+00 EMaxC= 1.00D-01 BMatC= 2.47D-11 BMatP= 4.40D-10
 IDIUse=1 WtCom= 1.00D+00 WtEn= 0.00D+00
 Coeff-Com:  0.972D-06-0.820D-06-0.334D-04-0.972D-04-0.286D-03-0.621D-03
 Coeff-Com: -0.674D-03 0.296D-02 0.191D-01 0.704D-01 0.249D+00 0.661D+00
 Coeff:      0.972D-06-0.820D-06-0.334D-04-0.972D-04-0.286D-03-0.621D-03
 Coeff:     -0.674D-03 0.296D-02 0.191D-01 0.704D-01 0.249D+00 0.661D+00
 Gap=     0.173 Goal=   None    Shift=    0.000
 RMSDP=1.20D-08 MaxDP=8.40D-07 DE=-4.17D-10 OVMax= 1.30D-06

 Cycle  13  Pass 1  IDiag  1:
 RMSU=  8.36D-09    CP:  9.94D-01  7.80D-01  6.20D-01  6.51D-01  6.19D-01
                    CP:  6.55D-01  7.23D-01  7.22D-01  6.09D-01  6.77D-01
                    CP:  7.24D-01  7.31D-01
 E= -2296.79277397346     Delta-E=        0.000000000043 Rises=F Damp=F
 DIIS: error= 3.67D-08 at cycle  13 NSaved=  13.
 NSaved=13 IEnMin=12 EnMin= -2296.79277397350     IErMin=13 ErrMin= 3.67D-08
 ErrMax= 3.67D-08  0.00D+00 EMaxC= 1.00D-01 BMatC= 3.37D-12 BMatP= 2.47D-11
 IDIUse=1 WtCom= 1.00D+00 WtEn= 0.00D+00
 Coeff-Com:  0.270D-06 0.461D-06-0.553D-05-0.159D-04-0.773D-04-0.219D-03
 Coeff-Com: -0.714D-03-0.171D-02 0.184D-04 0.955D-02 0.625D-01 0.324D+00
 Coeff-Com:  0.607D+00
 Coeff:      0.270D-06 0.461D-06-0.553D-05-0.159D-04-0.773D-04-0.219D-03
 Coeff:     -0.714D-03-0.171D-02 0.184D-04 0.955D-02 0.625D-01 0.324D+00
 Coeff:      0.607D+00
 Gap=     0.173 Goal=   None    Shift=    0.000
 RMSDP=4.13D-09 MaxDP=2.74D-07 DE= 4.27D-11 OVMax= 6.62D-07

 Error on total polarization charges =  0.00870
 SCF Done:  E(RmPW3PBE) =  -2296.79277397     A.U. after   13 cycles
            NFock= 13  Conv=0.41D-08     -V/T= 2.0072
 KE= 2.280325265790D+03 PE=-1.396493234567D+04 EE= 5.108505686771D+03
 Leave Link  502 at Wed Jun  5 18:29:39 2019, MaxMem=  6442450944 cpu:            7117.0 elap:             238.0
 (Enter /home/ekwan/sw/g16/l701.exe)
 ... and contract with generalized density number  0.
 Compute integral first derivatives.
 D1PCM: PCM CHGder 1st derivatives, ID1Alg=3 FixD1E=F DoIter=F DoCFld=F I1PDM=0.
 GePol: Maximum number of non-zero 1st derivatives   =     221
 Leave Link  701 at Wed Jun  5 18:29:49 2019, MaxMem=  6442450944 cpu:             285.1 elap:              10.3
 (Enter /home/ekwan/sw/g16/l702.exe)
 L702 exits ... SP integral derivatives will be done elsewhere.
 Leave Link  702 at Wed Jun  5 18:29:49 2019, MaxMem=  6442450944 cpu:               1.7 elap:               0.1
 (Enter /home/ekwan/sw/g16/l703.exe)
 Integral derivatives from FoFJK, PRISM(SPDF).
 Compute integral first derivatives, UseDBF=F ICtDFT=           0.
 Calling FoFJK, ICntrl=      2127 FMM=F ISym2X=0 I1Cent= 0 IOpClX= 0 NMat=1 NMatS=1 NMatT=0.
 FoFJK:  IHMeth= 1 ICntrl=    2127 DoSepK=F KAlg= 0 I1Cent=           0 FoldK=F
 IRaf=         0 NMat=       1 IRICut=       1 DoRegI=T DoRafI=F ISym2E= 0 IDoP0=0 IntGTp=1.
 FoFCou: FMM=F IPFlag=           0 FMFlag=      100000 FMFlg1=         800
         NFxFlg=           0 DoJE=F BraDBF=F KetDBF=F FulRan=T
         wScrn=  0.000000 ICntrl=      2127 IOpCl=  0 I1Cent=           0 NGrid=           0
         NMat0=    1 NMatS0=      1 NMatT0=    0 NMatD0=    1 NMtDS0=    0 NMtDT0=    0
 Symmetry not used in FoFCou.
 Leave Link  703 at Wed Jun  5 18:30:27 2019, MaxMem=  6442450944 cpu:            1101.4 elap:              37.5
 (Enter /home/ekwan/sw/g16/l716.exe)
 Dipole        = 3.45795293D-01 1.14002096D+00-1.40438532D-01
 ***** Axes restored to original set *****
 -------------------------------------------------------------------
 Center     Atomic                   Forces (Hartrees/Bohr)
 Number     Number              X              Y              Z
 -------------------------------------------------------------------
      1        6          -0.000007856    0.000006125    0.000000285
      2        6          -0.000008360    0.000005924    0.000001960
      3        6           0.000006901    0.000009561    0.000004030
      4        6          -0.000001492    0.000002877    0.000014979
      5        6           0.000006112   -0.000009285   -0.000004913
      6        1          -0.000001862   -0.000001809   -0.000000571
      7        1           0.000001530    0.000000306    0.000000260
      8        1           0.000002442    0.000000690   -0.000000517
      9        1           0.000000686   -0.000000207   -0.000003967
     10        1          -0.000001886    0.000002313   -0.000000938
     11        8           0.000001393   -0.000006923   -0.000010611
     12        8          -0.000008826   -0.000005815   -0.000007379
     13        8           0.000003237   -0.000003636    0.000000816
     14        8           0.000003906    0.000003136   -0.000000317
     15        8          -0.000007475    0.000005008    0.000003293
     16        6          -0.000006173   -0.000007838    0.000000538
     17        1           0.000001256    0.000000976   -0.000001310
     18        1          -0.000000369    0.000002154   -0.000000394
     19        8           0.000002876    0.000003505   -0.000002024
     20       16           0.000005919    0.000002739    0.000006130
     21        8           0.000003121    0.000000359    0.000003467
     22        8           0.000001906    0.000002849   -0.000000503
     23        6          -0.000004988   -0.000009972    0.000004760
     24        6           0.000002043    0.000003117   -0.000002766
     25        6           0.000002806   -0.000000345   -0.000000185
     26        6           0.000000838   -0.000001008   -0.000001220
     27        1           0.000000465   -0.000000916    0.000002402
     28        6          -0.000000910    0.000000335    0.000001781
     29        1           0.000000477   -0.000001503   -0.000000986
     30        6           0.000000813   -0.000005597   -0.000001640
     31        1          -0.000000546   -0.000000060   -0.000000489
     32        6          -0.000000081   -0.000000437   -0.000003241
     33        1           0.000001549   -0.000001458    0.000002282
     34        1           0.000000234    0.000000777    0.000001074
     35        1           0.000003117    0.000000919    0.000000588
     36        6           0.000002191   -0.000000862    0.000002632
     37        1           0.000000834    0.000002972    0.000001772
     38        1           0.000000034    0.000002366    0.000000063
     39        1           0.000001003    0.000002286    0.000000792
     40        6           0.000004857    0.000003075    0.000002579
     41        1          -0.000001373    0.000002359   -0.000000421
     42        1          -0.000002221    0.000002155   -0.000000596
     43        1          -0.000001573    0.000000796   -0.000000842
     44        6          -0.000001767    0.000001744   -0.000003851
     45        1          -0.000002698    0.000000963   -0.000000874
     46        1          -0.000000623   -0.000001695   -0.000001289
     47        1           0.000000006    0.000000598   -0.000000204
     48        6          -0.000003199   -0.000004818    0.000005380
     49        9          -0.000002740    0.000003729   -0.000002700
     50        9           0.000003343    0.000000891    0.000000023
     51        9           0.000004214   -0.000005069   -0.000001162
     52        6          -0.000007880    0.000001011   -0.000010327
     53        9          -0.000004232   -0.000003998   -0.000000128
     54        9           0.000009205   -0.000003195    0.000001569
     55        9          -0.000000183   -0.000002166    0.000002911
 -------------------------------------------------------------------
 Cartesian Forces:  Max     0.000014979 RMS     0.000003786
 Leave Link  716 at Wed Jun  5 18:30:27 2019, MaxMem=  6442450944 cpu:               2.0 elap:               0.1
 (Enter /home/ekwan/sw/g16/l103.exe)

 GradGradGradGradGradGradGradGradGradGradGradGradGradGradGradGradGradGrad
 Berny optimization.
 FormGI is forming the generalized inverse of G from B-inverse, IUseBI=4.
 Internal  Forces:  Max     0.000012215 RMS     0.000002210
 Search for a local minimum.
 Step number   1 out of a maximum of  291
 All quantities printed in internal units (Hartrees-Bohrs-Radians)
 RMS Force = .22103D-05 SwitMx=.10000D-02 MixMth= 2
 Mixed Optimization -- En-DIIS/RFO-DIIS
 Second derivative matrix not updated -- first step.
 ITU=  0
     Eigenvalues ---    0.00459   0.00582   0.00614   0.00641   0.00683
     Eigenvalues ---    0.00696   0.00976   0.01389   0.01469   0.01475
     Eigenvalues ---    0.01477   0.01479   0.01510   0.01519   0.01552
     Eigenvalues ---    0.01562   0.01613   0.01620   0.01646   0.02178
     Eigenvalues ---    0.02181   0.02188   0.02194   0.02199   0.02204
     Eigenvalues ---    0.02271   0.02904   0.03315   0.04407   0.04578
     Eigenvalues ---    0.04668   0.04835   0.04909   0.05240   0.05266
     Eigenvalues ---    0.05783   0.06065   0.06557   0.06983   0.07033
     Eigenvalues ---    0.07165   0.07803   0.09298   0.09991   0.10028
     Eigenvalues ---    0.10060   0.10088   0.10569   0.10580   0.10604
     Eigenvalues ---    0.10607   0.10714   0.10742   0.10817   0.10931
     Eigenvalues ---    0.10936   0.10976   0.11477   0.11853   0.11880
     Eigenvalues ---    0.14145   0.14961   0.15999   0.16000   0.16000
     Eigenvalues ---    0.16000   0.16000   0.16000   0.16000   0.16000
     Eigenvalues ---    0.16000   0.16000   0.16000   0.16000   0.16000
     Eigenvalues ---    0.16000   0.16000   0.16450   0.16822   0.17484
     Eigenvalues ---    0.18701   0.19710   0.19794   0.20795   0.22141
     Eigenvalues ---    0.23481   0.23483   0.23502   0.24969   0.24975
     Eigenvalues ---    0.25000   0.25000   0.25000   0.25000   0.25000
     Eigenvalues ---    0.25000   0.25000   0.25000   0.25000   0.25000
     Eigenvalues ---    0.25000   0.25000   0.25000   0.27180   0.27624
     Eigenvalues ---    0.28717   0.28857   0.29137   0.30060   0.31725
     Eigenvalues ---    0.31830   0.33322   0.33647   0.33654   0.33658
     Eigenvalues ---    0.33679   0.33682   0.33711   0.33758   0.33800
     Eigenvalues ---    0.33807   0.34069   0.34083   0.34158   0.34282
     Eigenvalues ---    0.34380   0.34391   0.34395   0.34523   0.34621
     Eigenvalues ---    0.35393   0.35395   0.35467   0.37714   0.38394
     Eigenvalues ---    0.42712   0.42799   0.42941   0.43008   0.43036
     Eigenvalues ---    0.43058   0.43417   0.43526   0.44034   0.45055
     Eigenvalues ---    0.46446   0.46513   0.46757   0.46888   0.46949
     Eigenvalues ---    0.47088   0.54812   0.55948   0.56448   0.56536
     Eigenvalues ---    0.56793   0.56793   0.92424   0.94971
 RFO step:  Lambda=-1.04932567D-08 EMin= 4.59064175D-03
 Linear search not attempted -- first point.
 Iteration  1 RMS(Cart)=  0.00026451 RMS(Int)=  0.00000001
 Iteration  2 RMS(Cart)=  0.00000002 RMS(Int)=  0.00000000
 ITry= 1 IFail=0 DXMaxC= 9.46D-04 DCOld= 1.00D+10 DXMaxT= 3.00D-01 DXLimC= 3.00D+00 Rises=F
 Variable       Old X    -DE/DX   Delta X   Delta X   Delta X     New X
                                 (Linear)    (Quad)   (Total)
    R1        2.88869   0.00000   0.00000   0.00000   0.00000   2.88870
    R2        2.88776   0.00000   0.00000  -0.00001  -0.00001   2.88775
    R3        2.07931   0.00000   0.00000   0.00000   0.00000   2.07930
    R4        2.67026   0.00001   0.00000   0.00001   0.00001   2.67027
    R5        2.90436   0.00000   0.00000  -0.00001  -0.00001   2.90434
    R6        2.08489   0.00000   0.00000   0.00000   0.00000   2.08489
    R7        2.65212   0.00001   0.00000   0.00002   0.00002   2.65213
    R8        2.06295   0.00000   0.00000   0.00000   0.00000   2.06295
    R9        2.61444  -0.00001   0.00000  -0.00001  -0.00001   2.61443
   R10        2.74783   0.00000   0.00000   0.00001   0.00001   2.74784
   R11        2.89209   0.00000   0.00000   0.00000   0.00000   2.89209
   R12        2.07918   0.00000   0.00000  -0.00001  -0.00001   2.07917
   R13        2.71859   0.00001   0.00000   0.00002   0.00002   2.71861
   R14        2.87843   0.00000   0.00000   0.00000   0.00000   2.87843
   R15        2.07669   0.00000   0.00000   0.00000   0.00000   2.07669
   R16        2.67158   0.00001   0.00000   0.00001   0.00001   2.67160
   R17        3.07332  -0.00001   0.00000  -0.00002  -0.00002   3.07330
   R18        2.67625   0.00000   0.00000   0.00001   0.00001   2.67626
   R19        2.67659   0.00000   0.00000   0.00001   0.00001   2.67660
   R20        2.67742   0.00000   0.00000   0.00001   0.00001   2.67743
   R21        2.06856   0.00000   0.00000   0.00000   0.00000   2.06856
   R22        2.07869   0.00000   0.00000   0.00000   0.00000   2.07869
   R23        2.66414   0.00001   0.00000   0.00002   0.00002   2.66416
   R24        2.67598   0.00000   0.00000   0.00001   0.00001   2.67598
   R25        2.74423   0.00000   0.00000   0.00000   0.00000   2.74423
   R26        2.75535   0.00000   0.00000   0.00000   0.00000   2.75536
   R27        3.36668   0.00000   0.00000   0.00000   0.00000   3.36667
   R28        2.62846   0.00000   0.00000  -0.00001  -0.00001   2.62845
   R29        2.62939   0.00000   0.00000   0.00000   0.00000   2.62940
   R30        2.63259   0.00000   0.00000   0.00000   0.00000   2.63259
   R31        2.05042   0.00000   0.00000   0.00000   0.00000   2.05042
   R32        2.63046   0.00000   0.00000   0.00000   0.00000   2.63046
   R33        2.04924   0.00000   0.00000   0.00000   0.00000   2.04924
   R34        2.63206   0.00000   0.00000   0.00000   0.00000   2.63206
   R35        2.84650   0.00000   0.00000   0.00000   0.00000   2.84650
   R36        2.63366   0.00000   0.00000   0.00000   0.00000   2.63366
   R37        2.84456   0.00000   0.00000   0.00000   0.00000   2.84456
   R38        2.05038   0.00000   0.00000   0.00000   0.00000   2.05038
   R39        2.07658   0.00000   0.00000   0.00000   0.00000   2.07657
   R40        2.07820   0.00000   0.00000   0.00000   0.00000   2.07820
   R41        2.06456   0.00000   0.00000   0.00000   0.00000   2.06456
   R42        2.06668   0.00000   0.00000   0.00000   0.00000   2.06668
   R43        2.07875   0.00000   0.00000   0.00000   0.00000   2.07875
   R44        2.07064   0.00000   0.00000   0.00000   0.00000   2.07064
   R45        2.06675   0.00000   0.00000   0.00000   0.00000   2.06675
   R46        2.07190   0.00000   0.00000   0.00000   0.00000   2.07189
   R47        2.07741   0.00000   0.00000   0.00000   0.00000   2.07740
   R48        2.06694   0.00000   0.00000   0.00000   0.00000   2.06694
   R49        2.07912   0.00000   0.00000   0.00000   0.00000   2.07912
   R50        2.07213   0.00000   0.00000   0.00000   0.00000   2.07213
   R51        2.53792  -0.00001   0.00000  -0.00001  -0.00001   2.53790
   R52        2.54299   0.00000   0.00000  -0.00001  -0.00001   2.54299
   R53        2.53867  -0.00001   0.00000  -0.00001  -0.00001   2.53866
   R54        2.55299   0.00000   0.00000  -0.00001  -0.00001   2.55299
   R55        2.53572  -0.00001   0.00000  -0.00002  -0.00002   2.53571
   R56        2.53572   0.00000   0.00000  -0.00001  -0.00001   2.53571
    A1        1.92283   0.00000   0.00000   0.00000   0.00000   1.92283
    A2        1.90615   0.00000   0.00000  -0.00001  -0.00001   1.90615
    A3        1.93253   0.00000   0.00000   0.00001   0.00001   1.93254
    A4        1.89393   0.00000   0.00000   0.00002   0.00002   1.89394
    A5        1.88161   0.00000   0.00000   0.00000   0.00000   1.88160
    A6        1.92636   0.00000   0.00000  -0.00001  -0.00001   1.92635
    A7        1.93885   0.00000   0.00000   0.00000   0.00000   1.93885
    A8        1.88132   0.00000   0.00000   0.00000   0.00000   1.88132
    A9        1.90219   0.00000   0.00000   0.00000   0.00000   1.90218
   A10        1.84827   0.00000   0.00000   0.00000   0.00000   1.84827
   A11        1.96322   0.00000   0.00000   0.00002   0.00002   1.96323
   A12        1.92800   0.00000   0.00000  -0.00002  -0.00002   1.92798
   A13        1.95084   0.00000   0.00000   0.00001   0.00001   1.95085
   A14        1.97037   0.00000   0.00000   0.00000   0.00000   1.97037
   A15        1.85496   0.00000   0.00000  -0.00001  -0.00001   1.85496
   A16        1.85731   0.00000   0.00000   0.00001   0.00001   1.85731
   A17        1.88672   0.00000   0.00000  -0.00002  -0.00002   1.88670
   A18        1.94333   0.00000   0.00000   0.00001   0.00001   1.94334
   A19        1.89697   0.00000   0.00000   0.00001   0.00001   1.89698
   A20        1.93557   0.00000   0.00000   0.00001   0.00001   1.93557
   A21        1.96404   0.00000   0.00000  -0.00001  -0.00001   1.96403
   A22        1.90119   0.00000   0.00000  -0.00003  -0.00003   1.90116
   A23        1.87566   0.00000   0.00000   0.00002   0.00002   1.87568
   A24        1.88866   0.00000   0.00000   0.00000   0.00000   1.88866
   A25        1.94566   0.00000   0.00000   0.00002   0.00002   1.94568
   A26        1.89976   0.00000   0.00000  -0.00001  -0.00001   1.89975
   A27        1.92291   0.00000   0.00000   0.00003   0.00003   1.92294
   A28        1.89145   0.00000   0.00000  -0.00002  -0.00002   1.89143
   A29        1.87244   0.00000   0.00000  -0.00002  -0.00002   1.87243
   A30        1.93157   0.00000   0.00000  -0.00001  -0.00001   1.93157
   A31        2.01384   0.00000   0.00000  -0.00001  -0.00001   2.01383
   A32        2.07816   0.00001   0.00000   0.00003   0.00003   2.07819
   A33        1.99901   0.00000   0.00000   0.00001   0.00001   1.99902
   A34        2.00060   0.00000   0.00000   0.00001   0.00001   2.00061
   A35        1.99353   0.00000   0.00000   0.00000   0.00000   1.99354
   A36        1.86702   0.00000   0.00000  -0.00001  -0.00001   1.86701
   A37        1.90484   0.00000   0.00000   0.00002   0.00002   1.90487
   A38        2.00580   0.00000   0.00000   0.00002   0.00002   2.00582
   A39        1.89114   0.00000   0.00000   0.00001   0.00001   1.89114
   A40        1.85690   0.00000   0.00000  -0.00002  -0.00002   1.85687
   A41        1.93340   0.00000   0.00000  -0.00001  -0.00001   1.93339
   A42        2.00281   0.00001   0.00000   0.00002   0.00002   2.00283
   A43        1.82523   0.00000   0.00000  -0.00002  -0.00002   1.82521
   A44        1.89904   0.00000   0.00000  -0.00002  -0.00002   1.89902
   A45        1.80977   0.00001   0.00000   0.00005   0.00005   1.80982
   A46        2.12122   0.00000   0.00000   0.00002   0.00002   2.12124
   A47        1.89232   0.00000   0.00000   0.00000   0.00000   1.89232
   A48        1.89148   0.00000   0.00000  -0.00001  -0.00001   1.89147
   A49        2.07531   0.00001   0.00000   0.00003   0.00003   2.07534
   A50        2.07904  -0.00001   0.00000  -0.00003  -0.00003   2.07901
   A51        2.12883   0.00000   0.00000   0.00000   0.00000   2.12884
   A52        2.06945   0.00000   0.00000   0.00000   0.00000   2.06945
   A53        2.10028   0.00000   0.00000   0.00001   0.00001   2.10029
   A54        2.11342   0.00000   0.00000  -0.00001  -0.00001   2.11341
   A55        2.06840   0.00000   0.00000   0.00000   0.00000   2.06840
   A56        2.10531   0.00000   0.00000   0.00000   0.00000   2.10531
   A57        2.10947   0.00000   0.00000   0.00000   0.00000   2.10947
   A58        2.10397   0.00000   0.00000   0.00000   0.00000   2.10397
   A59        2.08714   0.00000   0.00000   0.00000   0.00000   2.08714
   A60        2.09118   0.00000   0.00000   0.00000   0.00000   2.09118
   A61        2.10539   0.00000   0.00000   0.00000   0.00000   2.10539
   A62        2.08549   0.00000   0.00000   0.00001   0.00001   2.08550
   A63        2.09130   0.00000   0.00000   0.00000   0.00000   2.09130
   A64        2.09023   0.00000   0.00000   0.00000   0.00000   2.09024
   A65        2.09654   0.00000   0.00000   0.00000   0.00000   2.09654
   A66        2.09641   0.00000   0.00000  -0.00001  -0.00001   2.09640
   A67        1.96020   0.00000   0.00000  -0.00001  -0.00001   1.96019
   A68        1.94214   0.00000   0.00000   0.00000   0.00000   1.94214
   A69        1.86074   0.00000   0.00000   0.00001   0.00001   1.86075
   A70        1.90130   0.00000   0.00000   0.00001   0.00001   1.90131
   A71        1.89365   0.00000   0.00000   0.00000   0.00000   1.89365
   A72        1.90428   0.00000   0.00000  -0.00001  -0.00001   1.90427
   A73        1.85973   0.00000   0.00000   0.00000   0.00000   1.85973
   A74        1.94058   0.00000   0.00000  -0.00001  -0.00001   1.94057
   A75        1.94977   0.00000   0.00000   0.00000   0.00000   1.94976
   A76        1.89899   0.00000   0.00000   0.00000   0.00000   1.89899
   A77        1.90932   0.00000   0.00000   0.00000   0.00000   1.90932
   A78        1.90431   0.00000   0.00000   0.00000   0.00000   1.90431
   A79        1.86092   0.00000   0.00000   0.00000   0.00000   1.86092
   A80        1.94366   0.00000   0.00000   0.00000   0.00000   1.94365
   A81        1.94082   0.00000   0.00000  -0.00001  -0.00001   1.94082
   A82        1.90819   0.00000   0.00000   0.00001   0.00001   1.90819
   A83        1.90195   0.00000   0.00000   0.00000   0.00000   1.90195
   A84        1.90727   0.00000   0.00000   0.00000   0.00000   1.90727
   A85        1.86236   0.00000   0.00000   0.00000   0.00000   1.86236
   A86        1.93813   0.00000   0.00000   0.00000   0.00000   1.93814
   A87        1.95985   0.00000   0.00000   0.00000   0.00000   1.95984
   A88        1.90109   0.00000   0.00000   0.00000   0.00000   1.90108
   A89        1.90639   0.00000   0.00000   0.00000   0.00000   1.90639
   A90        1.89501   0.00000   0.00000   0.00000   0.00000   1.89501
   A91        1.94651   0.00000   0.00000   0.00000   0.00000   1.94651
   A92        1.94115   0.00000   0.00000   0.00000   0.00000   1.94114
   A93        1.94669   0.00000   0.00000   0.00000   0.00000   1.94669
   A94        1.87174   0.00000   0.00000   0.00001   0.00001   1.87175
   A95        1.88256   0.00000   0.00000  -0.00001  -0.00001   1.88255
   A96        1.87149   0.00000   0.00000   0.00001   0.00001   1.87150
   A97        1.93757   0.00000   0.00000  -0.00001  -0.00001   1.93756
   A98        1.95082   0.00000   0.00000  -0.00001  -0.00001   1.95081
   A99        1.94988   0.00000   0.00000   0.00001   0.00001   1.94990
   A100       1.86741   0.00000   0.00000  -0.00002  -0.00002   1.86739
[...]
 -0.00002524,0.00000060,-0.00015291,-0.00013333,-0.00007968,0.00000032,
 0.00001380,0.00001592,0.00004614,0.00000585,0.00000072,-0.00000792,0.0
 0001022,0.00000196,-0.00075495,0.00011320,0.00019003,0.00014772,0.0000
 6615,-0.00003276,-0.00039698,-0.00031522,0.00033558,0.00024936,-0.0000
 6801,-0.00005782,0.00108583,0.00222150,-0.00165921,-0.00011365,-0.0004
 9518,0.00053491,-0.00069910,-0.00069125,0.00024921,-0.00038614,-0.0002
 7969,0.00060882,-0.01231505,-0.03705716,0.54778190,0.00002354,-0.00013
 236,-0.00005595,0.00003842,0.00000392,-0.00005992,-0.00002360,-0.00064
 084,0.00000206,-0.00023955,-0.00042635,-0.00038771,0.00008523,0.000170
 45,0.00017688,-0.00001568,0.00003231,0.00000524,0.00002132,0.00000585,
 0.00000478,-0.00000638,0.00001304,-0.00000739,-0.00000276,0.00002979,-
 0.00001078,0.00003472,-0.00001763,-0.00000165,-0.00012764,0.00042640,0
 .00022736,0.00050090,0.00038868,0.00001575,-0.00005540,0.00009115,0.00
 005557,-0.00013268,0.00010930,-0.00002927,-0.00012358,0.00001851,-0.00
 007004,0.00165568,0.00048564,0.00039080,-0.00019721,0.00004255,-0.0001
 2863,-0.00102177,0.00008080,-0.00028152,-0.00097919,-0.00025945,-0.000
 32770,-0.00088425,0.00001951,0.00023501,0.00020900,-0.00017367,-0.0000
 3618,0.00020109,-0.00000013,-0.00010380,0.00080657,-0.00093258,0.00050
 241,0.00043959,-0.00010747,-0.00051309,-0.00098085,-0.00089667,0.00078
 578,-0.00025436,0.00033131,-0.00009144,-0.00000825,-0.00002930,-0.0000
 2598,0.00772272,-0.00616091,-0.00379041,-0.00017821,-0.00016543,-0.000
 22927,0.00028098,0.00047460,0.00065549,-0.00005925,0.00018647,-0.00041
 348,0.00000307,-0.00000500,-0.00004602,0.00000066,-0.00000587,0.000009
 95,0.00000407,-0.00000124,0.00000529,-0.00000593,0.00000673,0.00000587
 ,0.00001805,-0.00006706,0.00004136,-0.00001146,0.00000846,-0.00000640,
 0.00000297,0.00000779,-0.00000833,-0.00000348,0.00001509,-0.00000004,0
 .00008280,0.00004850,0.00006021,-0.00000433,-0.00000510,-0.00001957,-0
 .00002379,-0.00000453,-0.00000219,0.00000833,0.00000990,0.00000519,0.0
 0114473,-0.00037349,0.00046032,-0.00024435,-0.00004647,-0.00002147,-0.
 00081335,0.00034450,-0.00005996,-0.00017124,0.00002473,0.00003322,0.00
 000696,0.00006530,-0.00038864,0.00005419,-0.00006309,0.00014025,-0.000
 05540,-0.00005214,0.00007177,-0.00002514,0.00001038,0.00011584,-0.1088
 2555,-0.06783192,-0.02814285,0.15997597,-0.00006582,-0.00012170,-0.000
 12469,-0.00013134,0.00013348,-0.00006416,-0.00043310,-0.00113404,0.000
 29903,-0.00026733,-0.00048575,-0.00049453,0.00001897,0.00008258,0.0000
 5141,-0.00003656,0.00004532,-0.00000765,0.00009073,0.00000664,0.000013
 57,-0.00000889,0.00002247,-0.00001887,-0.00000901,0.00004218,-0.000043
 23,0.00005727,-0.00000705,0.00000514,0.00023420,0.00069448,0.00034805,
 0.00167239,0.00068639,-0.00006778,0.00009023,0.00001635,-0.00001829,0.
 00003621,0.00007633,0.00004751,-0.00001280,0.00011039,0.00007588,0.000
 99090,0.00010879,0.00047921,-0.00006923,0.00005393,-0.00006387,0.00057
 372,-0.00083002,0.00033342,-0.00053488,0.00027068,-0.00044523,-0.00361
 092,0.00155823,0.00142603,0.00084445,-0.00106387,-0.00020358,0.0008959
 5,-0.00034955,-0.00080674,0.00164382,-0.00025497,0.00162427,0.00014655
 ,-0.00112965,0.00031861,-0.00268592,-0.00034948,0.00223029,0.00163311,
 -0.00007999,0.00199062,-0.00020955,-0.00005245,-0.00017440,-0.02169389
 ,-0.04363015,-0.01299595,-0.00078082,-0.00049365,-0.00081170,0.0026031
 1,-0.00160438,-0.00258732,-0.00095031,-0.00047702,-0.00064261,-0.00006
 441,-0.00000154,0.00004495,-0.00000432,0.00000162,0.00001939,0.0000171
 5,0.00001633,-0.00000735,0.00000446,-0.00000458,-0.00000046,-0.0000161
 2,-0.00000622,0.00000960,0.00000651,0.00000327,0.00000105,0.00000100,-
 0.00000469,-0.00000434,-0.00000828,0.00000698,0.00000162,0.00000143,-0
 .00006000,0.00001548,0.00000452,0.00000172,-0.00000119,-0.00000723,0.0
 0000577,-0.00000203,0.00001291,0.00002878,-0.00000416,0.00127080,-0.00
 031824,0.00069790,-0.00021462,-0.00001961,-0.00003274,0.00005488,0.000
 38353,-0.00040367,-0.00026303,0.00001713,0.00002267,0.00186242,0.00072
 440,-0.00235646,-0.00012219,-0.00058992,0.00102238,-0.00076926,-0.0005
 1116,0.00037133,-0.00050662,0.00018981,0.00078459,-0.07067709,-0.20172
 326,-0.05052695,0.12147487,0.24479083,0.00001800,-0.00008325,-0.000041
 31,0.00003862,-0.00001796,-0.00003639,0.00004102,-0.00021802,-0.000073
 94,-0.00014083,-0.00028207,-0.00030349,0.00006172,0.00011876,0.0001112
 0,-0.00001556,0.00002781,0.00001003,-0.00000423,0.00000117,0.00000164,
 -0.00000200,0.00000327,0.00000041,0.00000156,0.00000049,0.00001062,0.0
 0001023,-0.00001407,-0.00000196,-0.00010593,0.00019598,0.00019763,0.00
 002510,0.00012469,0.00008737,-0.00004693,0.00005579,0.00006236,-0.0000
 9412,0.00006801,-0.00001232,-0.00008713,0.00000717,-0.00002641,0.00104
 551,0.00046066,0.00031342,-0.00010140,0.00001330,-0.00005652,-0.000512
 09,-0.00006880,-0.00027983,-0.00055389,-0.00025277,0.00010365,-0.00002
 113,-0.00017400,-0.00042034,0.00000196,0.00005959,0.00007143,0.0000193
 4,-0.00000452,0.00014955,-0.00031592,0.00033022,-0.00053741,-0.0005269
 9,0.00027707,0.00033783,0.00119016,0.00048164,-0.00024566,-0.00006259,
 -0.00082160,0.00057653,-0.00000207,-0.00002043,0.00002314,-0.00087564,
 0.00361026,0.01071995,-0.00022220,0.00030389,-0.00002209,0.00025649,-0
 .00093358,-0.00037713,-0.00006116,-0.00003779,-0.00006308,0.00000829,-
 0.00000349,-0.00005488,0.00000732,-0.00000023,0.00000717,-0.00000359,-
 0.00000379,0.00000517,-0.00000339,0.00000352,0.00000598,0.00001330,-0.
 00004140,0.00002104,-0.00000851,0.00000525,-0.00000492,0.00000077,0.00
 000445,-0.00000256,-0.00000218,0.00001072,-0.00000010,0.00005760,0.000
 03659,0.00003688,-0.00000054,-0.00000450,-0.00000869,-0.00001800,-0.00
 000175,-0.00000108,0.00000592,0.00000365,-0.00000009,0.00044807,-0.000
 03767,0.00003622,-0.00008197,-0.00003228,0.00001813,0.00028010,0.00009
 339,-0.00028799,-0.00010673,0.00002131,0.00003274,0.00005175,-0.000183
 72,-0.00006635,0.00001936,-0.00003101,0.00009263,0.00002373,0.00004676
 ,0.00001667,-0.00000015,0.00006648,0.00003356,-0.02854240,-0.04869304,
 -0.09100892,0.06592199,0.09875370,0.12731020,0.00009604,-0.00005478,0.
 00005790,0.00016807,-0.00013533,-0.00001247,0.00031632,0.00013868,-0.0
 0023246,0.00000663,-0.00004299,0.00009887,0.00009701,0.00009058,0.0001
 6338,0.00002039,-0.00000956,0.00000848,-0.00004938,0.00000474,-0.00000
 909,-0.00000148,0.00000033,0.00000347,0.00000562,0.00000786,0.00001596
 ,0.00000446,-0.00001208,-0.00000834,-0.00034741,-0.00003891,-0.0000854
 9,-0.00078947,-0.00011149,0.00004525,-0.00015022,0.00011925,0.00007710
 ,-0.00019897,0.00007695,-0.00009012,-0.00013751,-0.00005920,-0.0001652
 4,0.00073163,0.00022965,0.00022136,-0.00008902,0.00000145,-0.00007577,
 0.00002839,-0.00008380,0.00015602,-0.00043352,-0.00014686,-0.00016408,
 0.00196228,-0.00105105,-0.00095851,-0.00056799,0.00102508,0.00007194,-
 0.00047690,0.00031432,0.00054352,-0.00087535,0.00072488,0.00131904,0.0
 0003714,0.00018320,-0.00044849,0.00033071,0.00404572,-0.00470754,0.000
 47923,0.00103729,-0.00054199,0.00008052,-0.00008703,-0.00011179,-0.029
 89059,0.01290659,0.00382702,0.00038561,-0.00069196,-0.00018190,-0.0013
 9236,-0.00096022,0.00383629,0.00042765,0.00006351,-0.00213250,0.000059
 51,-0.00000894,-0.00009047,0.00000112,-0.00001372,-0.00000484,-0.00000
 452,-0.00001398,0.00001310,-0.00001426,0.00001519,0.00000662,0.0000416
 9,-0.00009023,0.00005007,-0.00001973,0.00000777,-0.00000892,0.00000368
 ,0.00001504,-0.00001012,0.00000297,0.00001346,-0.00000014,0.00009622,0
 .00009307,0.00006043,-0.00000749,-0.00000847,-0.00002384,-0.00002323,-
 0.00000882,0.00000051,-0.00000172,-0.00000603,0.00000680,0.00055752,-0
 .00009290,0.00023383,-0.00012936,-0.00005263,-0.00001658,0.00000957,0.
 00022133,-0.00012388,-0.00004523,0.00001482,-0.00000113,-0.00132071,-0
 .00027469,0.00114264,0.00015145,0.00023653,-0.00042413,0.00057813,0.00
 033027,-0.00017743,0.00038374,-0.00015817,-0.00041653,-0.25928665,0.06
 506351,0.00910349,-0.06859452,-0.02562054,-0.01428008,0.39017300,-0.00
 006566,-0.00002701,-0.00007151,-0.00012318,0.00011024,-0.00002372,-0.0
 0030884,-0.00055761,0.00023579,-0.00011763,-0.00017953,-0.00022891,-0.
 00003272,-0.00000144,-0.00004374,-0.00002155,0.00001837,-0.00000931,0.
 00005968,0.00000226,0.00000958,-0.00000322,0.00000945,-0.00001032,-0.0
 0000648,0.00001578,-0.00002866,0.00002114,0.00000304,0.00000568,0.0002
 2040,0.00030757,0.00016389,0.00102652,0.00033946,-0.00004811,0.0000983
 1,-0.00004034,-0.00004452,0.00009400,0.00000076,0.00005279,0.00004976,
 0.00006753,0.00009257,0.00014596,-0.00006681,0.00007784,-0.00000519,0.
 00002113,-0.00000031,0.00002919,-0.00015761,0.00004844,-0.00006309,0.0
 0013212,-0.00009593,-0.00258653,0.00084684,0.00099946,0.00074677,-0.00
 096536,-0.00008603,0.00059340,-0.00021838,-0.00063045,0.00053180,-0.00
 202101,-0.00111122,0.00066514,-0.00059464,0.00000602,-0.00013819,-0.00
 271644,0.00511338,0.00002570,-0.00012049,-0.00034869,0.00000509,0.0000
 4342,0.00001699,0.03929049,-0.00705115,-0.00185625,0.00010785,0.000546
 13,0.00017481,0.00101544,-0.00076502,-0.00017327,0.00073924,-0.0009097
 8,0.00086432,-0.00005072,0.00000309,0.00006024,-0.00000417,0.00000472,
 0.00000960,0.00001038,0.00001291,-0.00000843,0.00000708,-0.00000756,-0
 .00000341,-0.00002313,0.00003257,-0.00001474,0.00001057,-0.00000169,0.
 00000415,-0.00000077,-0.00000771,0.00000167,-0.00000453,-0.00000275,0.
 00000077,-0.00003793,-0.00006019,-0.00001743,0.00000438,0.00000407,0.0
 0000830,0.00000677,0.00000532,-0.00000098,0.00000533,0.00001373,-0.000
 00391,0.00020364,-0.00006898,0.00011941,-0.00001801,0.00001324,-0.0000
 0538,0.00002002,0.00005942,-0.00005373,-0.00005666,-0.00000317,0.00000
 932,0.00108315,0.00057565,-0.00145616,-0.00006452,-0.00030086,0.000515
 92,-0.00050056,-0.00033033,0.00023751,-0.00033791,0.00009439,0.0004905
 2,0.05907671,-0.09612117,0.00160328,-0.04115888,0.00847139,-0.00412271
 ,-0.06496720,0.09001115,0.00001778,-0.00000516,0.00000351,0.00003270,-
 0.00003447,0.00000137,0.00008301,0.00015261,-0.00009893,0.00001772,-0.
 00000482,-0.00002540,0.00001531,0.00001354,0.00001736,-0.00000184,0.00
 000509,0.00000685,-0.00001973,-0.00000153,-0.00000254,0.00000095,-0.00
 000330,0.00000428,0.00000201,-0.00000906,0.00001418,-0.00000522,-0.000
 00419,-0.00000146,-0.00005429,-0.00004930,0.00002721,-0.00032960,-0.00
 008728,0.00006393,-0.00002981,0.00001658,0.00003358,-0.00003310,0.0000
 0890,-0.00000642,-0.00002473,-0.00001016,-0.00000885,0.00011629,0.0000
 7554,0.00000515,0.00000077,-0.00000326,0.00000441,0.00001807,-0.000019
 32,0.00003535,-0.00006638,-0.00005734,0.00006702,0.00070932,-0.0002561
 5,-0.00055023,-0.00019740,0.00029362,0.00007910,-0.00015855,0.00002695
 ,0.00027797,-0.00085931,0.00053219,0.00050023,-0.00016181,0.00027138,-
 0.00002710,0.00023322,0.00174275,-0.00177214,-0.00058544,-0.00026664,0
 .00059505,-0.00005043,0.00003350,0.00005847,-0.01028290,0.00532320,0.0
 1038822,-0.00029651,0.00030854,0.00005871,-0.00032877,0.00056792,-0.00
 182684,-0.00131755,0.00092391,0.00036106,0.00001193,-0.00000205,-0.000
 03474,0.00000617,0.00000086,0.00000057,-0.00000539,-0.00000417,0.00000
 328,-0.00000164,0.00000149,0.00000275,0.00000709,-0.00001103,0.0000022
 1,-0.00000346,0.00000089,-0.00000185,-0.00000048,0.00000158,0.00000085
 ,0.00000038,0.00000277,-0.00000003,0.00001652,0.00001542,0.00000695,0.
 00000057,-0.00000165,-0.00000051,-0.00000527,-0.00000028,0.00000009,0.
 00000092,-0.00000200,-0.00000086,0.00006040,-0.00001091,-0.00003594,-0
 .00001175,-0.00000588,0.00000447,0.00004290,0.00003947,-0.00003876,-0.
 00002863,0.00000866,0.00000633,-0.00023553,-0.00044124,0.00040543,-0.0
 0001311,0.00013024,-0.00015781,0.00016618,0.00015062,-0.00005187,0.000
 06680,0.00006723,-0.00012204,0.01415260,-0.00032517,-0.07578774,-0.019
 85047,-0.00324268,0.01023532,-0.03875099,0.00730026,0.08297263,0.00002
 222,-0.00001250,0.00002102,0.00003638,-0.00002467,-0.00000753,0.000062
 11,-0.00007954,-0.00000800,-0.00000093,0.00000280,0.00008256,0.0000232
 5,0.00001471,0.00003596,0.00001148,-0.00000967,-0.00000408,-0.00000211
 ,0.00000338,-0.00000138,-0.00000131,0.00000232,-0.00000254,0.00000031,
 0.00000882,-0.00000869,0.00000549,-0.00000059,-0.00000151,-0.00007772,
 0.00002803,-0.00005881,-0.00005100,0.00005362,-0.00002625,-0.00003318,
 0.00003358,0.00000530,-0.00004555,0.00002018,-0.00002714,-0.00003098,-
 0.00001246,-0.00004958,0.00010460,-0.00000311,0.00005296,-0.00002055,0
 .00000104,-0.00002372,0.00000776,-0.00000927,0.00004237,-0.00007292,0.
 00000981,-0.00011258,0.00014408,-0.00037602,0.00011766,0.00000209,0.00
 011955,-0.00004430,-0.00005902,0.00012409,-0.00000944,0.00047814,-0.00
 052569,-0.00045774,0.00005289,0.00013595,-0.00009377,-0.00186395,0.000
 80284,-0.00040098,0.00025883,-0.00005187,-0.00068414,0.00007802,0.0000
 2961,-0.00005060,0.01024719,0.00141613,-0.00171846,0.00075443,0.000457
 23,-0.00112237,-0.00044219,0.00120635,0.00000950,0.00020991,0.00032406
 ,-0.00037010,0.00001198,-0.00000240,-0.00000937,-0.00000357,-0.0000063
 6,-0.00000155,0.00000276,-0.00000181,0.00000257,-0.00000440,0.00000466
 ,0.00000027,0.00001035,-0.00002436,0.00001529,-0.00000434,0.00000198,-
 0.00000185,0.00000145,0.00000400,-0.00000410,0.00000078,0.00000288,0.0
 0000032,0.00002077,0.00001960,0.00001429,-0.00000231,-0.00000199,-0.00
 000708,-0.00000455,-0.00000248,0.00000039,-0.00000111,-0.00000030,0.00
 000228,0.00013246,-0.00002303,0.00010358,-0.00003408,-0.00001724,-0.00
 001421,-0.00003616,0.00006584,0.00003774,0.00002679,-0.00000051,-0.000
 00644,-0.00027484,0.00000318,0.00011183,0.00003625,0.00005286,-0.00009
 961,0.00009405,0.00005199,-0.00001875,0.00006729,-0.00004245,-0.000049
 56,-0.07874258,-0.00085008,0.03275375,0.01074760,-0.00646847,-0.022748
 56,-0.03238874,0.00480336,0.05793054,0.09054642,-0.00004397,-0.0000311
 4,-0.00005094,-0.00008510,0.00007376,-0.00001601,-0.00024657,-0.000473
 03,0.00016996,-0.00009938,-0.00015940,-0.00016641,-0.00001710,0.000009
 68,-0.00001357,-0.00001779,0.00001317,-0.00000530,0.00004551,0.0000031
 8,0.00000627,-0.00000328,0.00000927,-0.00000940,-0.00000605,0.00001794
 ,-0.00002486,0.00002071,0.00000187,0.00000364,0.00015624,0.00027170,0.
 00011787,0.00080118,0.00024153,-0.00003467,0.00006550,-0.00001604,-0.0
 0003196,0.00005543,0.00001228,0.00003090,0.00002706,0.00005224,0.00005
 354,0.00019131,-0.00005115,0.00010890,-0.00001749,0.00001786,-0.000013
 46,0.00006004,-0.00014890,0.00002348,-0.00010066,0.00011552,-0.0001292
 6,-0.00180805,0.00101388,0.00054792,0.00040899,-0.00051779,-0.00005953
 ,0.00047014,-0.00022442,-0.00042028,-0.00058211,0.00018492,-0.00002161
 ,-0.00025953,-0.00039771,0.00085201,0.00074399,-0.00114261,0.00093334,
 -0.00118689,-0.00162814,0.00089718,-0.00002668,0.00003262,0.00004584,-
 0.00527857,0.00153540,0.03473959,0.00021155,-0.00104537,0.00119909,0.0
 0412564,-0.00291068,0.00032780,0.00012948,0.00036085,0.00017878,-0.000
 03692,0.00000075,0.00004257,-0.00000425,0.00000169,0.00000742,0.000009
 55,0.00000976,-0.00000577,0.00000401,-0.00000417,-0.00000234,-0.000014
 52,0.00001463,-0.00000423,0.00000672,-0.00000032,0.00000249,0.00000012
 ,-0.00000438,-0.00000079,-0.00000350,-0.00000069,0.00000072,-0.0000213
 8,-0.00004181,-0.00000688,0.00000241,0.00000241,0.00000319,0.00000339,
 0.00000331,-0.00000071,0.00000400,0.00001185,-0.00000225,0.00022800,-0
 .00006134,0.00013180,-0.00002823,0.00000444,-0.00000816,-0.00000712,0.
 00005525,-0.00001961,-0.00004306,-0.00000275,0.00000571,0.00122363,0.0
 0012563,-0.00156517,-0.00002567,-0.00033321,0.00063919,-0.00062548,-0.
 00034002,0.00025966,-0.00031096,0.00011068,0.00043987,0.00071177,-0.08
 018762,0.02275069,-0.00536897,-0.00324686,-0.04910112,0.00782050,0.011
 53128,-0.01315664,-0.00125760,0.07713022,0.00005868,-0.00003557,-0.000
 00364,0.00010634,-0.00008698,-0.00001181,0.00027179,0.00031132,-0.0003
 0876,0.00003661,-0.00006148,-0.00013882,0.00006530,0.00006244,0.000081
 76,-0.00001125,0.00002473,0.00002172,-0.00005476,-0.00000492,-0.000005
 12,0.00000230,-0.00000938,0.00001307,0.00000887,-0.00003096,0.00004962
 ,-0.00001595,-0.00001583,-0.00000559,-0.00025544,-0.00008384,0.0001365
 3,-0.00085462,-0.00015074,0.00020373,-0.00010290,0.00006351,0.00011636
 ,-0.00012054,0.00004100,-0.00001975,-0.00009754,-0.00003250,-0.0000383
 3,0.00060750,0.00031517,0.00010066,-0.00002912,-0.00000854,-0.00000259
 ,0.00009406,-0.00009200,0.00003155,-0.00032583,-0.00023864,0.00023970,
 0.00199336,-0.00100752,-0.00147729,-0.00051041,0.00063253,0.00022543,-
 0.00046010,0.00011812,0.00084192,-0.00010437,0.00127001,0.00051504,-0.
 00030938,0.00031308,-0.00020348,0.00332578,-0.00169693,-0.00106044,0.0
 0182816,0.00063883,-0.00128886,-0.00011932,-0.00007101,0.00004815,0.00
 893538,0.00627210,-0.03866812,-0.00195348,0.00071387,-0.00003357,-0.00
 498723,0.00554611,-0.00048501,-0.00031633,-0.00062870,0.00046519,0.000
 03609,-0.00000654,-0.00011834,0.00002050,0.00000354,0.00000421,-0.0000
 1736,-0.00001338,0.00001099,-0.00000501,0.00000481,0.00000997,0.000023
 86,-0.00004086,0.00001078,-0.00001246,0.00000377,-0.00000650,-0.000001
 22,0.00000573,0.00000260,0.00000054,0.00001078,-0.00000052,0.00006469,
 0.00005900,0.00003139,0.00000058,-0.00000581,-0.00000460,-0.00002012,-
 0.00000206,-0.00000046,0.00000359,-0.00000620,-0.00000169,0.00023011,-
 0.00001824,-0.00015742,-0.00004972,-0.00002571,0.00001786,0.00011306,0
 .00007944,-0.00011862,-0.00010896,0.00003250,0.00002481,-0.00156249,-0
 .00046809,0.00164999,0.00001001,0.00052615,-0.00088605,0.00076952,0.00
 048737,-0.00021405,0.00031495,0.00001406,-0.00046772,0.02820615,0.0295
 0073,-0.27283362,-0.01481826,-0.03483506,-0.05669505,0.04319179,-0.007
 72467,-0.02569186,-0.06309540,0.00035148,0.39609467\\0.00000783,-0.000
 00609,-0.00000032,0.00000837,-0.00000596,-0.00000195,-0.00000686,-0.00
 000967,-0.00000407,0.00000151,-0.00000281,-0.00001492,-0.00000609,0.00
 000927,0.00000496,0.00000186,0.00000183,0.00000058,-0.00000153,-0.0000
 0029,-0.00000027,-0.00000244,-0.00000069,0.00000052,-0.00000070,0.0000
 0019,0.00000396,0.00000189,-0.00000231,0.00000092,-0.00000142,0.000006
 95,0.00001061,0.00000880,0.00000583,0.00000739,-0.00000325,0.00000365,
 -0.00000082,-0.00000392,-0.00000315,0.00000032,0.00000748,-0.00000499,
 -0.00000330,0.00000617,0.00000780,-0.00000053,-0.00000125,-0.00000097,
 0.00000131,0.00000037,-0.00000215,0.00000039,-0.00000288,-0.00000351,0
 .00000203,-0.00000578,-0.00000269,-0.00000620,-0.00000315,-0.00000042,
 -0.00000343,-0.00000194,-0.00000285,0.00000051,0.00000518,0.00000991,-
 0.00000493,-0.00000196,-0.00000335,0.00000288,-0.00000283,0.00000051,0
 .00000006,-0.00000103,0.00000127,0.00000120,-0.00000045,0.00000088,-0.
 00000238,0.00000078,-0.00000036,-0.00000161,-0.00000047,0.00000148,0.0
 0000099,-0.00000083,0.00000573,0.00000154,0.00000061,0.,0.00000047,0.0
 0000007,0.00000044,0.00000328,-0.00000154,0.00000146,-0.00000229,-0.00
 000023,-0.00000077,-0.00000108,-0.00000312,-0.00000092,-0.00000059,-0.
 00000217,0.00000084,-0.00000262,-0.00000084,-0.00000297,-0.00000177,-0
 .00000004,-0.00000236,-0.00000007,-0.00000101,-0.00000228,-0.00000079,
 -0.00000490,-0.00000313,-0.00000260,0.00000138,-0.00000235,0.00000042,
 0.00000223,-0.00000214,0.00000060,0.00000158,-0.00000078,0.00000084,0.
 00000176,-0.00000173,0.00000382,0.00000270,-0.00000096,0.00000088,0.00
 000062,0.00000169,0.00000129,0.,-0.00000060,0.00000021,0.00000304,0.00
 000480,-0.00000525,0.00000283,-0.00000380,0.00000276,-0.00000336,-0.00
 000092,-0.00000007,-0.00000419,0.00000510,0.00000114,0.00000785,-0.000
 00097,0.00001038,0.00000424,0.00000398,0.00000013,-0.00000918,0.000003
 17,-0.00000157,0.00000020,0.00000216,-0.00000297\\\@


 I DON'T EXACTLY UNDERSTAND WHAT YOU ARE SAYING,
 BUT YOU ARE ABSOLUTELY RIGHT.
     M.S.GORDON, IN A NDSU FACULTY MEETING
 Job cpu time:       0 days 20 hours  2 minutes 16.0 seconds.
 Elapsed time:       0 days  0 hours 41 minutes  8.6 seconds.
 File lengths (MBytes):  RWF=   2262 Int=      0 D2E=      0 Chk=     40 Scr=      1
 Normal termination of Gaussian 16 at Wed Jun  5 19:11:53 2019.
