 Entering Gaussian System, Link 0=g16
 Input=clay_new-glu_gluC6-BCDR-Na2_1Me2O-bisCF3-ts-lcwpbe_d3bj-631gd-pcm_thf.gjf
 Output=clay_new-glu_gluC6-BCDR-Na2_1Me2O-bisCF3-ts-lcwpbe_d3bj-631gd-pcm_thf.out
 Initial command:
 /home/ekwan/sw/g16/l1.exe "/scratch/users/ekwan/clay_new-glu_gluC6-BCDR-Na2_1Me2O-bisCF3-ts-lcwpbe_d3bj-631gd-pcm_thf/Gau-51495.inp" -scrdir="/scratch/users/ekwan/clay_new-glu_gluC6-BCDR-Na2_1Me2O-bisCF3-ts-lcwpbe_d3bj-631gd-pcm_thf/"
 Entering Link 1 = /home/ekwan/sw/g16/l1.exe PID=     51496.
  
 Copyright (c) 1988,1990,1992,1993,1995,1998,2003,2009,2016,
            Gaussian, Inc.  All Rights Reserved.
  
 This is part of the Gaussian(R) 16 program.  It is based on
 the Gaussian(R) 09 system (copyright 2009, Gaussian, Inc.),
 the Gaussian(R) 03 system (copyright 2003, Gaussian, Inc.),
 the Gaussian(R) 98 system (copyright 1998, Gaussian, Inc.),
 the Gaussian(R) 94 system (copyright 1995, Gaussian, Inc.),
 the Gaussian 92(TM) system (copyright 1992, Gaussian, Inc.),
 the Gaussian 90(TM) system (copyright 1990, Gaussian, Inc.),
 the Gaussian 88(TM) system (copyright 1988, Gaussian, Inc.),
 the Gaussian 86(TM) system (copyright 1986, Carnegie Mellon
 University), and the Gaussian 82(TM) system (copyright 1983,
 Carnegie Mellon University). Gaussian is a federally registered
 trademark of Gaussian, Inc.
  
 This software contains proprietary and confidential information,
 including trade secrets, belonging to Gaussian, Inc.
  
 This software is provided under written license and may be
 used, copied, transmitted, or stored only in accord with that
 written license.
  
 The following legend is applicable only to US Government
 contracts under FAR:
  
                    RESTRICTED RIGHTS LEGEND
  
 Use, reproduction and disclosure by the US Government is
 subject to restrictions as set forth in subparagraphs (a)
 and (c) of the Commercial Computer Software - Restricted
 Rights clause in FAR 52.227-19.
  
 Gaussian, Inc.
 340 Quinnipiac St., Bldg. 40, Wallingford CT 06492
  
  
 ---------------------------------------------------------------
 Warning -- This program may not be used in any manner that
 competes with the business of Gaussian, Inc. or will provide
 assistance to any competitor of Gaussian, Inc.  The licensee
 of this program is prohibited from giving any competitor of
 Gaussian, Inc. access to this program.  By using this program,
 the user acknowledges that Gaussian, Inc. is engaged in the
 business of creating and licensing software in the field of
 computational chemistry and represents and warrants to the
 licensee that it is not a competitor of Gaussian, Inc. and that
 it will not use this program in any manner prohibited above.
 ---------------------------------------------------------------
  

 Cite this work as:
 Gaussian 16, Revision A.03,
 M. J. Frisch, G. W. Trucks, H. B. Schlegel, G. E. Scuseria, 
 M. A. Robb, J. R. Cheeseman, G. Scalmani, V. Barone, 
 G. A. Petersson, H. Nakatsuji, X. Li, M. Caricato, A. V. Marenich, 
 J. Bloino, B. G. Janesko, R. Gomperts, B. Mennucci, H. P. Hratchian, 
 J. V. Ortiz, A. F. Izmaylov, J. L. Sonnenberg, D. Williams-Young, 
 F. Ding, F. Lipparini, F. Egidi, J. Goings, B. Peng, A. Petrone, 
 T. Henderson, D. Ranasinghe, V. G. Zakrzewski, J. Gao, N. Rega, 
 G. Zheng, W. Liang, M. Hada, M. Ehara, K. Toyota, R. Fukuda, 
 J. Hasegawa, M. Ishida, T. Nakajima, Y. Honda, O. Kitao, H. Nakai, 
 T. Vreven, K. Throssell, J. A. Montgomery, Jr., J. E. Peralta, 
 F. Ogliaro, M. J. Bearpark, J. J. Heyd, E. N. Brothers, K. N. Kudin, 
 V. N. Staroverov, T. A. Keith, R. Kobayashi, J. Normand, 
 K. Raghavachari, A. P. Rendell, J. C. Burant, S. S. Iyengar, 
 J. Tomasi, M. Cossi, J. M. Millam, M. Klene, C. Adamo, R. Cammi, 
 J. W. Ochterski, R. L. Martin, K. Morokuma, O. Farkas, 
 J. B. Foresman, and D. J. Fox, Gaussian, Inc., Wallingford CT, 2016.
 
 ******************************************
 Gaussian 16:  AS64L-G16RevA.03 25-Dec-2016
                 5-Jun-2019 
 ******************************************
 %nprocshared=32
 Will use up to   32 processors via shared memory.
 %mem=48GB
 ----------------------------------------------------------------------
 #p opt=(ts,calcfc,noeigentest,maxstep=5) freq=noraman pop=none 6-31g* 
 scrf=(pcm,solvent=tetrahydrofuran) lc-wpbe empiricaldispersion=gd3bj
 ----------------------------------------------------------------------
 1/5=1,8=5,10=4,11=1,18=20,26=3,38=1/1,3;
 2/9=110,12=2,17=6,18=5,40=1/2;
 3/5=1,6=6,7=1,11=2,25=1,30=1,70=2201,71=2,72=20,74=-41,124=41,140=1/1,2,3;
 4//1;
 5/5=2,38=5,53=20/2;
 8/6=4,10=90,11=11/1;
 11/6=1,8=1,9=11,15=111,16=1/1,2,10;
 10/6=1,13=1/2;
 7/10=1,18=20,25=1/1,2,3,16;
 1/5=1,8=5,10=4,11=1,18=20,26=3/3(2);
 2/9=110/2;
 99//99;
 2/9=110/2;
 3/5=1,6=6,7=1,11=2,25=1,30=1,70=2205,71=1,72=20,74=-41,124=41/1,2,3;
 4/5=5,16=3,69=1/1;
 5/5=2,38=5,53=20/2;
 7//1,2,3,16;
 1/5=1,8=5,11=1,18=20,26=3/3(-5);
 2/9=110/2;
 99/9=1/99;
 Leave Link    1 at Wed Jun  5 12:18:03 2019, MaxMem=  6442450944 cpu:               6.4 elap:               0.2
 (Enter /home/ekwan/sw/g16/l101.exe)
 -----
 title
 -----
 Symbolic Z-matrix:
 Charge =  0 Multiplicity = 1
 6                    -1.68287   1.57303   2.27856 
 6                    -1.98066   2.31724   0.98872 
 6                    -1.06733   3.52697   0.85919 
 6                     0.65339   2.49317   2.14559 
 6                    -0.20067   1.24994   2.36203 
 1                    -1.18938   3.99255  -0.12785 
 1                    -1.75469   1.66077   0.13957 
 1                    -1.96029   2.21851   3.12174 
 1                     0.46024   3.18345   2.97706 
 1                     0.02169   0.51229   1.58348 
 8                     0.2815    3.1267    0.91599 
 8                    -1.38295   4.43143   1.86594 
 8                    -3.31775   2.75146   0.94115 
 8                    -2.4535    0.38979   2.29821 
 8                     0.08842   0.70911   3.63485 
 6                     2.15057   2.20652   2.06559 
 1                     2.41658   1.73874   3.0336 
 1                     2.64255   3.2026    2.07915 
 8                     2.52676   1.46936   0.97155 
 6                    -4.14426   1.93292   0.14431 
 1                    -3.83243   1.95546  -0.90783 
 1                    -4.13476   0.89797   0.49746 
 1                    -5.15805   2.33137   0.21635 
 6                    -2.99677   0.08833   3.56415 
 1                    -2.21136  -0.0412    4.3145 
 1                    -3.68208   0.87921   3.89598 
 1                    -3.55444  -0.84165   3.45675 
 6                     0.78482  -0.51667   3.57577 
 1                     0.15835  -1.2993    3.13208 
 1                     1.70601  -0.43252   2.99142 
 1                     1.03241  -0.79528   4.60228 
 6                     3.64502  -1.64727  -1.37387 
 6                     3.10941  -0.29291  -0.93883 
 6                     1.78909  -0.41998  -0.24812 
 6                     2.07716  -2.72104   0.26289 
 6                     3.52113  -2.59445  -0.18871 
 1                     1.10544   0.40551  -0.19864 
 1                     3.75586   0.11183  -0.14563 
 1                     3.06076  -2.01775  -2.22409 
 1                     1.48172  -3.16539  -0.53996 
 1                     4.11984  -2.19449   0.63741 
 8                     1.4835   -1.41766   0.49728 
 8                    -0.50838   0.04177  -3.85182 
 8                     2.96238   0.66877  -1.94818 
 8                     5.00359  -1.50953  -1.71205 
 8                     3.95786  -3.8822   -0.54278 
 6                     1.8955   -3.5185    1.52579 
 1                     2.16331  -4.56192   1.3107 
 1                     0.83698  -3.49111   1.82077 
 8                     2.71433  -2.97541   2.52437 
 16                   -0.31988  -0.04503  -2.40753 
 8                    -0.15556   1.25998  -1.72572 
 8                     0.73363  -1.02191  -1.99289 
 6                    -1.81275  -0.73553  -1.73183 
 6                    -3.02243  -0.51517  -2.36665 
 6                    -1.74598  -1.46324  -0.55558 
 6                    -4.18067  -1.02593  -1.80047 
 1                    -3.05355   0.04344  -3.29592 
 6                    -2.90838  -1.9859   -0.01671 
 1                    -0.79316  -1.62938  -0.06701 
 6                    -4.1314   -1.76862  -0.63095 
 1                    -5.04092  -2.17411  -0.2018 
 6                     4.18171   1.18917  -2.45664 
 1                     4.91432   1.32225  -1.65522 
 1                     4.60282   0.53199  -3.22023 
 1                     3.94649   2.15887  -2.89638 
 6                     5.38773  -2.2622   -2.8451 
 1                     5.18851  -3.32778  -2.70059 
 1                     4.86278  -1.91659  -3.74478 
 1                     6.45947  -2.10715  -2.9782 
 6                     5.07556  -4.32311   0.20459 
 1                     5.94412  -3.68048   0.02448 
 1                     4.85113  -4.33492   1.27737 
 1                     5.30025  -5.33682  -0.12945 
 6                     2.57783  -3.65792   3.74881 
 1                     3.23551  -3.16799   4.46748 
 1                     1.54442  -3.61082   4.11569 
 1                     2.8698   -4.71165   3.65054 
 6                    -0.68144   5.65143   1.74746 
 1                    -1.06373   6.31671   2.52214 
 1                     0.39515   5.50972   1.88857 
 1                    -0.854     6.10623   0.76349 
 11                    1.66742   2.55596  -0.90022 
 8                     3.33684   4.13595  -1.07927 
 6                     3.55509   5.28433  -1.86444 
 1                     4.46478   5.17762  -2.469 
 1                     2.6955    5.40114  -2.52599 
 1                     3.65112   6.17789  -1.23518 
 6                     4.39593   3.88516  -0.17538 
 1                     4.5038    4.71582   0.53328 
 1                     4.136     2.96576   0.35649 
 1                     5.342     3.75623  -0.71689 
 6                    -5.50945  -0.70735  -2.41972 
 9                    -6.00742   0.44174  -1.92423 
 9                    -6.41587  -1.66547  -2.17718 
 9                    -5.41658  -0.55599  -3.74818 
 6                    -2.83221  -2.86613   1.19556 
 9                    -1.76698  -2.58339   1.96239 
 9                    -2.72898  -4.16039   0.84619 
 9                    -3.92992  -2.75532   1.96152 
 
 Add virtual bond connecting atoms H37        and H10        Dist= 3.95D+00.
 Add virtual bond connecting atoms H37        and O19        Dist= 4.02D+00.
 Add virtual bond connecting atoms H38        and O19        Dist= 4.05D+00.
 Add virtual bond connecting atoms O52        and H37        Dist= 4.08D+00.
 Add virtual bond connecting atoms O53        and C34        Dist= 4.02D+00.
 Add virtual bond connecting atoms H91        and H18        Dist= 4.33D+00.
 Add virtual bond connecting atoms H91        and O19        Dist= 4.31D+00.
 Add virtual bond connecting atoms O11        and Na83       Dist= 4.45D+00.
 Add virtual bond connecting atoms O19        and Na83       Dist= 4.40D+00.
 Add virtual bond connecting atoms H37        and Na83       Dist= 4.40D+00.
 Add virtual bond connecting atoms O52        and Na83       Dist= 4.51D+00.
 Add virtual bond connecting atoms O84        and Na83       Dist= 4.36D+00.
 ITRead=  0  0  0  0  0  0  0  0  0  0  0  0  0  0  0  0  0  0  0  0
 ITRead=  0  0  0  0  0  0  0  0  0  0  0  0  0  0  0  0  0  0  0  0
 ITRead=  0  0  0  0  0  0  0  0  0  0  0  0  0  0  0  0  0  0  0  0
 ITRead=  0  0  0  0  0  0  0  0  0  0  0  0  0  0  0  0  0  0  0  0
 ITRead=  0  0  0  0  0  0  0  0  0  0  0  0  0  0  0  0  0  0  0  0
 MicOpt= -1 -1 -1 -1 -1 -1 -1 -1 -1 -1 -1 -1 -1 -1 -1 -1 -1 -1 -1 -1
 MicOpt= -1 -1 -1 -1 -1 -1 -1 -1 -1 -1 -1 -1 -1 -1 -1 -1 -1 -1 -1 -1
 MicOpt= -1 -1 -1 -1 -1 -1 -1 -1 -1 -1 -1 -1 -1 -1 -1 -1 -1 -1 -1 -1
 MicOpt= -1 -1 -1 -1 -1 -1 -1 -1 -1 -1 -1 -1 -1 -1 -1 -1 -1 -1 -1 -1
 MicOpt= -1 -1 -1 -1 -1 -1 -1 -1 -1 -1 -1 -1 -1 -1 -1 -1 -1 -1 -1 -1
 NAtoms=    100 NQM=      100 NQMF=       0 NMMI=      0 NMMIF=      0
                NMic=       0 NMicF=      0.
                    Isotopes and Nuclear Properties:
 (Nuclear quadrupole moments (NQMom) in fm**2, nuclear magnetic moments (NMagM)
  in nuclear magnetons)

  Atom         1           2           3           4           5           6           7           8           9          10
 IAtWgt=          12          12          12          12          12           1           1           1           1           1
 AtmWgt=  12.0000000  12.0000000  12.0000000  12.0000000  12.0000000   1.0078250   1.0078250   1.0078250   1.0078250   1.0078250
 NucSpn=           0           0           0           0           0           1           1           1           1           1
 AtZEff=   0.0000000   0.0000000   0.0000000   0.0000000   0.0000000   0.0000000   0.0000000   0.0000000   0.0000000   0.0000000
 NQMom=    0.0000000   0.0000000   0.0000000   0.0000000   0.0000000   0.0000000   0.0000000   0.0000000   0.0000000   0.0000000
 NMagM=    0.0000000   0.0000000   0.0000000   0.0000000   0.0000000   2.7928460   2.7928460   2.7928460   2.7928460   2.7928460
 AtZNuc=   6.0000000   6.0000000   6.0000000   6.0000000   6.0000000   1.0000000   1.0000000   1.0000000   1.0000000   1.0000000

  Atom        11          12          13          14          15          16          17          18          19          20
 IAtWgt=          16          16          16          16          16          12           1           1          16          12
 AtmWgt=  15.9949146  15.9949146  15.9949146  15.9949146  15.9949146  12.0000000   1.0078250   1.0078250  15.9949146  12.0000000
 NucSpn=           0           0           0           0           0           0           1           1           0           0
 AtZEff=   0.0000000   0.0000000   0.0000000   0.0000000   0.0000000   0.0000000   0.0000000   0.0000000   0.0000000   0.0000000
 NQMom=    0.0000000   0.0000000   0.0000000   0.0000000   0.0000000   0.0000000   0.0000000   0.0000000   0.0000000   0.0000000
 NMagM=    0.0000000   0.0000000   0.0000000   0.0000000   0.0000000   0.0000000   2.7928460   2.7928460   0.0000000   0.0000000
 AtZNuc=   8.0000000   8.0000000   8.0000000   8.0000000   8.0000000   6.0000000   1.0000000   1.0000000   8.0000000   6.0000000

  Atom        21          22          23          24          25          26          27          28          29          30
 IAtWgt=           1           1           1          12           1           1           1          12           1           1
 AtmWgt=   1.0078250   1.0078250   1.0078250  12.0000000   1.0078250   1.0078250   1.0078250  12.0000000   1.0078250   1.0078250
 NucSpn=           1           1           1           0           1           1           1           0           1           1
 AtZEff=   0.0000000   0.0000000   0.0000000   0.0000000   0.0000000   0.0000000   0.0000000   0.0000000   0.0000000   0.0000000
 NQMom=    0.0000000   0.0000000   0.0000000   0.0000000   0.0000000   0.0000000   0.0000000   0.0000000   0.0000000   0.0000000
 NMagM=    2.7928460   2.7928460   2.7928460   0.0000000   2.7928460   2.7928460   2.7928460   0.0000000   2.7928460   2.7928460
 AtZNuc=   1.0000000   1.0000000   1.0000000   6.0000000   1.0000000   1.0000000   1.0000000   6.0000000   1.0000000   1.0000000

  Atom        31          32          33          34          35          36          37          38          39          40
 IAtWgt=           1          12          12          12          12          12           1           1           1           1
 AtmWgt=   1.0078250  12.0000000  12.0000000  12.0000000  12.0000000  12.0000000   1.0078250   1.0078250   1.0078250   1.0078250
 NucSpn=           1           0           0           0           0           0           1           1           1           1
 AtZEff=   0.0000000   0.0000000   0.0000000   0.0000000   0.0000000   0.0000000   0.0000000   0.0000000   0.0000000   0.0000000
 NQMom=    0.0000000   0.0000000   0.0000000   0.0000000   0.0000000   0.0000000   0.0000000   0.0000000   0.0000000   0.0000000
 NMagM=    2.7928460   0.0000000   0.0000000   0.0000000   0.0000000   0.0000000   2.7928460   2.7928460   2.7928460   2.7928460
 AtZNuc=   1.0000000   6.0000000   6.0000000   6.0000000   6.0000000   6.0000000   1.0000000   1.0000000   1.0000000   1.0000000

  Atom        41          42          43          44          45          46          47          48          49          50
 IAtWgt=           1          16          16          16          16          16          12           1           1          16
 AtmWgt=   1.0078250  15.9949146  15.9949146  15.9949146  15.9949146  15.9949146  12.0000000   1.0078250   1.0078250  15.9949146
 NucSpn=           1           0           0           0           0           0           0           1           1           0
 AtZEff=   0.0000000   0.0000000   0.0000000   0.0000000   0.0000000   0.0000000   0.0000000   0.0000000   0.0000000   0.0000000
 NQMom=    0.0000000   0.0000000   0.0000000   0.0000000   0.0000000   0.0000000   0.0000000   0.0000000   0.0000000   0.0000000
 NMagM=    2.7928460   0.0000000   0.0000000   0.0000000   0.0000000   0.0000000   0.0000000   2.7928460   2.7928460   0.0000000
 AtZNuc=   1.0000000   8.0000000   8.0000000   8.0000000   8.0000000   8.0000000   6.0000000   1.0000000   1.0000000   8.0000000

  Atom        51          52          53          54          55          56          57          58          59          60
 IAtWgt=          32          16          16          12          12          12          12           1          12           1
 AtmWgt=  31.9720718  15.9949146  15.9949146  12.0000000  12.0000000  12.0000000  12.0000000   1.0078250  12.0000000   1.0078250
 NucSpn=           0           0           0           0           0           0           0           1           0           1
 AtZEff=   0.0000000   0.0000000   0.0000000   0.0000000   0.0000000   0.0000000   0.0000000   0.0000000   0.0000000   0.0000000
 NQMom=    0.0000000   0.0000000   0.0000000   0.0000000   0.0000000   0.0000000   0.0000000   0.0000000   0.0000000   0.0000000
 NMagM=    0.0000000   0.0000000   0.0000000   0.0000000   0.0000000   0.0000000   0.0000000   2.7928460   0.0000000   2.7928460
 AtZNuc=  16.0000000   8.0000000   8.0000000   6.0000000   6.0000000   6.0000000   6.0000000   1.0000000   6.0000000   1.0000000

  Atom        61          62          63          64          65          66          67          68          69          70
 IAtWgt=          12           1          12           1           1           1          12           1           1           1
 AtmWgt=  12.0000000   1.0078250  12.0000000   1.0078250   1.0078250   1.0078250  12.0000000   1.0078250   1.0078250   1.0078250
 NucSpn=           0           1           0           1           1           1           0           1           1           1
 AtZEff=   0.0000000   0.0000000   0.0000000   0.0000000   0.0000000   0.0000000   0.0000000   0.0000000   0.0000000   0.0000000
 NQMom=    0.0000000   0.0000000   0.0000000   0.0000000   0.0000000   0.0000000   0.0000000   0.0000000   0.0000000   0.0000000
 NMagM=    0.0000000   2.7928460   0.0000000   2.7928460   2.7928460   2.7928460   0.0000000   2.7928460   2.7928460   2.7928460
 AtZNuc=   6.0000000   1.0000000   6.0000000   1.0000000   1.0000000   1.0000000   6.0000000   1.0000000   1.0000000   1.0000000

  Atom        71          72          73          74          75          76          77          78          79          80
 IAtWgt=          12           1           1           1          12           1           1           1          12           1
 AtmWgt=  12.0000000   1.0078250   1.0078250   1.0078250  12.0000000   1.0078250   1.0078250   1.0078250  12.0000000   1.0078250
 NucSpn=           0           1           1           1           0           1           1           1           0           1
 AtZEff=   0.0000000   0.0000000   0.0000000   0.0000000   0.0000000   0.0000000   0.0000000   0.0000000   0.0000000   0.0000000
 NQMom=    0.0000000   0.0000000   0.0000000   0.0000000   0.0000000   0.0000000   0.0000000   0.0000000   0.0000000   0.0000000
 NMagM=    0.0000000   2.7928460   2.7928460   2.7928460   0.0000000   2.7928460   2.7928460   2.7928460   0.0000000   2.7928460
 AtZNuc=   6.0000000   1.0000000   1.0000000   1.0000000   6.0000000   1.0000000   1.0000000   1.0000000   6.0000000   1.0000000

  Atom        81          82          83          84          85          86          87          88          89          90
 IAtWgt=           1           1          23          16          12           1           1           1          12           1
 AtmWgt=   1.0078250   1.0078250  22.9897697  15.9949146  12.0000000   1.0078250   1.0078250   1.0078250  12.0000000   1.0078250
 NucSpn=           1           1           3           0           0           1           1           1           0           1
 AtZEff=   0.0000000   0.0000000   0.0000000   0.0000000   0.0000000   0.0000000   0.0000000   0.0000000   0.0000000   0.0000000
 NQMom=    0.0000000   0.0000000  10.4000000   0.0000000   0.0000000   0.0000000   0.0000000   0.0000000   0.0000000   0.0000000
 NMagM=    2.7928460   2.7928460   2.2175200   0.0000000   0.0000000   2.7928460   2.7928460   2.7928460   0.0000000   2.7928460
 AtZNuc=   1.0000000   1.0000000  11.0000000   8.0000000   6.0000000   1.0000000   1.0000000   1.0000000   6.0000000   1.0000000

  Atom        91          92          93          94          95          96          97          98          99         100
 IAtWgt=           1           1          12          19          19          19          12          19          19          19
 AtmWgt=   1.0078250   1.0078250  12.0000000  18.9984033  18.9984033  18.9984033  12.0000000  18.9984033  18.9984033  18.9984033
 NucSpn=           1           1           0           1           1           1           0           1           1           1
 AtZEff=   0.0000000   0.0000000   0.0000000   0.0000000   0.0000000   0.0000000   0.0000000   0.0000000   0.0000000   0.0000000
 NQMom=    0.0000000   0.0000000   0.0000000   0.0000000   0.0000000   0.0000000   0.0000000   0.0000000   0.0000000   0.0000000
 NMagM=    2.7928460   2.7928460   0.0000000   2.6288670   2.6288670   2.6288670   0.0000000   2.6288670   2.6288670   2.6288670
 AtZNuc=   1.0000000   1.0000000   6.0000000   9.0000000   9.0000000   9.0000000   6.0000000   9.0000000   9.0000000   9.0000000
 Leave Link  101 at Wed Jun  5 12:18:04 2019, MaxMem=  6442450944 cpu:              18.6 elap:               0.7
 (Enter /home/ekwan/sw/g16/l103.exe)

 GradGradGradGradGradGradGradGradGradGradGradGradGradGradGradGradGradGrad
 Berny optimization.
 Initialization pass.
                           ----------------------------
                           !    Initial Parameters    !
                           ! (Angstroms and Degrees)  !
 --------------------------                            --------------------------
 ! Name  Definition              Value          Derivative Info.                !
 --------------------------------------------------------------------------------
 ! R1    R(1,2)                  1.5186         calculate D2E/DX2 analytically  !
 ! R2    R(1,5)                  1.5193         calculate D2E/DX2 analytically  !
 ! R3    R(1,8)                  1.0975         calculate D2E/DX2 analytically  !
 ! R4    R(1,14)                 1.4122         calculate D2E/DX2 analytically  !
 ! R5    R(2,3)                  1.5213         calculate D2E/DX2 analytically  !
 ! R6    R(2,7)                  1.0969         calculate D2E/DX2 analytically  !
 ! R7    R(2,13)                 1.4066         calculate D2E/DX2 analytically  !
 ! R8    R(3,6)                  1.0981         calculate D2E/DX2 analytically  !
 ! R9    R(3,11)                 1.4081         calculate D2E/DX2 analytically  !
 ! R10   R(3,12)                 1.3897         calculate D2E/DX2 analytically  !
 ! R11   R(4,5)                  1.5238         calculate D2E/DX2 analytically  !
 ! R12   R(4,9)                  1.0978         calculate D2E/DX2 analytically  !
 ! R13   R(4,11)                 1.4323         calculate D2E/DX2 analytically  !
 ! R14   R(4,16)                 1.5265         calculate D2E/DX2 analytically  !
 ! R15   R(5,10)                 1.0953         calculate D2E/DX2 analytically  !
 ! R16   R(5,15)                 1.4128         calculate D2E/DX2 analytically  !
 ! R17   R(10,37)                2.0885         calculate D2E/DX2 analytically  !
 ! R18   R(11,83)                2.3548         calculate D2E/DX2 analytically  !
 ! R19   R(12,79)                1.4123         calculate D2E/DX2 analytically  !
 ! R20   R(13,20)                1.41           calculate D2E/DX2 analytically  !
 ! R21   R(14,24)                1.4102         calculate D2E/DX2 analytically  !
 ! R22   R(15,28)                1.411          calculate D2E/DX2 analytically  !
 ! R23   R(16,17)                1.1075         calculate D2E/DX2 analytically  !
 ! R24   R(16,18)                1.111          calculate D2E/DX2 analytically  !
 ! R25   R(16,19)                1.3718         calculate D2E/DX2 analytically  !
 ! R26   R(18,91)                2.2922         calculate D2E/DX2 analytically  !
 ! R27   R(19,37)                2.1263         calculate D2E/DX2 analytically  !
 ! R28   R(19,38)                2.1451         calculate D2E/DX2 analytically  !
 ! R29   R(19,83)                2.3287         calculate D2E/DX2 analytically  !
 ! R30   R(19,91)                2.2819         calculate D2E/DX2 analytically  !
 ! R31   R(20,21)                1.0976         calculate D2E/DX2 analytically  !
 ! R32   R(20,22)                1.0936         calculate D2E/DX2 analytically  !
 ! R33   R(20,23)                1.0917         calculate D2E/DX2 analytically  !
 ! R34   R(24,25)                1.0939         calculate D2E/DX2 analytically  !
 ! R35   R(24,26)                1.0978         calculate D2E/DX2 analytically  !
 ! R36   R(24,27)                1.0897         calculate D2E/DX2 analytically  !
 ! R37   R(28,29)                1.0963         calculate D2E/DX2 analytically  !
 ! R38   R(28,30)                1.0941         calculate D2E/DX2 analytically  !
 ! R39   R(28,31)                1.0921         calculate D2E/DX2 analytically  !
 ! R40   R(32,33)                1.52           calculate D2E/DX2 analytically  !
 ! R41   R(32,36)                1.5222         calculate D2E/DX2 analytically  !
 ! R42   R(32,39)                1.0961         calculate D2E/DX2 analytically  !
 ! R43   R(32,45)                1.4068         calculate D2E/DX2 analytically  !
 ! R44   R(33,34)                1.4955         calculate D2E/DX2 analytically  !
 ! R45   R(33,38)                1.1004         calculate D2E/DX2 analytically  !
 ! R46   R(33,44)                1.4019         calculate D2E/DX2 analytically  !
 ! R47   R(34,37)                1.073          calculate D2E/DX2 analytically  !
 ! R48   R(34,42)                1.2823         calculate D2E/DX2 analytically  !
 ! R49   R(34,53)                2.1262         calculate D2E/DX2 analytically  !
 ! R50   R(35,36)                1.5182         calculate D2E/DX2 analytically  !
 ! R51   R(35,40)                1.0939         calculate D2E/DX2 analytically  !
 ! R52   R(35,42)                1.4513         calculate D2E/DX2 analytically  !
 ! R53   R(35,47)                1.5046         calculate D2E/DX2 analytically  !
 ! R54   R(36,41)                1.0959         calculate D2E/DX2 analytically  !
 ! R55   R(36,46)                1.4051         calculate D2E/DX2 analytically  !
 ! R56   R(37,52)                2.1569         calculate D2E/DX2 analytically  !
 ! R57   R(37,83)                2.3308         calculate D2E/DX2 analytically  !
 ! R58   R(43,51)                1.4591         calculate D2E/DX2 analytically  !
 ! R59   R(44,63)                1.4199         calculate D2E/DX2 analytically  !
 ! R60   R(45,67)                1.4135         calculate D2E/DX2 analytically  !
 ! R61   R(46,71)                1.415          calculate D2E/DX2 analytically  !
 ! R62   R(47,48)                1.0985         calculate D2E/DX2 analytically  !
 ! R63   R(47,49)                1.0992         calculate D2E/DX2 analytically  !
 ! R64   R(47,50)                1.4009         calculate D2E/DX2 analytically  !
 ! R65   R(50,75)                1.4084         calculate D2E/DX2 analytically  !
 ! R66   R(51,52)                1.4815         calculate D2E/DX2 analytically  !
 ! R67   R(51,53)                1.4954         calculate D2E/DX2 analytically  !
 ! R68   R(51,54)                1.7782         calculate D2E/DX2 analytically  !
 ! R69   R(52,83)                2.3842         calculate D2E/DX2 analytically  !
 ! R70   R(54,55)                1.3838         calculate D2E/DX2 analytically  !
 ! R71   R(54,56)                1.3848         calculate D2E/DX2 analytically  !
 ! R72   R(55,57)                1.3867         calculate D2E/DX2 analytically  !
 ! R73   R(55,58)                1.0847         calculate D2E/DX2 analytically  !
 ! R74   R(56,59)                1.3837         calculate D2E/DX2 analytically  !
 ! R75   R(56,60)                1.0836         calculate D2E/DX2 analytically  !
 ! R76   R(57,61)                1.3863         calculate D2E/DX2 analytically  !
 ! R77   R(57,93)                1.5002         calculate D2E/DX2 analytically  !
 ! R78   R(59,61)                1.3857         calculate D2E/DX2 analytically  !
 ! R79   R(59,97)                1.5001         calculate D2E/DX2 analytically  !
 ! R80   R(61,62)                1.0843         calculate D2E/DX2 analytically  !
 ! R81   R(63,64)                1.0939         calculate D2E/DX2 analytically  !
 ! R82   R(63,65)                1.0919         calculate D2E/DX2 analytically  !
 ! R83   R(63,66)                1.0904         calculate D2E/DX2 analytically  !
 ! R84   R(67,68)                1.0936         calculate D2E/DX2 analytically  !
 ! R85   R(67,69)                1.0975         calculate D2E/DX2 analytically  !
 ! R86   R(67,70)                1.091          calculate D2E/DX2 analytically  !
 ! R87   R(71,72)                1.0954         calculate D2E/DX2 analytically  !
 ! R88   R(71,73)                1.0961         calculate D2E/DX2 analytically  !
 ! R89   R(71,74)                1.0907         calculate D2E/DX2 analytically  !
 ! R90   R(75,76)                1.0904         calculate D2E/DX2 analytically  !
 ! R91   R(75,77)                1.0976         calculate D2E/DX2 analytically  !
 ! R92   R(75,78)                1.0978         calculate D2E/DX2 analytically  !
 ! R93   R(79,80)                1.0904         calculate D2E/DX2 analytically  !
 ! R94   R(79,81)                1.095          calculate D2E/DX2 analytically  !
 ! R95   R(79,82)                1.0976         calculate D2E/DX2 analytically  !
 ! R96   R(83,84)                2.3055         calculate D2E/DX2 analytically  !
 ! R97   R(84,85)                1.4082         calculate D2E/DX2 analytically  !
 ! R98   R(84,89)                1.4148         calculate D2E/DX2 analytically  !
 ! R99   R(85,86)                1.0975         calculate D2E/DX2 analytically  !
 ! R100  R(85,87)                1.091          calculate D2E/DX2 analytically  !
 ! R101  R(85,88)                1.0971         calculate D2E/DX2 analytically  !
 ! R102  R(89,90)                1.0972         calculate D2E/DX2 analytically  !
 ! R103  R(89,91)                1.0935         calculate D2E/DX2 analytically  !
 ! R104  R(89,92)                1.0977         calculate D2E/DX2 analytically  !
 ! R105  R(93,94)                1.3468         calculate D2E/DX2 analytically  !
 ! R106  R(93,95)                1.3411         calculate D2E/DX2 analytically  !
 ! R107  R(93,96)                1.3403         calculate D2E/DX2 analytically  !
 ! R108  R(97,98)                1.3426         calculate D2E/DX2 analytically  !
 ! R109  R(97,99)                1.3446         calculate D2E/DX2 analytically  !
 ! R110  R(97,100)               1.3431         calculate D2E/DX2 analytically  !
 ! A1    A(2,1,5)              110.0095         calculate D2E/DX2 analytically  !
 ! A2    A(2,1,8)              108.3444         calculate D2E/DX2 analytically  !
 ! A3    A(2,1,14)             108.3857         calculate D2E/DX2 analytically  !
 ! A4    A(5,1,8)              109.2364         calculate D2E/DX2 analytically  !
 ! A5    A(5,1,14)             110.697          calculate D2E/DX2 analytically  !
 ! A6    A(8,1,14)             110.1303         calculate D2E/DX2 analytically  !
 ! A7    A(1,2,3)              110.138          calculate D2E/DX2 analytically  !
 ! A8    A(1,2,7)              108.8955         calculate D2E/DX2 analytically  !
 ! A9    A(1,2,13)             111.4932         calculate D2E/DX2 analytically  !
 ! A10   A(3,2,7)              106.6381         calculate D2E/DX2 analytically  !
 ! A11   A(3,2,13)             108.8039         calculate D2E/DX2 analytically  !
 ! A12   A(7,2,13)             110.7571         calculate D2E/DX2 analytically  !
 ! A13   A(2,3,6)              110.3001         calculate D2E/DX2 analytically  !
 ! A14   A(2,3,11)             110.2187         calculate D2E/DX2 analytically  !
 ! A15   A(2,3,12)             108.633          calculate D2E/DX2 analytically  !
 ! A16   A(6,3,11)             105.2628         calculate D2E/DX2 analytically  !
 ! A17   A(6,3,12)             110.4855         calculate D2E/DX2 analytically  !
 ! A18   A(11,3,12)            111.922          calculate D2E/DX2 analytically  !
 ! A19   A(5,4,9)              107.8684         calculate D2E/DX2 analytically  !
 ! A20   A(5,4,11)             109.7115         calculate D2E/DX2 analytically  !
 ! A21   A(5,4,16)             113.8263         calculate D2E/DX2 analytically  !
 ! A22   A(9,4,11)             109.0503         calculate D2E/DX2 analytically  !
 ! A23   A(9,4,16)             109.2896         calculate D2E/DX2 analytically  !
 ! A24   A(11,4,16)            107.021          calculate D2E/DX2 analytically  !
 ! A25   A(1,5,4)              111.438          calculate D2E/DX2 analytically  !
 ! A26   A(1,5,10)             107.5909         calculate D2E/DX2 analytically  !
 ! A27   A(1,5,15)             109.3003         calculate D2E/DX2 analytically  !
 ! A28   A(4,5,10)             109.5556         calculate D2E/DX2 analytically  !
 ! A29   A(4,5,15)             109.0014         calculate D2E/DX2 analytically  !
 ! A30   A(10,5,15)            109.939          calculate D2E/DX2 analytically  !
 ! A31   A(5,10,37)            138.2709         calculate D2E/DX2 analytically  !
 ! A32   A(3,11,4)             114.1464         calculate D2E/DX2 analytically  !
 ! A33   A(3,11,83)            126.9814         calculate D2E/DX2 analytically  !
 ! A34   A(4,11,83)            113.7092         calculate D2E/DX2 analytically  !
 ! A35   A(3,12,79)            112.8697         calculate D2E/DX2 analytically  !
 ! A36   A(2,13,20)            113.397          calculate D2E/DX2 analytically  !
 ! A37   A(1,14,24)            113.6925         calculate D2E/DX2 analytically  !
 ! A38   A(5,15,28)            113.3158         calculate D2E/DX2 analytically  !
 ! A39   A(4,16,17)            105.6097         calculate D2E/DX2 analytically  !
 ! A40   A(4,16,18)            105.3857         calculate D2E/DX2 analytically  !
 ! A41   A(4,16,19)            114.3102         calculate D2E/DX2 analytically  !
 ! A42   A(17,16,18)           105.1668         calculate D2E/DX2 analytically  !
 ! A43   A(17,16,19)           113.8426         calculate D2E/DX2 analytically  !
 ! A44   A(18,16,19)           111.7199         calculate D2E/DX2 analytically  !
 ! A45   A(16,18,91)           100.7606         calculate D2E/DX2 analytically  !
 ! A46   A(16,19,37)           121.6313         calculate D2E/DX2 analytically  !
 ! A47   A(16,19,38)           155.8577         calculate D2E/DX2 analytically  !
 ! A48   A(16,19,83)           106.8039         calculate D2E/DX2 analytically  !
 ! A49   A(16,19,91)            93.2082         calculate D2E/DX2 analytically  !
 ! A50   A(37,19,38)            77.277          calculate D2E/DX2 analytically  !
 ! A51   A(37,19,91)           130.6283         calculate D2E/DX2 analytically  !
 ! A52   A(38,19,83)            95.0555         calculate D2E/DX2 analytically  !
 ! A53   A(38,19,91)            82.5623         calculate D2E/DX2 analytically  !
 ! A54   A(83,19,91)            74.7871         calculate D2E/DX2 analytically  !
 ! A55   A(13,20,21)           111.3015         calculate D2E/DX2 analytically  !
 ! A56   A(13,20,22)           111.2116         calculate D2E/DX2 analytically  !
 ! A57   A(13,20,23)           107.1679         calculate D2E/DX2 analytically  !
 ! A58   A(21,20,22)           109.0575         calculate D2E/DX2 analytically  !
 ! A59   A(21,20,23)           108.6387         calculate D2E/DX2 analytically  !
 ! A60   A(22,20,23)           109.4012         calculate D2E/DX2 analytically  !
 ! A61   A(14,24,25)           111.3753         calculate D2E/DX2 analytically  !
 ! A62   A(14,24,26)           110.9665         calculate D2E/DX2 analytically  !
 ! A63   A(14,24,27)           106.9253         calculate D2E/DX2 analytically  !
 ! A64   A(25,24,26)           109.0356         calculate D2E/DX2 analytically  !
 ! A65   A(25,24,27)           109.5117         calculate D2E/DX2 analytically  !
 ! A66   A(26,24,27)           108.9743         calculate D2E/DX2 analytically  !
 ! A67   A(15,28,29)           110.7986         calculate D2E/DX2 analytically  !
 ! A68   A(15,28,30)           111.7824         calculate D2E/DX2 analytically  !
 ! A69   A(15,28,31)           107.107          calculate D2E/DX2 analytically  !
 ! A70   A(29,28,30)           108.6556         calculate D2E/DX2 analytically  !
 ! A71   A(29,28,31)           109.1376         calculate D2E/DX2 analytically  !
 ! A72   A(30,28,31)           109.3145         calculate D2E/DX2 analytically  !
 ! A73   A(33,32,36)           107.6331         calculate D2E/DX2 analytically  !
 ! A74   A(33,32,39)           109.5931         calculate D2E/DX2 analytically  !
 ! A75   A(33,32,45)           108.7751         calculate D2E/DX2 analytically  !
 ! A76   A(36,32,39)           110.5005         calculate D2E/DX2 analytically  !
 ! A77   A(36,32,45)           109.068          calculate D2E/DX2 analytically  !
 ! A78   A(39,32,45)           111.1851         calculate D2E/DX2 analytically  !
 ! A79   A(32,33,34)           111.5664         calculate D2E/DX2 analytically  !
 ! A80   A(32,33,38)           109.0887         calculate D2E/DX2 analytically  !
 ! A81   A(32,33,44)           116.2396         calculate D2E/DX2 analytically  !
 ! A82   A(34,33,38)           102.5319         calculate D2E/DX2 analytically  !
 ! A83   A(34,33,44)           107.3516         calculate D2E/DX2 analytically  !
 ! A84   A(38,33,44)           109.1654         calculate D2E/DX2 analytically  !
 ! A85   A(33,34,37)           121.2294         calculate D2E/DX2 analytically  !
 ! A86   A(33,34,42)           123.023          calculate D2E/DX2 analytically  !
 ! A87   A(33,34,53)            94.7791         calculate D2E/DX2 analytically  !
 ! A88   A(37,34,42)           114.8294         calculate D2E/DX2 analytically  !
 ! A89   A(37,34,53)            86.5233         calculate D2E/DX2 analytically  !
 ! A90   A(42,34,53)            97.9581         calculate D2E/DX2 analytically  !
 ! A91   A(36,35,40)           109.4674         calculate D2E/DX2 analytically  !
 ! A92   A(36,35,42)           111.2362         calculate D2E/DX2 analytically  !
 ! A93   A(36,35,47)           114.1228         calculate D2E/DX2 analytically  !
 ! A94   A(40,35,42)           105.1103         calculate D2E/DX2 analytically  !
 ! A95   A(40,35,47)           109.5743         calculate D2E/DX2 analytically  !
 ! A96   A(42,35,47)           106.921          calculate D2E/DX2 analytically  !
 ! A97   A(32,36,35)           111.1545         calculate D2E/DX2 analytically  !
 ! A98   A(32,36,41)           108.3831         calculate D2E/DX2 analytically  !
 ! A99   A(32,36,46)           110.4126         calculate D2E/DX2 analytically  !
 ! A100  A(35,36,41)           109.0149         calculate D2E/DX2 analytically  !
 ! A101  A(35,36,46)           107.1062         calculate D2E/DX2 analytically  !
 ! A102  A(41,36,46)           110.7711         calculate D2E/DX2 analytically  !
 ! A103  A(10,37,19)            81.4706         calculate D2E/DX2 analytically  !
 ! A104  A(10,37,34)           114.1622         calculate D2E/DX2 analytically  !
 ! A105  A(10,37,52)           106.2905         calculate D2E/DX2 analytically  !
 ! A106  A(10,37,83)           109.5602         calculate D2E/DX2 analytically  !
 ! A107  A(19,37,34)            89.1061         calculate D2E/DX2 analytically  !
 ! A108  A(19,37,52)           125.6067         calculate D2E/DX2 analytically  !
 ! A109  A(34,37,52)           130.1385         calculate D2E/DX2 analytically  !
 ! A110  A(34,37,83)           122.8413         calculate D2E/DX2 analytically  !
 ! A111  A(19,38,33)           105.7578         calculate D2E/DX2 analytically  !
 ! A112  A(34,42,35)           120.4892         calculate D2E/DX2 analytically  !
 ! A113  A(33,44,63)           114.7834         calculate D2E/DX2 analytically  !
 ! A114  A(32,45,67)           113.7675         calculate D2E/DX2 analytically  !
 ! A115  A(36,46,71)           113.4517         calculate D2E/DX2 analytically  !
 ! A116  A(35,47,48)           108.0381         calculate D2E/DX2 analytically  !
 ! A117  A(35,47,49)           109.1661         calculate D2E/DX2 analytically  !
 ! A118  A(35,47,50)           108.7996         calculate D2E/DX2 analytically  !
 ! A119  A(48,47,49)           108.1188         calculate D2E/DX2 analytically  !
 ! A120  A(48,47,50)           111.426          calculate D2E/DX2 analytically  !
 ! A121  A(49,47,50)           111.2178         calculate D2E/DX2 analytically  !
 ! A122  A(47,50,75)           112.0354         calculate D2E/DX2 analytically  !
 ! A123  A(43,51,52)           114.6746         calculate D2E/DX2 analytically  !
 ! A124  A(43,51,53)           113.8499         calculate D2E/DX2 analytically  !
 ! A125  A(43,51,54)           106.9038         calculate D2E/DX2 analytically  !
 ! A126  A(52,51,53)           111.6963         calculate D2E/DX2 analytically  !
 ! A127  A(52,51,54)           105.0874         calculate D2E/DX2 analytically  !
 ! A128  A(53,51,54)           103.4401         calculate D2E/DX2 analytically  !
 ! A129  A(37,52,51)            92.3907         calculate D2E/DX2 analytically  !
 ! A130  A(51,52,83)           136.2997         calculate D2E/DX2 analytically  !
 ! A131  A(34,53,51)           113.0998         calculate D2E/DX2 analytically  !
 ! A132  A(51,54,55)           119.8511         calculate D2E/DX2 analytically  !
 ! A133  A(51,54,56)           119.101          calculate D2E/DX2 analytically  !
 ! A134  A(55,54,56)           121.0315         calculate D2E/DX2 analytically  !
 ! A135  A(54,55,57)           118.96           calculate D2E/DX2 analytically  !
 ! A136  A(54,55,58)           120.0075         calculate D2E/DX2 analytically  !
 ! A137  A(57,55,58)           121.031          calculate D2E/DX2 analytically  !
 ! A138  A(54,56,59)           119.26           calculate D2E/DX2 analytically  !
 ! A139  A(54,56,60)           120.395          calculate D2E/DX2 analytically  !
 ! A140  A(59,56,60)           120.3427         calculate D2E/DX2 analytically  !
 ! A141  A(55,57,61)           120.803          calculate D2E/DX2 analytically  !
 ! A142  A(55,57,93)           119.5415         calculate D2E/DX2 analytically  !
 ! A143  A(61,57,93)           119.5697         calculate D2E/DX2 analytically  !
 ! A144  A(56,59,61)           120.6347         calculate D2E/DX2 analytically  !
 ! A145  A(56,59,97)           119.5836         calculate D2E/DX2 analytically  !
 ! A146  A(61,59,97)           119.6725         calculate D2E/DX2 analytically  !
 ! A147  A(57,61,59)           119.2956         calculate D2E/DX2 analytically  !
 ! A148  A(57,61,62)           120.2926         calculate D2E/DX2 analytically  !
 ! A149  A(59,61,62)           120.4117         calculate D2E/DX2 analytically  !
 ! A150  A(44,63,64)           110.9373         calculate D2E/DX2 analytically  !
 ! A151  A(44,63,65)           111.1629         calculate D2E/DX2 analytically  !
 ! A152  A(44,63,66)           106.5649         calculate D2E/DX2 analytically  !
 ! A153  A(64,63,65)           109.1018         calculate D2E/DX2 analytically  !
 ! A154  A(64,63,66)           109.3731         calculate D2E/DX2 analytically  !
 ! A155  A(65,63,66)           109.6581         calculate D2E/DX2 analytically  !
 ! A156  A(45,67,68)           111.3095         calculate D2E/DX2 analytically  !
 ! A157  A(45,67,69)           111.0665         calculate D2E/DX2 analytically  !
 ! A158  A(45,67,70)           106.8033         calculate D2E/DX2 analytically  !
 ! A159  A(68,67,69)           109.1487         calculate D2E/DX2 analytically  !
 ! A160  A(68,67,70)           109.4827         calculate D2E/DX2 analytically  !
 ! A161  A(69,67,70)           108.9725         calculate D2E/DX2 analytically  !
 ! A162  A(46,71,72)           110.897          calculate D2E/DX2 analytically  !
 ! A163  A(46,71,73)           111.0126         calculate D2E/DX2 analytically  !
 ! A164  A(46,71,74)           106.8908         calculate D2E/DX2 analytically  !
 ! A165  A(72,71,73)           109.2463         calculate D2E/DX2 analytically  !
 ! A166  A(72,71,74)           109.3633         calculate D2E/DX2 analytically  !
 ! A167  A(73,71,74)           109.385          calculate D2E/DX2 analytically  !
 ! A168  A(50,75,76)           107.2643         calculate D2E/DX2 analytically  !
 ! A169  A(50,75,77)           111.1637         calculate D2E/DX2 analytically  !
 ! A170  A(50,75,78)           111.1937         calculate D2E/DX2 analytically  !
 ! A171  A(76,75,77)           109.1647         calculate D2E/DX2 analytically  !
 ! A172  A(76,75,78)           109.2589         calculate D2E/DX2 analytically  !
 ! A173  A(77,75,78)           108.754          calculate D2E/DX2 analytically  !
 ! A174  A(12,79,80)           107.0562         calculate D2E/DX2 analytically  !
 ! A175  A(12,79,81)           111.4545         calculate D2E/DX2 analytically  !
 ! A176  A(12,79,82)           110.7959         calculate D2E/DX2 analytically  !
 ! A177  A(80,79,81)           109.3977         calculate D2E/DX2 analytically  !
 ! A178  A(80,79,82)           109.2068         calculate D2E/DX2 analytically  !
 ! A179  A(81,79,82)           108.8876         calculate D2E/DX2 analytically  !
 ! A180  A(11,83,19)            73.1623         calculate D2E/DX2 analytically  !
 ! A181  A(11,83,37)            81.347          calculate D2E/DX2 analytically  !
 ! A182  A(11,83,52)            87.0639         calculate D2E/DX2 analytically  !
 ! A183  A(11,83,84)           108.661          calculate D2E/DX2 analytically  !
 ! A184  A(19,83,52)           107.8681         calculate D2E/DX2 analytically  !
 ! A185  A(19,83,84)            96.6033         calculate D2E/DX2 analytically  !
 ! A186  A(37,83,84)           146.1254         calculate D2E/DX2 analytically  !
 ! A187  A(52,83,84)           154.0646         calculate D2E/DX2 analytically  !
 ! A188  A(83,84,85)           135.5953         calculate D2E/DX2 analytically  !
 ! A189  A(83,84,89)           111.7748         calculate D2E/DX2 analytically  !
 ! A190  A(85,84,89)           112.6299         calculate D2E/DX2 analytically  !
 ! A191  A(84,85,86)           110.8753         calculate D2E/DX2 analytically  !
 ! A192  A(84,85,87)           107.657          calculate D2E/DX2 analytically  !
 ! A193  A(84,85,88)           110.9753         calculate D2E/DX2 analytically  !
 ! A194  A(86,85,87)           109.2374         calculate D2E/DX2 analytically  !
 ! A195  A(86,85,88)           108.8207         calculate D2E/DX2 analytically  !
 ! A196  A(87,85,88)           109.2422         calculate D2E/DX2 analytically  !
 ! A197  A(84,89,90)           110.6122         calculate D2E/DX2 analytically  !
 ! A198  A(84,89,91)           106.3702         calculate D2E/DX2 analytically  !
 ! A199  A(84,89,92)           110.5389         calculate D2E/DX2 analytically  !
 ! A200  A(90,89,91)           110.2278         calculate D2E/DX2 analytically  !
 ! A201  A(90,89,92)           108.8339         calculate D2E/DX2 analytically  !
 ! A202  A(91,89,92)           110.2469         calculate D2E/DX2 analytically  !
 ! A203  A(18,91,19)            53.538          calculate D2E/DX2 analytically  !
 ! A204  A(18,91,89)           115.693          calculate D2E/DX2 analytically  !
 ! A205  A(19,91,89)           148.2217         calculate D2E/DX2 analytically  !
 ! A206  A(57,93,94)           110.9045         calculate D2E/DX2 analytically  !
 ! A207  A(57,93,95)           111.8567         calculate D2E/DX2 analytically  !
 ! A208  A(57,93,96)           111.8235         calculate D2E/DX2 analytically  !
 ! A209  A(94,93,95)           107.0449         calculate D2E/DX2 analytically  !
 ! A210  A(94,93,96)           107.0935         calculate D2E/DX2 analytically  !
 ! A211  A(95,93,96)           107.8656         calculate D2E/DX2 analytically  !
 ! A212  A(59,97,98)           112.2273         calculate D2E/DX2 analytically  !
 ! A213  A(59,97,99)           111.0238         calculate D2E/DX2 analytically  !
 ! A214  A(59,97,100)          111.7747         calculate D2E/DX2 analytically  !
 ! A215  A(98,97,99)           106.87           calculate D2E/DX2 analytically  !
 ! A216  A(98,97,100)          107.7786         calculate D2E/DX2 analytically  !
 ! A217  A(99,97,100)          106.8786         calculate D2E/DX2 analytically  !
 ! D1    D(5,1,2,3)            -53.0971         calculate D2E/DX2 analytically  !
 ! D2    D(5,1,2,7)             63.5092         calculate D2E/DX2 analytically  !
 ! D3    D(5,1,2,13)          -173.9859         calculate D2E/DX2 analytically  !
 ! D4    D(8,1,2,3)             66.2533         calculate D2E/DX2 analytically  !
 ! D5    D(8,1,2,7)           -177.1404         calculate D2E/DX2 analytically  !
 ! D6    D(8,1,2,13)           -54.6354         calculate D2E/DX2 analytically  !
 ! D7    D(14,1,2,3)          -174.2552         calculate D2E/DX2 analytically  !
 ! D8    D(14,1,2,7)           -57.6489         calculate D2E/DX2 analytically  !
 ! D9    D(14,1,2,13)           64.8561         calculate D2E/DX2 analytically  !
 ! D10   D(2,1,5,4)             52.2357         calculate D2E/DX2 analytically  !
 ! D11   D(2,1,5,10)           -67.879          calculate D2E/DX2 analytically  !
 ! D12   D(2,1,5,15)           172.7752         calculate D2E/DX2 analytically  !
 ! D13   D(8,1,5,4)            -66.569          calculate D2E/DX2 analytically  !
 ! D14   D(8,1,5,10)           173.3163         calculate D2E/DX2 analytically  !
 ! D15   D(8,1,5,15)            53.9704         calculate D2E/DX2 analytically  !
 ! D16   D(14,1,5,4)           171.9988         calculate D2E/DX2 analytically  !
 ! D17   D(14,1,5,10)           51.8841         calculate D2E/DX2 analytically  !
 ! D18   D(14,1,5,15)          -67.4618         calculate D2E/DX2 analytically  !
 ! D19   D(2,1,14,24)         -139.9258         calculate D2E/DX2 analytically  !
 ! D20   D(5,1,14,24)           99.3415         calculate D2E/DX2 analytically  !
 ! D21   D(8,1,14,24)          -21.5621         calculate D2E/DX2 analytically  !
 ! D22   D(1,2,3,6)            172.7649         calculate D2E/DX2 analytically  !
 ! D23   D(1,2,3,11)            56.9573         calculate D2E/DX2 analytically  !
 ! D24   D(1,2,3,12)           -66.0024         calculate D2E/DX2 analytically  !
 ! D25   D(7,2,3,6)             54.7575         calculate D2E/DX2 analytically  !
 ! D26   D(7,2,3,11)           -61.05           calculate D2E/DX2 analytically  !
 ! D27   D(7,2,3,12)           175.9902         calculate D2E/DX2 analytically  !
 ! D28   D(13,2,3,6)           -64.7478         calculate D2E/DX2 analytically  !
 ! D29   D(13,2,3,11)          179.4447         calculate D2E/DX2 analytically  !
 ! D30   D(13,2,3,12)           56.4849         calculate D2E/DX2 analytically  !
 ! D31   D(1,2,13,20)         -101.1378         calculate D2E/DX2 analytically  !
 ! D32   D(3,2,13,20)          137.197          calculate D2E/DX2 analytically  !
 ! D33   D(7,2,13,20)           20.2916         calculate D2E/DX2 analytically  !
 ! D34   D(2,3,11,4)           -61.3682         calculate D2E/DX2 analytically  !
 ! D35   D(2,3,11,83)           91.405          calculate D2E/DX2 analytically  !
 ! D36   D(6,3,11,4)           179.7021         calculate D2E/DX2 analytically  !
 ! D37   D(6,3,11,83)          -27.5246         calculate D2E/DX2 analytically  !
 ! D38   D(12,3,11,4)           59.6455         calculate D2E/DX2 analytically  !
 ! D39   D(12,3,11,83)        -147.5813         calculate D2E/DX2 analytically  !
 ! D40   D(2,3,12,79)         -173.8681         calculate D2E/DX2 analytically  !
 ! D41   D(6,3,12,79)          -52.7493         calculate D2E/DX2 analytically  !
 ! D42   D(11,3,12,79)          64.2046         calculate D2E/DX2 analytically  !
 ! D43   D(9,4,5,1)             64.8932         calculate D2E/DX2 analytically  !
 ! D44   D(9,4,5,10)          -176.1575         calculate D2E/DX2 analytically  !
 ! D45   D(9,4,5,15)           -55.8215         calculate D2E/DX2 analytically  !
 ! D46   D(11,4,5,1)           -53.7784         calculate D2E/DX2 analytically  !
 ! D47   D(11,4,5,10)           65.1709         calculate D2E/DX2 analytically  !
 ! D48   D(11,4,5,15)         -174.4931         calculate D2E/DX2 analytically  !
 ! D49   D(16,4,5,1)          -173.6547         calculate D2E/DX2 analytically  !
 ! D50   D(16,4,5,10)          -54.7054         calculate D2E/DX2 analytically  !
 ! D51   D(16,4,5,15)           65.6306         calculate D2E/DX2 analytically  !
 ! D52   D(5,4,11,3)            59.4059         calculate D2E/DX2 analytically  !
 ! D53   D(5,4,11,83)          -97.0681         calculate D2E/DX2 analytically  !
 ! D54   D(9,4,11,3)           -58.5332         calculate D2E/DX2 analytically  !
 ! D55   D(9,4,11,83)          144.9929         calculate D2E/DX2 analytically  !
 ! D56   D(16,4,11,3)         -176.6456         calculate D2E/DX2 analytically  !
 ! D57   D(16,4,11,83)          26.8805         calculate D2E/DX2 analytically  !
 ! D58   D(5,4,16,17)          -59.8268         calculate D2E/DX2 analytically  !
 ! D59   D(5,4,16,18)         -170.8428         calculate D2E/DX2 analytically  !
 ! D60   D(5,4,16,19)           66.0999         calculate D2E/DX2 analytically  !
 ! D61   D(9,4,16,17)           60.832          calculate D2E/DX2 analytically  !
 ! D62   D(9,4,16,18)          -50.184          calculate D2E/DX2 analytically  !
 ! D63   D(9,4,16,19)         -173.2413         calculate D2E/DX2 analytically  !
 ! D64   D(11,4,16,17)         178.7882         calculate D2E/DX2 analytically  !
 ! D65   D(11,4,16,18)          67.7722         calculate D2E/DX2 analytically  !
 ! D66   D(11,4,16,19)         -55.2851         calculate D2E/DX2 analytically  !
 ! D67   D(1,5,10,37)          112.6841         calculate D2E/DX2 analytically  !
 ! D68   D(4,5,10,37)           -8.6155         calculate D2E/DX2 analytically  !
 ! D69   D(15,5,10,37)        -128.3785         calculate D2E/DX2 analytically  !
 ! D70   D(1,5,15,28)          127.958          calculate D2E/DX2 analytically  !
 ! D71   D(4,5,15,28)         -110.0251         calculate D2E/DX2 analytically  !
 ! D72   D(10,5,15,28)          10.0746         calculate D2E/DX2 analytically  !
 ! D73   D(5,10,37,19)          42.9585         calculate D2E/DX2 analytically  !
 ! D74   D(5,10,37,34)         128.107          calculate D2E/DX2 analytically  !
 ! D75   D(5,10,37,52)         -81.7586         calculate D2E/DX2 analytically  !
 ! D76   D(5,10,37,83)         -14.096          calculate D2E/DX2 analytically  !
 ! D77   D(3,11,83,19)        -154.974          calculate D2E/DX2 analytically  !
 ! D78   D(3,11,83,37)         -99.7655         calculate D2E/DX2 analytically  !
 ! D79   D(3,11,83,52)         -45.3094         calculate D2E/DX2 analytically  !
 ! D80   D(3,11,83,84)         113.6161         calculate D2E/DX2 analytically  !
 ! D81   D(4,11,83,19)          -2.1011         calculate D2E/DX2 analytically  !
 ! D82   D(4,11,83,37)          53.1074         calculate D2E/DX2 analytically  !
 ! D83   D(4,11,83,52)         107.5634         calculate D2E/DX2 analytically  !
 ! D84   D(4,11,83,84)         -93.511          calculate D2E/DX2 analytically  !
 ! D85   D(3,12,79,80)         174.9583         calculate D2E/DX2 analytically  !
 ! D86   D(3,12,79,81)         -65.4485         calculate D2E/DX2 analytically  !
 ! D87   D(3,12,79,82)          55.9712         calculate D2E/DX2 analytically  !
 ! D88   D(2,13,20,21)         -63.9464         calculate D2E/DX2 analytically  !
 ! D89   D(2,13,20,22)          57.874          calculate D2E/DX2 analytically  !
 ! D90   D(2,13,20,23)         177.4014         calculate D2E/DX2 analytically  !
 ! D91   D(1,14,24,25)         -59.7558         calculate D2E/DX2 analytically  !
 ! D92   D(1,14,24,26)          61.9167         calculate D2E/DX2 analytically  !
 ! D93   D(1,14,24,27)        -179.3607         calculate D2E/DX2 analytically  !
 ! D94   D(5,15,28,29)         -66.0275         calculate D2E/DX2 analytically  !
 ! D95   D(5,15,28,30)          55.3233         calculate D2E/DX2 analytically  !
 ! D96   D(5,15,28,31)         175.0368         calculate D2E/DX2 analytically  !
 ! D97   D(4,16,18,91)        -133.1909         calculate D2E/DX2 analytically  !
 ! D98   D(17,16,18,91)        115.4784         calculate D2E/DX2 analytically  !
 ! D99   D(19,16,18,91)         -8.4945         calculate D2E/DX2 analytically  !
 ! D100  D(4,16,19,37)         -15.2222         calculate D2E/DX2 analytically  !
 ! D101  D(4,16,19,38)        -153.111          calculate D2E/DX2 analytically  !
 ! D102  D(4,16,19,83)          52.8831         calculate D2E/DX2 analytically  !
 ! D103  D(4,16,19,91)         127.9546         calculate D2E/DX2 analytically  !
 ! D104  D(17,16,19,37)        106.2747         calculate D2E/DX2 analytically  !
 ! D105  D(17,16,19,38)        -31.6141         calculate D2E/DX2 analytically  !
 ! D106  D(17,16,19,83)        174.38           calculate D2E/DX2 analytically  !
 ! D107  D(17,16,19,91)       -110.5485         calculate D2E/DX2 analytically  !
 ! D108  D(18,16,19,37)       -134.7818         calculate D2E/DX2 analytically  !
 ! D109  D(18,16,19,38)         87.3295         calculate D2E/DX2 analytically  !
 ! D110  D(18,16,19,83)        -66.6765         calculate D2E/DX2 analytically  !
 ! D111  D(18,16,19,91)          8.395          calculate D2E/DX2 analytically  !
 ! D112  D(16,18,91,19)          5.8874         calculate D2E/DX2 analytically  !
 ! D113  D(16,18,91,89)        150.7183         calculate D2E/DX2 analytically  !
 ! D114  D(16,19,37,10)        -23.4446         calculate D2E/DX2 analytically  !
 ! D115  D(16,19,37,34)       -138.0452         calculate D2E/DX2 analytically  !
 ! D116  D(16,19,37,52)         80.5289         calculate D2E/DX2 analytically  !
 ! D117  D(38,19,37,10)        140.2253         calculate D2E/DX2 analytically  !
 ! D118  D(38,19,37,34)         25.6248         calculate D2E/DX2 analytically  !
 ! D119  D(38,19,37,52)       -115.8012         calculate D2E/DX2 analytically  !
 ! D120  D(91,19,37,10)       -151.4019         calculate D2E/DX2 analytically  !
 ! D121  D(91,19,37,34)         93.9976         calculate D2E/DX2 analytically  !
 ! D122  D(91,19,37,52)        -47.4284         calculate D2E/DX2 analytically  !
 ! D123  D(16,19,38,33)        157.477          calculate D2E/DX2 analytically  !
 ! D124  D(37,19,38,33)         13.3029         calculate D2E/DX2 analytically  !
 ! D125  D(83,19,38,33)        -47.4335         calculate D2E/DX2 analytically  !
 ! D126  D(91,19,38,33)       -121.3395         calculate D2E/DX2 analytically  !
 ! D127  D(16,19,83,11)        -26.0746         calculate D2E/DX2 analytically  !
 ! D128  D(16,19,83,52)       -107.2279         calculate D2E/DX2 analytically  !
 ! D129  D(16,19,83,84)         81.4731         calculate D2E/DX2 analytically  !
 ! D130  D(38,19,83,11)        164.2927         calculate D2E/DX2 analytically  !
 ! D131  D(38,19,83,52)         83.1394         calculate D2E/DX2 analytically  !
 ! D132  D(38,19,83,84)        -88.1596         calculate D2E/DX2 analytically  !
 ! D133  D(91,19,83,11)       -114.8404         calculate D2E/DX2 analytically  !
 ! D134  D(91,19,83,52)        164.0063         calculate D2E/DX2 analytically  !
 ! D135  D(91,19,83,84)         -7.2927         calculate D2E/DX2 analytically  !
 ! D136  D(16,19,91,18)         -4.6888         calculate D2E/DX2 analytically  !
 ! D137  D(16,19,91,89)        -84.9492         calculate D2E/DX2 analytically  !
 ! D138  D(37,19,91,18)        133.0595         calculate D2E/DX2 analytically  !
 ! D139  D(37,19,91,89)         52.7991         calculate D2E/DX2 analytically  !
 ! D140  D(38,19,91,18)       -160.8099         calculate D2E/DX2 analytically  !
 ! D141  D(38,19,91,89)        118.9297         calculate D2E/DX2 analytically  !
 ! D142  D(83,19,91,18)        101.8595         calculate D2E/DX2 analytically  !
 ! D143  D(83,19,91,89)         21.5991         calculate D2E/DX2 analytically  !
 ! D144  D(36,32,33,34)        -47.7715         calculate D2E/DX2 analytically  !
 ! D145  D(36,32,33,38)         64.79           calculate D2E/DX2 analytically  !
 ! D146  D(36,32,33,44)       -171.3001         calculate D2E/DX2 analytically  !
 ! D147  D(39,32,33,34)         72.4409         calculate D2E/DX2 analytically  !
 ! D148  D(39,32,33,38)       -174.9976         calculate D2E/DX2 analytically  !
 ! D149  D(39,32,33,44)        -51.0877         calculate D2E/DX2 analytically  !
 ! D150  D(45,32,33,34)       -165.8132         calculate D2E/DX2 analytically  !
 ! D151  D(45,32,33,38)        -53.2518         calculate D2E/DX2 analytically  !
 ! D152  D(45,32,33,44)         70.6582         calculate D2E/DX2 analytically  !
 ! D153  D(33,32,36,35)         59.1854         calculate D2E/DX2 analytically  !
 ! D154  D(33,32,36,41)        -60.5993         calculate D2E/DX2 analytically  !
 ! D155  D(33,32,36,46)        177.9059         calculate D2E/DX2 analytically  !
 ! D156  D(39,32,36,35)        -60.4518         calculate D2E/DX2 analytically  !
 ! D157  D(39,32,36,41)        179.7635         calculate D2E/DX2 analytically  !
 ! D158  D(39,32,36,46)         58.2687         calculate D2E/DX2 analytically  !
 ! D159  D(45,32,36,35)        177.0379         calculate D2E/DX2 analytically  !
 ! D160  D(45,32,36,41)         57.2531         calculate D2E/DX2 analytically  !
 ! D161  D(45,32,36,46)        -64.2416         calculate D2E/DX2 analytically  !
 ! D162  D(33,32,45,67)       -140.6396         calculate D2E/DX2 analytically  !
 ! D163  D(36,32,45,67)        102.2296         calculate D2E/DX2 analytically  !
 ! D164  D(39,32,45,67)        -19.8685         calculate D2E/DX2 analytically  !
 ! D165  D(32,33,34,37)       -157.1162         calculate D2E/DX2 analytically  !
 ! D166  D(32,33,34,42)         34.422          calculate D2E/DX2 analytically  !
 ! D167  D(32,33,34,53)        -68.2894         calculate D2E/DX2 analytically  !
 ! D168  D(38,33,34,37)         86.2627         calculate D2E/DX2 analytically  !
 ! D169  D(38,33,34,42)        -82.199          calculate D2E/DX2 analytically  !
 ! D170  D(38,33,34,53)        175.0895         calculate D2E/DX2 analytically  !
 ! D171  D(44,33,34,37)        -28.6853         calculate D2E/DX2 analytically  !
 ! D172  D(44,33,34,42)        162.853          calculate D2E/DX2 analytically  !
 ! D173  D(44,33,34,53)         60.1415         calculate D2E/DX2 analytically  !
 ! D174  D(32,33,38,19)       -155.2583         calculate D2E/DX2 analytically  !
 ! D175  D(34,33,38,19)        -36.874          calculate D2E/DX2 analytically  !
 ! D176  D(44,33,38,19)         76.7476         calculate D2E/DX2 analytically  !
 ! D177  D(32,33,44,63)        -71.0945         calculate D2E/DX2 analytically  !
 ! D178  D(34,33,44,63)        163.2181         calculate D2E/DX2 analytically  !
 ! D179  D(38,33,44,63)         52.7758         calculate D2E/DX2 analytically  !
 ! D180  D(33,34,37,10)       -144.5654         calculate D2E/DX2 analytically  !
 ! D181  D(33,34,37,19)        -64.3287         calculate D2E/DX2 analytically  !
 ! D182  D(33,34,37,52)         74.1332         calculate D2E/DX2 analytically  !
 ! D183  D(33,34,37,83)         -7.9862         calculate D2E/DX2 analytically  !
 ! D184  D(42,34,37,10)         24.7857         calculate D2E/DX2 analytically  !
 ! D185  D(42,34,37,19)        105.0224         calculate D2E/DX2 analytically  !
 ! D186  D(42,34,37,52)       -116.5157         calculate D2E/DX2 analytically  !
 ! D187  D(42,34,37,83)        161.3648         calculate D2E/DX2 analytically  !
 ! D188  D(53,34,37,10)        121.9504         calculate D2E/DX2 analytically  !
 ! D189  D(53,34,37,19)       -157.8129         calculate D2E/DX2 analytically  !
 ! D190  D(53,34,37,52)        -19.3511         calculate D2E/DX2 analytically  !
 ! D191  D(53,34,37,83)       -101.4705         calculate D2E/DX2 analytically  !
 ! D192  D(33,34,42,35)        -28.3355         calculate D2E/DX2 analytically  !
 ! D193  D(37,34,42,35)        162.5274         calculate D2E/DX2 analytically  !
 ! D194  D(53,34,42,35)         72.6871         calculate D2E/DX2 analytically  !
 ! D195  D(33,34,53,51)       -116.2727         calculate D2E/DX2 analytically  !
 ! D196  D(37,34,53,51)          4.802          calculate D2E/DX2 analytically  !
 ! D197  D(42,34,53,51)        119.4026         calculate D2E/DX2 analytically  !
 ! D198  D(40,35,36,32)         63.3318         calculate D2E/DX2 analytically  !
 ! D199  D(40,35,36,41)       -177.2599         calculate D2E/DX2 analytically  !
 ! D200  D(40,35,36,46)        -57.3574         calculate D2E/DX2 analytically  !
 ! D201  D(42,35,36,32)        -52.3892         calculate D2E/DX2 analytically  !
 ! D202  D(42,35,36,41)         67.019          calculate D2E/DX2 analytically  !
 ! D203  D(42,35,36,46)       -173.0784         calculate D2E/DX2 analytically  !
 ! D204  D(47,35,36,32)       -173.4636         calculate D2E/DX2 analytically  !
 ! D205  D(47,35,36,41)        -54.0553         calculate D2E/DX2 analytically  !
 ! D206  D(47,35,36,46)         65.8472         calculate D2E/DX2 analytically  !
 ! D207  D(36,35,42,34)         36.1938         calculate D2E/DX2 analytically  !
 ! D208  D(40,35,42,34)        -82.1839         calculate D2E/DX2 analytically  !
 ! D209  D(47,35,42,34)        161.4007         calculate D2E/DX2 analytically  !
 ! D210  D(36,35,47,48)        -67.116          calculate D2E/DX2 analytically  !
 ! D211  D(36,35,47,49)        175.5327         calculate D2E/DX2 analytically  !
 ! D212  D(36,35,47,50)         53.9946         calculate D2E/DX2 analytically  !
 ! D213  D(40,35,47,48)         56.0306         calculate D2E/DX2 analytically  !
 ! D214  D(40,35,47,49)        -61.3207         calculate D2E/DX2 analytically  !
 ! D215  D(40,35,47,50)        177.1412         calculate D2E/DX2 analytically  !
 ! D216  D(42,35,47,48)        169.444          calculate D2E/DX2 analytically  !
 ! D217  D(42,35,47,49)         52.0927         calculate D2E/DX2 analytically  !
 ! D218  D(42,35,47,50)        -69.4454         calculate D2E/DX2 analytically  !
 ! D219  D(32,36,46,71)        117.8776         calculate D2E/DX2 analytically  !
 ! D220  D(35,36,46,71)       -120.9632         calculate D2E/DX2 analytically  !
 ! D221  D(41,36,46,71)         -2.1915         calculate D2E/DX2 analytically  !
 ! D222  D(10,37,52,51)       -112.5954         calculate D2E/DX2 analytically  !
 ! D223  D(19,37,52,51)        156.3033         calculate D2E/DX2 analytically  !
 ! D224  D(34,37,52,51)         30.9413         calculate D2E/DX2 analytically  !
 ! D225  D(10,37,83,11)         -6.5122         calculate D2E/DX2 analytically  !
 ! D226  D(10,37,83,84)        104.2189         calculate D2E/DX2 analytically  !
 ! D227  D(34,37,83,11)       -144.7883         calculate D2E/DX2 analytically  !
 ! D228  D(34,37,83,84)        -34.0572         calculate D2E/DX2 analytically  !
 ! D229  D(33,44,63,64)        -38.4519         calculate D2E/DX2 analytically  !
 ! D230  D(33,44,63,65)         83.1384         calculate D2E/DX2 analytically  !
 ! D231  D(33,44,63,66)       -157.422          calculate D2E/DX2 analytically  !
 ! D232  D(32,45,67,68)        -58.1796         calculate D2E/DX2 analytically  !
 ! D233  D(32,45,67,69)         63.6616         calculate D2E/DX2 analytically  !
 ! D234  D(32,45,67,70)       -177.636          calculate D2E/DX2 analytically  !
 ! D235  D(36,46,71,72)        -62.8014         calculate D2E/DX2 analytically  !
 ! D236  D(36,46,71,73)         58.8418         calculate D2E/DX2 analytically  !
 ! D237  D(36,46,71,74)        178.0658         calculate D2E/DX2 analytically  !
 ! D238  D(35,47,50,75)        178.8682         calculate D2E/DX2 analytically  !
 ! D239  D(48,47,50,75)        -62.1212         calculate D2E/DX2 analytically  !
 ! D240  D(49,47,50,75)         58.5905         calculate D2E/DX2 analytically  !
 ! D241  D(47,50,75,76)       -179.3753         calculate D2E/DX2 analytically  !
 ! D242  D(47,50,75,77)        -60.1034         calculate D2E/DX2 analytically  !
 ! D243  D(47,50,75,78)         61.221          calculate D2E/DX2 analytically  !
 ! D244  D(43,51,52,37)       -149.5255         calculate D2E/DX2 analytically  !
 ! D245  D(43,51,52,83)        -99.8462         calculate D2E/DX2 analytically  !
 ! D246  D(53,51,52,37)        -18.097          calculate D2E/DX2 analytically  !
 ! D247  D(53,51,52,83)         31.5824         calculate D2E/DX2 analytically  !
 ! D248  D(54,51,52,37)         93.3931         calculate D2E/DX2 analytically  !
 ! D249  D(54,51,52,83)        143.0725         calculate D2E/DX2 analytically  !
 ! D250  D(43,51,53,34)        146.4265         calculate D2E/DX2 analytically  !
 ! D251  D(52,51,53,34)         14.5798         calculate D2E/DX2 analytically  !
 ! D252  D(54,51,53,34)        -97.9464         calculate D2E/DX2 analytically  !
 ! D253  D(43,51,54,55)        -29.6458         calculate D2E/DX2 analytically  !
 ! D254  D(43,51,54,56)        151.8117         calculate D2E/DX2 analytically  !
 ! D255  D(52,51,54,55)         92.6179         calculate D2E/DX2 analytically  !
 ! D256  D(52,51,54,56)        -85.9246         calculate D2E/DX2 analytically  !
 ! D257  D(53,51,54,55)       -150.1182         calculate D2E/DX2 analytically  !
 ! D258  D(53,51,54,56)         31.3393         calculate D2E/DX2 analytically  !
 ! D259  D(51,52,83,11)       -141.5281         calculate D2E/DX2 analytically  !
 ! D260  D(51,52,83,19)        -70.2682         calculate D2E/DX2 analytically  !
 ! D261  D(51,52,83,84)         89.6358         calculate D2E/DX2 analytically  !
 ! D262  D(51,54,55,57)       -177.9442         calculate D2E/DX2 analytically  !
 ! D263  D(51,54,55,58)          2.4853         calculate D2E/DX2 analytically  !
 ! D264  D(56,54,55,57)          0.5696         calculate D2E/DX2 analytically  !
 ! D265  D(56,54,55,58)       -179.0009         calculate D2E/DX2 analytically  !
 ! D266  D(51,54,56,59)        179.0861         calculate D2E/DX2 analytically  !
 ! D267  D(51,54,56,60)         -1.4624         calculate D2E/DX2 analytically  !
 ! D268  D(55,54,56,59)          0.5613         calculate D2E/DX2 analytically  !
 ! D269  D(55,54,56,60)       -179.9872         calculate D2E/DX2 analytically  !
 ! D270  D(54,55,57,61)         -1.2462         calculate D2E/DX2 analytically  !
 ! D271  D(54,55,57,93)        175.3715         calculate D2E/DX2 analytically  !
 ! D272  D(58,55,57,61)        178.3197         calculate D2E/DX2 analytically  !
 ! D273  D(58,55,57,93)         -5.0625         calculate D2E/DX2 analytically  !
 ! D274  D(54,56,59,61)         -1.0401         calculate D2E/DX2 analytically  !
 ! D275  D(54,56,59,97)        175.1494         calculate D2E/DX2 analytically  !
 ! D276  D(60,56,59,61)        179.5082         calculate D2E/DX2 analytically  !
 ! D277  D(60,56,59,97)         -4.3024         calculate D2E/DX2 analytically  !
 ! D278  D(55,57,61,59)          0.7802         calculate D2E/DX2 analytically  !
 ! D279  D(55,57,61,62)       -179.2678         calculate D2E/DX2 analytically  !
 ! D280  D(93,57,61,59)       -175.8366         calculate D2E/DX2 analytically  !
 ! D281  D(93,57,61,62)          4.1154         calculate D2E/DX2 analytically  !
 ! D282  D(55,57,93,94)        -87.8042         calculate D2E/DX2 analytically  !
 ! D283  D(55,57,93,95)        152.7708         calculate D2E/DX2 analytically  !
 ! D284  D(55,57,93,96)         31.6603         calculate D2E/DX2 analytically  !
 ! D285  D(61,57,93,94)         88.8557         calculate D2E/DX2 analytically  !
 ! D286  D(61,57,93,95)        -30.5693         calculate D2E/DX2 analytically  !
 ! D287  D(61,57,93,96)       -151.6798         calculate D2E/DX2 analytically  !
 ! D288  D(56,59,61,57)          0.3781         calculate D2E/DX2 analytically  !
 ! D289  D(56,59,61,62)       -179.5738         calculate D2E/DX2 analytically  !
 ! D290  D(97,59,61,57)       -175.808          calculate D2E/DX2 analytically  !
 ! D291  D(97,59,61,62)          4.2401         calculate D2E/DX2 analytically  !
 ! D292  D(56,59,97,98)         28.0646         calculate D2E/DX2 analytically  !
 ! D293  D(56,59,97,99)        -91.4676         calculate D2E/DX2 analytically  !
 ! D294  D(56,59,97,100)       149.2918         calculate D2E/DX2 analytically  !
 ! D295  D(61,59,97,98)       -155.7089         calculate D2E/DX2 analytically  !
 ! D296  D(61,59,97,99)         84.7589         calculate D2E/DX2 analytically  !
 ! D297  D(61,59,97,100)       -34.4817         calculate D2E/DX2 analytically  !
 ! D298  D(11,83,84,85)        -98.2412         calculate D2E/DX2 analytically  !
 ! D299  D(11,83,84,89)         81.6409         calculate D2E/DX2 analytically  !
 ! D300  D(19,83,84,85)       -172.6553         calculate D2E/DX2 analytically  !
 ! D301  D(19,83,84,89)          7.2267         calculate D2E/DX2 analytically  !
 ! D302  D(37,83,84,85)        159.1576         calculate D2E/DX2 analytically  !
 ! D303  D(37,83,84,89)        -20.9604         calculate D2E/DX2 analytically  !
 ! D304  D(52,83,84,85)         26.5652         calculate D2E/DX2 analytically  !
 ! D305  D(52,83,84,89)       -153.5527         calculate D2E/DX2 analytically  !
 ! D306  D(83,84,85,86)       -119.484          calculate D2E/DX2 analytically  !
 ! D307  D(83,84,85,87)         -0.0476         calculate D2E/DX2 analytically  !
 ! D308  D(83,84,85,88)        119.453          calculate D2E/DX2 analytically  !
 ! D309  D(89,84,85,86)         60.6346         calculate D2E/DX2 analytically  !
 ! D310  D(89,84,85,87)       -179.9289         calculate D2E/DX2 analytically  !
 ! D311  D(89,84,85,88)        -60.4283         calculate D2E/DX2 analytically  !
 ! D312  D(83,84,89,90)       -118.0894         calculate D2E/DX2 analytically  !
 ! D313  D(83,84,89,91)          1.6129         calculate D2E/DX2 analytically  !
 ! D314  D(83,84,89,92)        121.2978         calculate D2E/DX2 analytically  !
 ! D315  D(85,84,89,90)         61.8212         calculate D2E/DX2 analytically  !
 ! D316  D(85,84,89,91)       -178.4765         calculate D2E/DX2 analytically  !
 ! D317  D(85,84,89,92)        -58.7916         calculate D2E/DX2 analytically  !
 ! D318  D(84,89,91,18)        -80.1371         calculate D2E/DX2 analytically  !
 ! D319  D(84,89,91,19)        -18.5395         calculate D2E/DX2 analytically  !
 ! D320  D(90,89,91,18)         39.8149         calculate D2E/DX2 analytically  !
 ! D321  D(90,89,91,19)        101.4124         calculate D2E/DX2 analytically  !
 ! D322  D(92,89,91,18)        159.9884         calculate D2E/DX2 analytically  !
 ! D323  D(92,89,91,19)       -138.414          calculate D2E/DX2 analytically  !
 --------------------------------------------------------------------------------
 Trust Radius=5.00D-02 FncErr=1.00D-07 GrdErr=1.00D-06 EigMax=2.50D+02 EigMin=1.00D-04
 Number of steps in this run=    600 maximum allowed number of steps=    600.
 Search for a saddle point of order  1.
 GradGradGradGradGradGradGradGradGradGradGradGradGradGradGradGradGradGrad

 Leave Link  103 at Wed Jun  5 12:18:04 2019, MaxMem=  6442450944 cpu:               4.7 elap:               0.2
 (Enter /home/ekwan/sw/g16/l202.exe)
 Stoichiometry    C30H47F6NaO15S
 Framework group  C1[X(C30H47F6NaO15S)]
 Deg. of freedom   294
 Full point group                 C1      NOp   1
 Largest Abelian subgroup         C1      NOp   1
 Largest concise Abelian subgroup C1      NOp   1
                         Standard orientation:                         
 ---------------------------------------------------------------------
 Center     Atomic      Atomic             Coordinates (Angstroms)
 Number     Number       Type             X           Y           Z
 ---------------------------------------------------------------------
      1          6           0       -1.682870    1.573027    2.278565
      2          6           0       -1.980655    2.317242    0.988719
      3          6           0       -1.067325    3.526968    0.859187
      4          6           0        0.653387    2.493166    2.145592
      5          6           0       -0.200672    1.249936    2.362032
      6          1           0       -1.189382    3.992547   -0.127852
      7          1           0       -1.754686    1.660766    0.139565
      8          1           0       -1.960294    2.218514    3.121735
      9          1           0        0.460239    3.183453    2.977062
     10          1           0        0.021686    0.512285    1.583483
     11          8           0        0.281495    3.126697    0.915989
     12          8           0       -1.382950    4.431433    1.865938
     13          8           0       -3.317753    2.751460    0.941154
     14          8           0       -2.453500    0.389789    2.298205
     15          8           0        0.088424    0.709112    3.634854
     16          6           0        2.150567    2.206515    2.065586
     17          1           0        2.416583    1.738744    3.033595
     18          1           0        2.642546    3.202597    2.079147
     19          8           0        2.526755    1.469355    0.971551
     20          6           0       -4.144256    1.932916    0.144307
     21          1           0       -3.832426    1.955457   -0.907831
     22          1           0       -4.134758    0.897965    0.497455
     23          1           0       -5.158052    2.331372    0.216352
     24          6           0       -2.996772    0.088326    3.564146
     25          1           0       -2.211358   -0.041198    4.314499
     26          1           0       -3.682082    0.879208    3.895977
     27          1           0       -3.554439   -0.841648    3.456745
     28          6           0        0.784824   -0.516665    3.575769
     29          1           0        0.158350   -1.299302    3.132083
     30          1           0        1.706009   -0.432518    2.991424
     31          1           0        1.032407   -0.795277    4.602276
     32          6           0        3.645019   -1.647266   -1.373867
     33          6           0        3.109413   -0.292908   -0.938831
[...]
 0.00012122,0.00007888,0.00007738,-0.00008994,0.00016981,0.00000994,0.0
 0015483,-0.00002759,-0.00007208,-0.00013655,0.00005617,0.00000439,0.00
 011157,-0.00029299,0.00001728,-0.00003336,0.00018212,-0.00004510,0.003
 39623,0.00097811,-0.00131445,-0.00089727,-0.00092752,-0.00000057,-0.00
 150709,0.00027822,-0.00003051,-0.00041528,0.00106944,0.00207174,0.0002
 4081,-0.00090982,0.00067071,0.00302612,-0.00047206,0.00105711,-0.00012
 799,0.00086765,0.00226169,0.00007217,-0.00018410,-0.00016574,0.0043302
 0,-0.04545020,-0.00174379,0.00025803,-0.00084132,-0.00091431,-0.003164
 83,-0.00088902,0.00052426,0.00030056,-0.00090747,-0.00087550,0.0001103
 2,0.00004998,-0.00006775,-0.00001781,-0.00000575,-0.00000383,-0.000021
 36,0.00000247,0.00001798,-0.00000468,-0.00000856,0.00000789,0.00002142
 ,-0.00005769,-0.00006818,-0.00000309,0.00001436,0.00000280,0.00000128,
 -0.00000074,0.00000564,-0.00000735,0.00000485,0.00000938,0.00004143,-0
 .00002712,0.00003513,-0.00000003,0.00000574,-0.00000688,-0.00000046,-0
 .00001074,-0.00000905,-0.00002051,0.00001329,0.00000352,0.00003784,-0.
 00008710,0.00007953,0.00000869,0.00000920,-0.00000506,0.00000289,-0.00
 003543,-0.00000439,-0.00003785,0.00003545,0.00000087,0.00007275,0.0001
 4547,-0.00002198,-0.00000191,-0.00002624,-0.00001042,-0.00001893,-0.00
 000928,0.00000412,-0.00000862,-0.00001480,0.00001773,0.00019638,0.0001
 7025,-0.00002023,-0.00004285,-0.00004185,0.00000601,0.00001280,0.00003
 343,-0.00002472,-0.00000887,-0.00000170,0.00000593,0.00000284,0.000001
 88,-0.00000230,-0.00000090,-0.00000677,-0.00000146,0.00002233,-0.00000
 355,0.00001000,-0.00000142,-0.00000634,-0.00000200,0.00003429,0.000014
 50,-0.00000388,-0.00001102,-0.00000398,0.00000953,-0.00253517,0.000220
 42,-0.00094438,0.00069333,-0.00045024,0.00007591,0.00082829,0.00027028
 ,0.00020878,0.00064661,-0.00017670,0.00085341,0.01736291,-0.28611028,-
 0.02877553,-0.03055090,-0.03496152,-0.03543611,-0.02487353,0.39268532,
 0.00024723,0.00031865,-0.00009736,-0.00007961,-0.00001205,-0.00015617,
 -0.00000705,-0.00000853,0.00000229,-0.00003054,0.00008417,-0.00007114,
 -0.00001504,0.00004757,-0.00014172,-0.00000665,-0.00002598,0.00001093,
 -0.00000237,-0.00002640,-0.00000116,-0.00003327,-0.00005461,0.00000488
 ,-0.00000543,-0.00000343,0.00000957,-0.00000196,0.00001668,-0.00002798
 ,0.00002530,-0.00003451,0.00009064,0.00000572,-0.00000388,0.00003339,0
 .00013222,0.00008770,0.00017336,-0.00007059,-0.00062732,0.00016675,-0.
 00001065,-0.00027057,0.00010286,0.00005730,-0.00003858,-0.00009004,0.0
 0001396,0.00000384,0.00002911,-0.00001798,0.00000690,0.00002234,-0.000
 02452,0.00007341,0.00015648,-0.00007715,-0.00010337,-0.00013187,-0.000
 01104,-0.00006443,0.00007266,0.00001162,-0.00000392,-0.00012492,-0.000
 00843,0.00002980,0.00001519,0.00020631,0.00039263,-0.00002924,-0.00002
 445,-0.00002713,0.00003320,-0.00003071,-0.00015296,-0.00000757,-0.0002
 2455,0.00010531,0.00037240,0.00009361,0.00041654,0.00013321,0.00010524
 ,-0.00010733,0.00001874,-0.00006499,-0.00006613,-0.00004021,-0.0000336
 3,-0.00003984,-0.00003253,-0.00004126,0.00000949,-0.00001946,0.0000094
 6,0.00001007,0.00000941,-0.00025465,-0.00008545,-0.00042552,-0.0000749
 7,0.00005279,-0.00011451,0.00000472,-0.00000866,0.00000988,-0.00001035
 ,-0.00000320,-0.00001385,0.00001470,-0.00000647,-0.00001783,-0.0000048
 9,0.00000930,0.00001507,-0.00002101,0.00000368,0.00001216,0.00001476,0
 .00000268,-0.00000226,0.00010320,-0.00009812,0.00018687,0.00035233,0.0
 0018421,-0.00030220,0.00004627,0.00001144,0.00001433,0.00002356,-0.000
 00451,0.00001866,0.00002380,-0.00001925,0.00002930,0.00021950,0.000023
 48,-0.00009424,-0.00004804,0.00001225,0.00001887,0.00006409,-0.0000861
 0,0.00003902,-0.00009600,0.00000667,0.00005999,-0.00129639,-0.00056923
 ,0.00027046,0.00033089,0.00042846,0.00010789,0.00063827,-0.00000376,0.
 00015014,-0.00017470,-0.00083640,-0.00085854,0.00002314,0.00050820,-0.
 00051653,-0.00151443,0.00006807,0.00018022,0.00051685,-0.00075327,-0.0
 0061076,-0.00002262,0.00005315,0.00009888,-0.00167663,0.02478374,0.007
 98809,0.00008761,0.00046341,0.00007541,0.00123374,0.00028176,0.0002821
 7,-0.00021067,0.00030457,0.00009025,-0.00002480,-0.00001761,0.00001287
 ,0.00000770,0.00000170,0.00000270,0.00000209,0.00000088,-0.00000240,-0
 .00000022,0.00000006,-0.00000313,-0.00000566,-0.00000066,-0.00000592,-
 0.00000235,0.00000064,-0.00000285,-0.00000028,-0.00000398,0.00000475,0
 .00000400,0.00000107,-0.00000013,-0.00001615,0.00000771,-0.00002422,0.
 00000230,0.00000071,0.00000192,0.00000606,-0.00000277,0.00000711,-0.00
 000050,0.00000048,0.00000069,0.00007590,-0.00000996,-0.00003348,-0.000
 00845,-0.00000303,0.00000253,-0.00001341,-0.00000252,0.00001671,-0.000
 01105,0.00000880,0.00000531,0.00000164,0.00001313,-0.00000345,-0.00000
 046,0.00000211,0.00000014,0.00000064,0.00000022,-0.00000144,0.00000059
 ,-0.00000424,0.00000448,-0.00005111,-0.00005917,-0.00005895,0.00001019
 ,0.00000613,0.00001638,-0.00000209,-0.00000280,-0.00000314,-0.00000068
 ,-0.00000044,-0.00000030,0.00000142,-0.00000230,0.00000076,0.00000066,
 0.00000209,0.00000205,-0.00000970,0.00000208,-0.00001218,0.00000194,0.
 00000408,0.00000186,-0.00000145,-0.00000253,-0.00000202,0.00000086,-0.
 00000058,0.00000146,0.00094702,-0.00029796,0.00026458,-0.00026567,0.00
 022529,0.00000499,-0.00029851,-0.00003259,-0.00005687,-0.00024172,0.00
 009470,-0.00021931,0.00227863,-0.03071202,-0.08020465,-0.01924085,-0.0
 4478765,-0.01244874,-0.00728478,0.09247575,0.09784865,-0.00013932,-0.0
 0008254,0.00002844,-0.00008610,0.00008970,0.00007050,-0.00010690,0.000
 11848,0.00001316,0.00005727,0.00003725,-0.00004735,-0.00008767,0.00024
 851,0.00001041,0.00001007,-0.00000026,0.00000072,-0.00000380,0.0000277
 0,-0.00002076,0.00000874,-0.00003319,-0.00002132,-0.00000782,-0.000035
 22,-0.00000837,0.00004606,0.00000150,-0.00004258,0.00006792,-0.0001133
 9,0.00001975,0.00003097,-0.00009151,-0.00004633,0.00015777,-0.00004091
 ,-0.00006476,0.00069981,-0.00002720,-0.00047584,0.00019212,-0.00047195
 ,-0.00004606,-0.00005219,0.00008628,0.00012574,0.00001996,0.00000564,-
 0.00001987,-0.00000803,-0.00006311,-0.00002146,-0.00005212,-0.00024269
 ,-0.00017185,-0.00003716,-0.00008221,0.00005959,0.00002529,0.00008737,
 -0.00007228,-0.00003585,-0.00000150,0.00014483,0.00002830,-0.00004648,
 0.00000329,-0.00059069,-0.00086017,0.00069959,0.00012974,0.00025271,0.
 00007432,0.00005984,0.00006792,-0.00004004,-0.00033432,-0.00081155,-0.
 00130556,0.00010343,0.00075962,0.00022826,0.00007658,-0.00010778,0.000
 12076,-0.00004744,-0.00007347,-0.00005321,-0.00007824,-0.00008696,-0.0
 0008456,0.00007470,0.00001187,-0.00006193,-0.00001262,0.00005522,-0.00
 004956,0.00036753,0.00058655,-0.00002282,0.00007207,-0.00001114,-0.000
 11190,0.00013327,-0.00009792,-0.00000958,0.00000192,0.00002639,-0.0000
 1449,-0.00000111,0.00000781,0.00003815,-0.00000169,-0.00000892,-0.0000
 1170,0.00005451,-0.00000876,-0.00005255,-0.00001557,0.00000339,-0.0000
 0078,-0.00027354,-0.00031151,0.00020546,-0.00028295,-0.00019704,0.0005
 6446,-0.00011892,-0.00010397,0.00008497,-0.00015018,0.00000613,0.00010
 150,-0.00016157,0.00008231,0.00000833,0.00072470,0.00014925,0.00001126
 ,-0.00012729,0.00001795,0.00003038,0.00014212,-0.00030275,0.00026475,-
 0.00038559,-0.00000013,-0.00032001,0.00116514,0.00073756,-0.00055218,-
 0.00030100,-0.00054949,-0.00007372,-0.00046940,-0.00013068,0.00014359,
 -0.00056662,-0.00052620,-0.00033789,0.00047393,-0.00000062,0.00021951,
 0.00135857,-0.00135367,0.00268012,0.00087249,-0.00096744,0.00065155,0.
 00014251,0.00010300,0.00000976,-0.01110826,0.00178415,0.01511105,0.000
 57760,0.00066825,-0.00044467,-0.00296969,-0.00026150,-0.00293696,0.001
 90835,0.00076333,0.00054623,0.00009301,0.00005005,-0.00004217,-0.00001
 199,-0.00000043,-0.00000502,-0.00001488,0.00000283,0.00000838,-0.00000
 568,-0.00001134,0.00000973,0.00002596,-0.00003790,-0.00006638,0.000006
 98,0.00000465,0.00000162,0.00000452,0.00000457,0.00000777,-0.00001429,
 0.00000133,0.00000825,0.00010603,-0.00003913,0.00005134,-0.00001923,-0
 .00000646,-0.00000323,0.00001139,-0.00000570,-0.00000471,-0.00000711,0
 .00001329,-0.00000057,0.00006868,-0.00014041,0.00018140,-0.00002767,-0
 .00000291,-0.00002872,0.00001002,0.00001452,0.00001815,-0.00000476,0.0
 0003780,-0.00000684,0.00000404,0.00003034,-0.00000467,-0.00000003,-0.0
 0000900,-0.00000456,0.00000178,0.00000036,0.00000286,-0.00000264,-0.00
 000176,0.00000387,0.00005910,0.00014142,-0.00000076,-0.00000996,-0.000
 04011,0.00000424,0.00000329,0.00002804,-0.00001534,-0.00000221,-0.0000
 0211,0.00000282,0.00000131,0.00000133,0.00000209,-0.00000233,-0.000006
 77,-0.00000214,0.00000316,0.00000545,0.00000307,-0.00000082,-0.0000077
 9,-0.00000110,0.00002165,0.00001333,-0.00000127,-0.00000244,-0.0000016
 3,0.00000360,-0.00109246,-0.00000378,0.00012234,0.00032246,-0.00020716
 ,-0.00006291,0.00037423,0.00014940,-0.00004576,0.00024666,-0.00004993,
 0.00011835,-0.20217230,0.00000635,0.11114281,-0.08286615,-0.00621338,0
 .00703857,-0.01552768,0.03308992,0.02576012,0.30925076,0.00028273,0.00
 037337,-0.00003343,-0.00007342,0.00003131,0.00001448,0.00009422,0.0001
 3123,0.00004414,-0.00001703,0.00007407,0.00000189,0.00005705,-0.000049
 07,0.00008038,-0.00001495,-0.00002897,0.00000521,0.00001780,0.00002829
 ,-0.00000993,-0.00003559,-0.00003879,-0.00000625,0.00000052,-0.0000129
 9,-0.00000592,0.00002303,-0.00000064,0.00000605,-0.00006080,-0.0000567
 8,-0.00002168,-0.00004170,-0.00014292,-0.00002890,-0.00003358,-0.00014
 214,-0.00003567,-0.00008618,-0.00020952,-0.00007251,-0.00017461,0.0000
 7041,-0.00006279,0.00002802,-0.00001704,0.00003707,0.00000070,0.000006
 13,-0.00001530,-0.00002508,-0.00002293,-0.00000223,-0.00007749,-0.0000
 3859,-0.00003943,0.00002298,0.00017362,0.00000593,-0.00000117,0.000029
 38,-0.00000858,-0.00005188,0.00000258,-0.00000262,0.00002398,-0.000037
 62,-0.00000571,0.00069189,0.00052635,-0.00067420,-0.00016027,-0.000324
 14,-0.00008504,-0.00018552,-0.00040133,-0.00007643,-0.00120839,-0.0020
 7575,-0.00065601,0.00008458,-0.00011315,0.00001660,0.00000501,0.000005
 97,0.00000995,-0.00000830,0.00000963,0.00000751,-0.00001158,0.00000572
 ,-0.00002210,0.00003718,-0.00002768,-0.00000765,0.00000175,-0.00000250
 ,-0.00002361,0.00021509,0.00006051,0.00024636,0.00008047,-0.00018689,0
 .00000709,0.00002284,-0.00001574,0.00000344,0.00002791,0.00000241,-0.0
 0000679,-0.00000577,-0.00000200,0.00001373,0.00000435,-0.00000870,-0.0
 0000638,-0.00000349,-0.00001453,0.00001257,0.00000068,0.00000096,0.000
 00078,-0.00013500,0.00014757,-0.00008721,-0.00031268,-0.00009180,0.000
 43666,-0.00006706,-0.00000887,0.00002037,-0.00004199,0.00002799,0.0000
 2054,-0.00003080,0.00005813,-0.00000312,-0.00000391,-0.00001285,-0.000
 01218,-0.00002799,0.00001499,-0.00000417,0.00002772,-0.00007659,0.0000
 1268,0.00001714,0.00005867,-0.00002328,0.00147704,0.00024226,-0.000493
 81,-0.00042819,-0.00038374,-0.00002997,-0.00059637,0.00011021,-0.00005
 199,-0.00011880,-0.00150404,0.00046190,-0.00065784,-0.00031875,0.00039
 992,0.00153434,0.00012925,0.00183297,-0.00010837,0.00003990,-0.0003889
 7,-0.00000940,0.00003776,0.00000879,-0.01615146,0.00802827,0.01575965,
 0.00003103,0.00044365,0.00001700,0.00002912,-0.00064852,0.00089611,-0.
 00015059,-0.00042381,0.00064273,0.00004055,0.00001948,-0.00002536,-0.0
 0000705,-0.00000244,-0.00000166,-0.00000749,0.00000079,0.00000660,-0.0
 0000130,-0.00000286,0.00000275,0.00000783,-0.00001847,-0.00002089,-0.0
 0000069,0.00000464,0.00000150,0.00000043,0.00000036,0.00000090,-0.0000
 0299,0.00000134,0.00000302,0.00001479,-0.00000971,0.00001540,-0.000000
 04,0.00000176,-0.00000265,-0.00000172,-0.00000278,-0.00000426,-0.00000
 631,0.00000404,0.00000098,-0.00000916,-0.00002408,0.00003272,0.0000060
 3,0.00000322,-0.00000160,0.00000421,-0.00001092,-0.00000510,-0.0000085
 8,0.00000879,-0.00000078,0.00003461,0.00006652,-0.00000843,-0.00000101
 ,-0.00001166,-0.00000467,-0.00000937,-0.00000480,0.00000184,-0.0000043
 9,-0.00000739,0.00000798,0.00008429,0.00006609,-0.00000695,-0.00001803
 ,-0.00001552,0.00000074,0.00000510,0.00001261,-0.00000907,-0.00000339,
 -0.00000053,0.00000236,0.00000098,0.00000097,-0.00000109,-0.00000024,-
 0.00000261,-0.00000070,0.00000994,-0.00000186,0.00000531,-0.00000060,-
 0.00000250,-0.00000100,0.00001283,0.00000517,-0.00000125,-0.00000444,-
 0.00000144,0.00000360,-0.00087146,0.00012943,-0.00044603,0.00023961,-0
 .00013760,0.00004685,0.00030322,0.00008356,0.00008457,0.00018961,-0.00
 004928,0.00026362,0.00355974,-0.07491743,0.00132900,-0.00818427,0.0112
 7386,0.00192500,0.04639610,-0.02332014,-0.04156002,-0.02548930,0.08343
 020,0.00037364,0.00049284,-0.00004212,-0.00010034,-0.00007513,-0.00024
 549,0.00006987,-0.00009321,0.00000139,-0.00008633,0.00008914,-0.000062
 22,0.00005175,-0.00012849,-0.00017687,-0.00001756,-0.00003678,0.000014
 07,0.00000784,-0.00005107,0.00001289,-0.00003294,-0.00000326,0.0000285
 4,-0.00000070,0.00001944,0.00001855,-0.00003301,0.00002316,0.00000016,
 -0.00000796,0.00003572,0.00010503,-0.00001116,0.00005468,0.00007310,0.
 00010210,0.00015071,0.00026266,-0.00061344,-0.00057021,0.00067977,-0.0
 0018771,0.00001318,0.00016473,0.00010544,-0.00010884,-0.00019213,0.000
 00314,0.00000029,0.00004902,-0.00001806,0.00005082,0.00004124,0.000011
 78,0.00024848,0.00030986,-0.00008988,-0.00011824,-0.00018399,-0.000022
 87,-0.00012690,0.00011800,0.00002044,-0.00002070,-0.00021677,-0.000022
 73,0.00005983,0.00001599,0.00157848,0.00118544,-0.00118549,-0.00020729
 ,-0.00035126,-0.00001873,-0.00028137,-0.00055715,-0.00001661,-0.001223
 60,-0.00107246,0.00045976,0.00005966,-0.00011562,-0.00002794,0.0000092
 0,-0.00000211,-0.00003690,-0.00003548,-0.00001055,-0.00000092,0.000021
 79,0.00002041,0.00002426,-0.00009950,0.00001736,0.00001697,0.00002115,
 -0.00001129,0.00004916,-0.00059023,-0.00045061,-0.00062103,-0.00015267
 ,0.00016300,-0.00006238,-0.00007382,0.00004728,0.00001006,-0.00002204,
 -0.00001890,-0.00001494,0.00002271,-0.00001307,-0.00004865,-0.00000729
 ,0.00002048,0.00002559,-0.00004221,0.00001814,0.00003169,0.00002204,0.
 00000031,-0.00000208,0.00033095,-0.00001576,0.00015095,0.00075981,0.00
 036066,-0.00105831,0.00014824,0.00007193,-0.00003540,0.00012248,-0.000
 02126,-0.00004330,0.00012020,-0.00008705,0.00002601,-0.00009605,-0.000
 02509,-0.00012394,0.00001384,-0.00000128,0.00001226,0.00001267,0.00001
 955,-0.00004077,0.00007946,-0.00000820,0.00021920,-0.00320864,-0.00112
 400,0.00081499,0.00086090,0.00112212,0.00025265,0.00136240,-0.00003779
 ,0.00015190,0.00195951,0.00176203,-0.00051634,0.00013516,0.00039537,-0
 .00065375,-0.00381576,0.00252471,-0.00613945,0.00030454,0.00053002,-0.
 00012901,-0.00003505,-0.00005072,-0.00001352,0.03929956,0.00211082,-0.
 02283329,-0.00016770,-0.00049700,0.00004860,0.00161426,0.00003547,-0.0
 0004564,-0.00003326,0.00014941,-0.00185868,-0.00009495,-0.00005564,0.0
 0004949,0.00001895,0.00000334,0.00000577,0.00001420,-0.00000066,-0.000
 01012,0.00000320,0.00000748,-0.00001008,-0.00002286,0.00002776,0.00003
 899,-0.00000527,-0.00000403,-0.00000428,-0.00000284,-0.00000618,0.0000
 0011,0.00001279,-0.00000051,-0.00000596,-0.00007582,0.00003041,-0.0000
 5655,0.00001222,0.00000371,0.00000417,0.00000127,0.00000047,0.00001088
 ,0.00000556,-0.00000795,0.00000138,0.00004167,0.00006228,-0.00012498,0
 .00000654,-0.00000139,0.00001645,-0.00001930,-0.00001016,0.00000700,-0
 .00000907,-0.00001100,0.00000926,-0.00000179,-0.00000450,-0.00000076,-
 0.00000095,0.00000822,0.00000276,0.00000023,-0.00000015,-0.00000364,0.
 00000214,-0.00000430,0.00000313,-0.00012328,-0.00017839,-0.00008059,0.
 00002204,0.00003418,0.00001692,-0.00000553,-0.00002236,0.00000745,0.00
 000134,0.00000090,-0.00000246,0.00000065,-0.00000381,-0.00000001,0.000
 00233,0.00000703,0.00000366,-0.00001591,0.00000006,-0.00001758,0.00000
 315,0.00000998,0.00000305,-0.00001698,-0.00001204,-0.00000151,0.000003
 44,0.00000051,-0.00000095,0.00202761,-0.00053798,0.00064766,-0.0006283
 8,0.00049641,0.00001396,-0.00067608,-0.00011274,-0.00011914,-0.0004400
 3,0.00015984,-0.00050170,0.10057009,0.00473478,-0.16909817,-0.00752917
 ,0.00063775,0.02289459,0.02757321,-0.03158829,-0.01229425,-0.15892273,
 0.02034815,0.19105365\\-0.00000023,0.00000171,-0.00000131,-0.00000044,
 0.00000040,-0.00000181,0.00000058,0.00000069,-0.00000196,-0.00000065,0
 .00000128,-0.00000149,-0.00000037,0.00000099,-0.00000067,0.00000041,-0
 .00000009,-0.00000248,0.00000033,-0.00000004,-0.00000164,-0.00000086,0
 .00000153,-0.00000188,-0.00000077,0.00000124,-0.00000162,0.00000025,0.
 00000060,-0.00000006,0.00000024,0.,-0.00000154,-0.00000014,0.00000149,
 -0.00000249,0.00000004,0.00000075,-0.00000288,-0.00000079,0.00000068,-
 0.00000115,-0.00000130,0.00000191,-0.00000048,-0.00000055,0.00000131,-
 0.00000024,-0.00000072,0.00000095,0.00000031,-0.00000050,0.00000095,-0
 .00000046,-0.00000014,0.00000054,0.00000063,-0.00000003,-0.00000026,-0
 .00000231,0.00000059,-0.00000021,-0.00000239,-0.00000010,0.00000100,-0
 .00000216,0.00000034,0.00000045,-0.00000297,-0.00000122,0.00000162,-0.
 00000116,-0.00000145,0.00000209,-0.00000090,-0.00000118,0.00000202,-0.
 00000182,-0.00000110,0.00000166,-0.00000110,-0.00000038,0.00000128,0.0
 0000027,-0.00000109,0.00000116,0.00000030,-0.00000151,0.00000122,0.000
 00100,-0.00000156,0.00000191,0.00000058,0.00000021,-0.00000048,0.00000
 141,0.00000136,-0.00000111,0.00000110,-0.00000180,-0.00000148,-0.00000
 146,-0.00000048,-0.00000041,0.00000126,0.00000045,-0.00000091,0.000002
 09,0.00000013,-0.00000053,0.00000053,0.00000028,-0.00000077,0.00000083
 ,0.00000070,-0.00000145,0.00000198,0.00000037,-0.00000018,0.00000213,-
 0.00000034,-0.00000009,0.00000237,0.00000014,0.00000012,0.00000139,0.0
 0000130,-0.00000171,-0.00000053,0.00000042,-0.00000100,0.00000076,0.00
 000031,-0.00000126,0.00000242,-0.00000033,-0.00000029,0.00000310,-0.00
 000074,0.00000045,0.00000276,-0.00000087,0.00000042,0.00000270,-0.0000
 0062,0.00000064,0.00000149,-0.00000133,0.00000049,0.00000151,0.0000009
 9,-0.00000134,-0.00000128,0.00000110,-0.00000076,0.00000028,0.00000074
 ,-0.00000118,0.00000080,0.00000073,-0.00000113,0.00000050,0.00000119,-
 0.00000038,-0.00000134,-0.00000042,0.00000055,-0.00000107,-0.00000030,
 -0.00000101,-0.00000044,0.00000125,-0.00000148,-0.00000098,0.00000048,
 -0.00000059,-0.00000003,0.00000037,-0.00000005,0.00000085,0.00000028,0
 .00000054,-0.00000140,-0.00000015,0.00000017,-0.00000082,0.00000107,-0
 .00000100,0.00000099,0.00000058,-0.00000125,0.00000068,0.00000136,-0.0
 0000230,0.00000091,0.00000167,-0.00000228,0.00000050,0.00000013,-0.000
 00248,0.00000323,0.00000080,-0.00000162,0.00000315,0.00000116,-0.00000
 214,0.00000212,0.00000155,-0.00000187,0.00000291,0.00000041,-0.0000006
 2,0.00000325,-0.00000066,-0.00000082,0.00000383,-0.00000074,0.00000017
 ,0.00000365,-0.00000050,-0.00000029,0.00000427,-0.00000086,0.00000094,
 0.00000271,-0.00000191,0.00000162,0.00000233,-0.00000198,0.00000176,0.
 00000217,-0.00000164,0.00000171,0.00000292,0.00000002,0.00000013,-0.00
 000310,-0.00000033,0.00000133,-0.00000319,-0.00000026,0.00000086,-0.00
 000261,0.00000040,0.00000030,-0.00000314,0.00000048,-0.00000050,-0.000
 00069,0.00000093,-0.00000085,-0.00000093,0.00000051,-0.00000104,-0.000
 00125,0.00000180,-0.00000165,-0.00000125,0.00000161,-0.00000146,-0.000
 00172,0.00000105,-0.00000080,-0.00000161,0.00000072,-0.00000043,-0.000
 00033,0.00000037,-0.00000044,-0.00000073,0.00000004,-0.00000019,0.0000
 0008,0.00000036,-0.00000066,-0.00000010,0.00000128,-0.00000074,-0.0000
 0165,0.00000050,-0.00000027,-0.00000223,0.00000080,-0.00000043,-0.0000
 0160,0.00000129,-0.00000139,-0.00000191,-0.00000104,0.00000166,0.00000
 096,-0.00000145,0.00000109,0.00000019,-0.00000041,-0.00000002,0.000000
 62,-0.00000026,0.00000137,-0.00000043\\\@


 You can't act like a skunk without someone's getting wind of it.
 -- Lorene Workman
 Job cpu time:       5 days  5 hours 19 minutes 52.4 seconds.
 Elapsed time:       0 days  4 hours  7 minutes 39.6 seconds.
 File lengths (MBytes):  RWF=   9711 Int=      0 D2E=      0 Chk=     87 Scr=      1
 Normal termination of Gaussian 16 at Wed Jun  5 21:02:06 2019.
