 Entering Gaussian System, Link 0=g16
 Input=clay_new-glu_gluC6-bisCF3-sm-bhandh-631gd-pcm_thf.gjf
 Output=clay_new-glu_gluC6-bisCF3-sm-bhandh-631gd-pcm_thf.out
 Initial command:
 /home/ekwan/sw/g16/l1.exe "/scratch/users/ekwan/clay_new-glu_gluC6-bisCF3-sm-bhandh-631gd-pcm_thf/Gau-3421.inp" -scrdir="/scratch/users/ekwan/clay_new-glu_gluC6-bisCF3-sm-bhandh-631gd-pcm_thf/"
 Entering Link 1 = /home/ekwan/sw/g16/l1.exe PID=      3422.
  
 Copyright (c) 1988,1990,1992,1993,1995,1998,2003,2009,2016,
            Gaussian, Inc.  All Rights Reserved.
  
 This is part of the Gaussian(R) 16 program.  It is based on
 the Gaussian(R) 09 system (copyright 2009, Gaussian, Inc.),
 the Gaussian(R) 03 system (copyright 2003, Gaussian, Inc.),
 the Gaussian(R) 98 system (copyright 1998, Gaussian, Inc.),
 the Gaussian(R) 94 system (copyright 1995, Gaussian, Inc.),
 the Gaussian 92(TM) system (copyright 1992, Gaussian, Inc.),
 the Gaussian 90(TM) system (copyright 1990, Gaussian, Inc.),
 the Gaussian 88(TM) system (copyright 1988, Gaussian, Inc.),
 the Gaussian 86(TM) system (copyright 1986, Carnegie Mellon
 University), and the Gaussian 82(TM) system (copyright 1983,
 Carnegie Mellon University). Gaussian is a federally registered
 trademark of Gaussian, Inc.
  
 This software contains proprietary and confidential information,
 including trade secrets, belonging to Gaussian, Inc.
  
 This software is provided under written license and may be
 used, copied, transmitted, or stored only in accord with that
 written license.
  
 The following legend is applicable only to US Government
 contracts under FAR:
  
                    RESTRICTED RIGHTS LEGEND
  
 Use, reproduction and disclosure by the US Government is
 subject to restrictions as set forth in subparagraphs (a)
 and (c) of the Commercial Computer Software - Restricted
 Rights clause in FAR 52.227-19.
  
 Gaussian, Inc.
 340 Quinnipiac St., Bldg. 40, Wallingford CT 06492
  
  
 ---------------------------------------------------------------
 Warning -- This program may not be used in any manner that
 competes with the business of Gaussian, Inc. or will provide
 assistance to any competitor of Gaussian, Inc.  The licensee
 of this program is prohibited from giving any competitor of
 Gaussian, Inc. access to this program.  By using this program,
 the user acknowledges that Gaussian, Inc. is engaged in the
 business of creating and licensing software in the field of
 computational chemistry and represents and warrants to the
 licensee that it is not a competitor of Gaussian, Inc. and that
 it will not use this program in any manner prohibited above.
 ---------------------------------------------------------------
  

 Cite this work as:
 Gaussian 16, Revision A.03,
 M. J. Frisch, G. W. Trucks, H. B. Schlegel, G. E. Scuseria, 
 M. A. Robb, J. R. Cheeseman, G. Scalmani, V. Barone, 
 G. A. Petersson, H. Nakatsuji, X. Li, M. Caricato, A. V. Marenich, 
 J. Bloino, B. G. Janesko, R. Gomperts, B. Mennucci, H. P. Hratchian, 
 J. V. Ortiz, A. F. Izmaylov, J. L. Sonnenberg, D. Williams-Young, 
 F. Ding, F. Lipparini, F. Egidi, J. Goings, B. Peng, A. Petrone, 
 T. Henderson, D. Ranasinghe, V. G. Zakrzewski, J. Gao, N. Rega, 
 G. Zheng, W. Liang, M. Hada, M. Ehara, K. Toyota, R. Fukuda, 
 J. Hasegawa, M. Ishida, T. Nakajima, Y. Honda, O. Kitao, H. Nakai, 
 T. Vreven, K. Throssell, J. A. Montgomery, Jr., J. E. Peralta, 
 F. Ogliaro, M. J. Bearpark, J. J. Heyd, E. N. Brothers, K. N. Kudin, 
 V. N. Staroverov, T. A. Keith, R. Kobayashi, J. Normand, 
 K. Raghavachari, A. P. Rendell, J. C. Burant, S. S. Iyengar, 
 J. Tomasi, M. Cossi, J. M. Millam, M. Klene, C. Adamo, R. Cammi, 
 J. W. Ochterski, R. L. Martin, K. Morokuma, O. Farkas, 
 J. B. Foresman, and D. J. Fox, Gaussian, Inc., Wallingford CT, 2016.
 
 ******************************************
 Gaussian 16:  AS64L-G16RevA.03 25-Dec-2016
                 5-Jun-2019 
 ******************************************
 %nprocshared=32
 Will use up to   32 processors via shared memory.
 %mem=48GB
 ----------------------------------------------------------------------
 #p opt freq=noraman pop=none 6-31g* scrf=(pcm,solvent=tetrahydrofuran)
  bhandh
 ----------------------------------------------------------------------
 1/18=20,19=15,26=3,38=1/1,3;
 2/9=110,12=2,17=6,18=5,40=1/2;
 3/5=1,6=6,7=1,11=2,25=1,30=1,70=2201,71=1,72=20,74=-2/1,2,3;
 4//1;
 5/5=2,38=5,53=20/2;
 7//1,2,3,16;
 1/18=20,19=15,26=3/3(2);
 2/9=110/2;
 99//99;
 2/9=110/2;
 3/5=1,6=6,7=1,11=2,25=1,30=1,70=2205,71=1,72=20,74=-2/1,2,3;
 4/5=5,16=3,69=1/1;
 5/5=2,38=5,53=20/2;
 7//1,2,3,16;
 1/18=20,19=15,26=3/3(-5);
 2/9=110/2;
 99/9=1/99;
 Leave Link    1 at Wed Jun  5 16:36:44 2019, MaxMem=  6442450944 cpu:               5.0 elap:               0.2
 (Enter /home/ekwan/sw/g16/l101.exe)
 -----
 title
 -----
 Symbolic Z-matrix:
 Charge =  0 Multiplicity = 1
 6                     3.35944   0.0758    0.73857 
 6                     3.27374  -0.39477  -0.69038 
 6                     1.83163  -0.5211   -1.13193 
 6                     1.0785    1.02423   0.46004 
 6                     2.4836    1.28083   0.93863 
 1                     1.74946  -0.72679  -2.19734 
 1                     3.72668   0.37519  -1.33231 
 1                     3.00445  -0.72699   1.39828 
 1                     0.62332   0.24093   1.07863 
 1                     2.89153   2.11489   0.3555 
 8                     1.0947    0.60064  -0.88729 
 8                     1.30715  -1.6392   -0.42242 
 8                     3.95696  -1.58753  -0.80534 
 8                     4.65607   0.4358    1.07193 
 8                     2.4174    1.6146    2.28205 
 6                     0.23304   2.26051   0.57931 
 1                     0.04637   2.42187   1.64043 
 1                    -0.72684   2.09511   0.07609 
 8                     0.84415   3.40978   0.1035 
 16                    0.0503   -2.38942  -1.02076 
 8                    -0.02114  -3.6214   -0.30376 
 8                     0.15679  -2.35493  -2.44999 
 6                    -1.29446  -1.38517  -0.54298 
 6                    -1.90021  -1.61807   0.67143 
 6                    -1.69877  -0.36828  -1.37968 
 6                    -2.93977  -0.79804   1.05336 
 1                    -1.56735  -2.43178   1.30289 
 6                    -2.73105   0.44402  -0.96888 
 1                    -1.21379  -0.21538  -2.33446 
 6                    -3.35496   0.23638   0.24338 
 1                    -4.1671    0.88033   0.55535 
 6                     4.06793  -2.06378  -2.10841 
 1                     3.11399  -2.44542  -2.48716 
 1                     4.43062  -1.28284  -2.78545 
 1                     4.78442  -2.88171  -2.09534 
 6                     5.41735  -0.58827   1.63194 
 1                     6.392    -0.16889   1.8748 
 1                     4.95412  -0.95931   2.55247 
 1                     5.53982  -1.42027   0.93726 
 6                     3.17438   2.73455   2.62024 
 1                     3.04765   2.90245   3.68834 
 1                     4.23197   2.57075   2.4025 
 1                     2.82297   3.61636   2.0748 
 6                     0.85445   3.52341  -1.28481 
 1                     1.15204   4.54253  -1.52553 
 1                    -0.1423    3.33488  -1.69752 
 1                     1.5551    2.82508  -1.74831 
 6                    -3.65007  -1.06004   2.33228 
 9                    -2.85427  -1.63173   3.21291 
 9                    -4.68176  -1.86342   2.15708 
 9                    -4.1112    0.05645   2.85947 
 6                    -3.13427   1.59604  -1.81516 
 9                    -2.45492   2.68845  -1.49349 
 9                    -4.41051   1.88138  -1.66753 
 9                    -2.90662   1.36198  -3.08989 
 
 ITRead=  0  0  0  0  0  0  0  0  0  0  0  0  0  0  0  0  0  0  0  0
 ITRead=  0  0  0  0  0  0  0  0  0  0  0  0  0  0  0  0  0  0  0  0
 ITRead=  0  0  0  0  0  0  0  0  0  0  0  0  0  0  0
 MicOpt= -1 -1 -1 -1 -1 -1 -1 -1 -1 -1 -1 -1 -1 -1 -1 -1 -1 -1 -1 -1
 MicOpt= -1 -1 -1 -1 -1 -1 -1 -1 -1 -1 -1 -1 -1 -1 -1 -1 -1 -1 -1 -1
 MicOpt= -1 -1 -1 -1 -1 -1 -1 -1 -1 -1 -1 -1 -1 -1 -1
 NAtoms=     55 NQM=       55 NQMF=       0 NMMI=      0 NMMIF=      0
                NMic=       0 NMicF=      0.
                    Isotopes and Nuclear Properties:
 (Nuclear quadrupole moments (NQMom) in fm**2, nuclear magnetic moments (NMagM)
  in nuclear magnetons)

  Atom         1           2           3           4           5           6           7           8           9          10
 IAtWgt=          12          12          12          12          12           1           1           1           1           1
 AtmWgt=  12.0000000  12.0000000  12.0000000  12.0000000  12.0000000   1.0078250   1.0078250   1.0078250   1.0078250   1.0078250
 NucSpn=           0           0           0           0           0           1           1           1           1           1
 AtZEff=   0.0000000   0.0000000   0.0000000   0.0000000   0.0000000   0.0000000   0.0000000   0.0000000   0.0000000   0.0000000
 NQMom=    0.0000000   0.0000000   0.0000000   0.0000000   0.0000000   0.0000000   0.0000000   0.0000000   0.0000000   0.0000000
 NMagM=    0.0000000   0.0000000   0.0000000   0.0000000   0.0000000   2.7928460   2.7928460   2.7928460   2.7928460   2.7928460
 AtZNuc=   6.0000000   6.0000000   6.0000000   6.0000000   6.0000000   1.0000000   1.0000000   1.0000000   1.0000000   1.0000000

  Atom        11          12          13          14          15          16          17          18          19          20
 IAtWgt=          16          16          16          16          16          12           1           1          16          32
 AtmWgt=  15.9949146  15.9949146  15.9949146  15.9949146  15.9949146  12.0000000   1.0078250   1.0078250  15.9949146  31.9720718
 NucSpn=           0           0           0           0           0           0           1           1           0           0
 AtZEff=   0.0000000   0.0000000   0.0000000   0.0000000   0.0000000   0.0000000   0.0000000   0.0000000   0.0000000   0.0000000
 NQMom=    0.0000000   0.0000000   0.0000000   0.0000000   0.0000000   0.0000000   0.0000000   0.0000000   0.0000000   0.0000000
 NMagM=    0.0000000   0.0000000   0.0000000   0.0000000   0.0000000   0.0000000   2.7928460   2.7928460   0.0000000   0.0000000
 AtZNuc=   8.0000000   8.0000000   8.0000000   8.0000000   8.0000000   6.0000000   1.0000000   1.0000000   8.0000000  16.0000000

  Atom        21          22          23          24          25          26          27          28          29          30
 IAtWgt=          16          16          12          12          12          12           1          12           1          12
 AtmWgt=  15.9949146  15.9949146  12.0000000  12.0000000  12.0000000  12.0000000   1.0078250  12.0000000   1.0078250  12.0000000
 NucSpn=           0           0           0           0           0           0           1           0           1           0
 AtZEff=   0.0000000   0.0000000   0.0000000   0.0000000   0.0000000   0.0000000   0.0000000   0.0000000   0.0000000   0.0000000
 NQMom=    0.0000000   0.0000000   0.0000000   0.0000000   0.0000000   0.0000000   0.0000000   0.0000000   0.0000000   0.0000000
 NMagM=    0.0000000   0.0000000   0.0000000   0.0000000   0.0000000   0.0000000   2.7928460   0.0000000   2.7928460   0.0000000
 AtZNuc=   8.0000000   8.0000000   6.0000000   6.0000000   6.0000000   6.0000000   1.0000000   6.0000000   1.0000000   6.0000000

  Atom        31          32          33          34          35          36          37          38          39          40
 IAtWgt=           1          12           1           1           1          12           1           1           1          12
 AtmWgt=   1.0078250  12.0000000   1.0078250   1.0078250   1.0078250  12.0000000   1.0078250   1.0078250   1.0078250  12.0000000
 NucSpn=           1           0           1           1           1           0           1           1           1           0
 AtZEff=   0.0000000   0.0000000   0.0000000   0.0000000   0.0000000   0.0000000   0.0000000   0.0000000   0.0000000   0.0000000
 NQMom=    0.0000000   0.0000000   0.0000000   0.0000000   0.0000000   0.0000000   0.0000000   0.0000000   0.0000000   0.0000000
 NMagM=    2.7928460   0.0000000   2.7928460   2.7928460   2.7928460   0.0000000   2.7928460   2.7928460   2.7928460   0.0000000
 AtZNuc=   1.0000000   6.0000000   1.0000000   1.0000000   1.0000000   6.0000000   1.0000000   1.0000000   1.0000000   6.0000000

  Atom        41          42          43          44          45          46          47          48          49          50
 IAtWgt=           1           1           1          12           1           1           1          12          19          19
 AtmWgt=   1.0078250   1.0078250   1.0078250  12.0000000   1.0078250   1.0078250   1.0078250  12.0000000  18.9984033  18.9984033
 NucSpn=           1           1           1           0           1           1           1           0           1           1
 AtZEff=   0.0000000   0.0000000   0.0000000   0.0000000   0.0000000   0.0000000   0.0000000   0.0000000   0.0000000   0.0000000
 NQMom=    0.0000000   0.0000000   0.0000000   0.0000000   0.0000000   0.0000000   0.0000000   0.0000000   0.0000000   0.0000000
 NMagM=    2.7928460   2.7928460   2.7928460   0.0000000   2.7928460   2.7928460   2.7928460   0.0000000   2.6288670   2.6288670
 AtZNuc=   1.0000000   1.0000000   1.0000000   6.0000000   1.0000000   1.0000000   1.0000000   6.0000000   9.0000000   9.0000000

  Atom        51          52          53          54          55
 IAtWgt=          19          12          19          19          19
 AtmWgt=  18.9984033  12.0000000  18.9984033  18.9984033  18.9984033
 NucSpn=           1           0           1           1           1
 AtZEff=   0.0000000   0.0000000   0.0000000   0.0000000   0.0000000
 NQMom=    0.0000000   0.0000000   0.0000000   0.0000000   0.0000000
 NMagM=    2.6288670   0.0000000   2.6288670   2.6288670   2.6288670
 AtZNuc=   9.0000000   6.0000000   9.0000000   9.0000000   9.0000000
 Leave Link  101 at Wed Jun  5 16:36:44 2019, MaxMem=  6442450944 cpu:              16.5 elap:               0.7
 (Enter /home/ekwan/sw/g16/l103.exe)

 GradGradGradGradGradGradGradGradGradGradGradGradGradGradGradGradGradGrad
 Berny optimization.
 Initialization pass.
                           ----------------------------
                           !    Initial Parameters    !
                           ! (Angstroms and Degrees)  !
 --------------------------                            --------------------------
 ! Name  Definition              Value          Derivative Info.                !
 --------------------------------------------------------------------------------
 ! R1    R(1,2)                  1.5069         estimate D2E/DX2                !
 ! R2    R(1,5)                  1.5031         estimate D2E/DX2                !
 ! R3    R(1,8)                  1.098          estimate D2E/DX2                !
 ! R4    R(1,14)                 1.3864         estimate D2E/DX2                !
 ! R5    R(2,3)                  1.5135         estimate D2E/DX2                !
 ! R6    R(2,7)                  1.1            estimate D2E/DX2                !
 ! R7    R(2,13)                 1.3794         estimate D2E/DX2                !
 ! R8    R(3,6)                  1.0882         estimate D2E/DX2                !
 ! R9    R(3,11)                 1.3643         estimate D2E/DX2                !
 ! R10   R(3,12)                 1.4243         estimate D2E/DX2                !
 ! R11   R(4,5)                  1.5064         estimate D2E/DX2                !
 ! R12   R(4,9)                  1.097          estimate D2E/DX2                !
 ! R13   R(4,11)                 1.4124         estimate D2E/DX2                !
 ! R14   R(4,16)                 1.5025         estimate D2E/DX2                !
 ! R15   R(5,10)                 1.0964         estimate D2E/DX2                !
 ! R16   R(5,15)                 1.3858         estimate D2E/DX2                !
 ! R17   R(12,20)                1.5813         estimate D2E/DX2                !
 ! R18   R(13,32)                1.3918         estimate D2E/DX2                !
 ! R19   R(14,36)                1.3935         estimate D2E/DX2                !
 ! R20   R(15,40)                1.3934         estimate D2E/DX2                !
 ! R21   R(16,17)                1.0894         estimate D2E/DX2                !
 ! R22   R(16,18)                1.0963         estimate D2E/DX2                !
 ! R23   R(16,19)                1.3859         estimate D2E/DX2                !
 ! R24   R(19,44)                1.393          estimate D2E/DX2                !
 ! R25   R(20,21)                1.4272         estimate D2E/DX2                !
 ! R26   R(20,22)                1.4336         estimate D2E/DX2                !
 ! R27   R(20,23)                1.745          estimate D2E/DX2                !
 ! R28   R(23,24)                1.3769         estimate D2E/DX2                !
 ! R29   R(23,25)                1.3775         estimate D2E/DX2                !
 ! R30   R(24,26)                1.378          estimate D2E/DX2                !
 ! R31   R(24,27)                1.0824         estimate D2E/DX2                !
 ! R32   R(25,28)                1.3763         estimate D2E/DX2                !
 ! R33   R(25,29)                1.0817         estimate D2E/DX2                !
 ! R34   R(26,30)                1.3779         estimate D2E/DX2                !
 ! R35   R(26,48)                1.4862         estimate D2E/DX2                !
 ! R36   R(28,30)                1.3791         estimate D2E/DX2                !
 ! R37   R(28,52)                1.4852         estimate D2E/DX2                !
 ! R38   R(30,31)                1.0824         estimate D2E/DX2                !
 ! R39   R(32,33)                1.095          estimate D2E/DX2                !
 ! R40   R(32,34)                1.0953         estimate D2E/DX2                !
 ! R41   R(32,35)                1.0874         estimate D2E/DX2                !
 ! R42   R(36,37)                1.0885         estimate D2E/DX2                !
 ! R43   R(36,38)                1.0953         estimate D2E/DX2                !
 ! R44   R(36,39)                1.0908         estimate D2E/DX2                !
 ! R45   R(40,41)                1.0886         estimate D2E/DX2                !
 ! R46   R(40,42)                1.0921         estimate D2E/DX2                !
 ! R47   R(40,43)                1.0948         estimate D2E/DX2                !
 ! R48   R(44,45)                1.0886         estimate D2E/DX2                !
 ! R49   R(44,46)                1.0952         estimate D2E/DX2                !
 ! R50   R(44,47)                1.0924         estimate D2E/DX2                !
 ! R51   R(48,49)                1.3174         estimate D2E/DX2                !
 ! R52   R(48,50)                1.3193         estimate D2E/DX2                !
 ! R53   R(48,51)                1.318          estimate D2E/DX2                !
 ! R54   R(52,53)                1.326          estimate D2E/DX2                !
 ! R55   R(52,54)                1.3161         estimate D2E/DX2                !
 ! R56   R(52,55)                1.3159         estimate D2E/DX2                !
 ! A1    A(2,1,5)              110.0862         estimate D2E/DX2                !
 ! A2    A(2,1,8)              108.8462         estimate D2E/DX2                !
 ! A3    A(2,1,14)             111.2417         estimate D2E/DX2                !
 ! A4    A(5,1,8)              108.5296         estimate D2E/DX2                !
 ! A5    A(5,1,14)             107.7466         estimate D2E/DX2                !
 ! A6    A(8,1,14)             110.3497         estimate D2E/DX2                !
 ! A7    A(1,2,3)              110.9108         estimate D2E/DX2                !
 ! A8    A(1,2,7)              108.1422         estimate D2E/DX2                !
 ! A9    A(1,2,13)             108.717          estimate D2E/DX2                !
 ! A10   A(3,2,7)              106.2905         estimate D2E/DX2                !
 ! A11   A(3,2,13)             112.0534         estimate D2E/DX2                !
 ! A12   A(7,2,13)             110.6508         estimate D2E/DX2                !
 ! A13   A(2,3,6)              111.9232         estimate D2E/DX2                !
 ! A14   A(2,3,11)             113.1882         estimate D2E/DX2                !
 ! A15   A(2,3,12)             105.7273         estimate D2E/DX2                !
 ! A16   A(6,3,11)             106.87           estimate D2E/DX2                !
 ! A17   A(6,3,12)             108.1516         estimate D2E/DX2                !
 ! A18   A(11,3,12)            110.9299         estimate D2E/DX2                !
 ! A19   A(5,4,9)              109.2391         estimate D2E/DX2                !
 ! A20   A(5,4,11)             110.0873         estimate D2E/DX2                !
 ! A21   A(5,4,16)             111.0692         estimate D2E/DX2                !
 ! A22   A(9,4,11)             109.1786         estimate D2E/DX2                !
 ! A23   A(9,4,16)             108.0158         estimate D2E/DX2                !
 ! A24   A(11,4,16)            109.2051         estimate D2E/DX2                !
 ! A25   A(1,5,4)              111.3874         estimate D2E/DX2                !
 ! A26   A(1,5,10)             108.8014         estimate D2E/DX2                !
 ! A27   A(1,5,15)             110.4837         estimate D2E/DX2                !
 ! A28   A(4,5,10)             107.9183         estimate D2E/DX2                !
 ! A29   A(4,5,15)             107.7254         estimate D2E/DX2                !
 ! A30   A(10,5,15)            110.4952         estimate D2E/DX2                !
 ! A31   A(3,11,4)             115.0774         estimate D2E/DX2                !
 ! A32   A(3,12,20)            118.4654         estimate D2E/DX2                !
 ! A33   A(2,13,32)            114.4187         estimate D2E/DX2                !
 ! A34   A(1,14,36)            114.6299         estimate D2E/DX2                !
 ! A35   A(5,15,40)            113.7595         estimate D2E/DX2                !
 ! A36   A(4,16,17)            107.1945         estimate D2E/DX2                !
 ! A37   A(4,16,18)            109.3965         estimate D2E/DX2                !
 ! A38   A(4,16,19)            114.0143         estimate D2E/DX2                !
 ! A39   A(17,16,18)           108.6262         estimate D2E/DX2                !
 ! A40   A(17,16,19)           106.6863         estimate D2E/DX2                !
 ! A41   A(18,16,19)           110.7071         estimate D2E/DX2                !
 ! A42   A(16,19,44)           114.3981         estimate D2E/DX2                !
 ! A43   A(12,20,21)           105.0244         estimate D2E/DX2                !
 ! A44   A(12,20,22)           107.8646         estimate D2E/DX2                !
 ! A45   A(12,20,23)           103.6431         estimate D2E/DX2                !
 ! A46   A(21,20,22)           121.6901         estimate D2E/DX2                !
 ! A47   A(21,20,23)           108.7022         estimate D2E/DX2                !
 ! A48   A(22,20,23)           108.4423         estimate D2E/DX2                !
 ! A49   A(20,23,24)           118.8911         estimate D2E/DX2                !
 ! A50   A(20,23,25)           118.9934         estimate D2E/DX2                !
 ! A51   A(24,23,25)           122.1023         estimate D2E/DX2                !
 ! A52   A(23,24,26)           118.4022         estimate D2E/DX2                !
 ! A53   A(23,24,27)           120.4229         estimate D2E/DX2                !
 ! A54   A(26,24,27)           121.1736         estimate D2E/DX2                !
 ! A55   A(23,25,28)           118.3288         estimate D2E/DX2                !
 ! A56   A(23,25,29)           120.5871         estimate D2E/DX2                !
 ! A57   A(28,25,29)           121.0841         estimate D2E/DX2                !
 ! A58   A(24,26,30)           120.7397         estimate D2E/DX2                !
 ! A59   A(24,26,48)           119.6126         estimate D2E/DX2                !
 ! A60   A(30,26,48)           119.6168         estimate D2E/DX2                !
 ! A61   A(25,28,30)           120.8529         estimate D2E/DX2                !
 ! A62   A(25,28,52)           119.4288         estimate D2E/DX2                !
 ! A63   A(30,28,52)           119.6576         estimate D2E/DX2                !
 ! A64   A(26,30,28)           119.5669         estimate D2E/DX2                !
 ! A65   A(26,30,31)           120.2191         estimate D2E/DX2                !
 ! A66   A(28,30,31)           120.2138         estimate D2E/DX2                !
 ! A67   A(13,32,33)           111.9394         estimate D2E/DX2                !
 ! A68   A(13,32,34)           111.1701         estimate D2E/DX2                !
 ! A69   A(13,32,35)           107.3768         estimate D2E/DX2                !
 ! A70   A(33,32,34)           108.8531         estimate D2E/DX2                !
 ! A71   A(33,32,35)           108.4207         estimate D2E/DX2                !
 ! A72   A(34,32,35)           108.9972         estimate D2E/DX2                !
 ! A73   A(14,36,37)           107.1991         estimate D2E/DX2                !
 ! A74   A(14,36,38)           110.8335         estimate D2E/DX2                !
 ! A75   A(14,36,39)           111.4652         estimate D2E/DX2                !
 ! A76   A(37,36,38)           108.7659         estimate D2E/DX2                !
 ! A77   A(37,36,39)           109.5993         estimate D2E/DX2                !
 ! A78   A(38,36,39)           108.9264         estimate D2E/DX2                !
 ! A79   A(15,40,41)           107.3885         estimate D2E/DX2                !
 ! A80   A(15,40,42)           110.9241         estimate D2E/DX2                !
 ! A81   A(15,40,43)           110.6146         estimate D2E/DX2                !
 ! A82   A(41,40,42)           109.3589         estimate D2E/DX2                !
 ! A83   A(41,40,43)           109.1011         estimate D2E/DX2                !
 ! A84   A(42,40,43)           109.408          estimate D2E/DX2                !
 ! A85   A(19,44,45)           107.383          estimate D2E/DX2                !
 ! A86   A(19,44,46)           110.7817         estimate D2E/DX2                !
 ! A87   A(19,44,47)           112.0522         estimate D2E/DX2                !
 ! A88   A(45,44,46)           109.0646         estimate D2E/DX2                !
 ! A89   A(45,44,47)           109.2257         estimate D2E/DX2                !
 ! A90   A(46,44,47)           108.2881         estimate D2E/DX2                !
 ! A91   A(26,48,49)           111.2856         estimate D2E/DX2                !
 ! A92   A(26,48,50)           111.5196         estimate D2E/DX2                !
 ! A93   A(26,48,51)           111.2283         estimate D2E/DX2                !
 ! A94   A(49,48,50)           107.2712         estimate D2E/DX2                !
 ! A95   A(49,48,51)           108.1537         estimate D2E/DX2                !
 ! A96   A(50,48,51)           107.1793         estimate D2E/DX2                !
 ! A97   A(28,52,53)           111.2039         estimate D2E/DX2                !
 ! A98   A(28,52,54)           111.5635         estimate D2E/DX2                !
 ! A99   A(28,52,55)           111.5334         estimate D2E/DX2                !
 ! A100  A(53,52,54)           106.917          estimate D2E/DX2                !
 ! A101  A(53,52,55)           107.0315         estimate D2E/DX2                !
 ! A102  A(54,52,55)           108.3607         estimate D2E/DX2                !
 ! D1    D(5,1,2,3)            -49.3035         estimate D2E/DX2                !
 ! D2    D(5,1,2,7)             66.8763         estimate D2E/DX2                !
 ! D3    D(5,1,2,13)          -172.9343         estimate D2E/DX2                !
 ! D4    D(8,1,2,3)             69.5361         estimate D2E/DX2                !
 ! D5    D(8,1,2,7)           -174.2842         estimate D2E/DX2                !
 ! D6    D(8,1,2,13)           -54.0948         estimate D2E/DX2                !
 ! D7    D(14,1,2,3)          -168.6669         estimate D2E/DX2                !
 ! D8    D(14,1,2,7)           -52.4872         estimate D2E/DX2                !
 ! D9    D(14,1,2,13)           67.7022         estimate D2E/DX2                !
 ! D10   D(2,1,5,4)             52.4669         estimate D2E/DX2                !
 ! D11   D(2,1,5,10)           -66.3737         estimate D2E/DX2                !
 ! D12   D(2,1,5,15)           172.1593         estimate D2E/DX2                !
 ! D13   D(8,1,5,4)            -66.5663         estimate D2E/DX2                !
 ! D14   D(8,1,5,10)           174.593          estimate D2E/DX2                !
 ! D15   D(8,1,5,15)            53.126          estimate D2E/DX2                !
 ! D16   D(14,1,5,4)           173.9382         estimate D2E/DX2                !
 ! D17   D(14,1,5,10)           55.0976         estimate D2E/DX2                !
 ! D18   D(14,1,5,15)          -66.3694         estimate D2E/DX2                !
 ! D19   D(2,1,14,36)          -92.1423         estimate D2E/DX2                !
 ! D20   D(5,1,14,36)          147.1085         estimate D2E/DX2                !
 ! D21   D(8,1,14,36)           28.7762         estimate D2E/DX2                !
 ! D22   D(1,2,3,6)            172.1658         estimate D2E/DX2                !
 ! D23   D(1,2,3,11)            51.321          estimate D2E/DX2                !
 ! D24   D(1,2,3,12)           -70.3042         estimate D2E/DX2                !
 ! D25   D(7,2,3,6)             54.8477         estimate D2E/DX2                !
 ! D26   D(7,2,3,11)           -65.9971         estimate D2E/DX2                !
 ! D27   D(7,2,3,12)           172.3777         estimate D2E/DX2                !
 ! D28   D(13,2,3,6)           -66.1376         estimate D2E/DX2                !
 ! D29   D(13,2,3,11)          173.0176         estimate D2E/DX2                !
 ! D30   D(13,2,3,12)           51.3924         estimate D2E/DX2                !
 ! D31   D(1,2,13,32)         -173.8881         estimate D2E/DX2                !
 ! D32   D(3,2,13,32)           63.166          estimate D2E/DX2                !
 ! D33   D(7,2,13,32)          -55.266          estimate D2E/DX2                !
 ! D34   D(2,3,11,4)           -56.5195         estimate D2E/DX2                !
 ! D35   D(6,3,11,4)           179.8152         estimate D2E/DX2                !
 ! D36   D(12,3,11,4)           62.1359         estimate D2E/DX2                !
 ! D37   D(2,3,12,20)         -156.864          estimate D2E/DX2                !
 ! D38   D(6,3,12,20)          -36.8296         estimate D2E/DX2                !
 ! D39   D(11,3,12,20)          80.0657         estimate D2E/DX2                !
 ! D40   D(9,4,5,1)             64.6943         estimate D2E/DX2                !
 ! D41   D(9,4,5,10)          -175.9387         estimate D2E/DX2                !
 ! D42   D(9,4,5,15)           -56.62           estimate D2E/DX2                !
 ! D43   D(11,4,5,1)           -55.1809         estimate D2E/DX2                !
 ! D44   D(11,4,5,10)           64.1862         estimate D2E/DX2                !
 ! D45   D(11,4,5,15)         -176.4951         estimate D2E/DX2                !
 ! D46   D(16,4,5,1)          -176.2608         estimate D2E/DX2                !
 ! D47   D(16,4,5,10)          -56.8937         estimate D2E/DX2                !
 ! D48   D(16,4,5,15)           62.4249         estimate D2E/DX2                !
 ! D49   D(5,4,11,3)            57.8719         estimate D2E/DX2                !
 ! D50   D(9,4,11,3)           -62.0399         estimate D2E/DX2                !
 ! D51   D(16,4,11,3)         -179.9385         estimate D2E/DX2                !
 ! D52   D(5,4,16,17)          -71.6172         estimate D2E/DX2                !
 ! D53   D(5,4,16,18)          170.7757         estimate D2E/DX2                !
 ! D54   D(5,4,16,19)           46.2168         estimate D2E/DX2                !
 ! D55   D(9,4,16,17)           48.1592         estimate D2E/DX2                !
 ! D56   D(9,4,16,18)          -69.4478         estimate D2E/DX2                !
 ! D57   D(9,4,16,19)          165.9932         estimate D2E/DX2                !
 ! D58   D(11,4,16,17)         166.7857         estimate D2E/DX2                !
 ! D59   D(11,4,16,18)          49.1786         estimate D2E/DX2                !
 ! D60   D(11,4,16,19)         -75.3803         estimate D2E/DX2                !
 ! D61   D(1,5,15,40)          104.8075         estimate D2E/DX2                !
 ! D62   D(4,5,15,40)         -133.3161         estimate D2E/DX2                !
 ! D63   D(10,5,15,40)         -15.6516         estimate D2E/DX2                !
 ! D64   D(3,12,20,21)         165.7037         estimate D2E/DX2                !
 ! D65   D(3,12,20,22)          34.5576         estimate D2E/DX2                !
 ! D66   D(3,12,20,23)         -80.2933         estimate D2E/DX2                !
 ! D67   D(2,13,32,33)         -72.3736         estimate D2E/DX2                !
 ! D68   D(2,13,32,34)          49.6033         estimate D2E/DX2                !
 ! D69   D(2,13,32,35)         168.7447         estimate D2E/DX2                !
 ! D70   D(1,14,36,37)        -178.1823         estimate D2E/DX2                !
 ! D71   D(1,14,36,38)         -59.6204         estimate D2E/DX2                !
 ! D72   D(1,14,36,39)          61.8822         estimate D2E/DX2                !
 ! D73   D(5,15,40,41)         179.9433         estimate D2E/DX2                !
 ! D74   D(5,15,40,42)         -60.6098         estimate D2E/DX2                !
 ! D75   D(5,15,40,43)          60.9855         estimate D2E/DX2                !
 ! D76   D(4,16,19,44)          77.2022         estimate D2E/DX2                !
 ! D77   D(17,16,19,44)       -164.6724         estimate D2E/DX2                !
 ! D78   D(18,16,19,44)        -46.6529         estimate D2E/DX2                !
 ! D79   D(16,19,44,45)        167.7666         estimate D2E/DX2                !
 ! D80   D(16,19,44,46)         48.7615         estimate D2E/DX2                !
 ! D81   D(16,19,44,47)        -72.293          estimate D2E/DX2                !
 ! D82   D(12,20,23,24)        -88.8033         estimate D2E/DX2                !
 ! D83   D(12,20,23,25)         89.9021         estimate D2E/DX2                !
 ! D84   D(21,20,23,24)         22.5301         estimate D2E/DX2                !
 ! D85   D(21,20,23,25)       -158.7645         estimate D2E/DX2                !
 ! D86   D(22,20,23,24)        156.7587         estimate D2E/DX2                !
 ! D87   D(22,20,23,25)        -24.5359         estimate D2E/DX2                !
 ! D88   D(20,23,24,26)        178.4201         estimate D2E/DX2                !
 ! D89   D(20,23,24,27)         -1.9985         estimate D2E/DX2                !
 ! D90   D(25,23,24,26)         -0.2432         estimate D2E/DX2                !
 ! D91   D(25,23,24,27)        179.3383         estimate D2E/DX2                !
 ! D92   D(20,23,25,28)       -177.8194         estimate D2E/DX2                !
 ! D93   D(20,23,25,29)          2.1444         estimate D2E/DX2                !
 ! D94   D(24,23,25,28)          0.8425         estimate D2E/DX2                !
 ! D95   D(24,23,25,29)       -179.1937         estimate D2E/DX2                !
 ! D96   D(23,24,26,30)         -0.5143         estimate D2E/DX2                !
 ! D97   D(23,24,26,48)        177.4551         estimate D2E/DX2                !
 ! D98   D(27,24,26,30)        179.9075         estimate D2E/DX2                !
 ! D99   D(27,24,26,48)         -2.123          estimate D2E/DX2                !
 ! D100  D(23,25,28,30)         -0.6986         estimate D2E/DX2                !
 ! D101  D(23,25,28,52)        176.4565         estimate D2E/DX2                !
 ! D102  D(29,25,28,30)        179.3378         estimate D2E/DX2                !
 ! D103  D(29,25,28,52)         -3.507          estimate D2E/DX2                !
 ! D104  D(24,26,30,28)          0.6498         estimate D2E/DX2                !
 ! D105  D(24,26,30,31)       -179.501          estimate D2E/DX2                !
 ! D106  D(48,26,30,28)       -177.3196         estimate D2E/DX2                !
 ! D107  D(48,26,30,31)          2.5296         estimate D2E/DX2                !
 ! D108  D(24,26,48,49)         29.071          estimate D2E/DX2                !
 ! D109  D(24,26,48,50)        -90.673          estimate D2E/DX2                !
 ! D110  D(24,26,48,51)        149.7382         estimate D2E/DX2                !
 ! D111  D(30,26,48,49)       -152.9365         estimate D2E/DX2                !
 ! D112  D(30,26,48,50)         87.3195         estimate D2E/DX2                !
 ! D113  D(30,26,48,51)        -32.2693         estimate D2E/DX2                !
 ! D114  D(25,28,30,26)         -0.0286         estimate D2E/DX2                !
 ! D115  D(25,28,30,31)       -179.8778         estimate D2E/DX2                !
 ! D116  D(52,28,30,26)       -177.1773         estimate D2E/DX2                !
 ! D117  D(52,28,30,31)          2.9735         estimate D2E/DX2                !
 ! D118  D(25,28,52,53)        -89.7643         estimate D2E/DX2                !
 ! D119  D(25,28,52,54)        150.9661         estimate D2E/DX2                !
 ! D120  D(25,28,52,55)         29.6303         estimate D2E/DX2                !
 ! D121  D(30,28,52,53)         87.4254         estimate D2E/DX2                !
 ! D122  D(30,28,52,54)        -31.8443         estimate D2E/DX2                !
 ! D123  D(30,28,52,55)       -153.1801         estimate D2E/DX2                !
 --------------------------------------------------------------------------------
 Trust Radius=3.00D-01 FncErr=1.00D-07 GrdErr=1.00D-06 EigMax=2.50D+02 EigMin=1.00D-04
 Number of steps in this run=    291 maximum allowed number of steps=    330.
 GradGradGradGradGradGradGradGradGradGradGradGradGradGradGradGradGradGrad

 Leave Link  103 at Wed Jun  5 16:36:44 2019, MaxMem=  6442450944 cpu:               2.0 elap:               0.1
 (Enter /home/ekwan/sw/g16/l202.exe)
 Stoichiometry    C18H22F6O8S
 Framework group  C1[X(C18H22F6O8S)]
 Deg. of freedom   159
 Full point group                 C1      NOp   1
 Largest Abelian subgroup         C1      NOp   1
 Largest concise Abelian subgroup C1      NOp   1
                         Standard orientation:                         
 ---------------------------------------------------------------------
 Center     Atomic      Atomic             Coordinates (Angstroms)
 Number     Number       Type             X           Y           Z
 ---------------------------------------------------------------------
      1          6           0        3.359439    0.075802    0.738574
      2          6           0        3.273739   -0.394774   -0.690384
      3          6           0        1.831630   -0.521096   -1.131934
      4          6           0        1.078504    1.024231    0.460035
      5          6           0        2.483595    1.280831    0.938625
      6          1           0        1.749463   -0.726786   -2.197339
      7          1           0        3.726676    0.375186   -1.332308
      8          1           0        3.004451   -0.726990    1.398278
      9          1           0        0.623321    0.240926    1.078628
     10          1           0        2.891533    2.114892    0.355500
     11          8           0        1.094704    0.600636   -0.887291
     12          8           0        1.307154   -1.639195   -0.422419
     13          8           0        3.956961   -1.587530   -0.805339
     14          8           0        4.656068    0.435795    1.071931
     15          8           0        2.417399    1.614602    2.282050
     16          6           0        0.233042    2.260507    0.579310
     17          1           0        0.046370    2.421868    1.640431
     18          1           0       -0.726841    2.095108    0.076094
     19          8           0        0.844150    3.409783    0.103502
     20         16           0        0.050295   -2.389422   -1.020755
     21          8           0       -0.021144   -3.621397   -0.303763
     22          8           0        0.156788   -2.354930   -2.449987
     23          6           0       -1.294459   -1.385168   -0.542984
     24          6           0       -1.900213   -1.618065    0.671429
     25          6           0       -1.698766   -0.368275   -1.379679
     26          6           0       -2.939766   -0.798041    1.053357
     27          1           0       -1.567353   -2.431780    1.302890
     28          6           0       -2.731045    0.444018   -0.968875
     29          1           0       -1.213785   -0.215376   -2.334455
     30          6           0       -3.354957    0.236383    0.243380
     31          1           0       -4.167103    0.880328    0.555347
     32          6           0        4.067931   -2.063776   -2.108408
     33          1           0        3.113994   -2.445419   -2.487155
     34          1           0        4.430615   -1.282841   -2.785446
     35          1           0        4.784424   -2.881708   -2.095340
     36          6           0        5.417350   -0.588272    1.631939
     37          1           0        6.391999   -0.168890    1.874804
     38          1           0        4.954121   -0.959312    2.552466
     39          1           0        5.539824   -1.420265    0.937256
     40          6           0        3.174377    2.734549    2.620244
     41          1           0        3.047649    2.902445    3.688341
     42          1           0        4.231967    2.570750    2.402496
     43          1           0        2.822974    3.616363    2.074797
     44          6           0        0.854450    3.523410   -1.284814
     45          1           0        1.152044    4.542530   -1.525529
     46          1           0       -0.142296    3.334876   -1.697521
     47          1           0        1.555095    2.825077   -1.748307
     48          6           0       -3.650069   -1.060039    2.332282
     49          9           0       -2.854266   -1.631733    3.212914
     50          9           0       -4.681763   -1.863416    2.157084
     51          9           0       -4.111199    0.056452    2.859472
     52          6           0       -3.134270    1.596039   -1.815158
     53          9           0       -2.454924    2.688453   -1.493491
     54          9           0       -4.410509    1.881384   -1.667530
     55          9           0       -2.906624    1.361981   -3.089888
 ---------------------------------------------------------------------
 Rotational constants (GHZ):           0.1568831           0.0879569           0.0831663
 Leave Link  202 at Wed Jun  5 16:36:45 2019, MaxMem=  6442450944 cpu:               6.0 elap:               0.3
 (Enter /home/ekwan/sw/g16/l301.exe)
 Standard basis: 6-31G(d) (6D, 7F)
 Ernie: Thresh=  0.10000D-02 Tol=  0.10000D-05 Strict=F.
 There are   543 symmetry adapted cartesian basis functions of A   symmetry.
 There are   543 symmetry adapted basis functions of A   symmetry.
   543 basis functions,  1036 primitive gaussians,   543 cartesian basis functions
   132 alpha electrons      132 beta electrons
       nuclear repulsion energy      4416.6554219217 Hartrees.
 IExCor=  202 DFT=T Ex+Corr=BHandH ExCW=0 ScaHFX=  0.500000
 ScaDFX=  0.500000  0.500000  1.000000  1.000000 ScalE2=  1.000000  1.000000
 IRadAn=      5 IRanWt=     -1 IRanGd=            0 ICorTp=0 IEmpDi=  4
 NAtoms=   55 NActive=   55 NUniq=   55 SFac= 1.00D+00 NAtFMM=   60 NAOKFM=F Big=F
 Integral buffers will be    131072 words long.
 Raffenetti 2 integral format.
 Two-electron integral symmetry is turned on.
 ------------------------------------------------------------------------------
 Polarizable Continuum Model (PCM)
 =================================
 Model                : PCM.
 Atomic radii         : UFF (Universal Force Field).
 Polarization charges : Total charges.
 Charge compensation  : None.
 Solution method      : On-the-fly selection.
 Cavity type          : Scaled VdW (van der Waals Surface) (Alpha=1.100).
 Cavity algorithm     : GePol (No added spheres)
                        Default sphere list used, NSphG=   55.
                        Lebedev-Laikov grids with approx.  5.0 points / Ang**2.
                        Smoothing algorithm: York/Karplus (Gamma=1.0000).
                        Polarization charges: spherical gaussians, with
                                              point-specific exponents (IZeta= 3).
                        Self-potential: point-specific (ISelfS= 7).
                        Self-field    : sphere-specific E.n sum rule (ISelfD= 2).
 1st derivatives      : Analytical E(r).r(x)/FMM algorithm (CHGder, D1EAlg=3).
                        Cavity 1st derivative terms included.
 Solvent              : TetraHydroFuran, Eps=   7.425700 Eps(inf)=   1.974025
 ------------------------------------------------------------------------------
 GePol: Number of generator spheres                  =      55
 GePol: Total number of spheres                      =      55
 GePol: Number of exposed spheres                    =      55 (100.00%)
 GePol: Number of points                             =    3781
 GePol: Average weight of points                     =       0.13
 GePol: Minimum weight of points                     =   0.49D-11
 GePol: Maximum weight of points                     =    0.20577
 GePol: Number of points with low weight             =     243
 GePol: Fraction of low-weight points (<1% of avg)   =       6.43%
 GePol: Cavity surface area                          =    478.633 Ang**2
 GePol: Cavity volume                                =    561.402 Ang**3
 Leave Link  301 at Wed Jun  5 16:36:45 2019, MaxMem=  6442450944 cpu:               8.6 elap:               0.4
 (Enter /home/ekwan/sw/g16/l302.exe)
 NPDir=0 NMtPBC=     1 NCelOv=     1 NCel=       1 NClECP=     1 NCelD=      1
         NCelK=      1 NCelE2=     1 NClLst=     1 CellRange=     0.0.
 One-electron integrals computed using PRISM.
 One-electron integral symmetry used in STVInt
 NBasis=   543 RedAO= T EigKep=  3.70D-04  NBF=   543
 NBsUse=   543 1.00D-06 EigRej= -1.00D+00 NBFU=   543
 Precomputing XC quadrature grid using
 IXCGrd= 4 IRadAn=           5 IRanWt=          -1 IRanGd=           0 AccXCQ= 0.00D+00.
 Generated NRdTot=       0 NPtTot=           0 NUsed=           0 NTot=          32
 NSgBfM=   530   530   530   530   530 MxSgAt=    55 MxSgA2=    55.
 Leave Link  302 at Wed Jun  5 16:36:56 2019, MaxMem=  6442450944 cpu:             314.8 elap:              11.0
 (Enter /home/ekwan/sw/g16/l303.exe)
 DipDrv:  MaxL=1.
 Leave Link  303 at Wed Jun  5 16:36:57 2019, MaxMem=  6442450944 cpu:               8.7 elap:               0.4
 (Enter /home/ekwan/sw/g16/l401.exe)
 ExpMin= 1.17D-01 ExpMax= 2.19D+04 ExpMxC= 3.30D+03 IAcc=3 IRadAn=         5 AccDes= 0.00D+00
 Harris functional with IExCor=  202 and IRadAn=       5 diagonalized for initial guess.
 HarFok:  IExCor=  202 AccDes= 0.00D+00 IRadAn=         5 IDoV= 1 UseB2=F ITyADJ=14
 ICtDFT=  3500011 ScaDFX=  1.000000  1.000000  1.000000  1.000000
 FoFCou: FMM=F IPFlag=           0 FMFlag=      100000 FMFlg1=           0
         NFxFlg=           0 DoJE=T BraDBF=F KetDBF=T FulRan=T
         wScrn=  0.000000 ICntrl=       500 IOpCl=  0 I1Cent=   200000004 NGrid=           0
         NMat0=    1 NMatS0=      1 NMatT0=    0 NMatD0=    1 NMtDS0=    0 NMtDT0=    0
 Petite list used in FoFCou.
 Harris En= -2274.57484287542    
 JPrj=0 DoOrth=F DoCkMO=F.
 Leave Link  401 at Wed Jun  5 16:37:06 2019, MaxMem=  6442450944 cpu:             279.2 elap:               9.5
 (Enter /home/ekwan/sw/g16/l502.exe)
 Integral symmetry usage will be decided dynamically.
 Closed shell SCF:
 Using DIIS extrapolation, IDIIS=  1040.
 NGot=  6442450944 LenX=  6441838015 LenY=  6441542623
 Requested convergence on RMS density matrix=1.00D-08 within 128 cycles.
 Requested convergence on MAX density matrix=1.00D-06.
 Requested convergence on             energy=1.00D-06.
 No special actions if energy rises.
 Fock matrices will be formed incrementally for  20 cycles.

 Cycle   1  Pass 1  IDiag  1:
 FoFJK:  IHMeth= 1 ICntrl=       0 DoSepK=F KAlg= 0 I1Cent=           0 FoldK=F
 IRaf= 710000000 NMat=       1 IRICut=       1 DoRegI=T DoRafI=F ISym2E= 0 IDoP0=0 IntGTp=1.
 FoFCou: FMM=F IPFlag=           0 FMFlag=      100000 FMFlg1=           0
         NFxFlg=           0 DoJE=F BraDBF=F KetDBF=F FulRan=T
         wScrn=  0.000000 ICntrl=         0 IOpCl=  0 I1Cent=           0 NGrid=           0
         NMat0=    1 NMatS0=      1 NMatT0=    0 NMatD0=    1 NMtDS0=    0 NMtDT0=    0
 Symmetry not used in FoFCou.
 Inv3:  Mode=1 IEnd=    42887883.
 Iteration    1 A*A^-1 deviation from unit magnitude is 4.77D-15 for   3775.
 Iteration    1 A*A^-1 deviation from orthogonality  is 4.97D-15 for   3780   3191.
 Iteration    1 A^-1*A deviation from unit magnitude is 4.55D-15 for   3775.
 Iteration    1 A^-1*A deviation from orthogonality  is 4.53D-15 for   3771   2514.
 E= -2284.64160513110    
 DIIS: error= 2.69D-02 at cycle   1 NSaved=   1.
 NSaved= 1 IEnMin= 1 EnMin= -2284.64160513110     IErMin= 1 ErrMin= 2.69D-02
 ErrMax= 2.69D-02  0.00D+00 EMaxC= 1.00D-01 BMatC= 1.04D+00 BMatP= 1.04D+00
 IDIUse=3 WtCom= 7.31D-01 WtEn= 2.69D-01
 Coeff-Com:  0.100D+01
 Coeff-En:   0.100D+01
 Coeff:      0.100D+01
 Gap=     0.298 Goal=   None    Shift=    0.000
 GapD=    0.298 DampG=1.000 DampE=0.500 DampFc=0.5000 IDamp=-1.
 Damping current iteration by 5.00D-01
 RMSDP=2.81D-03 MaxDP=3.32D-01              OVMax= 1.47D-01

 Cycle   2  Pass 1  IDiag  1:
 RMSU=  1.40D-03    CP:  9.92D-01
 E= -2284.96212210142     Delta-E=       -0.320516970316 Rises=F Damp=T
 DIIS: error= 1.59D-02 at cycle   2 NSaved=   2.
 NSaved= 2 IEnMin= 2 EnMin= -2284.96212210142     IErMin= 2 ErrMin= 1.59D-02
 ErrMax= 1.59D-02  0.00D+00 EMaxC= 1.00D-01 BMatC= 1.41D-01 BMatP= 1.04D+00
 IDIUse=3 WtCom= 8.41D-01 WtEn= 1.59D-01
 Coeff-Com: -0.167D+00 0.117D+01
 Coeff-En:   0.000D+00 0.100D+01
 Coeff:     -0.140D+00 0.114D+01
 Gap=     0.310 Goal=   None    Shift=    0.000
 RMSDP=9.39D-04 MaxDP=1.02D-01 DE=-3.21D-01 OVMax= 9.63D-02

 Cycle   3  Pass 1  IDiag  1:
 RMSU=  9.30D-04    CP:  9.84D-01  1.02D+00
 E= -2285.26118854514     Delta-E=       -0.299066443722 Rises=F Damp=F
 DIIS: error= 6.85D-03 at cycle   3 NSaved=   3.
 NSaved= 3 IEnMin= 3 EnMin= -2285.26118854514     IErMin= 3 ErrMin= 6.85D-03
 ErrMax= 6.85D-03  0.00D+00 EMaxC= 1.00D-01 BMatC= 4.35D-02 BMatP= 1.41D-01
 IDIUse=3 WtCom= 9.31D-01 WtEn= 6.85D-02
 Coeff-Com: -0.166D+00 0.437D+00 0.729D+00
 Coeff-En:   0.000D+00 0.000D+00 0.100D+01
 Coeff:     -0.155D+00 0.407D+00 0.747D+00
 Gap=     0.276 Goal=   None    Shift=    0.000
 RMSDP=4.92D-04 MaxDP=5.86D-02 DE=-2.99D-01 OVMax= 4.32D-02

 Cycle   4  Pass 1  IDiag  1:
 RMSU=  3.40D-04    CP:  9.86D-01  1.18D+00  7.04D-01
 E= -2285.28620707401     Delta-E=       -0.025018528867 Rises=F Damp=F
 DIIS: error= 2.41D-03 at cycle   4 NSaved=   4.
 NSaved= 4 IEnMin= 4 EnMin= -2285.28620707401     IErMin= 4 ErrMin= 2.41D-03
 ErrMax= 2.41D-03  0.00D+00 EMaxC= 1.00D-01 BMatC= 9.42D-03 BMatP= 4.35D-02
 IDIUse=3 WtCom= 9.76D-01 WtEn= 2.41D-02
 Coeff-Com: -0.666D-01 0.128D+00 0.392D+00 0.547D+00
 Coeff-En:   0.000D+00 0.000D+00 0.157D+00 0.843D+00
 Coeff:     -0.650D-01 0.125D+00 0.386D+00 0.554D+00
 Gap=     0.279 Goal=   None    Shift=    0.000
 RMSDP=1.91D-04 MaxDP=1.29D-02 DE=-2.50D-02 OVMax= 1.61D-02

 Cycle   5  Pass 1  IDiag  1:
 RMSU=  6.29D-05    CP:  9.85D-01  1.17D+00  8.04D-01  5.50D-01
 E= -2285.29382340945     Delta-E=       -0.007616335446 Rises=F Damp=F
 DIIS: error= 3.66D-04 at cycle   5 NSaved=   5.
 NSaved= 5 IEnMin= 5 EnMin= -2285.29382340945     IErMin= 5 ErrMin= 3.66D-04
 ErrMax= 3.66D-04  0.00D+00 EMaxC= 1.00D-01 BMatC= 1.75D-04 BMatP= 9.42D-03
 IDIUse=3 WtCom= 9.96D-01 WtEn= 3.66D-03
 Coeff-Com: -0.197D-01 0.354D-01 0.118D+00 0.215D+00 0.651D+00
 Coeff-En:   0.000D+00 0.000D+00 0.000D+00 0.000D+00 0.100D+01
 Coeff:     -0.197D-01 0.353D-01 0.118D+00 0.214D+00 0.652D+00
 Gap=     0.278 Goal=   None    Shift=    0.000
 RMSDP=2.71D-05 MaxDP=1.70D-03 DE=-7.62D-03 OVMax= 3.45D-03

 Cycle   6  Pass 1  IDiag  1:
 RMSU=  1.77D-05    CP:  9.85D-01  1.17D+00  8.05D-01  5.92D-01  7.74D-01
 E= -2285.29396252506     Delta-E=       -0.000139115608 Rises=F Damp=F
 DIIS: error= 1.02D-04 at cycle   6 NSaved=   6.
 NSaved= 6 IEnMin= 6 EnMin= -2285.29396252506     IErMin= 6 ErrMin= 1.02D-04
 ErrMax= 1.02D-04  0.00D+00 EMaxC= 1.00D-01 BMatC= 1.39D-05 BMatP= 1.75D-04
 IDIUse=3 WtCom= 9.99D-01 WtEn= 1.02D-03
 Coeff-Com: -0.200D-02 0.261D-02 0.102D-01 0.354D-01 0.252D+00 0.702D+00
 Coeff-En:   0.000D+00 0.000D+00 0.000D+00 0.000D+00 0.000D+00 0.100D+01
 Coeff:     -0.199D-02 0.261D-02 0.102D-01 0.353D-01 0.252D+00 0.702D+00
 Gap=     0.278 Goal=   None    Shift=    0.000
 RMSDP=7.72D-06 MaxDP=4.24D-04 DE=-1.39D-04 OVMax= 1.44D-03

 Cycle   7  Pass 1  IDiag  1:
 RMSU=  6.02D-06    CP:  9.85D-01  1.17D+00  8.07D-01  5.95D-01  8.23D-01
                    CP:  8.14D-01
 E= -2285.29397495579     Delta-E=       -0.000012430723 Rises=F Damp=F
 DIIS: error= 2.34D-05 at cycle   7 NSaved=   7.
 NSaved= 7 IEnMin= 7 EnMin= -2285.29397495579     IErMin= 7 ErrMin= 2.34D-05
 ErrMax= 2.34D-05  0.00D+00 EMaxC= 1.00D-01 BMatC= 8.35D-07 BMatP= 1.39D-05
 IDIUse=1 WtCom= 1.00D+00 WtEn= 0.00D+00
 Coeff-Com:  0.154D-02-0.307D-02-0.103D-01-0.127D-01-0.140D-02 0.186D+00
 Coeff-Com:  0.840D+00
 Coeff:      0.154D-02-0.307D-02-0.103D-01-0.127D-01-0.140D-02 0.186D+00
 Coeff:      0.840D+00
 Gap=     0.278 Goal=   None    Shift=    0.000
 RMSDP=2.89D-06 MaxDP=1.57D-04 DE=-1.24D-05 OVMax= 6.10D-04

 Cycle   8  Pass 1  IDiag  1:
 RMSU=  1.77D-06    CP:  9.85D-01  1.17D+00  8.07D-01  5.97D-01  8.43D-01
                    CP:  9.05D-01  9.49D-01
 E= -2285.29397601901     Delta-E=       -0.000001063228 Rises=F Damp=F
 DIIS: error= 9.94D-06 at cycle   8 NSaved=   8.
 NSaved= 8 IEnMin= 8 EnMin= -2285.29397601901     IErMin= 8 ErrMin= 9.94D-06
 ErrMax= 9.94D-06  0.00D+00 EMaxC= 1.00D-01 BMatC= 1.09D-07 BMatP= 8.35D-07
 IDIUse=1 WtCom= 1.00D+00 WtEn= 0.00D+00
 Coeff-Com:  0.706D-03-0.127D-02-0.436D-02-0.742D-02-0.229D-01 0.104D-01
 Coeff-Com:  0.303D+00 0.722D+00
 Coeff:      0.706D-03-0.127D-02-0.436D-02-0.742D-02-0.229D-01 0.104D-01
 Coeff:      0.303D+00 0.722D+00
 Gap=     0.278 Goal=   None    Shift=    0.000
 RMSDP=8.99D-07 MaxDP=4.80D-05 DE=-1.06D-06 OVMax= 1.60D-04

 Cycle   9  Pass 1  IDiag  1:
 RMSU=  5.70D-07    CP:  9.85D-01  1.17D+00  8.07D-01  5.97D-01  8.44D-01
                    CP:  9.15D-01  1.05D+00  8.96D-01
 E= -2285.29397615873     Delta-E=       -0.000000139721 Rises=F Damp=F
 DIIS: error= 2.91D-06 at cycle   9 NSaved=   9.
 NSaved= 9 IEnMin= 9 EnMin= -2285.29397615873     IErMin= 9 ErrMin= 2.91D-06
 ErrMax= 2.91D-06  0.00D+00 EMaxC= 1.00D-01 BMatC= 7.74D-09 BMatP= 1.09D-07
 IDIUse=1 WtCom= 1.00D+00 WtEn= 0.00D+00
 Coeff-Com: -0.280D-04 0.839D-04 0.395D-03 0.116D-04-0.533D-02-0.166D-01
 Coeff-Com: -0.401D-01 0.111D+00 0.951D+00
 Coeff:     -0.280D-04 0.839D-04 0.395D-03 0.116D-04-0.533D-02-0.166D-01
 Coeff:     -0.401D-01 0.111D+00 0.951D+00
 Gap=     0.278 Goal=   None    Shift=    0.000
 RMSDP=3.64D-07 MaxDP=1.65D-05 DE=-1.40D-07 OVMax= 9.66D-05

 Cycle  10  Pass 1  IDiag  1:
 RMSU=  2.16D-07    CP:  9.85D-01  1.17D+00  8.07D-01  5.97D-01  8.44D-01
                    CP:  9.23D-01  1.08D+00  1.01D+00  1.12D+00
 E= -2285.29397617528     Delta-E=       -0.000000016550 Rises=F Damp=F
 DIIS: error= 1.08D-06 at cycle  10 NSaved=  10.
 NSaved=10 IEnMin=10 EnMin= -2285.29397617528     IErMin=10 ErrMin= 1.08D-06
 ErrMax= 1.08D-06  0.00D+00 EMaxC= 1.00D-01 BMatC= 2.46D-09 BMatP= 7.74D-09
 IDIUse=1 WtCom= 1.00D+00 WtEn= 0.00D+00
 Coeff-Com: -0.936D-04 0.180D-03 0.708D-03 0.908D-03 0.358D-03-0.773D-02
 Coeff-Com: -0.553D-01-0.518D-01 0.423D+00 0.689D+00
 Coeff:     -0.936D-04 0.180D-03 0.708D-03 0.908D-03 0.358D-03-0.773D-02
 Coeff:     -0.553D-01-0.518D-01 0.423D+00 0.689D+00
 Gap=     0.278 Goal=   None    Shift=    0.000
 RMSDP=1.27D-07 MaxDP=6.59D-06 DE=-1.66D-08 OVMax= 2.26D-05

 Cycle  11  Pass 1  IDiag  1:
 RMSU=  8.34D-08    CP:  9.85D-01  1.17D+00  8.07D-01  5.97D-01  8.45D-01
                    CP:  9.24D-01  1.08D+00  1.03D+00  1.23D+00  8.38D-01
 E= -2285.29397617788     Delta-E=       -0.000000002595 Rises=F Damp=F
 DIIS: error= 3.51D-07 at cycle  11 NSaved=  11.
 NSaved=11 IEnMin=11 EnMin= -2285.29397617788     IErMin=11 ErrMin= 3.51D-07
 ErrMax= 3.51D-07  0.00D+00 EMaxC= 1.00D-01 BMatC= 1.80D-10 BMatP= 2.46D-09
 IDIUse=1 WtCom= 1.00D+00 WtEn= 0.00D+00
 Coeff-Com: -0.313D-04 0.564D-04 0.222D-03 0.333D-03 0.707D-03-0.796D-03
 Coeff-Com: -0.156D-01-0.351D-01 0.459D-01 0.242D+00 0.762D+00
 Coeff:     -0.313D-04 0.564D-04 0.222D-03 0.333D-03 0.707D-03-0.796D-03
 Coeff:     -0.156D-01-0.351D-01 0.459D-01 0.242D+00 0.762D+00
 Gap=     0.278 Goal=   None    Shift=    0.000
 RMSDP=3.99D-08 MaxDP=2.29D-06 DE=-2.59D-09 OVMax= 6.76D-06

 Cycle  12  Pass 1  IDiag  1:
 RMSU=  2.53D-08    CP:  9.85D-01  1.17D+00  8.07D-01  5.97D-01  8.45D-01
                    CP:  9.24D-01  1.08D+00  1.04D+00  1.26D+00  9.31D-01
                    CP:  9.33D-01
 E= -2285.29397617811     Delta-E=       -0.000000000229 Rises=F Damp=F
 DIIS: error= 2.24D-07 at cycle  12 NSaved=  12.
 NSaved=12 IEnMin=12 EnMin= -2285.29397617811     IErMin=12 ErrMin= 2.24D-07
 ErrMax= 2.24D-07  0.00D+00 EMaxC= 1.00D-01 BMatC= 2.63D-11 BMatP= 1.80D-10
 IDIUse=1 WtCom= 1.00D+00 WtEn= 0.00D+00
 Coeff-Com: -0.201D-05 0.230D-05 0.123D-04 0.302D-04 0.231D-03 0.574D-03
 Coeff-Com: -0.107D-03-0.791D-02-0.233D-01 0.217D-01 0.311D+00 0.698D+00
 Coeff:     -0.201D-05 0.230D-05 0.123D-04 0.302D-04 0.231D-03 0.574D-03
 Coeff:     -0.107D-03-0.791D-02-0.233D-01 0.217D-01 0.311D+00 0.698D+00
 Gap=     0.278 Goal=   None    Shift=    0.000
 RMSDP=1.32D-08 MaxDP=9.60D-07 DE=-2.29D-10 OVMax= 1.75D-06

 Cycle  13  Pass 1  IDiag  1:
 RMSU=  8.85D-09    CP:  9.85D-01  1.17D+00  8.07D-01  5.97D-01  8.44D-01
                    CP:  9.25D-01  1.08D+00  1.04D+00  1.27D+00  9.45D-01
                    CP:  1.01D+00  7.84D-01
 E= -2285.29397617812     Delta-E=       -0.000000000010 Rises=F Damp=F
 DIIS: error= 4.60D-08 at cycle  13 NSaved=  13.
 NSaved=13 IEnMin=13 EnMin= -2285.29397617812     IErMin=13 ErrMin= 4.60D-08
 ErrMax= 4.60D-08  0.00D+00 EMaxC= 1.00D-01 BMatC= 3.43D-12 BMatP= 2.63D-11
 IDIUse=1 WtCom= 1.00D+00 WtEn= 0.00D+00
 Coeff-Com:  0.282D-05-0.565D-05-0.201D-04-0.265D-04 0.200D-04 0.333D-03
 Coeff-Com:  0.174D-02 0.904D-03-0.155D-01-0.225D-01 0.325D-01 0.295D+00
 Coeff-Com:  0.708D+00
 Coeff:      0.282D-05-0.565D-05-0.201D-04-0.265D-04 0.200D-04 0.333D-03
 Coeff:      0.174D-02 0.904D-03-0.155D-01-0.225D-01 0.325D-01 0.295D+00
 Coeff:      0.708D+00
 Gap=     0.278 Goal=   None    Shift=    0.000
 RMSDP=4.72D-09 MaxDP=3.07D-07 DE=-1.00D-11 OVMax= 5.36D-07

 Error on total polarization charges =  0.00897
 SCF Done:  E(RBHandH) =  -2285.29397618     A.U. after   13 cycles
            NFock= 13  Conv=0.47D-08     -V/T= 2.0031
 KE= 2.278149060495D+03 PE=-1.423351356540D+04 EE= 5.253415106804D+03
 Leave Link  502 at Wed Jun  5 16:41:14 2019, MaxMem=  6442450944 cpu:            7424.7 elap:             247.5
 (Enter /home/ekwan/sw/g16/l701.exe)
 ... and contract with generalized density number  0.
 Compute integral first derivatives.
 D1PCM: PCM CHGder 1st derivatives, ID1Alg=3 FixD1E=F DoIter=F DoCFld=F I1PDM=0.
 GePol: Maximum number of non-zero 1st derivatives   =     220
 Leave Link  701 at Wed Jun  5 16:41:24 2019, MaxMem=  6442450944 cpu:             265.8 elap:              10.1
 (Enter /home/ekwan/sw/g16/l702.exe)
 L702 exits ... SP integral derivatives will be done elsewhere.
 Leave Link  702 at Wed Jun  5 16:41:24 2019, MaxMem=  6442450944 cpu:               2.4 elap:               0.1
 (Enter /home/ekwan/sw/g16/l703.exe)
 Integral derivatives from FoFJK, PRISM(SPDF).
 Compute integral first derivatives, UseDBF=F ICtDFT=           0.
 Calling FoFJK, ICntrl=      2127 FMM=F ISym2X=0 I1Cent= 0 IOpClX= 0 NMat=1 NMatS=1 NMatT=0.
 FoFJK:  IHMeth= 1 ICntrl=    2127 DoSepK=F KAlg= 0 I1Cent=           0 FoldK=F
 IRaf=         0 NMat=       1 IRICut=       1 DoRegI=T DoRafI=F ISym2E= 0 IDoP0=0 IntGTp=1.
 FoFCou: FMM=F IPFlag=           0 FMFlag=      100000 FMFlg1=         800
         NFxFlg=           0 DoJE=F BraDBF=F KetDBF=F FulRan=T
         wScrn=  0.000000 ICntrl=      2127 IOpCl=  0 I1Cent=           0 NGrid=           0
         NMat0=    1 NMatS0=      1 NMatT0=    0 NMatD0=    1 NMtDS0=    0 NMtDT0=    0
 Symmetry not used in FoFCou.
 Leave Link  703 at Wed Jun  5 16:42:03 2019, MaxMem=  6442450944 cpu:            1189.9 elap:              39.5
 (Enter /home/ekwan/sw/g16/l716.exe)
 Dipole        = 2.33315662D-01 1.09570850D+00-4.41154436D-01
 ***** Axes restored to original set *****
 -------------------------------------------------------------------
 Center     Atomic                   Forces (Hartrees/Bohr)
 Number     Number              X              Y              Z
 -------------------------------------------------------------------
      1        6          -0.000006957    0.000002637   -0.000000926
      2        6           0.000006042    0.000003963    0.000003439
      3        6          -0.000009154   -0.000003308    0.000005804
      4        6           0.000001740   -0.000002291    0.000004916
      5        6          -0.000003348   -0.000001183   -0.000005607
      6        1          -0.000000690   -0.000000946   -0.000001001
      7        1          -0.000001256   -0.000001055    0.000000130
      8        1           0.000000434    0.000000574   -0.000002651
      9        1           0.000001655    0.000001526    0.000000337
     10        1          -0.000000126   -0.000000934    0.000000526
     11        8          -0.000000900    0.000002528   -0.000005898
     12        8           0.000003262   -0.000005321   -0.000006224
     13        8          -0.000000071   -0.000002810   -0.000000096
     14        8           0.000006308    0.000000366   -0.000001921
     15        8           0.000007349    0.000001532    0.000005790
     16        6           0.000000166    0.000005551   -0.000000349
     17        1          -0.000001388    0.000000490   -0.000001504
     18        1          -0.000000458    0.000001506   -0.000001439
     19        8          -0.000000113   -0.000002380   -0.000001270
     20       16          -0.000004440    0.000003580    0.000002346
     21        8           0.000003326    0.000000440    0.000001943
     22        8           0.000003745    0.000000743    0.000000300
     23        6           0.000004582    0.000002011   -0.000002984
     24        6          -0.000005875   -0.000001276    0.000002322
     25        6           0.000001929   -0.000003990    0.000000013
     26        6          -0.000002124    0.000002884    0.000000002
     27        1           0.000002340    0.000000870    0.000001064
     28        6          -0.000005589    0.000000263    0.000006569
     29        1          -0.000001523   -0.000001084    0.000000330
     30        6          -0.000001276   -0.000004763   -0.000000618
     31        1           0.000000783    0.000000832   -0.000000456
     32        6           0.000003932    0.000002179    0.000000850
     33        1           0.000000785   -0.000001043   -0.000000276
     34        1          -0.000000153   -0.000000040   -0.000001112
     35        1          -0.000000145   -0.000000147   -0.000000476
     36        6          -0.000002937    0.000004635    0.000000826
     37        1           0.000000493    0.000000336   -0.000001207
     38        1           0.000001091    0.000000831    0.000000087
     39        1           0.000000622    0.000000420   -0.000000852
     40        6          -0.000006449   -0.000002342   -0.000001376
     41        1           0.000000423    0.000001466   -0.000000705
     42        1           0.000001881    0.000001693   -0.000000506
     43        1           0.000000040    0.000000586   -0.000001385
     44        6          -0.000004362   -0.000001305    0.000002589
     45        1          -0.000000897    0.000000301   -0.000000529
     46        1          -0.000000243   -0.000001233    0.000000240
     47        1           0.000000580    0.000000006   -0.000001435
     48        6           0.000004500    0.000001995    0.000002406
     49        9           0.000003047   -0.000000643    0.000003410
     50        9          -0.000002233   -0.000001543   -0.000002747
     51        9           0.000000358   -0.000003035   -0.000000923
     52        6          -0.000000037   -0.000003934    0.000001105
     53        9          -0.000000933   -0.000000403    0.000002149
     54        9           0.000002246    0.000001436    0.000001702
     55        9           0.000000019   -0.000001170   -0.000004722
 -------------------------------------------------------------------
 Cartesian Forces:  Max     0.000009154 RMS     0.000002725
 Leave Link  716 at Wed Jun  5 16:42:04 2019, MaxMem=  6442450944 cpu:               2.4 elap:               0.1
 (Enter /home/ekwan/sw/g16/l103.exe)

 GradGradGradGradGradGradGradGradGradGradGradGradGradGradGradGradGradGrad
 Berny optimization.
 FormGI is forming the generalized inverse of G from B-inverse, IUseBI=4.
 GSVD:  received Info=                   1 from GESDD.
 Internal  Forces:  Max     0.000010758 RMS     0.000001985
 Search for a local minimum.
 Step number   1 out of a maximum of  291
 All quantities printed in internal units (Hartrees-Bohrs-Radians)
 RMS Force = .19855D-05 SwitMx=.10000D-02 MixMth= 2
 Mixed Optimization -- En-DIIS/RFO-DIIS
 Second derivative matrix not updated -- first step.
 ITU=  0
     Eigenvalues ---    0.00733   0.00877   0.00948   0.00961   0.00972
     Eigenvalues ---    0.01097   0.01370   0.01706   0.01778   0.01779
     Eigenvalues ---    0.01784   0.01796   0.01800   0.01844   0.01872
     Eigenvalues ---    0.01878   0.01879   0.01900   0.01965   0.02373
     Eigenvalues ---    0.02377   0.02385   0.02386   0.02392   0.02395
     Eigenvalues ---    0.02866   0.03198   0.03594   0.04786   0.04853
     Eigenvalues ---    0.04978   0.05069   0.05138   0.05424   0.05486
     Eigenvalues ---    0.06003   0.06239   0.06748   0.07173   0.07239
     Eigenvalues ---    0.07382   0.07894   0.09468   0.10170   0.10208
     Eigenvalues ---    0.10243   0.10305   0.10623   0.10636   0.10666
     Eigenvalues ---    0.10676   0.10862   0.10939   0.11039   0.11074
     Eigenvalues ---    0.11132   0.11153   0.11600   0.11854   0.12162
     Eigenvalues ---    0.14121   0.14876   0.16000   0.16000   0.16000
     Eigenvalues ---    0.16000   0.16000   0.16000   0.16000   0.16000
     Eigenvalues ---    0.16000   0.16000   0.16000   0.16000   0.16000
     Eigenvalues ---    0.16000   0.16000   0.16527   0.17093   0.17515
     Eigenvalues ---    0.18733   0.19597   0.19884   0.20894   0.22137
     Eigenvalues ---    0.23484   0.23491   0.23501   0.24969   0.24985
     Eigenvalues ---    0.24994   0.25000   0.25000   0.25000   0.25000
     Eigenvalues ---    0.25000   0.25000   0.25000   0.25000   0.25000
     Eigenvalues ---    0.25000   0.25000   0.25000   0.28958   0.30651
     Eigenvalues ---    0.30973   0.31105   0.31405   0.32120   0.33679
     Eigenvalues ---    0.33868   0.33899   0.33977   0.34016   0.34083
     Eigenvalues ---    0.34090   0.34202   0.34210   0.34223   0.34237
     Eigenvalues ---    0.34263   0.34534   0.34568   0.34723   0.34878
     Eigenvalues ---    0.34972   0.34973   0.34988   0.35023   0.35109
     Eigenvalues ---    0.35701   0.35707   0.35784   0.41819   0.41929
     Eigenvalues ---    0.44726   0.44929   0.46713   0.46725   0.46801
     Eigenvalues ---    0.47007   0.47959   0.48042   0.48049   0.49217
     Eigenvalues ---    0.49371   0.49524   0.49563   0.49706   0.49856
     Eigenvalues ---    0.55009   0.60454   0.62111   0.62432   0.62573
     Eigenvalues ---    0.62924   0.62969   1.03647   1.06877
 RFO step:  Lambda=-1.09555936D-08 EMin= 7.33297200D-03
 Linear search not attempted -- first point.
 Iteration  1 RMS(Cart)=  0.00029960 RMS(Int)=  0.00000002
 Iteration  2 RMS(Cart)=  0.00000004 RMS(Int)=  0.00000000
 ITry= 1 IFail=0 DXMaxC= 1.48D-03 DCOld= 1.00D+10 DXMaxT= 3.00D-01 DXLimC= 3.00D+00 Rises=F
 Variable       Old X    -DE/DX   Delta X   Delta X   Delta X     New X
                                 (Linear)    (Quad)   (Total)
    R1        2.84760   0.00000   0.00000  -0.00001  -0.00001   2.84759
    R2        2.84039   0.00000   0.00000  -0.00001  -0.00001   2.84038
    R3        2.07500   0.00000   0.00000   0.00000   0.00000   2.07500
    R4        2.61982   0.00000   0.00000   0.00001   0.00001   2.61983
    R5        2.86005   0.00001   0.00000   0.00002   0.00002   2.86007
    R6        2.07875   0.00000   0.00000  -0.00001  -0.00001   2.07874
    R7        2.60664   0.00000   0.00000   0.00001   0.00001   2.60665
    R8        2.05637   0.00000   0.00000   0.00000   0.00000   2.05638
    R9        2.57807   0.00000   0.00000   0.00001   0.00001   2.57808
   R10        2.69154   0.00000   0.00000  -0.00001  -0.00001   2.69153
   R11        2.84664   0.00000   0.00000   0.00000   0.00000   2.84664
   R12        2.07304   0.00000   0.00000   0.00000   0.00000   2.07303
   R13        2.66912   0.00000   0.00000   0.00001   0.00001   2.66913
   R14        2.83925   0.00000   0.00000   0.00001   0.00001   2.83927
   R15        2.07191   0.00000   0.00000   0.00000   0.00000   2.07190
   R16        2.61887   0.00000   0.00000   0.00001   0.00001   2.61888
   R17        2.98824   0.00000   0.00000  -0.00001  -0.00001   2.98824
   R18        2.63013   0.00000   0.00000   0.00000   0.00000   2.63013
   R19        2.63335   0.00000   0.00000  -0.00001  -0.00001   2.63335
   R20        2.63322   0.00000   0.00000  -0.00001  -0.00001   2.63321
   R21        2.05873   0.00000   0.00000   0.00000   0.00000   2.05872
   R22        2.07178   0.00000   0.00000   0.00000   0.00000   2.07178
   R23        2.61895   0.00000   0.00000  -0.00001  -0.00001   2.61894
   R24        2.63238   0.00000   0.00000  -0.00001  -0.00001   2.63238
   R25        2.69705   0.00000   0.00000   0.00000   0.00000   2.69705
   R26        2.70913   0.00000   0.00000   0.00000   0.00000   2.70913
   R27        3.29764   0.00000   0.00000   0.00000   0.00000   3.29764
   R28        2.60205   0.00000   0.00000   0.00001   0.00001   2.60206
   R29        2.60316   0.00000   0.00000  -0.00001  -0.00001   2.60315
   R30        2.60411   0.00000   0.00000   0.00000   0.00000   2.60411
   R31        2.04551   0.00000   0.00000   0.00000   0.00000   2.04551
   R32        2.60082   0.00000   0.00000   0.00000   0.00000   2.60082
   R33        2.04421   0.00000   0.00000   0.00000   0.00000   2.04421
   R34        2.60377   0.00000   0.00000   0.00000   0.00000   2.60376
   R35        2.80853   0.00000   0.00000  -0.00001  -0.00001   2.80853
   R36        2.60614   0.00000   0.00000  -0.00001  -0.00001   2.60613
   R37        2.80670   0.00000   0.00000   0.00000   0.00000   2.80670
   R38        2.04542   0.00000   0.00000   0.00000   0.00000   2.04542
   R39        2.06931   0.00000   0.00000   0.00000   0.00000   2.06931
   R40        2.06990   0.00000   0.00000   0.00000   0.00000   2.06990
   R41        2.05498   0.00000   0.00000   0.00000   0.00000   2.05498
   R42        2.05694   0.00000   0.00000   0.00000   0.00000   2.05694
   R43        2.06976   0.00000   0.00000   0.00000   0.00000   2.06977
   R44        2.06127   0.00000   0.00000   0.00000   0.00000   2.06127
   R45        2.05718   0.00000   0.00000   0.00000   0.00000   2.05718
   R46        2.06382   0.00000   0.00000   0.00001   0.00001   2.06383
   R47        2.06888   0.00000   0.00000   0.00000   0.00000   2.06888
   R48        2.05721   0.00000   0.00000   0.00000   0.00000   2.05721
   R49        2.06955   0.00000   0.00000   0.00000   0.00000   2.06955
   R50        2.06439   0.00000   0.00000   0.00000   0.00000   2.06439
   R51        2.48960   0.00000   0.00000   0.00001   0.00001   2.48961
   R52        2.49308   0.00000   0.00000   0.00001   0.00001   2.49308
   R53        2.49066   0.00000   0.00000   0.00000   0.00000   2.49065
   R54        2.50583   0.00000   0.00000   0.00000   0.00000   2.50583
   R55        2.48698   0.00000   0.00000   0.00000   0.00000   2.48698
   R56        2.48665   0.00000   0.00000   0.00001   0.00001   2.48666
    A1        1.92137   0.00000   0.00000   0.00002   0.00002   1.92138
    A2        1.89972   0.00000   0.00000  -0.00001  -0.00001   1.89971
    A3        1.94153   0.00000   0.00000  -0.00002  -0.00002   1.94152
    A4        1.89420   0.00000   0.00000   0.00000   0.00000   1.89420
    A5        1.88053   0.00000   0.00000   0.00000   0.00000   1.88054
    A6        1.92597   0.00000   0.00000   0.00001   0.00001   1.92597
    A7        1.93576   0.00000   0.00000   0.00000   0.00000   1.93576
    A8        1.88744   0.00000   0.00000  -0.00001  -0.00001   1.88742
    A9        1.89747   0.00000   0.00000  -0.00001  -0.00001   1.89746
   A10        1.85512   0.00000   0.00000   0.00000   0.00000   1.85511
   A11        1.95570   0.00000   0.00000   0.00003   0.00003   1.95573
   A12        1.93122   0.00000   0.00000  -0.00001  -0.00001   1.93122
   A13        1.95343   0.00000   0.00000  -0.00001  -0.00001   1.95342
   A14        1.97551   0.00000   0.00000   0.00000   0.00000   1.97550
   A15        1.84529   0.00000   0.00000   0.00002   0.00002   1.84531
   A16        1.86523   0.00000   0.00000  -0.00002  -0.00002   1.86522
   A17        1.88760   0.00000   0.00000  -0.00003  -0.00003   1.88757
   A18        1.93609   0.00000   0.00000   0.00003   0.00003   1.93612
   A19        1.90658   0.00000   0.00000   0.00000   0.00000   1.90658
   A20        1.92139   0.00000   0.00000  -0.00001  -0.00001   1.92138
   A21        1.93852   0.00000   0.00000   0.00000   0.00000   1.93852
   A22        1.90553   0.00000   0.00000   0.00002   0.00002   1.90554
   A23        1.88523   0.00000   0.00000   0.00001   0.00001   1.88524
   A24        1.90599   0.00000   0.00000  -0.00001  -0.00001   1.90598
   A25        1.94408   0.00000   0.00000   0.00000   0.00000   1.94408
   A26        1.89894   0.00000   0.00000   0.00000   0.00000   1.89894
   A27        1.92830   0.00000   0.00000  -0.00001  -0.00001   1.92829
   A28        1.88353   0.00000   0.00000   0.00000   0.00000   1.88353
   A29        1.88016   0.00000   0.00000   0.00002   0.00002   1.88018
   A30        1.92850   0.00000   0.00000   0.00000   0.00000   1.92850
   A31        2.00848   0.00000   0.00000   0.00002   0.00002   2.00849
   A32        2.06761  -0.00001   0.00000  -0.00004  -0.00004   2.06757
   A33        1.99698   0.00001   0.00000   0.00002   0.00002   1.99701
   A34        2.00067   0.00000   0.00000  -0.00001  -0.00001   2.00066
   A35        1.98548   0.00000   0.00000   0.00000   0.00000   1.98547
   A36        1.87090   0.00000   0.00000   0.00001   0.00001   1.87091
   A37        1.90933   0.00000   0.00000   0.00001   0.00001   1.90933
   A38        1.98992   0.00000   0.00000   0.00000   0.00000   1.98993
   A39        1.89589   0.00000   0.00000   0.00000   0.00000   1.89588
   A40        1.86203   0.00000   0.00000   0.00001   0.00001   1.86203
   A41        1.93220   0.00000   0.00000  -0.00002  -0.00002   1.93218
   A42        1.99662   0.00000   0.00000  -0.00002  -0.00002   1.99661
   A43        1.83302   0.00000   0.00000  -0.00001  -0.00001   1.83301
   A44        1.88259  -0.00001   0.00000  -0.00004  -0.00004   1.88255
   A45        1.80891   0.00001   0.00000   0.00002   0.00002   1.80894
   A46        2.12389   0.00000   0.00000   0.00001   0.00001   2.12390
   A47        1.89721   0.00000   0.00000   0.00001   0.00001   1.89722
   A48        1.89268   0.00000   0.00000   0.00001   0.00001   1.89269
   A49        2.07504   0.00000   0.00000   0.00001   0.00001   2.07505
   A50        2.07683   0.00000   0.00000   0.00000   0.00000   2.07683
   A51        2.13109   0.00000   0.00000  -0.00001  -0.00001   2.13108
   A52        2.06651   0.00000   0.00000   0.00001   0.00001   2.06652
   A53        2.10178   0.00000   0.00000  -0.00001  -0.00001   2.10177
   A54        2.11488   0.00000   0.00000   0.00000   0.00000   2.11488
   A55        2.06523   0.00000   0.00000   0.00000   0.00000   2.06523
   A56        2.10464   0.00000   0.00000   0.00000   0.00000   2.10464
   A57        2.11332   0.00000   0.00000   0.00000   0.00000   2.11331
   A58        2.10730   0.00000   0.00000   0.00000   0.00000   2.10731
   A59        2.08763   0.00000   0.00000  -0.00001  -0.00001   2.08762
   A60        2.08771   0.00000   0.00000   0.00001   0.00001   2.08772
   A61        2.10928   0.00000   0.00000   0.00001   0.00001   2.10929
   A62        2.08443   0.00000   0.00000  -0.00002  -0.00002   2.08441
   A63        2.08842   0.00000   0.00000   0.00001   0.00001   2.08843
   A64        2.08684   0.00000   0.00000  -0.00001  -0.00001   2.08683
   A65        2.09822   0.00000   0.00000   0.00001   0.00001   2.09823
   A66        2.09813   0.00000   0.00000  -0.00001  -0.00001   2.09812
   A67        1.95371   0.00000   0.00000   0.00000   0.00000   1.95372
   A68        1.94029   0.00000   0.00000   0.00001   0.00001   1.94030
   A69        1.87408   0.00000   0.00000   0.00000   0.00000   1.87408
   A70        1.89985   0.00000   0.00000   0.00000   0.00000   1.89984
   A71        1.89230   0.00000   0.00000  -0.00001  -0.00001   1.89229
   A72        1.90236   0.00000   0.00000   0.00000   0.00000   1.90236
   A73        1.87098   0.00000   0.00000   0.00000   0.00000   1.87098
   A74        1.93441   0.00000   0.00000   0.00001   0.00001   1.93442
   A75        1.94543   0.00000   0.00000   0.00000   0.00000   1.94543
   A76        1.89832   0.00000   0.00000   0.00000   0.00000   1.89832
   A77        1.91287   0.00000   0.00000  -0.00001  -0.00001   1.91286
   A78        1.90112   0.00000   0.00000   0.00000   0.00000   1.90112
   A79        1.87428   0.00000   0.00000   0.00001   0.00001   1.87429
   A80        1.93599   0.00000   0.00000   0.00001   0.00001   1.93600
   A81        1.93059   0.00000   0.00000   0.00000   0.00000   1.93059
   A82        1.90867   0.00000   0.00000   0.00000   0.00000   1.90867
   A83        1.90417   0.00000   0.00000   0.00000   0.00000   1.90417
   A84        1.90953   0.00000   0.00000  -0.00001  -0.00001   1.90952
   A85        1.87419   0.00000   0.00000   0.00000   0.00000   1.87418
   A86        1.93351   0.00000   0.00000   0.00000   0.00000   1.93350
   A87        1.95568   0.00000   0.00000   0.00001   0.00001   1.95569
   A88        1.90354   0.00000   0.00000   0.00000   0.00000   1.90354
   A89        1.90635   0.00000   0.00000   0.00000   0.00000   1.90634
   A90        1.88998   0.00000   0.00000   0.00000   0.00000   1.88998
   A91        1.94230   0.00000   0.00000   0.00001   0.00001   1.94231
   A92        1.94638  -0.00001   0.00000  -0.00003  -0.00003   1.94636
   A93        1.94130   0.00000   0.00000   0.00000   0.00000   1.94130
   A94        1.87224   0.00000   0.00000   0.00002   0.00002   1.87225
   A95        1.88764   0.00000   0.00000   0.00000   0.00000   1.88764
   A96        1.87063   0.00000   0.00000  -0.00001  -0.00001   1.87063
   A97        1.94087   0.00000   0.00000  -0.00002  -0.00002   1.94085
   A98        1.94715   0.00000   0.00000   0.00001   0.00001   1.94716
   A99        1.94663   0.00000   0.00000   0.00002   0.00002   1.94664
[...]
 00003336,0.00000285,-0.00020614,-0.00025546,-0.00010139,0.00000272,0.0
 0002251,0.00003124,0.00005571,0.00001508,0.00000200,-0.00002063,0.0000
 0452,-0.00000929,-0.00067812,-0.00013056,0.00007586,0.00020012,0.00013
 867,-0.00000867,-0.00058069,-0.00005483,0.00051590,0.00032660,-0.00002
 727,0.00003104,0.00172912,0.00203938,-0.00333250,-0.00014688,-0.000527
 82,0.00109395,-0.00107166,-0.00081360,0.00063455,-0.00056188,-0.000095
 32,0.00107736,-0.00763277,-0.03619007,0.66485299,0.00006610,-0.0002019
 1,-0.00006171,0.00006892,-0.00003496,-0.00006924,0.00007331,-0.0007776
 6,0.00004714,-0.00037287,-0.00091434,-0.00062969,0.00005093,0.00032614
 ,0.00025824,-0.00002900,0.00004650,-0.00000077,0.00002244,0.00000671,-
 0.00000331,-0.00001242,0.00001651,-0.00000986,-0.00001847,0.00005693,-
 0.00003417,0.00009231,-0.00001824,0.00001027,-0.00017245,0.00065555,0.
 00026716,0.00054091,0.00051116,-0.00002573,-0.00009120,0.00014490,0.00
 007320,-0.00023752,0.00014478,-0.00006781,-0.00020737,-0.00000165,-0.0
 0013841,0.00264197,0.00149459,0.00070877,-0.00037381,0.00004049,-0.000
 23969,-0.00180342,-0.00039940,-0.00084273,-0.00127524,-0.00068683,-0.0
 0110753,-0.00099556,-0.00002275,0.00017342,0.00022479,-0.00014912,0.00
 000182,0.00022846,-0.00000443,-0.00007684,0.00086558,-0.00086410,0.000
 60830,0.00046299,-0.00021346,-0.00053900,-0.00086969,-0.00112693,0.001
 02632,-0.00038739,0.00036297,-0.00017841,-0.00000607,-0.00002939,-0.00
 001782,0.00881644,-0.00522471,-0.00305713,-0.00024202,-0.00020233,-0.0
 0010603,0.00021363,0.00050724,0.00079513,-0.00006170,0.00018139,-0.000
 45484,-0.00000372,-0.00002531,-0.00006837,0.00000323,-0.00000310,0.000
 01234,0.00000647,0.00000025,0.00000758,-0.00000790,0.00000908,0.000006
 32,0.00004514,-0.00009544,0.00006629,-0.00001873,0.00000810,-0.0000096
 5,0.00000260,0.00001133,-0.00001128,-0.00000640,0.00001849,-0.00000142
 ,0.00012197,0.00009347,0.00009014,-0.00000761,-0.00000750,-0.00003258,
 -0.00003198,-0.00000846,-0.00000593,0.00002533,0.00002888,0.00001824,0
 .00215170,-0.00000496,0.00197828,-0.00051476,-0.00014384,-0.00014250,-
 0.00239106,-0.00016883,-0.00034809,-0.00060328,-0.00010580,-0.00011659
 ,-0.00005840,-0.00000200,-0.00037800,0.00006820,-0.00003069,0.00013855
 ,-0.00003761,-0.00003675,0.00008153,-0.00000732,0.00002466,0.00011093,
 -0.12687375,-0.09350329,-0.01960311,0.18708796,-0.00003593,-0.00017157
 ,-0.00012625,-0.00012282,0.00002124,-0.00005022,-0.00040196,-0.0010383
 4,0.00037945,-0.00030795,-0.00084380,-0.00052861,-0.00001367,0.0001456
 0,0.00007052,-0.00006719,0.00004997,-0.00000835,0.00007726,0.00001654,
 0.00000187,-0.00002176,0.00002715,-0.00002562,-0.00006494,0.00006743,-
 0.00011115,0.00011898,-0.00000032,0.00002188,0.00040949,0.00093105,0.0
 0030523,0.00167436,0.00074941,-0.00012262,0.00009053,0.00007286,0.0000
 0204,-0.00001134,0.00012287,0.00002727,-0.00006304,0.00015264,0.000033
 51,0.00098722,0.00018145,0.00075832,-0.00010142,0.00007273,-0.00013200
 ,0.00071211,-0.00123826,0.00088040,-0.00049585,0.00039269,-0.00115827,
 -0.00372679,0.00173660,0.00114891,0.00089090,-0.00111726,-0.00002031,0
 .00096760,-0.00051590,-0.00076029,0.00161863,0.00028667,0.00159445,0.0
 0009965,-0.00106985,0.00072175,-0.00238289,0.00015866,0.00251905,0.002
 05946,0.00014009,0.00192824,-0.00024047,-0.00002663,-0.00020038,-0.024
 13939,-0.04748753,-0.00383122,-0.00098095,-0.00059523,-0.00062450,0.00
 263244,-0.00203747,-0.00227798,-0.00100838,-0.00072642,-0.00058928,-0.
 00007382,-0.00002840,0.00001262,-0.00000360,0.00001511,0.00002268,0.00
 001329,0.00001546,-0.00000637,0.00001052,0.00000039,0.00000480,-0.0000
 0276,-0.00002861,0.00002337,0.00000179,0.00000558,-0.00000038,0.000001
 77,-0.00000092,-0.00000799,-0.00001353,0.00000666,0.00000030,0.0000293
 2,-0.00006519,0.00004739,0.00000181,0.00000329,-0.00000976,-0.00001349
 ,0.00000571,-0.00000651,0.00002366,0.00004107,-0.00000037,0.00166124,0
 .00027358,0.00200742,-0.00040459,-0.00012052,-0.00013361,0.00031089,-0
 .00004545,-0.00094577,-0.00069343,-0.00012651,-0.00015555,0.00172427,0
 .00016451,-0.00248043,-0.00011509,-0.00035968,0.00111730,-0.00072453,-
 0.00038724,0.00047022,-0.00044294,0.00034199,0.00077313,-0.09628560,-0
 .26440103,-0.03287941,0.16119925,0.33412467,0.00005002,-0.00012358,-0.
 00002980,0.00009098,-0.00002924,-0.00004237,0.00018870,-0.00017231,-0.
 00015003,-0.00023970,-0.00055793,-0.00047294,0.00004285,0.00026212,0.0
 0017373,-0.00001539,0.00003226,0.00000700,-0.00001771,-0.00000311,-0.0
 0000103,0.00000076,0.00000081,0.00000471,0.00001032,0.00000697,0.00002
 666,0.00001812,-0.00001970,-0.00000059,-0.00026241,0.00019488,0.000221
 60,-0.00028047,0.00009530,0.00010874,-0.00009813,0.00008329,0.00008460
 ,-0.00018531,0.00008080,-0.00004606,-0.00015004,-0.00003825,-0.0000797
 7,0.00163201,0.00146308,0.00034780,-0.00023351,-0.00002412,-0.00012175
 ,-0.00132003,-0.00020529,-0.00100776,-0.00067518,-0.00072561,0.0002924
 5,0.00061445,-0.00066333,-0.00069771,-0.00016015,0.00031279,0.00006866
 ,-0.00014093,0.00013215,0.00032970,-0.00067658,0.00030577,-0.00115355,
 -0.00072081,0.00061611,0.00034314,0.00196495,0.00018715,-0.00094811,-0
 .00033706,-0.00089165,0.00049289,0.00004020,-0.00001758,0.00007229,0.0
 0394330,0.01659571,0.01171365,-0.00006142,0.00053086,0.00005657,-0.000
 33245,-0.00087066,0.00043715,0.00011695,-0.00004243,0.00005188,0.00002
 253,-0.00001039,-0.00007798,0.00000669,-0.00000345,0.00000006,-0.00000
 502,-0.00000861,0.00000887,-0.00000833,0.00000562,0.00000540,0.0000337
 4,-0.00006241,0.00003790,-0.00001494,0.00000482,-0.00000821,0.00000036
 ,0.00000751,-0.00000383,-0.00000198,0.00001356,-0.00000162,0.00008720,
 0.00009418,0.00005156,-0.00000277,-0.00000872,-0.00001613,-0.00002333,
 -0.00000649,-0.00000223,0.00001158,0.00000525,0.00000602,0.00035108,0.
 00016320,0.00005424,-0.00006405,-0.00005458,0.00003146,0.00022902,-0.0
 0016225,-0.00034669,-0.00012907,-0.00000876,0.00000279,-0.00027119,-0.
 00024662,0.00042997,0.00004512,0.00005534,-0.00011770,0.00016433,0.000
 12735,-0.00007912,0.00008587,0.00002351,-0.00012447,-0.01961255,-0.031
 46433,-0.08523354,0.04757475,0.08025090,0.10539411,0.00012475,-0.00006
 227,0.00006207,0.00019787,-0.00008607,-0.00002581,0.00040679,-0.000084
 96,-0.00024665,0.00001848,-0.00009727,0.00005846,0.00009724,0.00014112
 ,0.00022187,0.00003974,-0.00000457,0.00000255,-0.00003525,-0.00000445,
 -0.00001124,0.00000058,0.00000079,0.00000644,0.00001953,0.00001840,0.0
 0004036,0.00002418,-0.00001161,-0.00000418,-0.00053056,0.00005621,-0.0
 0008063,-0.00080060,-0.00001192,0.00003141,-0.00019608,0.00013517,0.00
 007129,-0.00026399,0.00006544,-0.00011899,-0.00017712,-0.00011351,-0.0
 0021508,0.00091720,0.00044588,0.00034624,-0.00014345,-0.00000493,-0.00
 011562,0.00000204,-0.00019860,0.00027871,-0.00054662,-0.00029236,-0.00
 039474,0.00204122,-0.00139682,-0.00083443,-0.00061508,0.00112915,-0.00
 011442,-0.00052721,0.00047594,0.00054268,-0.00081737,0.00116293,0.0012
 7723,0.00004097,0.00008506,-0.00060392,-0.00018983,0.00382268,-0.00594
 093,0.00032190,0.00106328,-0.00066701,0.00008579,-0.00013950,-0.000064
 46,-0.03432297,0.01410729,0.00316792,0.00042143,-0.00086213,-0.0001732
 8,-0.00115311,-0.00059651,0.00453162,0.00008418,-0.00021377,-0.0021198
 5,0.00005652,-0.00001353,-0.00008523,0.00000710,-0.00002149,-0.0000021
 1,0.00000182,-0.00000878,0.00001407,-0.00002231,0.00001235,0.00000187,
 0.00006426,-0.00009820,0.00006611,-0.00002301,0.00000389,-0.00001049,0
 .00000246,0.00001528,-0.00001022,0.00000442,0.00001572,0.00000020,0.00
 011054,0.00013560,0.00006740,-0.00000794,-0.00001160,-0.00003006,-0.00
 002516,-0.00001185,0.00000014,0.00000716,0.00000382,0.00001522,0.00079
 297,0.00009512,0.00070874,-0.00021006,-0.00010110,-0.00005234,0.000124
 32,0.00017171,-0.00036597,-0.00019624,-0.00002907,-0.00004713,-0.00136
 551,-0.00004073,0.00127753,0.00016178,0.00015037,-0.00048963,0.0006022
 4,0.00027320,-0.00025825,0.00037946,-0.00024060,-0.00041978,-0.3235541
 7,0.07896182,0.00682679,-0.07636629,-0.03118654,-0.00654880,0.46784827
 ,-0.00006449,-0.00004137,-0.00007027,-0.00012425,0.00004157,-0.0000118
 1,-0.00031428,-0.00039798,0.00026589,-0.00014637,-0.00029431,-0.000222
 40,-0.00004463,0.00000727,-0.00006129,-0.00003875,0.00001740,-0.000006
 37,0.00004541,0.00000962,0.00000546,-0.00000852,0.00000981,-0.00001364
 ,-0.00003359,0.00002078,-0.00006431,0.00003460,0.00000476,0.00000991,0
 .00033088,0.00033005,0.00014086,0.00097381,0.00030306,-0.00005963,0.00
 011116,-0.00002345,-0.00003149,0.00009730,0.00002241,0.00005436,0.0000
 4296,0.00010179,0.00009575,0.00013246,-0.00003284,0.00008263,-0.000011
 40,0.00002620,-0.00000963,-0.00000172,-0.00028552,0.00007995,-0.000055
 07,0.00018881,-0.00022461,-0.00255052,0.00103914,0.00081997,0.00075165
 ,-0.00096405,0.00008464,0.00059993,-0.00034449,-0.00057366,0.00024666,
 -0.00234744,-0.00055047,0.00076076,-0.00059220,0.00006302,-0.00001205,
 -0.00156658,0.00533725,-0.00002500,-0.00018399,-0.00036167,-0.00001770
 ,0.00008235,-0.00002076,0.04140448,-0.00546324,-0.00018457,0.00003905,
 0.00073501,0.00015408,0.00048339,-0.00072944,-0.00065576,0.00056713,-0
 .00085339,0.00084487,-0.00005202,-0.00000604,0.00004141,-0.00000489,0.
 00001325,0.00001060,0.00000576,0.00001045,-0.00000805,0.00001240,-0.00
 000445,0.00000076,-0.00002589,0.00002639,-0.00001574,0.00000959,0.0000
 0072,0.00000403,-0.00000007,-0.00000622,0.00000050,-0.00000694,-0.0000
 0371,0.00000021,-0.00003160,-0.00007617,-0.00000826,0.00000370,0.00000
 552,0.00000782,0.00000471,0.00000635,-0.00000238,0.00000565,0.00001363
 ,-0.00000607,0.00029808,0.00000250,0.00035833,-0.00004971,0.00000400,-
 0.00002058,0.00005941,0.00004035,-0.00015825,-0.00012624,-0.00002430,-
 0.00002166,0.00099067,0.00021410,-0.00150761,-0.00006620,-0.00016724,0
 .00053761,-0.00045050,-0.00023178,0.00029504,-0.00030372,0.00019738,0.
 00047837,0.07326714,-0.10505019,0.00337431,-0.05087433,0.00614592,-0.0
 0242128,-0.08218421,0.10334695,0.00003409,-0.00000161,0.00001378,0.000
 05889,-0.00002500,0.00000099,0.00015626,0.00017598,-0.00017390,0.00005
 540,0.00003807,0.00000022,0.00002603,0.00001784,0.00003804,0.00000319,
 0.00000481,0.00000596,-0.00002522,-0.00000613,-0.00000276,0.00000370,-
 0.00000432,0.00000792,0.00001212,-0.00000893,0.00003620,-0.00000910,-0
 .00000646,-0.00000337,-0.00014705,-0.00009265,0.00003035,-0.00053126,-
 0.00011337,0.00008808,-0.00005673,0.00002375,0.00004365,-0.00006185,0.
 00000477,-0.00001788,-0.00004063,-0.00003244,-0.00003034,0.00010947,0.
 00010775,0.00000596,0.00000229,-0.00000797,0.00000494,0.00003948,-0.00
 000205,0.00004095,-0.00008538,-0.00009776,0.00010593,0.00124650,-0.000
 59980,-0.00070959,-0.00035112,0.00049755,0.00001228,-0.00027637,0.0001
 3953,0.00040851,-0.00097582,0.00118999,0.00054456,-0.00031304,0.000372
 35,-0.00008363,0.00013110,0.00163477,-0.00323786,-0.00068407,-0.000101
 40,0.00082817,-0.00004825,0.00002506,0.00007107,-0.01862103,0.00880297
 ,0.01060715,-0.00032485,0.00022124,-0.00002009,-0.00030342,-0.00001812
 ,-0.00204292,-0.00127899,0.00091491,0.00024335,0.00002322,-0.00000161,
 -0.00004288,0.00000529,-0.00000333,-0.00000520,-0.00000624,-0.00000755
 ,0.00000501,-0.00000569,0.00000201,0.00000161,0.00001535,-0.00001797,0
 .00000737,-0.00000542,0.00000019,-0.00000304,-0.00000067,0.00000255,0.
 00000060,0.00000164,0.00000417,-0.00000029,0.00002437,0.00003430,0.000
 00941,0.00000039,-0.00000300,-0.00000243,-0.00000678,-0.00000154,0.000
 00022,0.00000165,-0.00000276,0.00000009,0.00002111,0.00000533,-0.00005
 509,-0.00001303,-0.00001341,0.00000292,0.00004729,0.00001999,-0.000051
 18,-0.00002360,0.00000700,-0.00000222,-0.00038910,-0.00046370,0.000832
 13,-0.00001294,0.00014298,-0.00029405,0.00025579,0.00018999,-0.0001513
 8,0.00011496,0.00002798,-0.00024698,0.01364798,0.00100291,-0.08481167,
 -0.01053729,-0.00239279,0.01277203,-0.04355262,0.00935203,0.09109868,0
 .00003023,-0.00000970,0.00002699,0.00005211,-0.00002595,-0.00001009,0.
 00010566,-0.00008356,-0.00000479,-0.00000622,0.00000488,0.00009133,0.0
 0002718,0.00002846,0.00004864,0.00002356,-0.00001208,-0.00000493,-0.00
 000199,0.00000192,-0.00000313,-0.00000096,0.00000129,-0.00000168,-0.00
 000002,0.00000800,-0.00000597,0.00000896,0.00000043,-0.00000057,-0.000
 09899,0.00002754,-0.00008611,-0.00012055,0.00006063,-0.00003620,-0.000
 04992,0.00003989,0.00000432,-0.00006495,0.00001591,-0.00003798,-0.0000
 4125,-0.00003031,-0.00006488,0.00014813,0.00006459,0.00007030,-0.00003
 015,-0.00000238,-0.00002987,0.00002959,-0.00007775,0.00010508,-0.00009
 251,-0.00003687,-0.00014741,0.00032640,-0.00051748,0.00015052,-0.00003
 844,0.00018421,-0.00007711,-0.00011817,0.00018163,0.00001838,0.0005412
 8,-0.00051511,-0.00046275,0.00002372,0.00013084,-0.00012955,-0.0021358
 9,0.00058496,-0.00030545,0.00032349,-0.00015793,-0.00082273,0.00007465
 ,0.00000893,-0.00006122,0.01142041,0.00136177,-0.00444713,0.00090184,-
 0.00017116,-0.00123440,-0.00074472,0.00144758,-0.00026888,0.00018163,0
 .00023677,-0.00041407,0.00001167,-0.00000454,-0.00001111,0.00000035,-0
 .00000817,0.00000143,0.00000439,0.00000040,0.00000301,-0.00000681,0.00
 000391,-0.00000086,0.00001738,-0.00002708,0.00001993,-0.00000569,0.000
 00097,-0.00000234,0.00000112,0.00000432,-0.00000405,0.00000141,0.00000
 338,0.00000066,0.00002541,0.00003196,0.00001633,-0.00000233,-0.0000030
 8,-0.00000846,-0.00000523,-0.00000329,0.00000060,0.00000055,0.00000110
 ,0.00000429,0.00017978,0.00001414,0.00016197,-0.00004249,-0.00002666,-
 0.00001723,0.00003295,0.00010542,0.00004876,0.00000397,-0.00000077,-0.
 00000157,-0.00038211,0.00001319,0.00024487,0.00003776,0.00005559,-0.00
 016315,0.00014837,0.00007119,-0.00005819,0.00009142,-0.00006200,-0.000
 07427,-0.08547696,0.00701594,0.03617451,0.01020363,-0.01316975,-0.0247
 3662,-0.03291730,0.01634589,0.06265002,0.09740465,-0.00002933,-0.00005
 549,-0.00005118,-0.00006709,0.00001774,-0.00001056,-0.00020219,-0.0003
 7827,0.00015443,-0.00012237,-0.00029582,-0.00020032,-0.00001668,0.0000
 4333,-0.00000007,-0.00003467,0.00001690,-0.00000073,0.00003097,0.00000
 721,0.00000201,-0.00000739,0.00000892,-0.00001042,-0.00002540,0.000020
 83,-0.00004393,0.00003383,0.00000137,0.00000684,0.00018227,0.00033243,
 0.00012322,0.00067924,0.00023401,-0.00001090,0.00005313,0.00001298,-0.
 00000728,0.00002574,0.00003708,0.00002253,-0.00000293,0.00006648,0.000
 03824,0.00035033,0.00011877,0.00017756,-0.00004732,0.00001704,-0.00003
 552,0.00006502,-0.00035498,0.00011435,-0.00017942,0.00008788,-0.000222
 63,-0.00156544,0.00094130,0.00013885,0.00034129,-0.00043426,0.00005360
 ,0.00044440,-0.00028446,-0.00025533,-0.00068525,0.00058208,-0.00003064
 ,-0.00040485,-0.00014520,0.00104987,0.00145807,-0.00149518,0.00059814,
 -0.00070012,-0.00162267,0.00105683,-0.00007107,0.00004622,0.00002875,-
 0.00319487,0.00895997,0.02969083,-0.00052685,-0.00064332,0.00146003,0.
 00341798,-0.00187505,0.00034715,0.00011876,0.00030647,0.00016488,-0.00
 003447,-0.00001035,0.00001286,-0.00000188,0.00000795,0.00000852,0.0000
 0490,0.00000685,-0.00000391,0.00000626,-0.00000120,0.00000151,-0.00000
 871,0.00000086,0.00000101,0.00000336,0.00000165,0.00000113,0.00000045,
 -0.00000210,-0.00000182,-0.00000547,0.00000048,0.00000016,-0.00000265,
 -0.00003702,0.00000814,0.00000153,0.00000201,0.00000021,-0.00000165,0.
 00000292,-0.00000212,0.00000662,0.00001289,-0.00000236,0.00039203,0.00
 002441,0.00033398,-0.00006622,-0.00001445,-0.00002082,0.00013256,0.000
 08180,-0.00011138,-0.00013315,-0.00002058,-0.00002246,0.00091392,-0.00
 023345,-0.00133422,-0.00001833,-0.00013543,0.00052129,-0.00048406,-0.0
 0018765,0.00028993,-0.00024169,0.00018771,0.00035667,0.00775697,-0.086
 47884,-0.02285000,-0.01000686,-0.02403747,-0.06280860,0.01558073,0.006
 72286,-0.02093712,-0.01311200,0.09983182,0.00009485,-0.00005912,0.0000
 0195,0.00014862,-0.00004368,-0.00002355,0.00040343,0.00013668,-0.00041
 772,0.00007402,-0.00011524,-0.00018699,0.00008217,0.00011144,0.0001480
 6,-0.00001049,0.00003275,0.00001404,-0.00005279,-0.00001368,-0.0000043
 6,0.00000693,-0.00000779,0.00001792,0.00003473,-0.00001735,0.00009087,
 -0.00000798,-0.00002173,-0.00000671,-0.00051274,-0.00004414,0.00020231
 ,-0.00101937,-0.00007291,0.00022659,-0.00015590,0.00009177,0.00013759,
 -0.00019794,0.00004665,-0.00004478,-0.00015085,-0.00007376,-0.00008898
 ,0.00081371,0.00054133,0.00019734,-0.00006913,-0.00001618,-0.00003250,
 0.00005658,-0.00018154,0.00011686,-0.00049656,-0.00036693,0.00022144,0
 .00237995,-0.00161729,-0.00150047,-0.00061192,0.00082969,0.00011508,-0
 .00056238,0.00035500,0.00095391,0.00010453,0.00129472,0.00029865,-0.00
 030730,0.00031999,-0.00049459,0.00363226,-0.00211137,-0.00064609,0.001
 95149,0.00085826,-0.00172747,-0.00009013,-0.00010612,0.00009495,0.0092
 2664,-0.00395452,-0.05004186,-0.00200739,0.00101485,-0.00061829,-0.005
 95966,0.00645699,-0.00190587,-0.00042139,-0.00064971,0.00065928,0.0000
 5093,-0.00001157,-0.00013238,0.00001482,-0.00000432,-0.00000953,-0.000
 01662,-0.00001989,0.00001403,-0.00001326,0.00000598,0.00000701,0.00004
 480,-0.00006072,0.00002731,-0.00001670,0.00000234,-0.00000949,-0.00000
 166,0.00000759,0.00000082,0.00000133,0.00001485,-0.00000156,0.00008737
 ,0.00010418,0.00004274,-0.00000006,-0.00000896,-0.00001151,-0.00002480
 ,-0.00000546,-0.00000142,0.00001027,-0.00000098,0.00000243,0.00036650,
 0.00006211,0.00000547,-0.00009540,-0.00006060,-0.00000242,0.00021110,0
 .00004130,-0.00024978,-0.00017635,0.00000700,-0.00002458,-0.00170882,-
 0.00010121,0.00211192,-0.00001004,0.00038865,-0.00111261,0.00086182,0.
 00046064,-0.00039558,0.00034378,-0.00009666,-0.00058116,0.03095438,-0.
 01480760,-0.34239988,-0.01513917,-0.04553703,-0.04286461,0.04398698,-0
 .01520745,-0.02587939,-0.06610719,0.07221077,0.46570757\\0.00000694,-0
 .00000267,0.00000091,-0.00000605,-0.00000400,-0.00000344,0.00000921,0.
 00000331,-0.00000585,-0.00000175,0.00000231,-0.00000486,0.00000331,0.0
 0000121,0.00000560,0.00000068,0.00000095,0.00000103,0.00000126,0.00000
 107,-0.00000013,-0.00000043,-0.00000056,0.00000265,-0.00000164,-0.0000
 0151,-0.00000036,0.00000014,0.00000093,-0.00000053,0.00000090,-0.00000
 255,0.00000592,-0.00000327,0.00000533,0.00000624,0.00000007,0.00000283
 ,0.00000010,-0.00000629,-0.00000036,0.00000193,-0.00000735,-0.00000154
 ,-0.00000579,-0.00000016,-0.00000558,0.00000034,0.00000139,-0.00000049
 ,0.00000150,0.00000046,-0.00000150,0.00000144,0.00000011,0.00000238,0.
 00000129,0.00000434,-0.00000352,-0.00000264,-0.00000330,-0.00000044,-0
 .00000190,-0.00000374,-0.00000076,-0.00000009,-0.00000461,-0.00000194,
 0.00000299,0.00000590,0.00000131,-0.00000240,-0.00000197,0.00000395,0.
 00000009,0.00000216,-0.00000286,-0.00000008,-0.00000235,-0.00000088,-0
 .00000105,0.00000564,-0.00000035,-0.00000653,0.00000151,0.00000108,-0.
 00000032,0.00000132,0.00000476,0.00000055,-0.00000080,-0.00000083,0.00
 000047,-0.00000394,-0.00000216,-0.00000083,-0.00000078,0.00000104,0.00
 000027,0.00000015,0.00000004,0.00000111,0.00000015,0.00000014,0.000000
 47,0.00000293,-0.00000465,-0.00000083,-0.00000049,-0.00000033,0.000001
 21,-0.00000109,-0.00000083,-0.00000009,-0.00000062,-0.00000042,0.00000
 085,0.00000644,0.00000234,0.00000136,-0.00000042,-0.00000146,0.0000007
 1,-0.00000187,-0.00000169,0.00000051,-0.00000003,-0.00000058,0.0000013
 9,0.00000436,0.00000130,-0.00000259,0.00000090,-0.00000029,0.00000052,
 0.00000024,0.00000123,-0.00000024,-0.00000058,0.,0.00000143,-0.0000044
 9,-0.00000201,-0.00000239,-0.00000304,0.00000064,-0.00000340,0.0000022
 1,0.00000153,0.00000274,-0.00000037,0.00000306,0.00000094,0.00000008,0
 .00000388,-0.00000109,0.00000093,0.00000042,-0.00000215,-0.00000227,-0
 .00000142,-0.00000171,-0.00000003,0.00000118,0.00000473\\\@


 IF NO USE IS MADE OF THE LABOR OF PAST AGES,
 THE WORLD MUST REMAIN ALWAYS IN THE INFANCY OF KNOWLEDGE.

                          -- CICERO
 Job cpu time:       0 days 23 hours  0 minutes 40.3 seconds.
 Elapsed time:       0 days  0 hours 47 minutes  9.1 seconds.
 File lengths (MBytes):  RWF=   2233 Int=      0 D2E=      0 Chk=     39 Scr=      1
 Normal termination of Gaussian 16 at Wed Jun  5 17:29:31 2019.
