 Entering Gaussian System, Link 0=g16
 Input=clay_new-glu_gluC6-BCDR-Na2_1Me2O-bisCF3-ts-b97d3-631gd-pcm_thf.gjf
 Output=clay_new-glu_gluC6-BCDR-Na2_1Me2O-bisCF3-ts-b97d3-631gd-pcm_thf.out
 Initial command:
 /home/ekwan/sw/g16/l1.exe "/scratch/users/ekwan/clay_new-glu_gluC6-BCDR-Na2_1Me2O-bisCF3-ts-b97d3-631gd-pcm_thf/Gau-4709.inp" -scrdir="/scratch/users/ekwan/clay_new-glu_gluC6-BCDR-Na2_1Me2O-bisCF3-ts-b97d3-631gd-pcm_thf/"
 Entering Link 1 = /home/ekwan/sw/g16/l1.exe PID=      4712.
  
 Copyright (c) 1988,1990,1992,1993,1995,1998,2003,2009,2016,
            Gaussian, Inc.  All Rights Reserved.
  
 This is part of the Gaussian(R) 16 program.  It is based on
 the Gaussian(R) 09 system (copyright 2009, Gaussian, Inc.),
 the Gaussian(R) 03 system (copyright 2003, Gaussian, Inc.),
 the Gaussian(R) 98 system (copyright 1998, Gaussian, Inc.),
 the Gaussian(R) 94 system (copyright 1995, Gaussian, Inc.),
 the Gaussian 92(TM) system (copyright 1992, Gaussian, Inc.),
 the Gaussian 90(TM) system (copyright 1990, Gaussian, Inc.),
 the Gaussian 88(TM) system (copyright 1988, Gaussian, Inc.),
 the Gaussian 86(TM) system (copyright 1986, Carnegie Mellon
 University), and the Gaussian 82(TM) system (copyright 1983,
 Carnegie Mellon University). Gaussian is a federally registered
 trademark of Gaussian, Inc.
  
 This software contains proprietary and confidential information,
 including trade secrets, belonging to Gaussian, Inc.
  
 This software is provided under written license and may be
 used, copied, transmitted, or stored only in accord with that
 written license.
  
 The following legend is applicable only to US Government
 contracts under FAR:
  
                    RESTRICTED RIGHTS LEGEND
  
 Use, reproduction and disclosure by the US Government is
 subject to restrictions as set forth in subparagraphs (a)
 and (c) of the Commercial Computer Software - Restricted
 Rights clause in FAR 52.227-19.
  
 Gaussian, Inc.
 340 Quinnipiac St., Bldg. 40, Wallingford CT 06492
  
  
 ---------------------------------------------------------------
 Warning -- This program may not be used in any manner that
 competes with the business of Gaussian, Inc. or will provide
 assistance to any competitor of Gaussian, Inc.  The licensee
 of this program is prohibited from giving any competitor of
 Gaussian, Inc. access to this program.  By using this program,
 the user acknowledges that Gaussian, Inc. is engaged in the
 business of creating and licensing software in the field of
 computational chemistry and represents and warrants to the
 licensee that it is not a competitor of Gaussian, Inc. and that
 it will not use this program in any manner prohibited above.
 ---------------------------------------------------------------
  

 Cite this work as:
 Gaussian 16, Revision A.03,
 M. J. Frisch, G. W. Trucks, H. B. Schlegel, G. E. Scuseria, 
 M. A. Robb, J. R. Cheeseman, G. Scalmani, V. Barone, 
 G. A. Petersson, H. Nakatsuji, X. Li, M. Caricato, A. V. Marenich, 
 J. Bloino, B. G. Janesko, R. Gomperts, B. Mennucci, H. P. Hratchian, 
 J. V. Ortiz, A. F. Izmaylov, J. L. Sonnenberg, D. Williams-Young, 
 F. Ding, F. Lipparini, F. Egidi, J. Goings, B. Peng, A. Petrone, 
 T. Henderson, D. Ranasinghe, V. G. Zakrzewski, J. Gao, N. Rega, 
 G. Zheng, W. Liang, M. Hada, M. Ehara, K. Toyota, R. Fukuda, 
 J. Hasegawa, M. Ishida, T. Nakajima, Y. Honda, O. Kitao, H. Nakai, 
 T. Vreven, K. Throssell, J. A. Montgomery, Jr., J. E. Peralta, 
 F. Ogliaro, M. J. Bearpark, J. J. Heyd, E. N. Brothers, K. N. Kudin, 
 V. N. Staroverov, T. A. Keith, R. Kobayashi, J. Normand, 
 K. Raghavachari, A. P. Rendell, J. C. Burant, S. S. Iyengar, 
 J. Tomasi, M. Cossi, J. M. Millam, M. Klene, C. Adamo, R. Cammi, 
 J. W. Ochterski, R. L. Martin, K. Morokuma, O. Farkas, 
 J. B. Foresman, and D. J. Fox, Gaussian, Inc., Wallingford CT, 2016.
 
 ******************************************
 Gaussian 16:  AS64L-G16RevA.03 25-Dec-2016
                 5-Jun-2019 
 ******************************************
 %nprocshared=32
 Will use up to   32 processors via shared memory.
 %mem=48GB
 ----------------------------------------------------------------------
 #p opt=(ts,calcfc,noeigentest,maxstep=5) freq=noraman pop=none 6-31g* 
 scrf=(pcm,solvent=tetrahydrofuran) b97d empiricaldispersion=gd3
 ----------------------------------------------------------------------
 1/5=1,8=5,10=4,11=1,18=20,26=3,38=1/1,3;
 2/9=110,12=2,17=6,18=5,40=1/2;
 3/5=1,6=6,7=1,11=2,25=1,30=1,70=2201,71=2,72=20,74=-42,124=31,140=1/1,2,3;
 4//1;
 5/5=2,38=5,53=20/2;
 8/6=4,10=90,11=11/1;
 11/6=1,8=1,9=11,15=111,16=1/1,2,10;
 10/6=1,13=1/2;
 7/10=1,18=20,25=1/1,2,3,16;
 1/5=1,8=5,10=4,11=1,18=20,26=3/3(2);
 2/9=110/2;
 99//99;
 2/9=110/2;
 3/5=1,6=6,7=1,11=2,25=1,30=1,70=2205,71=1,72=20,74=-42,124=31/1,2,3;
 4/5=5,16=3,69=1/1;
 5/5=2,38=5,53=20/2;
 7//1,2,3,16;
 1/5=1,8=5,11=1,18=20,26=3/3(-5);
 2/9=110/2;
 99/9=1/99;
 Leave Link    1 at Wed Jun  5 06:34:52 2019, MaxMem=  6442450944 cpu:               4.4 elap:               0.2
 (Enter /home/ekwan/sw/g16/l101.exe)
 -----
 title
 -----
 Symbolic Z-matrix:
 Charge =  0 Multiplicity = 1
 6                    -1.74413   1.61617   2.2585 
 6                    -2.04391   2.45403   1.00328 
 6                    -1.1788    3.72965   1.00473 
 6                     0.60104   2.63398   2.23524 
 6                    -0.23351   1.34339   2.35147 
 1                    -1.30227   4.27911   0.05285 
 1                    -1.74421   1.87642   0.11259 
 1                    -2.07018   2.18561   3.14528 
 1                     0.39892   3.25357   3.12626 
 1                     0.02702   0.671     1.5215 
 8                     0.20869   3.38331   1.04506 
 8                    -1.56399   4.53467   2.0956 
 8                    -3.41873   2.83393   0.92426 
 8                    -2.47579   0.3857    2.15804 
 8                     0.06477   0.71968   3.61209 
 6                     2.12355   2.37275   2.11953 
 1                     2.4005    1.86631   3.07747 
 1                     2.59791   3.3887    2.17751 
 8                     2.51254   1.68966   0.9867 
 6                    -4.19641   1.97529   0.08347 
 1                    -3.83935   2.00044  -0.96326 
 1                    -4.17301   0.93406   0.4376 
 1                    -5.22747   2.35391   0.11426 
 6                    -2.9816   -0.08889   3.4089 
 1                    -2.16735  -0.28635   4.1233 
 1                    -3.68355   0.63955   3.8576 
 1                    -3.51937  -1.01992   3.19322 
 6                     0.79356  -0.50637   3.47852 
 1                     0.1866   -1.27508   2.97257 
 1                     1.72659  -0.3688    2.9107 
 1                     1.03167  -0.84453   4.49702 
 6                     3.82057  -1.68907  -1.28483 
 6                     3.22929  -0.3255   -0.87519 
 6                     1.85681  -0.4603   -0.27151 
 6                     2.10633  -2.81384   0.20948 
 6                     3.59922  -2.68702  -0.13184 
 1                     1.22658   0.40666  -0.15629 
 1                     3.82792   0.08241  -0.0352 
 1                     3.30765  -2.0419   -2.19454 
 1                     1.56444  -3.21675  -0.658 
 1                     4.14096  -2.31826   0.75246 
 8                     1.49806  -1.48243   0.45175 
 8                    -0.54012   0.11595  -3.94595 
 8                     3.16201   0.64365  -1.91285 
 8                     5.21919  -1.51778  -1.50542 
 8                     4.05294  -3.98538  -0.51208 
 6                     1.79972  -3.65472   1.43636 
 1                     2.07079  -4.70168   1.20364 
 1                     0.71385  -3.61724   1.63937 
 8                     2.54697  -3.15642   2.53808 
 16                   -0.31976  -0.00002  -2.48227 
 8                    -0.20474   1.3129   -1.7534 
 8                     0.79898  -0.97075  -2.11646 
 6                    -1.8124   -0.76873  -1.78875 
 6                    -3.05418  -0.52025  -2.38602 
 6                    -1.70777  -1.56137  -0.64064 
 6                    -4.20767  -1.07374  -1.81124 
 1                    -3.11403   0.08467  -3.28912 
 6                    -2.86859  -2.11939  -0.08856 
 1                    -0.73798  -1.73949  -0.18386 
 6                    -4.12291  -1.87781  -0.66477 
 1                    -5.02138  -2.31085  -0.2303 
 6                     4.42661   1.25504  -2.24152 
 1                     4.99845   1.49433  -1.33109 
 1                     5.02812   0.59688  -2.88313 
 1                     4.1843    2.18693  -2.76769 
 6                     5.73015  -2.28772  -2.60313 
 1                     5.54727  -3.36282  -2.45679 
 1                     5.27553  -1.96625  -3.55825 
 1                     6.81097  -2.09552  -2.63685 
 6                     5.00751  -4.54719   0.40291 
 1                     5.93521  -3.95018   0.41804 
 1                     4.59556  -4.6032    1.42464 
 1                     5.22816  -5.55844   0.03716 
 6                     2.24275  -3.85636   3.74668 
 1                     2.86109  -3.40886   4.53522 
 1                     1.17537  -3.74806   4.01348 
 1                     2.48061  -4.93296   3.65909 
 6                    -0.89655   5.80375   2.11433 
 1                    -1.31596   6.36542   2.95873 
 1                     0.19004   5.68292   2.25203 
 1                    -1.07912   6.36051   1.17624 
 11                    1.57521   2.7277   -0.94871 
 8                     3.36403   4.32709  -1.22668 
 6                     3.60724   5.41467  -2.11906 
 1                     4.54682   5.26304  -2.68212 
 1                     2.76367   5.45215  -2.8214 
 1                     3.67211   6.37334  -1.57219 
 6                     4.40213   4.17559  -0.24689 
 1                     4.46769   5.07259   0.39547 
 1                     4.12997   3.29438   0.35049 
 1                     5.37951   4.01483  -0.73786 
 6                    -5.5639   -0.73964  -2.39197 
 9                    -6.06961   0.40462  -1.83711 
 9                    -6.47378  -1.72519  -2.16207 
 9                    -5.50453  -0.53484  -3.73519 
 6                    -2.74771  -3.06645   1.08344 
 9                    -1.7097   -2.73768   1.90776 
 9                    -2.52135  -4.34539   0.66408 
 9                    -3.87938  -3.0912    1.84239 
 
 Add virtual bond connecting atoms H37        and H10        Dist= 3.93D+00.
 Add virtual bond connecting atoms H37        and O19        Dist= 4.06D+00.
 Add virtual bond connecting atoms O52        and H37        Dist= 4.40D+00.
 Add virtual bond connecting atoms O53        and C34        Dist= 4.13D+00.
 Add virtual bond connecting atoms H60        and O42        Dist= 4.42D+00.
 Add virtual bond connecting atoms H91        and H18        Dist= 4.51D+00.
 Add virtual bond connecting atoms H91        and O19        Dist= 4.47D+00.
 Add virtual bond connecting atoms Na83       and O11        Dist= 4.73D+00.
 Add virtual bond connecting atoms Na83       and O19        Dist= 4.51D+00.
 Add virtual bond connecting atoms Na83       and H37        Dist= 4.68D+00.
 Add virtual bond connecting atoms Na83       and O52        Dist= 4.56D+00.
 Add virtual bond connecting atoms Na83       and O84        Dist= 4.56D+00.
 ITRead=  0  0  0  0  0  0  0  0  0  0  0  0  0  0  0  0  0  0  0  0
 ITRead=  0  0  0  0  0  0  0  0  0  0  0  0  0  0  0  0  0  0  0  0
 ITRead=  0  0  0  0  0  0  0  0  0  0  0  0  0  0  0  0  0  0  0  0
 ITRead=  0  0  0  0  0  0  0  0  0  0  0  0  0  0  0  0  0  0  0  0
 ITRead=  0  0  0  0  0  0  0  0  0  0  0  0  0  0  0  0  0  0  0  0
 MicOpt= -1 -1 -1 -1 -1 -1 -1 -1 -1 -1 -1 -1 -1 -1 -1 -1 -1 -1 -1 -1
 MicOpt= -1 -1 -1 -1 -1 -1 -1 -1 -1 -1 -1 -1 -1 -1 -1 -1 -1 -1 -1 -1
 MicOpt= -1 -1 -1 -1 -1 -1 -1 -1 -1 -1 -1 -1 -1 -1 -1 -1 -1 -1 -1 -1
 MicOpt= -1 -1 -1 -1 -1 -1 -1 -1 -1 -1 -1 -1 -1 -1 -1 -1 -1 -1 -1 -1
 MicOpt= -1 -1 -1 -1 -1 -1 -1 -1 -1 -1 -1 -1 -1 -1 -1 -1 -1 -1 -1 -1
 NAtoms=    100 NQM=      100 NQMF=       0 NMMI=      0 NMMIF=      0
                NMic=       0 NMicF=      0.
                    Isotopes and Nuclear Properties:
 (Nuclear quadrupole moments (NQMom) in fm**2, nuclear magnetic moments (NMagM)
  in nuclear magnetons)

  Atom         1           2           3           4           5           6           7           8           9          10
 IAtWgt=          12          12          12          12          12           1           1           1           1           1
 AtmWgt=  12.0000000  12.0000000  12.0000000  12.0000000  12.0000000   1.0078250   1.0078250   1.0078250   1.0078250   1.0078250
 NucSpn=           0           0           0           0           0           1           1           1           1           1
 AtZEff=   0.0000000   0.0000000   0.0000000   0.0000000   0.0000000   0.0000000   0.0000000   0.0000000   0.0000000   0.0000000
 NQMom=    0.0000000   0.0000000   0.0000000   0.0000000   0.0000000   0.0000000   0.0000000   0.0000000   0.0000000   0.0000000
 NMagM=    0.0000000   0.0000000   0.0000000   0.0000000   0.0000000   2.7928460   2.7928460   2.7928460   2.7928460   2.7928460
 AtZNuc=   6.0000000   6.0000000   6.0000000   6.0000000   6.0000000   1.0000000   1.0000000   1.0000000   1.0000000   1.0000000

  Atom        11          12          13          14          15          16          17          18          19          20
 IAtWgt=          16          16          16          16          16          12           1           1          16          12
 AtmWgt=  15.9949146  15.9949146  15.9949146  15.9949146  15.9949146  12.0000000   1.0078250   1.0078250  15.9949146  12.0000000
 NucSpn=           0           0           0           0           0           0           1           1           0           0
 AtZEff=   0.0000000   0.0000000   0.0000000   0.0000000   0.0000000   0.0000000   0.0000000   0.0000000   0.0000000   0.0000000
 NQMom=    0.0000000   0.0000000   0.0000000   0.0000000   0.0000000   0.0000000   0.0000000   0.0000000   0.0000000   0.0000000
 NMagM=    0.0000000   0.0000000   0.0000000   0.0000000   0.0000000   0.0000000   2.7928460   2.7928460   0.0000000   0.0000000
 AtZNuc=   8.0000000   8.0000000   8.0000000   8.0000000   8.0000000   6.0000000   1.0000000   1.0000000   8.0000000   6.0000000

  Atom        21          22          23          24          25          26          27          28          29          30
 IAtWgt=           1           1           1          12           1           1           1          12           1           1
 AtmWgt=   1.0078250   1.0078250   1.0078250  12.0000000   1.0078250   1.0078250   1.0078250  12.0000000   1.0078250   1.0078250
 NucSpn=           1           1           1           0           1           1           1           0           1           1
 AtZEff=   0.0000000   0.0000000   0.0000000   0.0000000   0.0000000   0.0000000   0.0000000   0.0000000   0.0000000   0.0000000
 NQMom=    0.0000000   0.0000000   0.0000000   0.0000000   0.0000000   0.0000000   0.0000000   0.0000000   0.0000000   0.0000000
 NMagM=    2.7928460   2.7928460   2.7928460   0.0000000   2.7928460   2.7928460   2.7928460   0.0000000   2.7928460   2.7928460
 AtZNuc=   1.0000000   1.0000000   1.0000000   6.0000000   1.0000000   1.0000000   1.0000000   6.0000000   1.0000000   1.0000000

  Atom        31          32          33          34          35          36          37          38          39          40
 IAtWgt=           1          12          12          12          12          12           1           1           1           1
 AtmWgt=   1.0078250  12.0000000  12.0000000  12.0000000  12.0000000  12.0000000   1.0078250   1.0078250   1.0078250   1.0078250
 NucSpn=           1           0           0           0           0           0           1           1           1           1
 AtZEff=   0.0000000   0.0000000   0.0000000   0.0000000   0.0000000   0.0000000   0.0000000   0.0000000   0.0000000   0.0000000
 NQMom=    0.0000000   0.0000000   0.0000000   0.0000000   0.0000000   0.0000000   0.0000000   0.0000000   0.0000000   0.0000000
 NMagM=    2.7928460   0.0000000   0.0000000   0.0000000   0.0000000   0.0000000   2.7928460   2.7928460   2.7928460   2.7928460
 AtZNuc=   1.0000000   6.0000000   6.0000000   6.0000000   6.0000000   6.0000000   1.0000000   1.0000000   1.0000000   1.0000000

  Atom        41          42          43          44          45          46          47          48          49          50
 IAtWgt=           1          16          16          16          16          16          12           1           1          16
 AtmWgt=   1.0078250  15.9949146  15.9949146  15.9949146  15.9949146  15.9949146  12.0000000   1.0078250   1.0078250  15.9949146
 NucSpn=           1           0           0           0           0           0           0           1           1           0
 AtZEff=   0.0000000   0.0000000   0.0000000   0.0000000   0.0000000   0.0000000   0.0000000   0.0000000   0.0000000   0.0000000
 NQMom=    0.0000000   0.0000000   0.0000000   0.0000000   0.0000000   0.0000000   0.0000000   0.0000000   0.0000000   0.0000000
 NMagM=    2.7928460   0.0000000   0.0000000   0.0000000   0.0000000   0.0000000   0.0000000   2.7928460   2.7928460   0.0000000
 AtZNuc=   1.0000000   8.0000000   8.0000000   8.0000000   8.0000000   8.0000000   6.0000000   1.0000000   1.0000000   8.0000000

  Atom        51          52          53          54          55          56          57          58          59          60
 IAtWgt=          32          16          16          12          12          12          12           1          12           1
 AtmWgt=  31.9720718  15.9949146  15.9949146  12.0000000  12.0000000  12.0000000  12.0000000   1.0078250  12.0000000   1.0078250
 NucSpn=           0           0           0           0           0           0           0           1           0           1
 AtZEff=   0.0000000   0.0000000   0.0000000   0.0000000   0.0000000   0.0000000   0.0000000   0.0000000   0.0000000   0.0000000
 NQMom=    0.0000000   0.0000000   0.0000000   0.0000000   0.0000000   0.0000000   0.0000000   0.0000000   0.0000000   0.0000000
 NMagM=    0.0000000   0.0000000   0.0000000   0.0000000   0.0000000   0.0000000   0.0000000   2.7928460   0.0000000   2.7928460
 AtZNuc=  16.0000000   8.0000000   8.0000000   6.0000000   6.0000000   6.0000000   6.0000000   1.0000000   6.0000000   1.0000000

  Atom        61          62          63          64          65          66          67          68          69          70
 IAtWgt=          12           1          12           1           1           1          12           1           1           1
 AtmWgt=  12.0000000   1.0078250  12.0000000   1.0078250   1.0078250   1.0078250  12.0000000   1.0078250   1.0078250   1.0078250
 NucSpn=           0           1           0           1           1           1           0           1           1           1
 AtZEff=   0.0000000   0.0000000   0.0000000   0.0000000   0.0000000   0.0000000   0.0000000   0.0000000   0.0000000   0.0000000
 NQMom=    0.0000000   0.0000000   0.0000000   0.0000000   0.0000000   0.0000000   0.0000000   0.0000000   0.0000000   0.0000000
 NMagM=    0.0000000   2.7928460   0.0000000   2.7928460   2.7928460   2.7928460   0.0000000   2.7928460   2.7928460   2.7928460
 AtZNuc=   6.0000000   1.0000000   6.0000000   1.0000000   1.0000000   1.0000000   6.0000000   1.0000000   1.0000000   1.0000000

  Atom        71          72          73          74          75          76          77          78          79          80
 IAtWgt=          12           1           1           1          12           1           1           1          12           1
 AtmWgt=  12.0000000   1.0078250   1.0078250   1.0078250  12.0000000   1.0078250   1.0078250   1.0078250  12.0000000   1.0078250
 NucSpn=           0           1           1           1           0           1           1           1           0           1
 AtZEff=   0.0000000   0.0000000   0.0000000   0.0000000   0.0000000   0.0000000   0.0000000   0.0000000   0.0000000   0.0000000
 NQMom=    0.0000000   0.0000000   0.0000000   0.0000000   0.0000000   0.0000000   0.0000000   0.0000000   0.0000000   0.0000000
 NMagM=    0.0000000   2.7928460   2.7928460   2.7928460   0.0000000   2.7928460   2.7928460   2.7928460   0.0000000   2.7928460
 AtZNuc=   6.0000000   1.0000000   1.0000000   1.0000000   6.0000000   1.0000000   1.0000000   1.0000000   6.0000000   1.0000000

  Atom        81          82          83          84          85          86          87          88          89          90
 IAtWgt=           1           1          23          16          12           1           1           1          12           1
 AtmWgt=   1.0078250   1.0078250  22.9897697  15.9949146  12.0000000   1.0078250   1.0078250   1.0078250  12.0000000   1.0078250
 NucSpn=           1           1           3           0           0           1           1           1           0           1
 AtZEff=   0.0000000   0.0000000   0.0000000   0.0000000   0.0000000   0.0000000   0.0000000   0.0000000   0.0000000   0.0000000
 NQMom=    0.0000000   0.0000000  10.4000000   0.0000000   0.0000000   0.0000000   0.0000000   0.0000000   0.0000000   0.0000000
 NMagM=    2.7928460   2.7928460   2.2175200   0.0000000   0.0000000   2.7928460   2.7928460   2.7928460   0.0000000   2.7928460
 AtZNuc=   1.0000000   1.0000000  11.0000000   8.0000000   6.0000000   1.0000000   1.0000000   1.0000000   6.0000000   1.0000000

  Atom        91          92          93          94          95          96          97          98          99         100
 IAtWgt=           1           1          12          19          19          19          12          19          19          19
 AtmWgt=   1.0078250   1.0078250  12.0000000  18.9984033  18.9984033  18.9984033  12.0000000  18.9984033  18.9984033  18.9984033
 NucSpn=           1           1           0           1           1           1           0           1           1           1
 AtZEff=   0.0000000   0.0000000   0.0000000   0.0000000   0.0000000   0.0000000   0.0000000   0.0000000   0.0000000   0.0000000
 NQMom=    0.0000000   0.0000000   0.0000000   0.0000000   0.0000000   0.0000000   0.0000000   0.0000000   0.0000000   0.0000000
 NMagM=    2.7928460   2.7928460   0.0000000   2.6288670   2.6288670   2.6288670   0.0000000   2.6288670   2.6288670   2.6288670
 AtZNuc=   1.0000000   1.0000000   6.0000000   9.0000000   9.0000000   9.0000000   6.0000000   9.0000000   9.0000000   9.0000000
 Leave Link  101 at Wed Jun  5 06:34:53 2019, MaxMem=  6442450944 cpu:              17.7 elap:               0.7
 (Enter /home/ekwan/sw/g16/l103.exe)

 GradGradGradGradGradGradGradGradGradGradGradGradGradGradGradGradGradGrad
 Berny optimization.
 Initialization pass.
                           ----------------------------
                           !    Initial Parameters    !
                           ! (Angstroms and Degrees)  !
 --------------------------                            --------------------------
 ! Name  Definition              Value          Derivative Info.                !
 --------------------------------------------------------------------------------
 ! R1    R(1,2)                  1.5387         calculate D2E/DX2 analytically  !
 ! R2    R(1,5)                  1.5379         calculate D2E/DX2 analytically  !
 ! R3    R(1,8)                  1.1032         calculate D2E/DX2 analytically  !
 ! R4    R(1,14)                 1.4351         calculate D2E/DX2 analytically  !
 ! R5    R(2,3)                  1.5413         calculate D2E/DX2 analytically  !
 ! R6    R(2,7)                  1.1031         calculate D2E/DX2 analytically  !
 ! R7    R(2,13)                 1.4285         calculate D2E/DX2 analytically  !
 ! R8    R(3,6)                  1.106          calculate D2E/DX2 analytically  !
 ! R9    R(3,11)                 1.4306         calculate D2E/DX2 analytically  !
 ! R10   R(3,12)                 1.4094         calculate D2E/DX2 analytically  !
 ! R11   R(4,5)                  1.5413         calculate D2E/DX2 analytically  !
 ! R12   R(4,9)                  1.1039         calculate D2E/DX2 analytically  !
 ! R13   R(4,11)                 1.4601         calculate D2E/DX2 analytically  !
 ! R14   R(4,16)                 1.5491         calculate D2E/DX2 analytically  !
 ! R15   R(5,10)                 1.0995         calculate D2E/DX2 analytically  !
 ! R16   R(5,15)                 1.4378         calculate D2E/DX2 analytically  !
 ! R17   R(10,37)                2.0794         calculate D2E/DX2 analytically  !
 ! R18   R(11,83)                2.5045         calculate D2E/DX2 analytically  !
 ! R19   R(12,79)                1.434          calculate D2E/DX2 analytically  !
 ! R20   R(13,20)                1.4314         calculate D2E/DX2 analytically  !
 ! R21   R(14,24)                1.4303         calculate D2E/DX2 analytically  !
 ! R22   R(15,28)                1.4325         calculate D2E/DX2 analytically  !
 ! R23   R(16,17)                1.1184         calculate D2E/DX2 analytically  !
 ! R24   R(16,18)                1.1227         calculate D2E/DX2 analytically  !
 ! R25   R(16,19)                1.3788         calculate D2E/DX2 analytically  !
 ! R26   R(18,91)                2.3862         calculate D2E/DX2 analytically  !
 ! R27   R(19,37)                2.1462         calculate D2E/DX2 analytically  !
 ! R28   R(19,83)                2.3879         calculate D2E/DX2 analytically  !
 ! R29   R(19,91)                2.3656         calculate D2E/DX2 analytically  !
 ! R30   R(20,21)                1.1062         calculate D2E/DX2 analytically  !
 ! R31   R(20,22)                1.1001         calculate D2E/DX2 analytically  !
 ! R32   R(20,23)                1.0988         calculate D2E/DX2 analytically  !
 ! R33   R(24,25)                1.1011         calculate D2E/DX2 analytically  !
 ! R34   R(24,26)                1.1067         calculate D2E/DX2 analytically  !
 ! R35   R(24,27)                1.0966         calculate D2E/DX2 analytically  !
 ! R36   R(28,29)                1.1024         calculate D2E/DX2 analytically  !
 ! R37   R(28,30)                1.1009         calculate D2E/DX2 analytically  !
 ! R38   R(28,31)                1.0993         calculate D2E/DX2 analytically  !
 ! R39   R(32,33)                1.5417         calculate D2E/DX2 analytically  !
 ! R40   R(32,36)                1.5409         calculate D2E/DX2 analytically  !
 ! R41   R(32,39)                1.1023         calculate D2E/DX2 analytically  !
 ! R42   R(32,45)                1.4262         calculate D2E/DX2 analytically  !
 ! R43   R(33,34)                1.5054         calculate D2E/DX2 analytically  !
 ! R44   R(33,38)                1.1092         calculate D2E/DX2 analytically  !
 ! R45   R(33,44)                1.4214         calculate D2E/DX2 analytically  !
 ! R46   R(34,37)                1.078          calculate D2E/DX2 analytically  !
 ! R47   R(34,42)                1.3025         calculate D2E/DX2 analytically  !
 ! R48   R(34,53)                2.1871         calculate D2E/DX2 analytically  !
 ! R49   R(35,36)                1.5367         calculate D2E/DX2 analytically  !
 ! R50   R(35,40)                1.0993         calculate D2E/DX2 analytically  !
 ! R51   R(35,42)                1.4837         calculate D2E/DX2 analytically  !
 ! R52   R(35,47)                1.5187         calculate D2E/DX2 analytically  !
 ! R53   R(36,41)                1.1007         calculate D2E/DX2 analytically  !
 ! R54   R(36,46)                1.4269         calculate D2E/DX2 analytically  !
 ! R55   R(37,52)                2.3282         calculate D2E/DX2 analytically  !
 ! R56   R(37,83)                2.4772         calculate D2E/DX2 analytically  !
 ! R57   R(42,60)                2.3388         calculate D2E/DX2 analytically  !
 ! R58   R(43,51)                1.4847         calculate D2E/DX2 analytically  !
 ! R59   R(44,63)                1.4426         calculate D2E/DX2 analytically  !
 ! R60   R(45,67)                1.4349         calculate D2E/DX2 analytically  !
 ! R61   R(46,71)                1.4367         calculate D2E/DX2 analytically  !
 ! R62   R(47,48)                1.1062         calculate D2E/DX2 analytically  !
 ! R63   R(47,49)                1.1053         calculate D2E/DX2 analytically  !
 ! R64   R(47,50)                1.4214         calculate D2E/DX2 analytically  !
 ! R65   R(50,75)                1.4294         calculate D2E/DX2 analytically  !
 ! R66   R(51,52)                1.5061         calculate D2E/DX2 analytically  !
 ! R67   R(51,53)                1.5257         calculate D2E/DX2 analytically  !
 ! R68   R(51,54)                1.8166         calculate D2E/DX2 analytically  !
 ! R69   R(52,83)                2.4119         calculate D2E/DX2 analytically  !
 ! R70   R(54,55)                1.4002         calculate D2E/DX2 analytically  !
 ! R71   R(54,56)                1.3991         calculate D2E/DX2 analytically  !
 ! R72   R(55,57)                1.4026         calculate D2E/DX2 analytically  !
 ! R73   R(55,58)                1.0886         calculate D2E/DX2 analytically  !
 ! R74   R(56,59)                1.4013         calculate D2E/DX2 analytically  !
 ! R75   R(56,60)                1.0867         calculate D2E/DX2 analytically  !
 ! R76   R(57,61)                1.4029         calculate D2E/DX2 analytically  !
 ! R77   R(57,93)                1.5127         calculate D2E/DX2 analytically  !
 ! R78   R(59,61)                1.4013         calculate D2E/DX2 analytically  !
 ! R79   R(59,97)                1.5117         calculate D2E/DX2 analytically  !
 ! R80   R(61,62)                1.0879         calculate D2E/DX2 analytically  !
 ! R81   R(63,64)                1.1014         calculate D2E/DX2 analytically  !
 ! R82   R(63,65)                1.0985         calculate D2E/DX2 analytically  !
 ! R83   R(63,66)                1.0973         calculate D2E/DX2 analytically  !
 ! R84   R(67,68)                1.1003         calculate D2E/DX2 analytically  !
 ! R85   R(67,69)                1.1056         calculate D2E/DX2 analytically  !
 ! R86   R(67,70)                1.0983         calculate D2E/DX2 analytically  !
 ! R87   R(71,72)                1.1033         calculate D2E/DX2 analytically  !
 ! R88   R(71,73)                1.1031         calculate D2E/DX2 analytically  !
 ! R89   R(71,74)                1.0978         calculate D2E/DX2 analytically  !
 ! R90   R(75,76)                1.0974         calculate D2E/DX2 analytically  !
 ! R91   R(75,77)                1.1055         calculate D2E/DX2 analytically  !
 ! R92   R(75,78)                1.106          calculate D2E/DX2 analytically  !
 ! R93   R(79,80)                1.0975         calculate D2E/DX2 analytically  !
 ! R94   R(79,81)                1.1019         calculate D2E/DX2 analytically  !
 ! R95   R(79,82)                1.106          calculate D2E/DX2 analytically  !
 ! R96   R(83,84)                2.4156         calculate D2E/DX2 analytically  !
 ! R97   R(84,85)                1.4277         calculate D2E/DX2 analytically  !
 ! R98   R(84,89)                1.4355         calculate D2E/DX2 analytically  !
 ! R99   R(85,86)                1.1058         calculate D2E/DX2 analytically  !
 ! R100  R(85,87)                1.0983         calculate D2E/DX2 analytically  !
 ! R101  R(85,88)                1.1056         calculate D2E/DX2 analytically  !
 ! R102  R(89,90)                1.1052         calculate D2E/DX2 analytically  !
 ! R103  R(89,91)                1.0988         calculate D2E/DX2 analytically  !
 ! R104  R(89,92)                1.1055         calculate D2E/DX2 analytically  !
 ! R105  R(93,94)                1.3686         calculate D2E/DX2 analytically  !
 ! R106  R(93,95)                1.3609         calculate D2E/DX2 analytically  !
 ! R107  R(93,96)                1.36           calculate D2E/DX2 analytically  !
 ! R108  R(97,98)                1.3657         calculate D2E/DX2 analytically  !
 ! R109  R(97,99)                1.3648         calculate D2E/DX2 analytically  !
 ! R110  R(97,100)               1.3628         calculate D2E/DX2 analytically  !
 ! A1    A(2,1,5)              109.7115         calculate D2E/DX2 analytically  !
 ! A2    A(2,1,8)              108.4881         calculate D2E/DX2 analytically  !
 ! A3    A(2,1,14)             108.0868         calculate D2E/DX2 analytically  !
 ! A4    A(5,1,8)              109.4687         calculate D2E/DX2 analytically  !
 ! A5    A(5,1,14)             110.668          calculate D2E/DX2 analytically  !
 ! A6    A(8,1,14)             110.3759         calculate D2E/DX2 analytically  !
 ! A7    A(1,2,3)              109.9105         calculate D2E/DX2 analytically  !
 ! A8    A(1,2,7)              108.7014         calculate D2E/DX2 analytically  !
 ! A9    A(1,2,13)             112.1757         calculate D2E/DX2 analytically  !
 ! A10   A(3,2,7)              106.3576         calculate D2E/DX2 analytically  !
 ! A11   A(3,2,13)             108.6714         calculate D2E/DX2 analytically  !
 ! A12   A(7,2,13)             110.8591         calculate D2E/DX2 analytically  !
 ! A13   A(2,3,6)              110.3465         calculate D2E/DX2 analytically  !
 ! A14   A(2,3,11)             110.1227         calculate D2E/DX2 analytically  !
 ! A15   A(2,3,12)             108.6658         calculate D2E/DX2 analytically  !
 ! A16   A(6,3,11)             104.6432         calculate D2E/DX2 analytically  !
 ! A17   A(6,3,12)             110.6016         calculate D2E/DX2 analytically  !
 ! A18   A(11,3,12)            112.4275         calculate D2E/DX2 analytically  !
 ! A19   A(5,4,9)              108.0567         calculate D2E/DX2 analytically  !
 ! A20   A(5,4,11)             110.2242         calculate D2E/DX2 analytically  !
 ! A21   A(5,4,16)             113.3657         calculate D2E/DX2 analytically  !
 ! A22   A(9,4,11)             108.7036         calculate D2E/DX2 analytically  !
 ! A23   A(9,4,16)             109.5657         calculate D2E/DX2 analytically  !
 ! A24   A(11,4,16)            106.8437         calculate D2E/DX2 analytically  !
 ! A25   A(1,5,4)              112.2584         calculate D2E/DX2 analytically  !
 ! A26   A(1,5,10)             107.1939         calculate D2E/DX2 analytically  !
 ! A27   A(1,5,15)             109.4958         calculate D2E/DX2 analytically  !
 ! A28   A(4,5,10)             109.0776         calculate D2E/DX2 analytically  !
 ! A29   A(4,5,15)             108.4832         calculate D2E/DX2 analytically  !
 ! A30   A(10,5,15)            110.3299         calculate D2E/DX2 analytically  !
 ! A31   A(5,10,37)            145.4405         calculate D2E/DX2 analytically  !
 ! A32   A(3,11,4)             114.0684         calculate D2E/DX2 analytically  !
 ! A33   A(3,11,83)            124.758          calculate D2E/DX2 analytically  !
 ! A34   A(4,11,83)            111.5888         calculate D2E/DX2 analytically  !
 ! A35   A(3,12,79)            112.8543         calculate D2E/DX2 analytically  !
 ! A36   A(2,13,20)            113.318          calculate D2E/DX2 analytically  !
 ! A37   A(1,14,24)            113.8021         calculate D2E/DX2 analytically  !
 ! A38   A(5,15,28)            113.27           calculate D2E/DX2 analytically  !
 ! A39   A(4,16,17)            104.8191         calculate D2E/DX2 analytically  !
 ! A40   A(4,16,18)            104.9989         calculate D2E/DX2 analytically  !
 ! A41   A(4,16,19)            114.9724         calculate D2E/DX2 analytically  !
 ! A42   A(17,16,18)           105.1232         calculate D2E/DX2 analytically  !
 ! A43   A(17,16,19)           114.1741         calculate D2E/DX2 analytically  !
 ! A44   A(18,16,19)           111.8094         calculate D2E/DX2 analytically  !
 ! A45   A(16,18,91)           101.3004         calculate D2E/DX2 analytically  !
 ! A46   A(16,19,37)           124.3784         calculate D2E/DX2 analytically  !
 ! A47   A(16,19,83)           109.865          calculate D2E/DX2 analytically  !
 ! A48   A(16,19,91)            94.4615         calculate D2E/DX2 analytically  !
 ! A49   A(37,19,91)           132.2195         calculate D2E/DX2 analytically  !
 ! A50   A(83,19,91)            75.8486         calculate D2E/DX2 analytically  !
 ! A51   A(13,20,21)           111.5175         calculate D2E/DX2 analytically  !
 ! A52   A(13,20,22)           111.5387         calculate D2E/DX2 analytically  !
 ! A53   A(13,20,23)           106.6572         calculate D2E/DX2 analytically  !
 ! A54   A(21,20,22)           108.618          calculate D2E/DX2 analytically  !
 ! A55   A(21,20,23)           108.7564         calculate D2E/DX2 analytically  !
 ! A56   A(22,20,23)           109.6994         calculate D2E/DX2 analytically  !
 ! A57   A(14,24,25)           111.4331         calculate D2E/DX2 analytically  !
 ! A58   A(14,24,26)           111.1304         calculate D2E/DX2 analytically  !
 ! A59   A(14,24,27)           106.4471         calculate D2E/DX2 analytically  !
 ! A60   A(25,24,26)           108.9074         calculate D2E/DX2 analytically  !
 ! A61   A(25,24,27)           109.7556         calculate D2E/DX2 analytically  !
 ! A62   A(26,24,27)           109.1196         calculate D2E/DX2 analytically  !
 ! A63   A(15,28,29)           111.0687         calculate D2E/DX2 analytically  !
 ! A64   A(15,28,30)           111.8585         calculate D2E/DX2 analytically  !
 ! A65   A(15,28,31)           106.6834         calculate D2E/DX2 analytically  !
 ! A66   A(29,28,30)           108.4854         calculate D2E/DX2 analytically  !
 ! A67   A(29,28,31)           109.2677         calculate D2E/DX2 analytically  !
 ! A68   A(30,28,31)           109.4358         calculate D2E/DX2 analytically  !
 ! A69   A(33,32,36)           108.5977         calculate D2E/DX2 analytically  !
 ! A70   A(33,32,39)           108.8999         calculate D2E/DX2 analytically  !
 ! A71   A(33,32,45)           108.1182         calculate D2E/DX2 analytically  !
 ! A72   A(36,32,39)           110.0825         calculate D2E/DX2 analytically  !
 ! A73   A(36,32,45)           109.5355         calculate D2E/DX2 analytically  !
 ! A74   A(39,32,45)           111.5364         calculate D2E/DX2 analytically  !
 ! A75   A(32,33,34)           112.1494         calculate D2E/DX2 analytically  !
 ! A76   A(32,33,38)           108.6323         calculate D2E/DX2 analytically  !
 ! A77   A(32,33,44)           115.2919         calculate D2E/DX2 analytically  !
 ! A78   A(34,33,38)           102.7843         calculate D2E/DX2 analytically  !
 ! A79   A(34,33,44)           108.0973         calculate D2E/DX2 analytically  !
 ! A80   A(38,33,44)           109.125          calculate D2E/DX2 analytically  !
 ! A81   A(33,34,37)           120.2551         calculate D2E/DX2 analytically  !
 ! A82   A(33,34,42)           122.9587         calculate D2E/DX2 analytically  !
 ! A83   A(33,34,53)            97.0984         calculate D2E/DX2 analytically  !
 ! A84   A(37,34,42)           114.2512         calculate D2E/DX2 analytically  !
 ! A85   A(37,34,53)            89.7191         calculate D2E/DX2 analytically  !
 ! A86   A(42,34,53)            98.7455         calculate D2E/DX2 analytically  !
 ! A87   A(36,35,40)           109.5029         calculate D2E/DX2 analytically  !
 ! A88   A(36,35,42)           111.1316         calculate D2E/DX2 analytically  !
 ! A89   A(36,35,47)           114.9156         calculate D2E/DX2 analytically  !
 ! A90   A(40,35,42)           104.8129         calculate D2E/DX2 analytically  !
 ! A91   A(40,35,47)           109.5749         calculate D2E/DX2 analytically  !
 ! A92   A(42,35,47)           106.3906         calculate D2E/DX2 analytically  !
 ! A93   A(32,36,35)           111.052          calculate D2E/DX2 analytically  !
 ! A94   A(32,36,41)           108.2693         calculate D2E/DX2 analytically  !
 ! A95   A(32,36,46)           110.1345         calculate D2E/DX2 analytically  !
 ! A96   A(35,36,41)           109.1091         calculate D2E/DX2 analytically  !
 ! A97   A(35,36,46)           107.0384         calculate D2E/DX2 analytically  !
 ! A98   A(41,36,46)           111.2497         calculate D2E/DX2 analytically  !
 ! A99   A(10,37,19)            80.7902         calculate D2E/DX2 analytically  !
 ! A100  A(10,37,34)           121.7181         calculate D2E/DX2 analytically  !
 ! A101  A(10,37,52)            98.5898         calculate D2E/DX2 analytically  !
 ! A102  A(10,37,83)           102.7195         calculate D2E/DX2 analytically  !
 ! A103  A(19,37,34)           100.8008         calculate D2E/DX2 analytically  !
 ! A104  A(19,37,52)           120.0653         calculate D2E/DX2 analytically  !
 ! A105  A(34,37,52)           126.8076         calculate D2E/DX2 analytically  !
 ! A106  A(34,37,83)           129.5727         calculate D2E/DX2 analytically  !
 ! A107  A(34,42,35)           120.04           calculate D2E/DX2 analytically  !
 ! A108  A(34,42,60)           101.4592         calculate D2E/DX2 analytically  !
 ! A109  A(35,42,60)           104.4156         calculate D2E/DX2 analytically  !
 ! A110  A(33,44,63)           114.4434         calculate D2E/DX2 analytically  !
 ! A111  A(32,45,67)           113.7717         calculate D2E/DX2 analytically  !
 ! A112  A(36,46,71)           113.4135         calculate D2E/DX2 analytically  !
 ! A113  A(35,47,48)           107.7348         calculate D2E/DX2 analytically  !
 ! A114  A(35,47,49)           109.1442         calculate D2E/DX2 analytically  !
 ! A115  A(35,47,50)           109.0216         calculate D2E/DX2 analytically  !
 ! A116  A(48,47,49)           108.1465         calculate D2E/DX2 analytically  !
 ! A117  A(48,47,50)           111.4699         calculate D2E/DX2 analytically  !
 ! A118  A(49,47,50)           111.2357         calculate D2E/DX2 analytically  !
 ! A119  A(47,50,75)           111.8274         calculate D2E/DX2 analytically  !
 ! A120  A(43,51,52)           114.8561         calculate D2E/DX2 analytically  !
 ! A121  A(43,51,53)           113.2601         calculate D2E/DX2 analytically  !
 ! A122  A(43,51,54)           106.7062         calculate D2E/DX2 analytically  !
 ! A123  A(52,51,53)           112.4963         calculate D2E/DX2 analytically  !
 ! A124  A(52,51,54)           104.2934         calculate D2E/DX2 analytically  !
 ! A125  A(53,51,54)           103.9893         calculate D2E/DX2 analytically  !
 ! A126  A(37,52,51)            92.2699         calculate D2E/DX2 analytically  !
 ! A127  A(51,52,83)           136.8174         calculate D2E/DX2 analytically  !
 ! A128  A(34,53,51)           114.1057         calculate D2E/DX2 analytically  !
 ! A129  A(51,54,55)           119.3924         calculate D2E/DX2 analytically  !
 ! A130  A(51,54,56)           119.4453         calculate D2E/DX2 analytically  !
 ! A131  A(55,54,56)           121.1257         calculate D2E/DX2 analytically  !
 ! A132  A(54,55,57)           118.9817         calculate D2E/DX2 analytically  !
 ! A133  A(54,55,58)           120.0818         calculate D2E/DX2 analytically  !
 ! A134  A(57,55,58)           120.9327         calculate D2E/DX2 analytically  !
 ! A135  A(54,56,59)           119.141          calculate D2E/DX2 analytically  !
 ! A136  A(54,56,60)           120.302          calculate D2E/DX2 analytically  !
 ! A137  A(59,56,60)           120.557          calculate D2E/DX2 analytically  !
 ! A138  A(55,57,61)           120.7561         calculate D2E/DX2 analytically  !
 ! A139  A(55,57,93)           119.5283         calculate D2E/DX2 analytically  !
 ! A140  A(61,57,93)           119.6365         calculate D2E/DX2 analytically  !
 ! A141  A(56,59,61)           120.7198         calculate D2E/DX2 analytically  !
 ! A142  A(56,59,97)           119.2544         calculate D2E/DX2 analytically  !
 ! A143  A(61,59,97)           119.8926         calculate D2E/DX2 analytically  !
 ! A144  A(42,60,56)           161.704          calculate D2E/DX2 analytically  !
 ! A145  A(57,61,59)           119.2694         calculate D2E/DX2 analytically  !
 ! A146  A(57,61,62)           120.3054         calculate D2E/DX2 analytically  !
 ! A147  A(59,61,62)           120.425          calculate D2E/DX2 analytically  !
 ! A148  A(44,63,64)           111.031          calculate D2E/DX2 analytically  !
 ! A149  A(44,63,65)           111.0493         calculate D2E/DX2 analytically  !
 ! A150  A(44,63,66)           105.9984         calculate D2E/DX2 analytically  !
 ! A151  A(64,63,65)           109.1885         calculate D2E/DX2 analytically  !
 ! A152  A(64,63,66)           109.0575         calculate D2E/DX2 analytically  !
 ! A153  A(65,63,66)           110.4683         calculate D2E/DX2 analytically  !
 ! A154  A(45,67,68)           111.3069         calculate D2E/DX2 analytically  !
 ! A155  A(45,67,69)           111.0056         calculate D2E/DX2 analytically  !
 ! A156  A(45,67,70)           106.2623         calculate D2E/DX2 analytically  !
 ! A157  A(68,67,69)           109.3083         calculate D2E/DX2 analytically  !
 ! A158  A(68,67,70)           109.7937         calculate D2E/DX2 analytically  !
 ! A159  A(69,67,70)           109.1022         calculate D2E/DX2 analytically  !
 ! A160  A(46,71,72)           110.8429         calculate D2E/DX2 analytically  !
 ! A161  A(46,71,73)           111.2009         calculate D2E/DX2 analytically  !
 ! A162  A(46,71,74)           106.3548         calculate D2E/DX2 analytically  !
 ! A163  A(72,71,73)           109.1949         calculate D2E/DX2 analytically  !
 ! A164  A(72,71,74)           109.5136         calculate D2E/DX2 analytically  !
 ! A165  A(73,71,74)           109.6884         calculate D2E/DX2 analytically  !
 ! A166  A(50,75,76)           106.735          calculate D2E/DX2 analytically  !
 ! A167  A(50,75,77)           111.1966         calculate D2E/DX2 analytically  !
 ! A168  A(50,75,78)           111.3404         calculate D2E/DX2 analytically  !
 ! A169  A(76,75,77)           109.3079         calculate D2E/DX2 analytically  !
 ! A170  A(76,75,78)           109.4294         calculate D2E/DX2 analytically  !
 ! A171  A(77,75,78)           108.7897         calculate D2E/DX2 analytically  !
 ! A172  A(12,79,80)           106.5653         calculate D2E/DX2 analytically  !
 ! A173  A(12,79,81)           111.3186         calculate D2E/DX2 analytically  !
 ! A174  A(12,79,82)           110.9515         calculate D2E/DX2 analytically  !
 ! A175  A(80,79,81)           109.6834         calculate D2E/DX2 analytically  !
 ! A176  A(80,79,82)           109.3825         calculate D2E/DX2 analytically  !
 ! A177  A(81,79,82)           108.9021         calculate D2E/DX2 analytically  !
 ! A178  A(11,83,19)            71.5026         calculate D2E/DX2 analytically  !
 ! A179  A(11,83,37)            85.0567         calculate D2E/DX2 analytically  !
 ! A180  A(11,83,52)            90.9446         calculate D2E/DX2 analytically  !
 ! A181  A(11,83,84)           108.8046         calculate D2E/DX2 analytically  !
 ! A182  A(19,83,52)           107.7642         calculate D2E/DX2 analytically  !
 ! A183  A(19,83,84)            95.1873         calculate D2E/DX2 analytically  !
 ! A184  A(37,83,84)           139.5863         calculate D2E/DX2 analytically  !
 ! A185  A(52,83,84)           153.6989         calculate D2E/DX2 analytically  !
 ! A186  A(83,84,85)           134.6239         calculate D2E/DX2 analytically  !
 ! A187  A(83,84,89)           112.7744         calculate D2E/DX2 analytically  !
 ! A188  A(85,84,89)           112.5712         calculate D2E/DX2 analytically  !
 ! A189  A(84,85,86)           111.0111         calculate D2E/DX2 analytically  !
 ! A190  A(84,85,87)           107.1487         calculate D2E/DX2 analytically  !
 ! A191  A(84,85,88)           111.184          calculate D2E/DX2 analytically  !
 ! A192  A(86,85,87)           109.3698         calculate D2E/DX2 analytically  !
 ! A193  A(86,85,88)           108.7179         calculate D2E/DX2 analytically  !
 ! A194  A(87,85,88)           109.3773         calculate D2E/DX2 analytically  !
 ! A195  A(84,89,90)           110.7284         calculate D2E/DX2 analytically  !
 ! A196  A(84,89,91)           106.0564         calculate D2E/DX2 analytically  !
 ! A197  A(84,89,92)           110.5834         calculate D2E/DX2 analytically  !
 ! A198  A(90,89,91)           110.4619         calculate D2E/DX2 analytically  !
 ! A199  A(90,89,92)           108.8865         calculate D2E/DX2 analytically  !
 ! A200  A(91,89,92)           110.1082         calculate D2E/DX2 analytically  !
 ! A201  A(18,91,19)            51.8232         calculate D2E/DX2 analytically  !
 ! A202  A(18,91,89)           122.9262         calculate D2E/DX2 analytically  !
 ! A203  A(19,91,89)           149.2677         calculate D2E/DX2 analytically  !
 ! A204  A(57,93,94)           111.12           calculate D2E/DX2 analytically  !
 ! A205  A(57,93,95)           112.0014         calculate D2E/DX2 analytically  !
 ! A206  A(57,93,96)           111.9179         calculate D2E/DX2 analytically  !
 ! A207  A(94,93,95)           106.8556         calculate D2E/DX2 analytically  !
 ! A208  A(94,93,96)           106.8967         calculate D2E/DX2 analytically  !
 ! A209  A(95,93,96)           107.7626         calculate D2E/DX2 analytically  !
 ! A210  A(59,97,98)           112.2051         calculate D2E/DX2 analytically  !
 ! A211  A(59,97,99)           111.2298         calculate D2E/DX2 analytically  !
 ! A212  A(59,97,100)          112.1315         calculate D2E/DX2 analytically  !
 ! A213  A(98,97,99)           106.5589         calculate D2E/DX2 analytically  !
 ! A214  A(98,97,100)          107.421          calculate D2E/DX2 analytically  !
 ! A215  A(99,97,100)          106.9667         calculate D2E/DX2 analytically  !
 ! D1    D(5,1,2,3)            -54.0645         calculate D2E/DX2 analytically  !
 ! D2    D(5,1,2,7)             61.9655         calculate D2E/DX2 analytically  !
 ! D3    D(5,1,2,13)          -175.0835         calculate D2E/DX2 analytically  !
 ! D4    D(8,1,2,3)             65.48           calculate D2E/DX2 analytically  !
 ! D5    D(8,1,2,7)           -178.49           calculate D2E/DX2 analytically  !
 ! D6    D(8,1,2,13)           -55.539          calculate D2E/DX2 analytically  !
 ! D7    D(14,1,2,3)          -174.8232         calculate D2E/DX2 analytically  !
 ! D8    D(14,1,2,7)           -58.7931         calculate D2E/DX2 analytically  !
 ! D9    D(14,1,2,13)           64.1578         calculate D2E/DX2 analytically  !
 ! D10   D(2,1,5,4)             51.7197         calculate D2E/DX2 analytically  !
 ! D11   D(2,1,5,10)           -68.038          calculate D2E/DX2 analytically  !
 ! D12   D(2,1,5,15)           172.2694         calculate D2E/DX2 analytically  !
 ! D13   D(8,1,5,4)            -67.2224         calculate D2E/DX2 analytically  !
 ! D14   D(8,1,5,10)           173.0199         calculate D2E/DX2 analytically  !
 ! D15   D(8,1,5,15)            53.3273         calculate D2E/DX2 analytically  !
 ! D16   D(14,1,5,4)           170.904          calculate D2E/DX2 analytically  !
 ! D17   D(14,1,5,10)           51.1463         calculate D2E/DX2 analytically  !
 ! D18   D(14,1,5,15)          -68.5463         calculate D2E/DX2 analytically  !
 ! D19   D(2,1,14,24)         -143.5887         calculate D2E/DX2 analytically  !
 ! D20   D(5,1,14,24)           96.2507         calculate D2E/DX2 analytically  !
 ! D21   D(8,1,14,24)          -25.0886         calculate D2E/DX2 analytically  !
 ! D22   D(1,2,3,6)            173.5511         calculate D2E/DX2 analytically  !
 ! D23   D(1,2,3,11)            58.5256         calculate D2E/DX2 analytically  !
 ! D24   D(1,2,3,12)           -65.0233         calculate D2E/DX2 analytically  !
 ! D25   D(7,2,3,6)             56.0531         calculate D2E/DX2 analytically  !
 ! D26   D(7,2,3,11)           -58.9724         calculate D2E/DX2 analytically  !
 ! D27   D(7,2,3,12)           177.4787         calculate D2E/DX2 analytically  !
 ! D28   D(13,2,3,6)           -63.3462         calculate D2E/DX2 analytically  !
 ! D29   D(13,2,3,11)         -178.3716         calculate D2E/DX2 analytically  !
 ! D30   D(13,2,3,12)           58.0794         calculate D2E/DX2 analytically  !
 ! D31   D(1,2,13,20)          -97.3626         calculate D2E/DX2 analytically  !
 ! D32   D(3,2,13,20)          140.9071         calculate D2E/DX2 analytically  !
 ! D33   D(7,2,13,20)           24.3626         calculate D2E/DX2 analytically  !
 ! D34   D(2,3,11,4)           -61.1671         calculate D2E/DX2 analytically  !
 ! D35   D(2,3,11,83)           82.006          calculate D2E/DX2 analytically  !
 ! D36   D(6,3,11,4)          -179.7523         calculate D2E/DX2 analytically  !
 ! D37   D(6,3,11,83)          -36.5792         calculate D2E/DX2 analytically  !
 ! D38   D(12,3,11,4)           60.163          calculate D2E/DX2 analytically  !
 ! D39   D(12,3,11,83)        -156.6639         calculate D2E/DX2 analytically  !
 ! D40   D(2,3,12,79)         -174.7653         calculate D2E/DX2 analytically  !
 ! D41   D(6,3,12,79)          -53.4961         calculate D2E/DX2 analytically  !
 ! D42   D(11,3,12,79)          63.0756         calculate D2E/DX2 analytically  !
 ! D43   D(9,4,5,1)             66.7015         calculate D2E/DX2 analytically  !
 ! D44   D(9,4,5,10)          -174.6447         calculate D2E/DX2 analytically  !
 ! D45   D(9,4,5,15)           -54.4318         calculate D2E/DX2 analytically  !
 ! D46   D(11,4,5,1)           -51.9546         calculate D2E/DX2 analytically  !
 ! D47   D(11,4,5,10)           66.6993         calculate D2E/DX2 analytically  !
 ! D48   D(11,4,5,15)         -173.0879         calculate D2E/DX2 analytically  !
 ! D49   D(16,4,5,1)          -171.6606         calculate D2E/DX2 analytically  !
 ! D50   D(16,4,5,10)          -53.0068         calculate D2E/DX2 analytically  !
 ! D51   D(16,4,5,15)           67.2061         calculate D2E/DX2 analytically  !
 ! D52   D(5,4,11,3)            57.4253         calculate D2E/DX2 analytically  !
 ! D53   D(5,4,11,83)          -90.5964         calculate D2E/DX2 analytically  !
 ! D54   D(9,4,11,3)           -60.8341         calculate D2E/DX2 analytically  !
 ! D55   D(9,4,11,83)          151.1442         calculate D2E/DX2 analytically  !
 ! D56   D(16,4,11,3)         -178.9921         calculate D2E/DX2 analytically  !
 ! D57   D(16,4,11,83)          32.9862         calculate D2E/DX2 analytically  !
 ! D58   D(5,4,16,17)          -62.4032         calculate D2E/DX2 analytically  !
 ! D59   D(5,4,16,18)         -172.9074         calculate D2E/DX2 analytically  !
 ! D60   D(5,4,16,19)           63.7894         calculate D2E/DX2 analytically  !
 ! D61   D(9,4,16,17)           58.3864         calculate D2E/DX2 analytically  !
 ! D62   D(9,4,16,18)          -52.1178         calculate D2E/DX2 analytically  !
 ! D63   D(9,4,16,19)         -175.421          calculate D2E/DX2 analytically  !
 ! D64   D(11,4,16,17)         175.9789         calculate D2E/DX2 analytically  !
 ! D65   D(11,4,16,18)          65.4746         calculate D2E/DX2 analytically  !
 ! D66   D(11,4,16,19)         -57.8286         calculate D2E/DX2 analytically  !
 ! D67   D(1,5,10,37)          123.2338         calculate D2E/DX2 analytically  !
 ! D68   D(4,5,10,37)            1.4602         calculate D2E/DX2 analytically  !
 ! D69   D(15,5,10,37)        -117.6093         calculate D2E/DX2 analytically  !
 ! D70   D(1,5,15,28)          126.413          calculate D2E/DX2 analytically  !
 ! D71   D(4,5,15,28)         -110.7658         calculate D2E/DX2 analytically  !
 ! D72   D(10,5,15,28)           8.6647         calculate D2E/DX2 analytically  !
 ! D73   D(5,10,37,19)          28.1266         calculate D2E/DX2 analytically  !
 ! D74   D(5,10,37,34)         125.1898         calculate D2E/DX2 analytically  !
 ! D75   D(5,10,37,52)         -91.1348         calculate D2E/DX2 analytically  !
 ! D76   D(5,10,37,83)         -29.939          calculate D2E/DX2 analytically  !
 ! D77   D(3,11,83,19)        -152.2735         calculate D2E/DX2 analytically  !
 ! D78   D(3,11,83,37)        -100.4512         calculate D2E/DX2 analytically  !
 ! D79   D(3,11,83,52)         -43.8372         calculate D2E/DX2 analytically  !
 ! D80   D(3,11,83,84)         118.4832         calculate D2E/DX2 analytically  !
 ! D81   D(4,11,83,19)          -8.3295         calculate D2E/DX2 analytically  !
 ! D82   D(4,11,83,37)          43.4928         calculate D2E/DX2 analytically  !
 ! D83   D(4,11,83,52)         100.1068         calculate D2E/DX2 analytically  !
 ! D84   D(4,11,83,84)         -97.5728         calculate D2E/DX2 analytically  !
 ! D85   D(3,12,79,80)         176.464          calculate D2E/DX2 analytically  !
 ! D86   D(3,12,79,81)         -63.9781         calculate D2E/DX2 analytically  !
 ! D87   D(3,12,79,82)          57.4746         calculate D2E/DX2 analytically  !
 ! D88   D(2,13,20,21)         -62.2766         calculate D2E/DX2 analytically  !
 ! D89   D(2,13,20,22)          59.3613         calculate D2E/DX2 analytically  !
 ! D90   D(2,13,20,23)         179.1204         calculate D2E/DX2 analytically  !
 ! D91   D(1,14,24,25)         -60.7485         calculate D2E/DX2 analytically  !
 ! D92   D(1,14,24,26)          60.9145         calculate D2E/DX2 analytically  !
 ! D93   D(1,14,24,27)         179.6146         calculate D2E/DX2 analytically  !
 ! D94   D(5,15,28,29)         -65.4512         calculate D2E/DX2 analytically  !
 ! D95   D(5,15,28,30)          55.9241         calculate D2E/DX2 analytically  !
 ! D96   D(5,15,28,31)         175.5614         calculate D2E/DX2 analytically  !
 ! D97   D(4,16,18,91)        -132.8493         calculate D2E/DX2 analytically  !
 ! D98   D(17,16,18,91)        116.8652         calculate D2E/DX2 analytically  !
 ! D99   D(19,16,18,91)         -7.5406         calculate D2E/DX2 analytically  !
 ! D100  D(4,16,19,37)         -23.3881         calculate D2E/DX2 analytically  !
 ! D101  D(4,16,19,83)          50.5235         calculate D2E/DX2 analytically  !
 ! D102  D(4,16,19,91)         127.0761         calculate D2E/DX2 analytically  !
 ! D103  D(17,16,19,37)         97.8314         calculate D2E/DX2 analytically  !
 ! D104  D(17,16,19,83)        171.7429         calculate D2E/DX2 analytically  !
 ! D105  D(17,16,19,91)       -111.7045         calculate D2E/DX2 analytically  !
 ! D106  D(18,16,19,37)       -142.9829         calculate D2E/DX2 analytically  !
 ! D107  D(18,16,19,83)        -69.0713         calculate D2E/DX2 analytically  !
 ! D108  D(18,16,19,91)          7.4813         calculate D2E/DX2 analytically  !
 ! D109  D(16,18,91,19)          5.1831         calculate D2E/DX2 analytically  !
 ! D110  D(16,18,91,89)        147.6992         calculate D2E/DX2 analytically  !
 ! D111  D(16,19,37,10)        -11.5251         calculate D2E/DX2 analytically  !
 ! D112  D(16,19,37,34)       -132.2742         calculate D2E/DX2 analytically  !
 ! D113  D(16,19,37,52)         83.1195         calculate D2E/DX2 analytically  !
 ! D114  D(91,19,37,10)       -149.9472         calculate D2E/DX2 analytically  !
 ! D115  D(91,19,37,34)         89.3037         calculate D2E/DX2 analytically  !
 ! D116  D(91,19,37,52)        -55.3026         calculate D2E/DX2 analytically  !
 ! D117  D(16,19,83,11)        -21.4984         calculate D2E/DX2 analytically  !
 ! D118  D(16,19,83,52)       -106.3966         calculate D2E/DX2 analytically  !
 ! D119  D(16,19,83,84)         86.6168         calculate D2E/DX2 analytically  !
 ! D120  D(91,19,83,11)       -111.1662         calculate D2E/DX2 analytically  !
 ! D121  D(91,19,83,52)        163.9356         calculate D2E/DX2 analytically  !
 ! D122  D(91,19,83,84)         -3.051          calculate D2E/DX2 analytically  !
 ! D123  D(16,19,91,18)         -4.1491         calculate D2E/DX2 analytically  !
 ! D124  D(16,19,91,89)        -95.8995         calculate D2E/DX2 analytically  !
 ! D125  D(37,19,91,18)        142.5263         calculate D2E/DX2 analytically  !
 ! D126  D(37,19,91,89)         50.7758         calculate D2E/DX2 analytically  !
 ! D127  D(83,19,91,18)        105.2309         calculate D2E/DX2 analytically  !
 ! D128  D(83,19,91,89)         13.4804         calculate D2E/DX2 analytically  !
 ! D129  D(36,32,33,34)        -46.0492         calculate D2E/DX2 analytically  !
 ! D130  D(36,32,33,38)         66.8663         calculate D2E/DX2 analytically  !
 ! D131  D(36,32,33,44)       -170.3325         calculate D2E/DX2 analytically  !
 ! D132  D(39,32,33,34)         73.8281         calculate D2E/DX2 analytically  !
 ! D133  D(39,32,33,38)       -173.2564         calculate D2E/DX2 analytically  !
 ! D134  D(39,32,33,44)        -50.4552         calculate D2E/DX2 analytically  !
 ! D135  D(45,32,33,34)       -164.8209         calculate D2E/DX2 analytically  !
 ! D136  D(45,32,33,38)        -51.9054         calculate D2E/DX2 analytically  !
 ! D137  D(45,32,33,44)         70.8958         calculate D2E/DX2 analytically  !
 ! D138  D(33,32,36,35)         57.6574         calculate D2E/DX2 analytically  !
 ! D139  D(33,32,36,41)        -62.1092         calculate D2E/DX2 analytically  !
 ! D140  D(33,32,36,46)        176.0508         calculate D2E/DX2 analytically  !
 ! D141  D(39,32,36,35)        -61.4803         calculate D2E/DX2 analytically  !
 ! D142  D(39,32,36,41)        178.7531         calculate D2E/DX2 analytically  !
 ! D143  D(39,32,36,46)         56.9131         calculate D2E/DX2 analytically  !
 ! D144  D(45,32,36,35)        175.5325         calculate D2E/DX2 analytically  !
 ! D145  D(45,32,36,41)         55.7659         calculate D2E/DX2 analytically  !
 ! D146  D(45,32,36,46)        -66.0741         calculate D2E/DX2 analytically  !
 ! D147  D(33,32,45,67)       -142.398          calculate D2E/DX2 analytically  !
 ! D148  D(36,32,45,67)         99.4279         calculate D2E/DX2 analytically  !
 ! D149  D(39,32,45,67)        -22.6938         calculate D2E/DX2 analytically  !
 ! D150  D(32,33,34,37)       -165.3355         calculate D2E/DX2 analytically  !
 ! D151  D(32,33,34,42)         33.7705         calculate D2E/DX2 analytically  !
 ! D152  D(32,33,34,53)        -71.4985         calculate D2E/DX2 analytically  !
 ! D153  D(38,33,34,37)         78.1719         calculate D2E/DX2 analytically  !
 ! D154  D(38,33,34,42)        -82.7221         calculate D2E/DX2 analytically  !
 ! D155  D(38,33,34,53)        172.0089         calculate D2E/DX2 analytically  !
 ! D156  D(44,33,34,37)        -37.1432         calculate D2E/DX2 analytically  !
 ! D157  D(44,33,34,42)        161.9628         calculate D2E/DX2 analytically  !
 ! D158  D(44,33,34,53)         56.6938         calculate D2E/DX2 analytically  !
 ! D159  D(32,33,44,63)        -76.0319         calculate D2E/DX2 analytically  !
 ! D160  D(34,33,44,63)        157.5896         calculate D2E/DX2 analytically  !
 ! D161  D(38,33,44,63)         46.5066         calculate D2E/DX2 analytically  !
 ! D162  D(33,34,37,10)       -141.2725         calculate D2E/DX2 analytically  !
 ! D163  D(33,34,37,19)        -55.4954         calculate D2E/DX2 analytically  !
 ! D164  D(33,34,37,52)         85.7438         calculate D2E/DX2 analytically  !
 ! D165  D(33,34,37,83)          6.5707         calculate D2E/DX2 analytically  !
 ! D166  D(42,34,37,10)         21.1965         calculate D2E/DX2 analytically  !
 ! D167  D(42,34,37,19)        106.9737         calculate D2E/DX2 analytically  !
 ! D168  D(42,34,37,52)       -111.7872         calculate D2E/DX2 analytically  !
 ! D169  D(42,34,37,83)        169.0397         calculate D2E/DX2 analytically  !
 ! D170  D(53,34,37,10)        120.6679         calculate D2E/DX2 analytically  !
 ! D171  D(53,34,37,19)       -153.5549         calculate D2E/DX2 analytically  !
 ! D172  D(53,34,37,52)        -12.3158         calculate D2E/DX2 analytically  !
 ! D173  D(53,34,37,83)        -91.4889         calculate D2E/DX2 analytically  !
 ! D174  D(33,34,42,35)        -29.6506         calculate D2E/DX2 analytically  !
 ! D175  D(33,34,42,60)       -143.8966         calculate D2E/DX2 analytically  !
 ! D176  D(37,34,42,35)        168.4146         calculate D2E/DX2 analytically  !
 ! D177  D(37,34,42,60)         54.1686         calculate D2E/DX2 analytically  !
 ! D178  D(53,34,42,35)         74.7531         calculate D2E/DX2 analytically  !
 ! D179  D(53,34,42,60)        -39.4929         calculate D2E/DX2 analytically  !
 ! D180  D(33,34,53,51)       -120.8827         calculate D2E/DX2 analytically  !
 ! D181  D(37,34,53,51)         -0.4093         calculate D2E/DX2 analytically  !
 ! D182  D(42,34,53,51)        114.0987         calculate D2E/DX2 analytically  !
 ! D183  D(40,35,36,32)         62.7933         calculate D2E/DX2 analytically  !
 ! D184  D(40,35,36,41)       -177.9419         calculate D2E/DX2 analytically  !
 ! D185  D(40,35,36,46)        -57.4542         calculate D2E/DX2 analytically  !
 ! D186  D(42,35,36,32)        -52.5265         calculate D2E/DX2 analytically  !
 ! D187  D(42,35,36,41)         66.7384         calculate D2E/DX2 analytically  !
 ! D188  D(42,35,36,46)       -172.7739         calculate D2E/DX2 analytically  !
 ! D189  D(47,35,36,32)       -173.3977         calculate D2E/DX2 analytically  !
 ! D190  D(47,35,36,41)        -54.1328         calculate D2E/DX2 analytically  !
 ! D191  D(47,35,36,46)         66.3549         calculate D2E/DX2 analytically  !
 ! D192  D(36,35,42,34)         38.0156         calculate D2E/DX2 analytically  !
 ! D193  D(36,35,42,60)        150.6967         calculate D2E/DX2 analytically  !
 ! D194  D(40,35,42,34)        -80.1772         calculate D2E/DX2 analytically  !
 ! D195  D(40,35,42,60)         32.5039         calculate D2E/DX2 analytically  !
 ! D196  D(47,35,42,34)        163.7812         calculate D2E/DX2 analytically  !
 ! D197  D(47,35,42,60)        -83.5376         calculate D2E/DX2 analytically  !
 ! D198  D(36,35,47,48)        -67.1813         calculate D2E/DX2 analytically  !
 ! D199  D(36,35,47,49)        175.6154         calculate D2E/DX2 analytically  !
 ! D200  D(36,35,47,50)         53.9314         calculate D2E/DX2 analytically  !
 ! D201  D(40,35,47,48)         56.5896         calculate D2E/DX2 analytically  !
 ! D202  D(40,35,47,49)        -60.6137         calculate D2E/DX2 analytically  !
 ! D203  D(40,35,47,50)        177.7023         calculate D2E/DX2 analytically  !
 ! D204  D(42,35,47,48)        169.3845         calculate D2E/DX2 analytically  !
 ! D205  D(42,35,47,49)         52.1812         calculate D2E/DX2 analytically  !
 ! D206  D(42,35,47,50)        -69.5028         calculate D2E/DX2 analytically  !
 ! D207  D(32,36,46,71)        125.2775         calculate D2E/DX2 analytically  !
 ! D208  D(35,36,46,71)       -113.8907         calculate D2E/DX2 analytically  !
 ! D209  D(41,36,46,71)          5.2233         calculate D2E/DX2 analytically  !
 ! D210  D(10,37,52,51)       -117.1821         calculate D2E/DX2 analytically  !
 ! D211  D(19,37,52,51)        158.5333         calculate D2E/DX2 analytically  !
 ! D212  D(34,37,52,51)         23.8159         calculate D2E/DX2 analytically  !
 ! D213  D(10,37,83,11)          1.6764         calculate D2E/DX2 analytically  !
 ! D214  D(10,37,83,84)        115.0976         calculate D2E/DX2 analytically  !
 ! D215  D(34,37,83,11)       -150.6693         calculate D2E/DX2 analytically  !
 ! D216  D(34,37,83,84)        -37.2481         calculate D2E/DX2 analytically  !
 ! D217  D(34,42,60,56)         -7.7392         calculate D2E/DX2 analytically  !
 ! D218  D(35,42,60,56)       -133.1543         calculate D2E/DX2 analytically  !
 ! D219  D(33,44,63,64)        -42.3127         calculate D2E/DX2 analytically  !
 ! D220  D(33,44,63,65)         79.3745         calculate D2E/DX2 analytically  !
 ! D221  D(33,44,63,66)       -160.6168         calculate D2E/DX2 analytically  !
 ! D222  D(32,45,67,68)        -58.3505         calculate D2E/DX2 analytically  !
 ! D223  D(32,45,67,69)         63.6505         calculate D2E/DX2 analytically  !
 ! D224  D(32,45,67,70)       -177.8489         calculate D2E/DX2 analytically  !
 ! D225  D(36,46,71,72)        -64.4389         calculate D2E/DX2 analytically  !
 ! D226  D(36,46,71,73)         57.2309         calculate D2E/DX2 analytically  !
 ! D227  D(36,46,71,74)        176.5998         calculate D2E/DX2 analytically  !
 ! D228  D(35,47,50,75)        176.518          calculate D2E/DX2 analytically  !
 ! D229  D(48,47,50,75)        -64.6776         calculate D2E/DX2 analytically  !
 ! D230  D(49,47,50,75)         56.1119         calculate D2E/DX2 analytically  !
 ! D231  D(47,50,75,76)        179.9367         calculate D2E/DX2 analytically  !
 ! D232  D(47,50,75,77)        -60.9245         calculate D2E/DX2 analytically  !
 ! D233  D(47,50,75,78)         60.5697         calculate D2E/DX2 analytically  !
 ! D234  D(43,51,52,37)       -149.5069         calculate D2E/DX2 analytically  !
 ! D235  D(43,51,52,83)        -97.9718         calculate D2E/DX2 analytically  !
 ! D236  D(53,51,52,37)        -17.9841         calculate D2E/DX2 analytically  !
 ! D237  D(53,51,52,83)         33.551          calculate D2E/DX2 analytically  !
 ! D238  D(54,51,52,37)         94.0725         calculate D2E/DX2 analytically  !
 ! D239  D(54,51,52,83)        145.6076         calculate D2E/DX2 analytically  !
 ! D240  D(43,51,53,34)        149.6777         calculate D2E/DX2 analytically  !
 ! D241  D(52,51,53,34)         17.3612         calculate D2E/DX2 analytically  !
 ! D242  D(54,51,53,34)        -94.8835         calculate D2E/DX2 analytically  !
 ! D243  D(43,51,54,55)        -32.0772         calculate D2E/DX2 analytically  !
 ! D244  D(43,51,54,56)        150.0985         calculate D2E/DX2 analytically  !
 ! D245  D(52,51,54,55)         89.8844         calculate D2E/DX2 analytically  !
 ! D246  D(52,51,54,56)        -87.9399         calculate D2E/DX2 analytically  !
 ! D247  D(53,51,54,55)       -152.0562         calculate D2E/DX2 analytically  !
 ! D248  D(53,51,54,56)         30.1195         calculate D2E/DX2 analytically  !
 ! D249  D(51,52,83,11)       -144.8973         calculate D2E/DX2 analytically  !
 ! D250  D(51,52,83,19)        -74.0392         calculate D2E/DX2 analytically  !
 ! D251  D(51,52,83,84)         75.5552         calculate D2E/DX2 analytically  !
 ! D252  D(51,54,55,57)       -177.4161         calculate D2E/DX2 analytically  !
 ! D253  D(51,54,55,58)          3.2846         calculate D2E/DX2 analytically  !
 ! D254  D(56,54,55,57)          0.3707         calculate D2E/DX2 analytically  !
 ! D255  D(56,54,55,58)       -178.9286         calculate D2E/DX2 analytically  !
 ! D256  D(51,54,56,59)        178.1554         calculate D2E/DX2 analytically  !
 ! D257  D(51,54,56,60)         -1.7606         calculate D2E/DX2 analytically  !
 ! D258  D(55,54,56,59)          0.3698         calculate D2E/DX2 analytically  !
 ! D259  D(55,54,56,60)       -179.5462         calculate D2E/DX2 analytically  !
 ! D260  D(54,55,57,61)         -0.753          calculate D2E/DX2 analytically  !
 ! D261  D(54,55,57,93)        176.0007         calculate D2E/DX2 analytically  !
 ! D262  D(58,55,57,61)        178.5401         calculate D2E/DX2 analytically  !
 ! D263  D(58,55,57,93)         -4.7062         calculate D2E/DX2 analytically  !
 ! D264  D(54,56,59,61)         -0.7446         calculate D2E/DX2 analytically  !
 ! D265  D(54,56,59,97)        175.0555         calculate D2E/DX2 analytically  !
 ! D266  D(60,56,59,61)        179.1712         calculate D2E/DX2 analytically  !
 ! D267  D(60,56,59,97)         -5.0287         calculate D2E/DX2 analytically  !
 ! D268  D(54,56,60,42)         24.4148         calculate D2E/DX2 analytically  !
 ! D269  D(59,56,60,42)       -155.5001         calculate D2E/DX2 analytically  !
 ! D270  D(55,57,61,59)          0.388          calculate D2E/DX2 analytically  !
 ! D271  D(55,57,61,62)       -179.4399         calculate D2E/DX2 analytically  !
 ! D272  D(93,57,61,59)       -176.3622         calculate D2E/DX2 analytically  !
 ! D273  D(93,57,61,62)          3.8099         calculate D2E/DX2 analytically  !
 ! D274  D(55,57,93,94)        -87.3528         calculate D2E/DX2 analytically  !
 ! D275  D(55,57,93,95)        153.2192         calculate D2E/DX2 analytically  !
 ! D276  D(55,57,93,96)         32.0714         calculate D2E/DX2 analytically  !
 ! D277  D(61,57,93,94)         89.4376         calculate D2E/DX2 analytically  !
 ! D278  D(61,57,93,95)        -29.9904         calculate D2E/DX2 analytically  !
 ! D279  D(61,57,93,96)       -151.1382         calculate D2E/DX2 analytically  !
 ! D280  D(56,59,61,57)          0.3708         calculate D2E/DX2 analytically  !
 ! D281  D(56,59,61,62)       -179.8016         calculate D2E/DX2 analytically  !
 ! D282  D(97,59,61,57)       -175.4026         calculate D2E/DX2 analytically  !
 ! D283  D(97,59,61,62)          4.425          calculate D2E/DX2 analytically  !
 ! D284  D(56,59,97,98)         33.6529         calculate D2E/DX2 analytically  !
 ! D285  D(56,59,97,99)        -85.6099         calculate D2E/DX2 analytically  !
 ! D286  D(56,59,97,100)       154.6574         calculate D2E/DX2 analytically  !
 ! D287  D(61,59,97,98)       -150.5117         calculate D2E/DX2 analytically  !
 ! D288  D(61,59,97,99)         90.2255         calculate D2E/DX2 analytically  !
 ! D289  D(61,59,97,100)       -29.5071         calculate D2E/DX2 analytically  !
 ! D290  D(11,83,84,85)       -104.1493         calculate D2E/DX2 analytically  !
 ! D291  D(11,83,84,89)         73.634          calculate D2E/DX2 analytically  !
 ! D292  D(19,83,84,85)       -176.3541         calculate D2E/DX2 analytically  !
 ! D293  D(19,83,84,89)          1.4292         calculate D2E/DX2 analytically  !
 ! D294  D(37,83,84,85)        150.8101         calculate D2E/DX2 analytically  !
 ! D295  D(37,83,84,89)        -31.4066         calculate D2E/DX2 analytically  !
 ! D296  D(52,83,84,85)         32.5908         calculate D2E/DX2 analytically  !
 ! D297  D(52,83,84,89)       -149.6259         calculate D2E/DX2 analytically  !
 ! D298  D(83,84,85,86)       -121.2967         calculate D2E/DX2 analytically  !
 ! D299  D(83,84,85,87)         -1.9342         calculate D2E/DX2 analytically  !
 ! D300  D(83,84,85,88)        117.5364         calculate D2E/DX2 analytically  !
 ! D301  D(89,84,85,86)         60.9168         calculate D2E/DX2 analytically  !
 ! D302  D(89,84,85,87)       -179.7207         calculate D2E/DX2 analytically  !
 ! D303  D(89,84,85,88)        -60.2502         calculate D2E/DX2 analytically  !
 ! D304  D(83,84,89,90)       -115.953          calculate D2E/DX2 analytically  !
 ! D305  D(83,84,89,91)          3.9062         calculate D2E/DX2 analytically  !
 ! D306  D(83,84,89,92)        123.262          calculate D2E/DX2 analytically  !
 ! D307  D(85,84,89,90)         62.3386         calculate D2E/DX2 analytically  !
 ! D308  D(85,84,89,91)       -177.8021         calculate D2E/DX2 analytically  !
 ! D309  D(85,84,89,92)        -58.4464         calculate D2E/DX2 analytically  !
 ! D310  D(84,89,91,18)        -83.1492         calculate D2E/DX2 analytically  !
 ! D311  D(84,89,91,19)        -13.7416         calculate D2E/DX2 analytically  !
 ! D312  D(90,89,91,18)         36.8838         calculate D2E/DX2 analytically  !
 ! D313  D(90,89,91,19)        106.2914         calculate D2E/DX2 analytically  !
 ! D314  D(92,89,91,18)        157.1837         calculate D2E/DX2 analytically  !
 ! D315  D(92,89,91,19)       -133.4086         calculate D2E/DX2 analytically  !
 --------------------------------------------------------------------------------
 Trust Radius=5.00D-02 FncErr=1.00D-07 GrdErr=1.00D-06 EigMax=2.50D+02 EigMin=1.00D-04
 Number of steps in this run=    600 maximum allowed number of steps=    600.
 Search for a saddle point of order  1.
 GradGradGradGradGradGradGradGradGradGradGradGradGradGradGradGradGradGrad

 Leave Link  103 at Wed Jun  5 06:34:53 2019, MaxMem=  6442450944 cpu:               4.3 elap:               0.2
 (Enter /home/ekwan/sw/g16/l202.exe)
 Stoichiometry    C30H47F6NaO15S
 Framework group  C1[X(C30H47F6NaO15S)]
 Deg. of freedom   294
 Full point group                 C1      NOp   1
 Largest Abelian subgroup         C1      NOp   1
 Largest concise Abelian subgroup C1      NOp   1
                         Standard orientation:                         
 ---------------------------------------------------------------------
 Center     Atomic      Atomic             Coordinates (Angstroms)
 Number     Number       Type             X           Y           Z
 ---------------------------------------------------------------------
      1          6           0       -1.744129    1.616167    2.258504
      2          6           0       -2.043910    2.454034    1.003280
      3          6           0       -1.178800    3.729648    1.004729
      4          6           0        0.601044    2.633976    2.235236
      5          6           0       -0.233509    1.343385    2.351467
      6          1           0       -1.302266    4.279108    0.052848
      7          1           0       -1.744205    1.876419    0.112588
      8          1           0       -2.070177    2.185606    3.145285
      9          1           0        0.398920    3.253567    3.126257
     10          1           0        0.027019    0.671002    1.521502
     11          8           0        0.208690    3.383313    1.045060
     12          8           0       -1.563993    4.534671    2.095598
     13          8           0       -3.418733    2.833933    0.924259
     14          8           0       -2.475792    0.385700    2.158041
     15          8           0        0.064773    0.719684    3.612086
     16          6           0        2.123549    2.372747    2.119531
     17          1           0        2.400502    1.866305    3.077474
     18          1           0        2.597908    3.388702    2.177514
     19          8           0        2.512541    1.689664    0.986700
     20          6           0       -4.196412    1.975293    0.083472
     21          1           0       -3.839354    2.000443   -0.963255
     22          1           0       -4.173012    0.934060    0.437603
     23          1           0       -5.227471    2.353909    0.114260
     24          6           0       -2.981597   -0.088891    3.408901
     25          1           0       -2.167349   -0.286345    4.123299
     26          1           0       -3.683550    0.639551    3.857603
     27          1           0       -3.519365   -1.019924    3.193218
     28          6           0        0.793560   -0.506372    3.478515
     29          1           0        0.186603   -1.275081    2.972572
     30          1           0        1.726592   -0.368799    2.910704
     31          1           0        1.031670   -0.844528    4.497020
     32          6           0        3.820571   -1.689071   -1.284826
     33          6           0        3.229289   -0.325504   -0.875193
     34          6           0        1.856805   -0.460295   -0.271506
     35          6           0        2.106326   -2.813836    0.209483
     36          6           0        3.599222   -2.687024   -0.131844
     37          1           0        1.226582    0.406658   -0.156290
     38          1           0        3.827924    0.082408   -0.035196
     39          1           0        3.307650   -2.041902   -2.194541
     40          1           0        1.564443   -3.216752   -0.657998
     41          1           0        4.140963   -2.318262    0.752456
     42          8           0        1.498056   -1.482431    0.451754
     43          8           0       -0.540121    0.115951   -3.945945
     44          8           0        3.162014    0.643650   -1.912845
     45          8           0        5.219185   -1.517777   -1.505420
[...]
 93901,-0.00096044,-0.00001196,-0.00159142,0.00030413,-0.00012536,-0.00
 017567,0.00086265,0.00196617,0.00027043,-0.00073947,0.00040486,0.00346
 965,0.00022040,-0.00006862,0.00024276,0.00054442,0.00262248,0.00006418
 ,-0.00020961,-0.00014032,0.00965280,-0.04318011,-0.00017109,0.00016800
 ,-0.00062247,-0.00085304,-0.00418200,-0.00152927,-0.00025478,0.0002414
 7,-0.00068978,-0.00087593,0.00011138,0.00005411,-0.00004246,-0.0000198
 5,-0.00000440,-0.00000407,-0.00002962,0.00000047,0.00001643,-0.0000025
 0,-0.00000879,0.00000757,0.00002715,-0.00006278,-0.00006980,-0.0000037
 0,0.00001984,0.00000400,0.00000020,0.00000029,0.00001050,-0.00000912,0
 .00000643,0.00001033,0.00003803,-0.00003937,0.00004801,0.00000070,0.00
 000964,-0.00000809,0.00000021,-0.00001140,-0.00001444,-0.00002451,0.00
 001894,0.00000190,0.00004354,-0.00011760,0.00007660,0.00001080,0.00001
 532,-0.00000193,-0.00000541,-0.00004162,0.00000296,-0.00004629,0.00005
 391,-0.00000085,0.00006171,0.00013738,-0.00000610,-0.00000020,-0.00002
 674,-0.00001466,-0.00002166,-0.00000935,0.00000320,-0.00000728,-0.0000
 2185,0.00001619,0.00017441,0.00015795,0.00000057,-0.00003608,-0.000025
 79,0.00000535,0.00001531,0.00003026,-0.00002669,-0.00001165,-0.0000019
 5,0.00000690,0.00000315,0.00000298,-0.00000122,-0.00000177,-0.00000846
 ,-0.00000137,0.00002016,-0.00000234,0.00000756,-0.00000241,-0.00000913
 ,-0.00000082,0.00003410,0.00001808,-0.00000566,-0.00001407,-0.00000375
 ,0.00000980,-0.00304120,0.00042834,-0.00091187,0.00083062,-0.00055560,
 0.00003622,0.00094700,0.00030931,0.00017183,0.00075578,-0.00029328,0.0
 0098161,0.02509265,-0.21524772,-0.02606239,-0.02340620,-0.03258866,-0.
 03513385,-0.04096190,0.30493558,0.00023196,0.00031770,-0.00000647,-0.0
 0011066,0.00000231,-0.00014101,0.00000840,0.00000934,0.00000941,-0.000
 01746,0.00009018,-0.00004976,-0.00002638,0.00008398,-0.00015232,-0.000
 00684,-0.00003020,0.00001164,0.00000762,-0.00001111,0.00000097,-0.0000
 2642,-0.00004909,-0.00000585,-0.00001098,-0.00000543,0.00000831,-0.000
 00615,0.00000767,-0.00001608,0.00001187,-0.00005117,0.00007616,-0.0000
 0098,-0.00002018,0.00002326,0.00013595,0.00007178,0.00016369,-0.000069
 17,-0.00059429,0.00010184,0.00000058,-0.00030363,0.00008400,0.00007480
 ,-0.00003118,-0.00012054,0.00001063,0.00000152,0.00003988,-0.00002264,
 0.00001171,0.00003276,-0.00005026,0.00004026,0.00013061,-0.00004258,-0
 .00010422,-0.00016016,-0.00002237,-0.00004140,0.00008568,-0.00000303,0
 .00000210,-0.00008734,-0.00000701,0.00001877,0.00001498,0.00027569,0.0
 0051010,-0.00001786,-0.00000990,-0.00001519,0.00006523,-0.00003000,-0.
 00019779,-0.00000850,-0.00028896,0.00011982,0.00028456,0.00011741,0.00
 046423,0.00021766,0.00012541,-0.00014785,-0.00003958,-0.00008469,-0.00
 007402,-0.00005117,-0.00003742,-0.00004054,-0.00004217,-0.00003899,0.0
 0001128,-0.00003185,0.00001004,0.00001010,0.00000083,-0.00021280,-0.00
 003621,-0.00039512,-0.00008330,0.00004005,-0.00014928,0.00001421,-0.00
 002032,0.00001892,0.00000509,-0.00000798,-0.00001473,0.00000941,-0.000
 00447,-0.00000893,-0.00000652,0.00000670,0.00001422,-0.00001793,0.0000
 0128,0.00003059,0.00001727,0.00000418,0.00000041,0.00006850,-0.0000905
 0,0.00018414,0.00029426,0.00015949,-0.00022791,0.00003286,0.00000130,0
 .00002122,0.00000902,-0.00000309,0.00002710,0.00001240,-0.00001159,0.0
 0002945,0.00032143,0.00001232,-0.00008816,-0.00007808,0.00002914,0.000
 02600,0.00016642,-0.00010093,-0.00002672,-0.00011950,0.00001292,0.0000
 5173,-0.00117584,-0.00046708,0.00025756,0.00029818,0.00038100,0.000087
 45,0.00061146,-0.00002492,0.00016382,-0.00012874,-0.00072585,-0.000461
 00,-0.00012713,0.00038634,-0.00037564,-0.00116301,0.00020651,0.0001397
 1,0.00032727,-0.00055772,-0.00076002,-0.00002256,0.00004619,0.00007446
 ,-0.00317697,0.01909650,0.00809053,0.00002956,0.00030729,-0.00002153,0
 .00131348,0.00054485,0.00047547,-0.00022606,0.00025154,0.00003727,-0.0
 0002010,-0.00001586,0.00000568,0.00000752,0.00000283,0.00000401,0.0000
 0235,0.00000126,-0.00000165,-0.00000126,-0.00000117,-0.00000200,-0.000
 00472,-0.00000539,-0.00001284,-0.00000114,0.00000189,-0.00000249,0.000
 00049,-0.00000367,0.00000614,0.00000395,0.00000147,0.00000092,-0.00000
 883,0.00000681,-0.00002904,0.00000254,0.00000132,0.00000351,0.00000640
 ,-0.00000735,0.00000932,-0.00000267,0.00000221,0.00000236,0.00012213,-
 0.00002787,-0.00003118,-0.00001540,-0.00000174,0.00000153,-0.00003740,
 -0.00000270,0.00002689,-0.00001834,0.00001686,0.00000555,0.00000488,0.
 00001929,-0.00000431,-0.00000080,0.00000046,-0.00000024,-0.00000062,-0
 .00000037,-0.00000107,0.00000027,-0.00000599,0.00000585,-0.00004088,-0
 .00005168,-0.00005722,0.00000859,0.00000331,0.00001455,-0.00000199,-0.
 00000251,-0.00000368,-0.00000051,-0.00000039,-0.00000008,0.00000140,-0
 .00000244,0.00000109,0.00000064,0.00000254,0.00000204,-0.00000776,0.00
 000114,-0.00001121,0.00000207,0.00000470,0.00000176,-0.00000349,-0.000
 00381,-0.00000034,0.00000135,0.00000003,0.00000091,0.00100588,-0.00034
 622,0.00021660,-0.00028713,0.00023914,0.00001876,-0.00030242,-0.000043
 92,-0.00002819,-0.00023655,0.00011996,-0.00021420,0.00432140,-0.024060
 11,-0.07261456,-0.01583257,-0.04415271,-0.01611118,-0.01415665,0.08342
 430,0.09417745,-0.00013359,-0.00010572,-0.00002118,-0.00003889,0.00007
 618,0.00005077,-0.00012971,0.00009775,0.00001893,0.00004137,0.00005669
 ,-0.00004822,-0.00008969,0.00025069,-0.00002962,0.00001516,0.00000113,
 0.00000084,-0.00000547,0.00001108,-0.00001490,0.00001185,-0.00003447,-
 0.00002676,0.00000200,-0.00003422,-0.00001551,0.00003122,-0.00000010,-
 0.00005358,0.00008549,-0.00009978,0.00002704,0.00003848,-0.00007391,-0
 .00004956,0.00011349,-0.00004481,-0.00006345,0.00056210,0.00010933,-0.
 00037108,0.00022327,-0.00048234,-0.00004658,-0.00008313,0.00007624,0.0
 0018347,0.00002338,0.00000913,-0.00003497,-0.00000267,-0.00008471,-0.0
 0004771,0.00000153,-0.00018243,-0.00014129,-0.00005350,-0.00005383,0.0
 0009334,0.00003362,0.00006443,-0.00008399,-0.00002699,0.00001880,0.000
 09405,0.00003265,-0.00003327,0.00000246,-0.00061841,-0.00088336,0.0004
 6052,0.00013775,0.00025400,0.00013562,0.00008093,0.00007665,-0.0000006
 0,-0.00045992,-0.00080691,-0.00086875,0.00011997,0.00081002,0.00035817
 ,0.00007385,-0.00018380,0.00002964,-0.00006180,-0.00008673,-0.00006962
 ,-0.00007830,-0.00007968,-0.00009841,0.00008159,0.00002862,-0.00007422
 ,-0.00002210,0.00005901,-0.00002200,0.00035876,0.00059512,-0.00006324,
 0.00008969,0.00005959,-0.00013508,0.00015576,-0.00012212,0.00001962,-0
 .00001355,0.00001527,0.00000066,0.00000467,0.00000701,0.00002306,0.000
 00465,-0.00000600,0.00000124,0.00003488,-0.00001688,-0.00005007,-0.000
 01876,0.00000166,-0.00000415,-0.00029565,-0.00041329,0.00026550,-0.000
 28630,-0.00020726,0.00053247,-0.00011752,-0.00010390,0.00006902,-0.000
 16674,-0.00000506,0.00009677,-0.00015141,0.00008888,-0.00000274,0.0009
 6458,0.00016957,0.00012445,-0.00019616,0.00003641,0.00004657,0.0000495
 9,-0.00036357,0.00014498,-0.00043034,0.00000366,-0.00041093,0.00129550
 ,0.00066780,-0.00045215,-0.00032740,-0.00055885,-0.00010246,-0.0005066
 1,-0.00008908,0.00004750,-0.00071122,-0.00044283,-0.00026162,0.0002914
 8,0.00007837,0.00006102,0.00204901,-0.00086323,0.00237245,0.00114415,-
 0.00082410,0.00064455,0.00016604,0.00009981,0.00002248,-0.01044562,-0.
 00152652,0.01391772,0.00046654,0.00056633,-0.00043928,-0.00339659,0.00
 025690,-0.00302085,0.00209025,0.00077460,0.00009250,0.00009880,0.00005
 738,-0.00002127,-0.00001538,-0.00000019,-0.00000591,-0.00001972,0.0000
 0118,0.00000653,-0.00000615,-0.00001303,0.00001042,0.00003609,-0.00004
 615,-0.00007294,0.00000681,0.00000773,0.00000142,0.00000246,0.00000530
 ,0.00001441,-0.00001863,0.00000233,0.00000992,0.00010670,-0.00004909,0
 .00006154,-0.00002877,-0.00000671,-0.00000673,0.00001560,-0.00001151,-
 0.00000198,-0.00001047,0.00001683,0.00000049,0.00008193,-0.00019804,0.
 00022980,-0.00003647,0.00000100,-0.00004385,-0.00000420,0.00002006,0.0
 0002705,-0.00000981,0.00005994,-0.00000964,0.00000067,0.00003093,-0.00
 000002,0.00000122,-0.00000906,-0.00000591,0.00000157,0.00000065,0.0000
 0313,-0.00000192,-0.00000389,0.00000334,0.00004206,0.00012952,-0.00000
 221,-0.00000860,-0.00003000,0.00000592,0.00000437,0.00002701,-0.000017
 46,-0.00000351,-0.00000231,0.00000343,0.00000186,0.00000175,0.00000294
 ,-0.00000255,-0.00000886,-0.00000207,0.00000053,0.00000609,-0.00000018
 ,-0.00000145,-0.00001080,0.00000003,0.00002499,0.00001703,-0.00000297,
 -0.00000382,-0.00000257,0.00000460,-0.00119997,-0.00001895,0.00007764,
 0.00037402,-0.00023650,-0.00007141,0.00040724,0.00017506,-0.00005329,0
 .00025243,-0.00006495,0.00013606,-0.16039284,-0.01433179,0.07972480,-0
 .07308661,-0.01374226,0.00316081,-0.02027950,0.02918897,0.02839956,0.2
 6166378,0.00018558,0.00031495,0.00007277,-0.00006745,0.00000891,0.0000
 0290,0.00005524,0.00012574,0.00006008,-0.00001918,0.00007418,0.0000031
 9,0.00003898,-0.00002638,0.00006633,-0.00001040,-0.00002986,0.00000316
 ,0.00000698,0.00001132,-0.00000131,-0.00001324,-0.00002800,-0.00002264
 ,0.00000055,-0.00001767,-0.00001253,0.00001881,0.00000505,-0.00000993,
 -0.00003207,-0.00005203,-0.00001953,-0.00002286,-0.00012206,-0.0000390
 5,-0.00002062,-0.00012495,-0.00006081,-0.00015418,-0.00034886,-0.00005
 738,-0.00013241,0.00002146,-0.00005037,0.00000508,-0.00000951,0.000075
 00,0.00000219,0.00000836,-0.00002597,-0.00002267,-0.00004070,-0.000017
 54,-0.00004999,-0.00005129,-0.00005627,0.00000177,0.00014811,0.0000409
 9,0.00001032,0.00002953,-0.00003130,-0.00003932,-0.00002636,0.00002864
 ,0.00003047,-0.00003364,-0.00000526,0.00083914,0.00075688,-0.00048605,
 -0.00014103,-0.00025913,-0.00010453,-0.00017940,-0.00040104,-0.0001291
 5,-0.00122234,-0.00254105,-0.00076079,0.00008918,-0.00004665,0.0000367
 2,0.00001241,-0.00001544,0.00000992,-0.00001374,0.00000410,0.00000483,
 -0.00001889,0.00000288,-0.00003201,0.00005115,-0.00002928,-0.00001368,
 -0.00000363,0.00000067,-0.00003019,0.00024929,0.00011303,0.00028008,0.
 00007729,-0.00018844,-0.00000407,0.00003956,-0.00002888,0.00000695,0.0
 0000922,0.00000793,-0.00000438,-0.00000972,-0.00000102,0.00001461,0.00
 000529,-0.00000679,-0.00000431,0.00000248,-0.00001244,0.00000768,-0.00
 000235,0.00000121,0.00000110,-0.00015471,0.00009868,-0.00007299,-0.000
 35913,-0.00012717,0.00050894,-0.00007538,-0.00001726,0.00001913,-0.000
 05742,0.00002596,0.00002469,-0.00004693,0.00007153,-0.00000556,0.00006
 773,0.00001086,0.00001320,-0.00004854,0.00002456,-0.00000149,0.0000181
 3,-0.00013617,0.00000026,-0.00001689,0.00005936,-0.00006828,0.00174453
 ,0.00027703,-0.00054389,-0.00050860,-0.00050572,-0.00006321,-0.0007026
 2,0.00011969,-0.00007794,-0.00047591,-0.00139905,0.00026436,-0.0004720
 5,-0.00026767,0.00038539,0.00198159,0.00006159,0.00266997,-0.00010734,
 -0.00005610,-0.00012645,0.00000254,0.00003351,0.00003487,-0.01785703,0
 .00448861,0.01655546,0.00005310,0.00039922,-0.00003616,-0.00039520,-0.
 00068033,0.00124625,-0.00008639,-0.00044710,0.00085586,0.00005162,0.00
 002729,-0.00001862,-0.00000977,-0.00000223,-0.00000254,-0.00001275,0.0
 0000009,0.00000682,-0.00000095,-0.00000406,0.00000375,0.00001334,-0.00
 002448,-0.00002794,-0.00000053,0.00000719,0.00000210,0.00000018,0.0000
 0125,0.00000362,-0.00000553,0.00000209,0.00000427,0.00002361,-0.000018
 96,0.00002808,-0.00000260,0.00000235,-0.00000412,-0.00000023,-0.000002
 96,-0.00000719,-0.00000843,0.00000736,0.00000006,-0.00001628,-0.000050
 37,0.00005843,0.00000544,0.00000508,-0.00000473,0.00000910,-0.00001041
 ,-0.00000503,-0.00000960,0.00001854,-0.00000267,0.00002898,0.00006363,
 -0.00000171,-0.00000020,-0.00001281,-0.00000711,-0.00001017,-0.0000047
 0,0.00000167,-0.00000392,-0.00001041,0.00000724,0.00008141,0.00007820,
 0.00000441,-0.00001607,-0.00001234,0.00000045,0.00000639,0.00001402,-0
 .00001127,-0.00000470,-0.00000087,0.00000301,0.00000123,0.00000169,-0.
 00000044,-0.00000088,-0.00000422,-0.00000095,0.00000924,-0.00000069,0.
 00000483,-0.00000123,-0.00000478,-0.00000065,0.00001521,0.00000826,-0.
 00000231,-0.00000602,-0.00000160,0.00000406,-0.00114486,0.00016222,-0.
 00047983,0.00033758,-0.00020884,0.00002678,0.00038163,0.00011348,0.000
 07059,0.00023544,-0.00008256,0.00030507,-0.01228392,-0.07168690,0.0138
 0138,-0.01304206,0.00926218,0.00154098,0.04089137,-0.01114881,-0.03460
 613,0.00242993,0.07429117,0.00029393,0.00042554,0.00011768,-0.00014445
 ,-0.00005670,-0.00021074,0.00009741,-0.00006877,0.00000457,-0.00005714
 ,0.00006684,-0.00002857,0.00003643,-0.00009407,-0.00015888,-0.00001946
 ,-0.00003777,0.00001310,0.00001721,-0.00002541,0.00001362,-0.00002249,
 0.00000731,0.00001968,-0.00001325,0.00001837,0.00002200,-0.00002981,0.
 00001263,0.00002309,-0.00003567,0.00001476,0.00007516,-0.00002217,0.00
 003715,0.00006329,0.00011084,0.00013290,0.00023358,-0.00055584,-0.0006
 7989,0.00053580,-0.00017197,-0.00000461,0.00013983,0.00014104,-0.00008
 977,-0.00026688,-0.00000407,-0.00000561,0.00007165,-0.00002326,0.00007
 429,0.00007070,-0.00004631,0.00017078,0.00025281,-0.00003499,-0.000129
 56,-0.00022063,-0.00003790,-0.00008902,0.00013396,0.00000414,0.0000047
 7,-0.00015635,-0.00002537,0.00004178,0.00001685,0.00153631,0.00141947,
 -0.00068999,-0.00016106,-0.00028806,-0.00004432,-0.00024177,-0.0005229
 3,-0.00006600,-0.00102701,-0.00098852,-0.00009640,0.00005989,-0.000105
 32,-0.00004744,0.00001613,0.00000820,-0.00002250,-0.00004049,-0.000004
 76,0.00000193,0.00001872,0.00001524,0.00002800,-0.00010368,0.00001712,
 0.00001164,0.00002674,-0.00001216,0.00002947,-0.00054155,-0.00039478,-
 0.00057349,-0.00015976,0.00014652,-0.00007488,-0.00007808,0.00004731,0
 .00000327,0.00000836,-0.00002257,-0.00001890,0.00001418,-0.00000948,-0
 .00002972,-0.00001173,0.00001456,0.00001608,-0.00002655,0.00001889,0.0
 0004144,0.00002467,0.00000233,0.00000162,0.00030790,0.00003368,0.00011
 848,0.00075708,0.00037371,-0.00097505,0.00013228,0.00005796,-0.0000188
 8,0.00011562,-0.00001649,-0.00003154,0.00010362,-0.00008946,0.00003031
 ,-0.00013257,-0.00002395,-0.00014412,0.00001905,0.00000062,0.00001253,
 0.00007739,0.00000528,-0.00002003,0.00006659,-0.00001430,0.00023778,-0
 .00321439,-0.00095194,0.00060902,0.00082997,0.00108293,0.00027240,0.00
 137487,-0.00010752,0.00023236,0.00211677,0.00134869,-0.00035072,0.0002
 0612,0.00034562,-0.00049395,-0.00442888,0.00246678,-0.00538968,0.00009
 313,0.00039966,-0.00012754,-0.00003621,-0.00003677,-0.00005754,0.03528
 972,0.00672309,-0.01930911,-0.00008237,-0.00034650,0.00007273,0.001677
 47,0.00065634,-0.00127531,-0.00017658,0.00048292,-0.00207305,-0.000094
 61,-0.00005841,0.00002730,0.00002082,0.00000441,0.00000791,0.00001922,
 0.00000094,-0.00000857,0.00000199,0.00000716,-0.00000918,-0.00002801,0
 .00002944,0.00003724,-0.00000342,-0.00000591,-0.00000403,-0.00000080,-
 0.00000609,-0.00000305,0.00001497,-0.00000110,-0.00000611,-0.00006649,
 0.00003587,-0.00006755,0.00001644,0.00000335,0.00000793,-0.00000039,-0
 .00000097,0.00001278,0.00000631,-0.00000916,0.00000277,0.00007521,0.00
 007323,-0.00013955,0.00000374,-0.00000243,0.00002144,-0.00003729,-0.00
 000934,0.00000526,-0.00001173,-0.00001550,0.00001039,0.00000099,-0.000
 00500,-0.00000462,-0.00000202,0.00000737,0.00000386,-0.00000001,-0.000
 00058,-0.00000343,0.00000172,-0.00000342,0.00000391,-0.00010343,-0.000
 16491,-0.00007464,0.00001989,0.00002433,0.00001241,-0.00000684,-0.0000
 2221,0.00000973,0.00000313,0.00000121,-0.00000297,0.00000003,-0.000004
 26,-0.00000023,0.00000253,0.00000903,0.00000350,-0.00001211,-0.0000013
 3,-0.00001376,0.00000371,0.00001270,0.00000207,-0.00002292,-0.00001663
 ,0.00000206,0.00000572,0.00000202,-0.00000279,0.00208385,-0.00050582,0
 .00057890,-0.00066616,0.00051636,0.00004921,-0.00067834,-0.00013984,-0
 .00008199,-0.00044001,0.00018381,-0.00049641,0.07095863,0.01536618,-0.
 13745438,-0.00935720,-0.00057074,0.02144280,0.02880497,-0.02517844,-0.
 01300129,-0.12437880,-0.00101268,0.15857888\\-0.00000066,-0.00000111,0
 .00000027,-0.00000033,-0.00000059,0.00000060,-0.00000039,-0.00000038,0
 .00000167,-0.00000073,-0.00000182,0.00000084,0.00000084,-0.00000110,0.
 00000131,0.00000005,0.00000015,0.00000201,0.00000018,-0.00000031,-0.00
 000002,-0.00000090,-0.00000176,0.00000004,-0.00000093,-0.00000184,0.00
 000201,-0.00000229,0.00000032,-0.00000114,0.00000010,-0.00000068,0.000
 00099,-0.00000087,-0.00000119,0.00000165,0.00000016,-0.00000045,-0.000
 00009,-0.00000088,-0.00000176,-0.00000042,-0.00000134,-0.00000206,-0.0
 0000010,-0.00000024,-0.00000065,0.00000147,-0.00000084,-0.00000131,0.0
 0000158,-0.00000110,-0.00000117,0.00000206,-0.00000132,-0.00000004,0.0
 0000112,-0.00000036,0.00000020,-0.00000011,0.00000047,0.00000039,-0.00
 000072,0.,-0.00000017,-0.00000103,0.00000025,-0.00000012,-0.00000061,-
 0.00000126,-0.00000141,-0.00000200,-0.00000101,-0.00000228,-0.00000089
 ,-0.00000096,-0.00000226,-0.00000112,-0.00000087,-0.00000188,-0.000002
 02,-0.00000070,-0.00000159,-0.00000046,-0.00000065,-0.00000156,-0.0000
 0085,-0.00000087,-0.00000153,-0.00000011,-0.00000127,-0.00000243,-0.00
 000022,0.00000042,0.00000141,0.00000006,0.00000027,0.00000077,0.000000
 88,0.00000043,0.00000029,0.00000033,0.,0.00000025,-0.00000089,0.000000
 02,0.00000012,-0.00000097,0.00000182,-0.00000066,0.00000168,-0.0000000
 6,0.00000022,0.00000076,0.00000097,0.00000150,-0.00000035,0.00000037,0
 .00000052,-0.00000176,0.00000012,-0.00000038,-0.00000008,-0.00000021,0
 .00000051,-0.00000066,0.00000147,0.00000234,-0.00000028,0.00000079,0.0
 0000092,0.00000123,0.00000052,0.00000120,0.00000056,-0.00000002,0.0000
 0058,-0.00000124,0.00000009,-0.00000029,-0.00000196,-0.00000047,-0.000
 00065,-0.00000236,-0.00000063,-0.00000092,-0.00000199,-0.00000066,-0.0
 0000140,-0.00000110,0.00000038,0.00000211,-0.00000041,0.00000104,0.000
 00098,0.00000045,0.00000104,0.00000133,-0.00000074,0.00000067,0.000000
 97,-0.00000201,0.00000117,0.00000214,-0.00000205,0.00000013,0.00000097
 ,-0.00000063,0.00000073,0.00000135,-0.00000073,0.00000125,0.00000194,-
 0.00000090,0.,-0.00000005,-0.00000267,0.00000104,-0.00000077,-0.000003
 01,0.00000007,0.00000061,-0.00000353,0.00000018,0.00000027,-0.00000299
 ,0.00000055,0.00000116,0.00000188,0.00000050,0.00000099,0.00000211,0.0
 0000092,0.00000193,0.00000185,0.00000110,0.00000204,0.00000232,0.00000
 156,0.00000177,0.00000013,0.00000104,0.00000191,-0.00000055,0.00000136
 ,0.00000219,0.00000039,0.00000042,0.00000165,0.00000066,0.00000075,0.0
 0000030,-0.00000141,-0.00000041,-0.00000022,-0.00000048,-0.00000005,-0
 .00000058,-0.00000125,0.00000017,0.00000038,-0.00000171,-0.00000073,-0
 .00000171,-0.00000215,-0.00000132,-0.00000246,-0.00000129,-0.00000122,
 -0.00000201,-0.00000206,-0.00000097,-0.00000182,-0.00000230,-0.0000003
 3,-0.00000096,0.00000253,-0.00000106,-0.00000158,0.00000302,-0.0000009
 0,-0.00000107,0.00000299,-0.00000044,-0.00000070,0.00000317,-0.0000012
 7,0.00000218,0.00000248,0.00000093,0.00000016,0.00000419,-0.00000017,0
 .00000145,0.00000354,0.00000106,0.00000173,0.00000410,0.00000126,0.000
 00191,0.00000393,0.00000055,0.00000133,0.00000462,0.00000013,0.0000005
 6,0.00000322,-0.00000005,-0.00000005,0.00000386,0.00000006,-0.00000015
 ,0.00000319,0.00000009,0.00000078,0.00000361,0.00000004,0.00000113,-0.
 00000345,0.00000117,0.00000074,-0.00000196,0.00000116,0.00000140,-0.00
 000340,0.00000126,0.00000219,-0.00000209,-0.00000048,-0.00000102,-0.00
 000313,-0.00000062,-0.00000058,-0.00000227,0.00000009,0.00000014,-0.00
 000349,-0.00000036,-0.00000090,-0.00000319\\\@


 THE UNDERLYING PHYSICAL LAWS NECESSARY FOR THE 
 MATHEMATICAL THEORY OF A LARGE PART OF PHYSICS AND THE
 WHOLE OF CHEMISTRY ARE THUS COMPLETELY KNOWN, AND THE
 DIFFICULTY IS ONLY THAT THE EXACT APPLICATION OF THESE
 LAWS LEADS TO EQUATIONS MUCH TOO COMPLICATED 
 TO BE SOLUBLE.

                                        -- P. A. M. DIRAC, 1929
 Job cpu time:       3 days  3 hours 21 minutes 45.7 seconds.
 Elapsed time:       0 days  2 hours 32 minutes 18.4 seconds.
 File lengths (MBytes):  RWF=   9757 Int=      0 D2E=      0 Chk=     87 Scr=      1
 Normal termination of Gaussian 16 at Wed Jun  5 11:35:20 2019.
