 Entering Gaussian System, Link 0=g16
 Input=clay_new-glu_gluC6-BCDR-Na2_1Me2O-bisCF3-ts-m06l_d3-631gd-pcm_thf.gjf
 Output=clay_new-glu_gluC6-BCDR-Na2_1Me2O-bisCF3-ts-m06l_d3-631gd-pcm_thf.out
 Initial command:
 /home/ekwan/sw/g16/l1.exe "/scratch/users/ekwan/clay_new-glu_gluC6-BCDR-Na2_1Me2O-bisCF3-ts-m06l_d3-631gd-pcm_thf/Gau-46837.inp" -scrdir="/scratch/users/ekwan/clay_new-glu_gluC6-BCDR-Na2_1Me2O-bisCF3-ts-m06l_d3-631gd-pcm_thf/"
 Entering Link 1 = /home/ekwan/sw/g16/l1.exe PID=     46838.
  
 Copyright (c) 1988,1990,1992,1993,1995,1998,2003,2009,2016,
            Gaussian, Inc.  All Rights Reserved.
  
 This is part of the Gaussian(R) 16 program.  It is based on
 the Gaussian(R) 09 system (copyright 2009, Gaussian, Inc.),
 the Gaussian(R) 03 system (copyright 2003, Gaussian, Inc.),
 the Gaussian(R) 98 system (copyright 1998, Gaussian, Inc.),
 the Gaussian(R) 94 system (copyright 1995, Gaussian, Inc.),
 the Gaussian 92(TM) system (copyright 1992, Gaussian, Inc.),
 the Gaussian 90(TM) system (copyright 1990, Gaussian, Inc.),
 the Gaussian 88(TM) system (copyright 1988, Gaussian, Inc.),
 the Gaussian 86(TM) system (copyright 1986, Carnegie Mellon
 University), and the Gaussian 82(TM) system (copyright 1983,
 Carnegie Mellon University). Gaussian is a federally registered
 trademark of Gaussian, Inc.
  
 This software contains proprietary and confidential information,
 including trade secrets, belonging to Gaussian, Inc.
  
 This software is provided under written license and may be
 used, copied, transmitted, or stored only in accord with that
 written license.
  
 The following legend is applicable only to US Government
 contracts under FAR:
  
                    RESTRICTED RIGHTS LEGEND
  
 Use, reproduction and disclosure by the US Government is
 subject to restrictions as set forth in subparagraphs (a)
 and (c) of the Commercial Computer Software - Restricted
 Rights clause in FAR 52.227-19.
  
 Gaussian, Inc.
 340 Quinnipiac St., Bldg. 40, Wallingford CT 06492
  
  
 ---------------------------------------------------------------
 Warning -- This program may not be used in any manner that
 competes with the business of Gaussian, Inc. or will provide
 assistance to any competitor of Gaussian, Inc.  The licensee
 of this program is prohibited from giving any competitor of
 Gaussian, Inc. access to this program.  By using this program,
 the user acknowledges that Gaussian, Inc. is engaged in the
 business of creating and licensing software in the field of
 computational chemistry and represents and warrants to the
 licensee that it is not a competitor of Gaussian, Inc. and that
 it will not use this program in any manner prohibited above.
 ---------------------------------------------------------------
  

 Cite this work as:
 Gaussian 16, Revision A.03,
 M. J. Frisch, G. W. Trucks, H. B. Schlegel, G. E. Scuseria, 
 M. A. Robb, J. R. Cheeseman, G. Scalmani, V. Barone, 
 G. A. Petersson, H. Nakatsuji, X. Li, M. Caricato, A. V. Marenich, 
 J. Bloino, B. G. Janesko, R. Gomperts, B. Mennucci, H. P. Hratchian, 
 J. V. Ortiz, A. F. Izmaylov, J. L. Sonnenberg, D. Williams-Young, 
 F. Ding, F. Lipparini, F. Egidi, J. Goings, B. Peng, A. Petrone, 
 T. Henderson, D. Ranasinghe, V. G. Zakrzewski, J. Gao, N. Rega, 
 G. Zheng, W. Liang, M. Hada, M. Ehara, K. Toyota, R. Fukuda, 
 J. Hasegawa, M. Ishida, T. Nakajima, Y. Honda, O. Kitao, H. Nakai, 
 T. Vreven, K. Throssell, J. A. Montgomery, Jr., J. E. Peralta, 
 F. Ogliaro, M. J. Bearpark, J. J. Heyd, E. N. Brothers, K. N. Kudin, 
 V. N. Staroverov, T. A. Keith, R. Kobayashi, J. Normand, 
 K. Raghavachari, A. P. Rendell, J. C. Burant, S. S. Iyengar, 
 J. Tomasi, M. Cossi, J. M. Millam, M. Klene, C. Adamo, R. Cammi, 
 J. W. Ochterski, R. L. Martin, K. Morokuma, O. Farkas, 
 J. B. Foresman, and D. J. Fox, Gaussian, Inc., Wallingford CT, 2016.
 
 ******************************************
 Gaussian 16:  AS64L-G16RevA.03 25-Dec-2016
                 7-Jun-2019 
 ******************************************
 %nprocshared=32
 Will use up to   32 processors via shared memory.
 %mem=48GB
 ----------------------------------------------------------------------
 #p opt=(calcfc,ts,noeigentest,maxstep=5) freq=noraman 6-31g(d) scrf=(s
 olvent=tetrahydrofuran,pcm) pop=none empiricaldispersion=gd3 m06l
 ----------------------------------------------------------------------
 1/5=1,8=5,10=4,11=1,18=20,26=3,38=1/1,3;
 2/9=110,12=2,17=6,18=5,40=1/2;
 3/5=1,6=6,7=1,11=2,25=1,30=1,70=2201,71=2,72=20,74=-53,124=31,140=1/1,2,3;
 4//1;
 5/5=2,38=5,53=20/2;
 8/6=4,10=90,11=11/1;
 11/6=1,8=1,9=11,15=111,16=1/1,2,10;
 10/6=1,13=1/2;
 7/10=1,18=20,25=1/1,2,3,16;
 1/5=1,8=5,10=4,11=1,18=20,26=3/3(2);
 2/9=110/2;
 99//99;
 2/9=110/2;
 3/5=1,6=6,7=1,11=2,25=1,30=1,70=2205,71=1,72=20,74=-53,124=31/1,2,3;
 4/5=5,16=3,69=1/1;
 5/5=2,38=5,53=20/2;
 7//1,2,3,16;
 1/5=1,8=5,11=1,18=20,26=3/3(-5);
 2/9=110/2;
 99/9=1/99;
 Leave Link    1 at Fri Jun  7 08:27:51 2019, MaxMem=  6442450944 cpu:               4.8 elap:               0.2
 (Enter /home/ekwan/sw/g16/l101.exe)
 -----
 title
 -----
 Symbolic Z-matrix:
 Charge =  0 Multiplicity = 1
 C                    -1.72287   1.55651   2.28556 
 C                    -2.0748    2.30884   1.0067 
 C                    -1.1855    3.53466   0.83746 
 C                     0.57891   2.55227   2.11884 
 C                    -0.22656   1.27051   2.31743 
 H                    -1.32718   3.98675  -0.15935 
 H                    -1.87174   1.64646   0.14763 
 H                    -1.99181   2.1852    3.15342 
 H                     0.33786   3.24023   2.94747 
 H                    -0.00373   0.56624   1.49598 
 O                     0.18058   3.16914   0.87321 
 O                    -1.51355   4.4555    1.83756 
 O                    -3.4268    2.72905   0.99568 
 O                    -2.49659   0.3661    2.30264 
 O                     0.12145   0.68071   3.56276 
 C                     2.09189   2.35123   2.04802 
 H                     2.38354   1.95087   3.04944 
 H                     2.52124   3.38692   2.02524 
 O                     2.50912   1.59182   0.996 
 C                    -4.27035   1.88266   0.24517 
 H                    -3.9504    1.82809  -0.80964 
 H                    -4.29877   0.86348   0.65603 
 H                    -5.27377   2.31761   0.28306 
 C                    -2.86293  -0.06566   3.59668 
 H                    -2.00709  -0.45964   4.16068 
 H                    -3.3161    0.75615   4.17409 
 H                    -3.6055   -0.85784   3.46609 
 C                     0.98207  -0.43226   3.41274 
 H                     0.45616  -1.28303   2.95107 
 H                     1.8549   -0.1926    2.78616 
 H                     1.31547  -0.71874   4.41538 
 C                     3.76525  -1.64377  -1.30603 
 C                     3.14865  -0.31596  -0.88114 
 C                     1.78588  -0.48006  -0.30117 
 C                     2.05354  -2.81609   0.1127 
 C                     3.53508  -2.65916  -0.1912 
 H                     1.16085   0.38858  -0.14514 
 H                     3.7251    0.08774  -0.02353 
 H                     3.29082  -1.99007  -2.23925 
 H                     1.52421  -3.18321  -0.77743 
 H                     4.0506   -2.30325   0.71462 
 O                     1.4453   -1.50967   0.40429 
 O                    -0.52022   0.13961  -3.91224 
 O                     3.07703   0.68069  -1.87802 
 O                     5.15507  -1.45224  -1.49023 
 O                     4.02642  -3.92739  -0.57871 
 C                     1.7379   -3.69771   1.28755 
 H                     2.02727  -4.73252   1.03418 
 H                     0.64879  -3.6941    1.47009 
 O                     2.43954  -3.22709   2.41166 
 S                    -0.3012    0.03312  -2.46677 
 O                    -0.1428    1.3247   -1.74862 
 O                     0.78763  -0.94936  -2.10361 
 C                    -1.78513  -0.69614  -1.77462 
 C                    -3.01463  -0.46784  -2.38645 
 C                    -1.69986  -1.44414  -0.60692 
 C                    -4.16515  -0.99926  -1.81215 
 H                    -3.06494   0.11061  -3.30537 
 C                    -2.85757  -1.98001  -0.04942 
 H                    -0.73671  -1.6177   -0.13263 
 C                    -4.09377  -1.76057  -0.64579 
 H                    -4.99765  -2.17691  -0.20741 
 C                     4.33235   1.27395  -2.1958 
 H                     4.9318    1.43455  -1.28913 
 H                     4.9041    0.65509  -2.89604 
 H                     4.11086   2.24002  -2.65987 
 C                     5.683    -2.16199  -2.59629 
 H                     5.55222  -3.24595  -2.48524 
 H                     5.20958  -1.84004  -3.53746 
 H                     6.74965  -1.92562  -2.63697 
 C                     4.99017  -4.45191   0.31959 
 H                     5.88703  -3.81625   0.35387 
 H                     4.58232  -4.54783   1.33711 
 H                     5.2627   -5.44096  -0.05676 
 C                     2.11756  -3.9742    3.56497 
 H                     2.68795  -3.54851   4.39376 
 H                     1.04118  -3.90934   3.79339 
 H                     2.38661  -5.03579   3.44372 
 C                    -0.80418   5.67321   1.70168 
 H                    -1.20891   6.3609    2.44747 
 H                     0.27265   5.53738   1.87538 
 H                    -0.94636   6.10121   0.69666 
 Na                    1.69019   2.62488  -0.92383 
 O                     3.35648   4.24476  -0.89808 
 C                     3.60152   5.36687  -1.71818 
 H                     4.48684   5.20566  -2.35409 
 H                     2.72282   5.51067  -2.35224 
 H                     3.76542   6.27237  -1.11417 
 C                     4.44608   3.98107  -0.02964 
 H                     4.59609   4.8157    0.67233 
 H                     4.18938   3.0637    0.51288 
 H                     5.37464   3.83629  -0.60545 
 C                    -5.51415  -0.71783  -2.40055 
 F                    -6.19891   0.17109  -1.6427 
 F                    -6.27299  -1.8307   -2.46343 
 F                    -5.43763  -0.206    -3.64062 
 C                    -2.74444  -2.86606   1.15345 
 F                    -1.74352  -2.48992   1.97411 
 F                    -2.48181  -4.14432   0.79459 
 F                    -3.88066  -2.88789   1.87661 
 
 Add virtual bond connecting atoms H37        and H10        Dist= 3.82D+00.
 Add virtual bond connecting atoms H37        and O19        Dist= 4.04D+00.
 Add virtual bond connecting atoms O52        and H37        Dist= 4.29D+00.
 Add virtual bond connecting atoms O53        and C34        Dist= 3.99D+00.
 Add virtual bond connecting atoms H60        and O42        Dist= 4.25D+00.
 Add virtual bond connecting atoms H91        and H18        Dist= 4.30D+00.
 Add virtual bond connecting atoms H91        and O19        Dist= 4.32D+00.
 Add virtual bond connecting atoms O11        and Na83       Dist= 4.55D+00.
 Add virtual bond connecting atoms O19        and Na83       Dist= 4.40D+00.
 Add virtual bond connecting atoms H37        and Na83       Dist= 4.59D+00.
 Add virtual bond connecting atoms O52        and Na83       Dist= 4.52D+00.
 Add virtual bond connecting atoms O84        and Na83       Dist= 4.39D+00.
 ITRead=  0  0  0  0  0  0  0  0  0  0  0  0  0  0  0  0  0  0  0  0
 ITRead=  0  0  0  0  0  0  0  0  0  0  0  0  0  0  0  0  0  0  0  0
 ITRead=  0  0  0  0  0  0  0  0  0  0  0  0  0  0  0  0  0  0  0  0
 ITRead=  0  0  0  0  0  0  0  0  0  0  0  0  0  0  0  0  0  0  0  0
 ITRead=  0  0  0  0  0  0  0  0  0  0  0  0  0  0  0  0  0  0  0  0
 MicOpt= -1 -1 -1 -1 -1 -1 -1 -1 -1 -1 -1 -1 -1 -1 -1 -1 -1 -1 -1 -1
 MicOpt= -1 -1 -1 -1 -1 -1 -1 -1 -1 -1 -1 -1 -1 -1 -1 -1 -1 -1 -1 -1
 MicOpt= -1 -1 -1 -1 -1 -1 -1 -1 -1 -1 -1 -1 -1 -1 -1 -1 -1 -1 -1 -1
 MicOpt= -1 -1 -1 -1 -1 -1 -1 -1 -1 -1 -1 -1 -1 -1 -1 -1 -1 -1 -1 -1
 MicOpt= -1 -1 -1 -1 -1 -1 -1 -1 -1 -1 -1 -1 -1 -1 -1 -1 -1 -1 -1 -1
 NAtoms=    100 NQM=      100 NQMF=       0 NMMI=      0 NMMIF=      0
                NMic=       0 NMicF=      0.
                    Isotopes and Nuclear Properties:
 (Nuclear quadrupole moments (NQMom) in fm**2, nuclear magnetic moments (NMagM)
  in nuclear magnetons)

  Atom         1           2           3           4           5           6           7           8           9          10
 IAtWgt=          12          12          12          12          12           1           1           1           1           1
 AtmWgt=  12.0000000  12.0000000  12.0000000  12.0000000  12.0000000   1.0078250   1.0078250   1.0078250   1.0078250   1.0078250
 NucSpn=           0           0           0           0           0           1           1           1           1           1
 AtZEff=   0.0000000   0.0000000   0.0000000   0.0000000   0.0000000   0.0000000   0.0000000   0.0000000   0.0000000   0.0000000
 NQMom=    0.0000000   0.0000000   0.0000000   0.0000000   0.0000000   0.0000000   0.0000000   0.0000000   0.0000000   0.0000000
 NMagM=    0.0000000   0.0000000   0.0000000   0.0000000   0.0000000   2.7928460   2.7928460   2.7928460   2.7928460   2.7928460
 AtZNuc=   6.0000000   6.0000000   6.0000000   6.0000000   6.0000000   1.0000000   1.0000000   1.0000000   1.0000000   1.0000000

  Atom        11          12          13          14          15          16          17          18          19          20
 IAtWgt=          16          16          16          16          16          12           1           1          16          12
 AtmWgt=  15.9949146  15.9949146  15.9949146  15.9949146  15.9949146  12.0000000   1.0078250   1.0078250  15.9949146  12.0000000
 NucSpn=           0           0           0           0           0           0           1           1           0           0
 AtZEff=   0.0000000   0.0000000   0.0000000   0.0000000   0.0000000   0.0000000   0.0000000   0.0000000   0.0000000   0.0000000
 NQMom=    0.0000000   0.0000000   0.0000000   0.0000000   0.0000000   0.0000000   0.0000000   0.0000000   0.0000000   0.0000000
 NMagM=    0.0000000   0.0000000   0.0000000   0.0000000   0.0000000   0.0000000   2.7928460   2.7928460   0.0000000   0.0000000
 AtZNuc=   8.0000000   8.0000000   8.0000000   8.0000000   8.0000000   6.0000000   1.0000000   1.0000000   8.0000000   6.0000000

  Atom        21          22          23          24          25          26          27          28          29          30
 IAtWgt=           1           1           1          12           1           1           1          12           1           1
 AtmWgt=   1.0078250   1.0078250   1.0078250  12.0000000   1.0078250   1.0078250   1.0078250  12.0000000   1.0078250   1.0078250
 NucSpn=           1           1           1           0           1           1           1           0           1           1
 AtZEff=   0.0000000   0.0000000   0.0000000   0.0000000   0.0000000   0.0000000   0.0000000   0.0000000   0.0000000   0.0000000
 NQMom=    0.0000000   0.0000000   0.0000000   0.0000000   0.0000000   0.0000000   0.0000000   0.0000000   0.0000000   0.0000000
 NMagM=    2.7928460   2.7928460   2.7928460   0.0000000   2.7928460   2.7928460   2.7928460   0.0000000   2.7928460   2.7928460
 AtZNuc=   1.0000000   1.0000000   1.0000000   6.0000000   1.0000000   1.0000000   1.0000000   6.0000000   1.0000000   1.0000000

  Atom        31          32          33          34          35          36          37          38          39          40
 IAtWgt=           1          12          12          12          12          12           1           1           1           1
 AtmWgt=   1.0078250  12.0000000  12.0000000  12.0000000  12.0000000  12.0000000   1.0078250   1.0078250   1.0078250   1.0078250
 NucSpn=           1           0           0           0           0           0           1           1           1           1
 AtZEff=   0.0000000   0.0000000   0.0000000   0.0000000   0.0000000   0.0000000   0.0000000   0.0000000   0.0000000   0.0000000
 NQMom=    0.0000000   0.0000000   0.0000000   0.0000000   0.0000000   0.0000000   0.0000000   0.0000000   0.0000000   0.0000000
 NMagM=    2.7928460   0.0000000   0.0000000   0.0000000   0.0000000   0.0000000   2.7928460   2.7928460   2.7928460   2.7928460
 AtZNuc=   1.0000000   6.0000000   6.0000000   6.0000000   6.0000000   6.0000000   1.0000000   1.0000000   1.0000000   1.0000000

  Atom        41          42          43          44          45          46          47          48          49          50
 IAtWgt=           1          16          16          16          16          16          12           1           1          16
 AtmWgt=   1.0078250  15.9949146  15.9949146  15.9949146  15.9949146  15.9949146  12.0000000   1.0078250   1.0078250  15.9949146
 NucSpn=           1           0           0           0           0           0           0           1           1           0
 AtZEff=   0.0000000   0.0000000   0.0000000   0.0000000   0.0000000   0.0000000   0.0000000   0.0000000   0.0000000   0.0000000
 NQMom=    0.0000000   0.0000000   0.0000000   0.0000000   0.0000000   0.0000000   0.0000000   0.0000000   0.0000000   0.0000000
 NMagM=    2.7928460   0.0000000   0.0000000   0.0000000   0.0000000   0.0000000   0.0000000   2.7928460   2.7928460   0.0000000
 AtZNuc=   1.0000000   8.0000000   8.0000000   8.0000000   8.0000000   8.0000000   6.0000000   1.0000000   1.0000000   8.0000000

  Atom        51          52          53          54          55          56          57          58          59          60
 IAtWgt=          32          16          16          12          12          12          12           1          12           1
 AtmWgt=  31.9720718  15.9949146  15.9949146  12.0000000  12.0000000  12.0000000  12.0000000   1.0078250  12.0000000   1.0078250
 NucSpn=           0           0           0           0           0           0           0           1           0           1
 AtZEff=   0.0000000   0.0000000   0.0000000   0.0000000   0.0000000   0.0000000   0.0000000   0.0000000   0.0000000   0.0000000
 NQMom=    0.0000000   0.0000000   0.0000000   0.0000000   0.0000000   0.0000000   0.0000000   0.0000000   0.0000000   0.0000000
 NMagM=    0.0000000   0.0000000   0.0000000   0.0000000   0.0000000   0.0000000   0.0000000   2.7928460   0.0000000   2.7928460
 AtZNuc=  16.0000000   8.0000000   8.0000000   6.0000000   6.0000000   6.0000000   6.0000000   1.0000000   6.0000000   1.0000000

  Atom        61          62          63          64          65          66          67          68          69          70
 IAtWgt=          12           1          12           1           1           1          12           1           1           1
 AtmWgt=  12.0000000   1.0078250  12.0000000   1.0078250   1.0078250   1.0078250  12.0000000   1.0078250   1.0078250   1.0078250
 NucSpn=           0           1           0           1           1           1           0           1           1           1
 AtZEff=   0.0000000   0.0000000   0.0000000   0.0000000   0.0000000   0.0000000   0.0000000   0.0000000   0.0000000   0.0000000
 NQMom=    0.0000000   0.0000000   0.0000000   0.0000000   0.0000000   0.0000000   0.0000000   0.0000000   0.0000000   0.0000000
 NMagM=    0.0000000   2.7928460   0.0000000   2.7928460   2.7928460   2.7928460   0.0000000   2.7928460   2.7928460   2.7928460
 AtZNuc=   6.0000000   1.0000000   6.0000000   1.0000000   1.0000000   1.0000000   6.0000000   1.0000000   1.0000000   1.0000000

  Atom        71          72          73          74          75          76          77          78          79          80
 IAtWgt=          12           1           1           1          12           1           1           1          12           1
 AtmWgt=  12.0000000   1.0078250   1.0078250   1.0078250  12.0000000   1.0078250   1.0078250   1.0078250  12.0000000   1.0078250
 NucSpn=           0           1           1           1           0           1           1           1           0           1
 AtZEff=   0.0000000   0.0000000   0.0000000   0.0000000   0.0000000   0.0000000   0.0000000   0.0000000   0.0000000   0.0000000
 NQMom=    0.0000000   0.0000000   0.0000000   0.0000000   0.0000000   0.0000000   0.0000000   0.0000000   0.0000000   0.0000000
 NMagM=    0.0000000   2.7928460   2.7928460   2.7928460   0.0000000   2.7928460   2.7928460   2.7928460   0.0000000   2.7928460
 AtZNuc=   6.0000000   1.0000000   1.0000000   1.0000000   6.0000000   1.0000000   1.0000000   1.0000000   6.0000000   1.0000000

  Atom        81          82          83          84          85          86          87          88          89          90
 IAtWgt=           1           1          23          16          12           1           1           1          12           1
 AtmWgt=   1.0078250   1.0078250  22.9897697  15.9949146  12.0000000   1.0078250   1.0078250   1.0078250  12.0000000   1.0078250
 NucSpn=           1           1           3           0           0           1           1           1           0           1
 AtZEff=   0.0000000   0.0000000   0.0000000   0.0000000   0.0000000   0.0000000   0.0000000   0.0000000   0.0000000   0.0000000
 NQMom=    0.0000000   0.0000000  10.4000000   0.0000000   0.0000000   0.0000000   0.0000000   0.0000000   0.0000000   0.0000000
 NMagM=    2.7928460   2.7928460   2.2175200   0.0000000   0.0000000   2.7928460   2.7928460   2.7928460   0.0000000   2.7928460
 AtZNuc=   1.0000000   1.0000000  11.0000000   8.0000000   6.0000000   1.0000000   1.0000000   1.0000000   6.0000000   1.0000000

  Atom        91          92          93          94          95          96          97          98          99         100
 IAtWgt=           1           1          12          19          19          19          12          19          19          19
 AtmWgt=   1.0078250   1.0078250  12.0000000  18.9984033  18.9984033  18.9984033  12.0000000  18.9984033  18.9984033  18.9984033
 NucSpn=           1           1           0           1           1           1           0           1           1           1
 AtZEff=   0.0000000   0.0000000   0.0000000   0.0000000   0.0000000   0.0000000   0.0000000   0.0000000   0.0000000   0.0000000
 NQMom=    0.0000000   0.0000000   0.0000000   0.0000000   0.0000000   0.0000000   0.0000000   0.0000000   0.0000000   0.0000000
 NMagM=    2.7928460   2.7928460   0.0000000   2.6288670   2.6288670   2.6288670   0.0000000   2.6288670   2.6288670   2.6288670
 AtZNuc=   1.0000000   1.0000000   6.0000000   9.0000000   9.0000000   9.0000000   6.0000000   9.0000000   9.0000000   9.0000000
 Leave Link  101 at Fri Jun  7 08:27:52 2019, MaxMem=  6442450944 cpu:              17.9 elap:               0.7
 (Enter /home/ekwan/sw/g16/l103.exe)

 GradGradGradGradGradGradGradGradGradGradGradGradGradGradGradGradGradGrad
 Berny optimization.
 Initialization pass.
                           ----------------------------
                           !    Initial Parameters    !
                           ! (Angstroms and Degrees)  !
 --------------------------                            --------------------------
 ! Name  Definition              Value          Derivative Info.                !
 --------------------------------------------------------------------------------
 ! R1    R(1,2)                  1.5249         calculate D2E/DX2 analytically  !
 ! R2    R(1,5)                  1.5237         calculate D2E/DX2 analytically  !
 ! R3    R(1,8)                  1.1049         calculate D2E/DX2 analytically  !
 ! R4    R(1,14)                 1.4199         calculate D2E/DX2 analytically  !
 ! R5    R(2,3)                  1.5239         calculate D2E/DX2 analytically  !
 ! R6    R(2,7)                  1.1036         calculate D2E/DX2 analytically  !
 ! R7    R(2,13)                 1.4158         calculate D2E/DX2 analytically  !
 ! R8    R(3,6)                  1.1037         calculate D2E/DX2 analytically  !
 ! R9    R(3,11)                 1.4146         calculate D2E/DX2 analytically  !
 ! R10   R(3,12)                 1.3985         calculate D2E/DX2 analytically  !
 ! R11   R(4,5)                  1.5268         calculate D2E/DX2 analytically  !
 ! R12   R(4,9)                  1.1036         calculate D2E/DX2 analytically  !
 ! R13   R(4,11)                 1.4459         calculate D2E/DX2 analytically  !
 ! R14   R(4,16)                 1.5279         calculate D2E/DX2 analytically  !
 ! R15   R(5,10)                 1.1047         calculate D2E/DX2 analytically  !
 ! R16   R(5,15)                 1.4212         calculate D2E/DX2 analytically  !
 ! R17   R(10,37)                2.0202         calculate D2E/DX2 analytically  !
 ! R18   R(11,83)                2.4093         calculate D2E/DX2 analytically  !
 ! R19   R(12,79)                1.4158         calculate D2E/DX2 analytically  !
 ! R20   R(13,20)                1.4111         calculate D2E/DX2 analytically  !
 ! R21   R(14,24)                1.4125         calculate D2E/DX2 analytically  !
 ! R22   R(15,28)                1.4149         calculate D2E/DX2 analytically  !
 ! R23   R(16,17)                1.1172         calculate D2E/DX2 analytically  !
 ! R24   R(16,18)                1.1214         calculate D2E/DX2 analytically  !
 ! R25   R(16,19)                1.3629         calculate D2E/DX2 analytically  !
 ! R26   R(18,91)                2.2747         calculate D2E/DX2 analytically  !
 ! R27   R(19,37)                2.1373         calculate D2E/DX2 analytically  !
 ! R28   R(19,83)                2.3289         calculate D2E/DX2 analytically  !
 ! R29   R(19,91)                2.2854         calculate D2E/DX2 analytically  !
 ! R30   R(20,21)                1.1036         calculate D2E/DX2 analytically  !
 ! R31   R(20,22)                1.0993         calculate D2E/DX2 analytically  !
 ! R32   R(20,23)                1.0943         calculate D2E/DX2 analytically  !
 ! R33   R(24,25)                1.0981         calculate D2E/DX2 analytically  !
 ! R34   R(24,26)                1.1019         calculate D2E/DX2 analytically  !
 ! R35   R(24,27)                1.0936         calculate D2E/DX2 analytically  !
 ! R36   R(28,29)                1.1016         calculate D2E/DX2 analytically  !
 ! R37   R(28,30)                1.1009         calculate D2E/DX2 analytically  !
 ! R38   R(28,31)                1.0948         calculate D2E/DX2 analytically  !
 ! R39   R(32,33)                1.5244         calculate D2E/DX2 analytically  !
 ! R40   R(32,36)                1.5254         calculate D2E/DX2 analytically  !
 ! R41   R(32,39)                1.1027         calculate D2E/DX2 analytically  !
 ! R42   R(32,45)                1.415          calculate D2E/DX2 analytically  !
 ! R43   R(33,34)                1.4901         calculate D2E/DX2 analytically  !
 ! R44   R(33,38)                1.1094         calculate D2E/DX2 analytically  !
 ! R45   R(33,44)                1.4115         calculate D2E/DX2 analytically  !
 ! R46   R(34,37)                1.0815         calculate D2E/DX2 analytically  !
 ! R47   R(34,42)                1.2937         calculate D2E/DX2 analytically  !
 ! R48   R(34,53)                2.1132         calculate D2E/DX2 analytically  !
 ! R49   R(35,36)                1.5205         calculate D2E/DX2 analytically  !
 ! R50   R(35,40)                1.0988         calculate D2E/DX2 analytically  !
 ! R51   R(35,42)                1.4703         calculate D2E/DX2 analytically  !
 ! R52   R(35,47)                1.5024         calculate D2E/DX2 analytically  !
 ! R53   R(36,41)                1.1013         calculate D2E/DX2 analytically  !
 ! R54   R(36,46)                1.4142         calculate D2E/DX2 analytically  !
 ! R55   R(37,52)                2.2687         calculate D2E/DX2 analytically  !
 ! R56   R(37,83)                2.4264         calculate D2E/DX2 analytically  !
 ! R57   R(42,60)                2.2497         calculate D2E/DX2 analytically  !
 ! R58   R(43,51)                1.4658         calculate D2E/DX2 analytically  !
 ! R59   R(44,63)                1.4243         calculate D2E/DX2 analytically  !
 ! R60   R(45,67)                1.4163         calculate D2E/DX2 analytically  !
 ! R61   R(46,71)                1.418          calculate D2E/DX2 analytically  !
 ! R62   R(47,48)                1.104          calculate D2E/DX2 analytically  !
 ! R63   R(47,49)                1.1043         calculate D2E/DX2 analytically  !
 ! R64   R(47,50)                1.4062         calculate D2E/DX2 analytically  !
 ! R65   R(50,75)                1.4114         calculate D2E/DX2 analytically  !
 ! R66   R(51,52)                1.4863         calculate D2E/DX2 analytically  !
 ! R67   R(51,53)                1.5109         calculate D2E/DX2 analytically  !
 ! R68   R(51,54)                1.7925         calculate D2E/DX2 analytically  !
 ! R69   R(52,83)                2.3939         calculate D2E/DX2 analytically  !
 ! R70   R(54,55)                1.3922         calculate D2E/DX2 analytically  !
 ! R71   R(54,56)                1.3894         calculate D2E/DX2 analytically  !
 ! R72   R(55,57)                1.3914         calculate D2E/DX2 analytically  !
 ! R73   R(55,58)                1.087          calculate D2E/DX2 analytically  !
 ! R74   R(56,59)                1.3922         calculate D2E/DX2 analytically  !
 ! R75   R(56,60)                1.0875         calculate D2E/DX2 analytically  !
 ! R76   R(57,61)                1.3947         calculate D2E/DX2 analytically  !
 ! R77   R(57,93)                1.4984         calculate D2E/DX2 analytically  !
 ! R78   R(59,61)                1.39           calculate D2E/DX2 analytically  !
 ! R79   R(59,97)                1.4983         calculate D2E/DX2 analytically  !
 ! R80   R(61,62)                1.0874         calculate D2E/DX2 analytically  !
 ! R81   R(63,64)                1.0987         calculate D2E/DX2 analytically  !
 ! R82   R(63,65)                1.0955         calculate D2E/DX2 analytically  !
 ! R83   R(63,66)                1.0944         calculate D2E/DX2 analytically  !
 ! R84   R(67,68)                1.0975         calculate D2E/DX2 analytically  !
 ! R85   R(67,69)                1.1016         calculate D2E/DX2 analytically  !
 ! R86   R(67,70)                1.0933         calculate D2E/DX2 analytically  !
 ! R87   R(71,72)                1.0998         calculate D2E/DX2 analytically  !
 ! R88   R(71,73)                1.1004         calculate D2E/DX2 analytically  !
 ! R89   R(71,74)                1.0928         calculate D2E/DX2 analytically  !
 ! R90   R(75,76)                1.0925         calculate D2E/DX2 analytically  !
 ! R91   R(75,77)                1.1023         calculate D2E/DX2 analytically  !
 ! R92   R(75,78)                1.1018         calculate D2E/DX2 analytically  !
 ! R93   R(79,80)                1.0922         calculate D2E/DX2 analytically  !
 ! R94   R(79,81)                1.0992         calculate D2E/DX2 analytically  !
 ! R95   R(79,82)                1.1016         calculate D2E/DX2 analytically  !
 ! R96   R(83,84)                2.3241         calculate D2E/DX2 analytically  !
 ! R97   R(84,85)                1.4113         calculate D2E/DX2 analytically  !
 ! R98   R(84,89)                1.4181         calculate D2E/DX2 analytically  !
 ! R99   R(85,86)                1.1019         calculate D2E/DX2 analytically  !
 ! R100  R(85,87)                1.0931         calculate D2E/DX2 analytically  !
 ! R101  R(85,88)                1.1007         calculate D2E/DX2 analytically  !
 ! R102  R(89,90)                1.1008         calculate D2E/DX2 analytically  !
 ! R103  R(89,91)                1.0963         calculate D2E/DX2 analytically  !
 ! R104  R(89,92)                1.1022         calculate D2E/DX2 analytically  !
 ! R105  R(93,94)                1.354          calculate D2E/DX2 analytically  !
 ! R106  R(93,95)                1.3484         calculate D2E/DX2 analytically  !
 ! R107  R(93,96)                1.3437         calculate D2E/DX2 analytically  !
 ! R108  R(97,98)                1.3479         calculate D2E/DX2 analytically  !
 ! R109  R(97,99)                1.3534         calculate D2E/DX2 analytically  !
 ! R110  R(97,100)               1.347          calculate D2E/DX2 analytically  !
 ! A1    A(2,1,5)              109.6808         calculate D2E/DX2 analytically  !
 ! A2    A(2,1,8)              108.7744         calculate D2E/DX2 analytically  !
 ! A3    A(2,1,14)             107.335          calculate D2E/DX2 analytically  !
 ! A4    A(5,1,8)              109.2326         calculate D2E/DX2 analytically  !
 ! A5    A(5,1,14)             112.1791         calculate D2E/DX2 analytically  !
 ! A6    A(8,1,14)             109.5702         calculate D2E/DX2 analytically  !
 ! A7    A(1,2,3)              110.813          calculate D2E/DX2 analytically  !
 ! A8    A(1,2,7)              108.3152         calculate D2E/DX2 analytically  !
 ! A9    A(1,2,13)             111.9214         calculate D2E/DX2 analytically  !
 ! A10   A(3,2,7)              106.7969         calculate D2E/DX2 analytically  !
 ! A11   A(3,2,13)             108.5215         calculate D2E/DX2 analytically  !
 ! A12   A(7,2,13)             110.351          calculate D2E/DX2 analytically  !
 ! A13   A(2,3,6)              110.7869         calculate D2E/DX2 analytically  !
 ! A14   A(2,3,11)             110.665          calculate D2E/DX2 analytically  !
 ! A15   A(2,3,12)             108.2621         calculate D2E/DX2 analytically  !
 ! A16   A(6,3,11)             104.6335         calculate D2E/DX2 analytically  !
 ! A17   A(6,3,12)             110.247          calculate D2E/DX2 analytically  !
 ! A18   A(11,3,12)            112.2471         calculate D2E/DX2 analytically  !
 ! A19   A(5,4,9)              108.0849         calculate D2E/DX2 analytically  !
 ! A20   A(5,4,11)             108.957          calculate D2E/DX2 analytically  !
 ! A21   A(5,4,16)             114.7064         calculate D2E/DX2 analytically  !
 ! A22   A(9,4,11)             108.705          calculate D2E/DX2 analytically  !
 ! A23   A(9,4,16)             109.4567         calculate D2E/DX2 analytically  !
 ! A24   A(11,4,16)            106.7978         calculate D2E/DX2 analytically  !
 ! A25   A(1,5,4)              110.9633         calculate D2E/DX2 analytically  !
 ! A26   A(1,5,10)             107.5888         calculate D2E/DX2 analytically  !
 ! A27   A(1,5,15)             109.675          calculate D2E/DX2 analytically  !
 ! A28   A(4,5,10)             109.3941         calculate D2E/DX2 analytically  !
 ! A29   A(4,5,15)             109.4623         calculate D2E/DX2 analytically  !
 ! A30   A(10,5,15)            109.7303         calculate D2E/DX2 analytically  !
 ! A31   A(5,10,37)            140.9318         calculate D2E/DX2 analytically  !
 ! A32   A(3,11,4)             113.4559         calculate D2E/DX2 analytically  !
 ! A33   A(3,11,83)            130.1375         calculate D2E/DX2 analytically  !
 ! A34   A(4,11,83)            111.9357         calculate D2E/DX2 analytically  !
 ! A35   A(3,12,79)            112.3436         calculate D2E/DX2 analytically  !
 ! A36   A(2,13,20)            113.3885         calculate D2E/DX2 analytically  !
 ! A37   A(1,14,24)            114.1186         calculate D2E/DX2 analytically  !
 ! A38   A(5,15,28)            112.4878         calculate D2E/DX2 analytically  !
 ! A39   A(4,16,17)            105.3133         calculate D2E/DX2 analytically  !
 ! A40   A(4,16,18)            104.9839         calculate D2E/DX2 analytically  !
 ! A41   A(4,16,19)            114.3447         calculate D2E/DX2 analytically  !
 ! A42   A(17,16,18)           104.4322         calculate D2E/DX2 analytically  !
 ! A43   A(17,16,19)           114.349          calculate D2E/DX2 analytically  !
 ! A44   A(18,16,19)           112.4407         calculate D2E/DX2 analytically  !
 ! A45   A(16,18,91)            99.3839         calculate D2E/DX2 analytically  !
 ! A46   A(16,19,37)           122.1888         calculate D2E/DX2 analytically  !
 ! A47   A(16,19,83)           106.3499         calculate D2E/DX2 analytically  !
 ! A48   A(16,19,91)            91.684          calculate D2E/DX2 analytically  !
 ! A49   A(37,19,91)           135.5217         calculate D2E/DX2 analytically  !
 ! A50   A(83,19,91)            78.3801         calculate D2E/DX2 analytically  !
 ! A51   A(13,20,21)           111.3887         calculate D2E/DX2 analytically  !
 ! A52   A(13,20,22)           111.8878         calculate D2E/DX2 analytically  !
 ! A53   A(13,20,23)           106.9379         calculate D2E/DX2 analytically  !
 ! A54   A(21,20,22)           108.5951         calculate D2E/DX2 analytically  !
 ! A55   A(21,20,23)           108.577          calculate D2E/DX2 analytically  !
 ! A56   A(22,20,23)           109.3824         calculate D2E/DX2 analytically  !
 ! A57   A(14,24,25)           112.2144         calculate D2E/DX2 analytically  !
 ! A58   A(14,24,26)           111.0246         calculate D2E/DX2 analytically  !
 ! A59   A(14,24,27)           106.7452         calculate D2E/DX2 analytically  !
 ! A60   A(25,24,26)           108.602          calculate D2E/DX2 analytically  !
 ! A61   A(25,24,27)           109.3081         calculate D2E/DX2 analytically  !
 ! A62   A(26,24,27)           108.879          calculate D2E/DX2 analytically  !
 ! A63   A(15,28,29)           111.1955         calculate D2E/DX2 analytically  !
 ! A64   A(15,28,30)           111.8            calculate D2E/DX2 analytically  !
 ! A65   A(15,28,31)           107.0962         calculate D2E/DX2 analytically  !
 ! A66   A(29,28,30)           107.9455         calculate D2E/DX2 analytically  !
 ! A67   A(29,28,31)           109.0946         calculate D2E/DX2 analytically  !
 ! A68   A(30,28,31)           109.6815         calculate D2E/DX2 analytically  !
 ! A69   A(33,32,36)           108.3652         calculate D2E/DX2 analytically  !
 ! A70   A(33,32,39)           109.5976         calculate D2E/DX2 analytically  !
 ! A71   A(33,32,45)           108.4017         calculate D2E/DX2 analytically  !
 ! A72   A(36,32,39)           110.1539         calculate D2E/DX2 analytically  !
 ! A73   A(36,32,45)           109.4782         calculate D2E/DX2 analytically  !
 ! A74   A(39,32,45)           110.7896         calculate D2E/DX2 analytically  !
 ! A75   A(32,33,34)           112.4873         calculate D2E/DX2 analytically  !
 ! A76   A(32,33,38)           108.7992         calculate D2E/DX2 analytically  !
 ! A77   A(32,33,44)           116.022          calculate D2E/DX2 analytically  !
 ! A78   A(34,33,38)           102.3802         calculate D2E/DX2 analytically  !
 ! A79   A(34,33,44)           107.8334         calculate D2E/DX2 analytically  !
 ! A80   A(38,33,44)           108.3849         calculate D2E/DX2 analytically  !
 ! A81   A(33,34,37)           119.7529         calculate D2E/DX2 analytically  !
 ! A82   A(33,34,42)           122.7266         calculate D2E/DX2 analytically  !
 ! A83   A(33,34,53)            97.1521         calculate D2E/DX2 analytically  !
 ! A84   A(37,34,42)           114.1049         calculate D2E/DX2 analytically  !
 ! A85   A(37,34,53)            91.6288         calculate D2E/DX2 analytically  !
 ! A86   A(42,34,53)            99.4393         calculate D2E/DX2 analytically  !
 ! A87   A(36,35,40)           109.9967         calculate D2E/DX2 analytically  !
 ! A88   A(36,35,42)           110.5497         calculate D2E/DX2 analytically  !
 ! A89   A(36,35,47)           114.9336         calculate D2E/DX2 analytically  !
 ! A90   A(40,35,42)           104.9663         calculate D2E/DX2 analytically  !
 ! A91   A(40,35,47)           109.6473         calculate D2E/DX2 analytically  !
 ! A92   A(42,35,47)           106.2254         calculate D2E/DX2 analytically  !
 ! A93   A(32,36,35)           111.2108         calculate D2E/DX2 analytically  !
 ! A94   A(32,36,41)           108.3821         calculate D2E/DX2 analytically  !
 ! A95   A(32,36,46)           110.1368         calculate D2E/DX2 analytically  !
 ! A96   A(35,36,41)           108.9687         calculate D2E/DX2 analytically  !
 ! A97   A(35,36,46)           107.5023         calculate D2E/DX2 analytically  !
 ! A98   A(41,36,46)           110.6428         calculate D2E/DX2 analytically  !
 ! A99   A(10,37,19)            83.1315         calculate D2E/DX2 analytically  !
 ! A100  A(10,37,34)           121.401          calculate D2E/DX2 analytically  !
 ! A101  A(10,37,52)           101.9245         calculate D2E/DX2 analytically  !
 ! A102  A(10,37,83)           107.783          calculate D2E/DX2 analytically  !
 ! A103  A(19,37,34)            99.4762         calculate D2E/DX2 analytically  !
 ! A104  A(19,37,52)           120.502          calculate D2E/DX2 analytically  !
 ! A105  A(34,37,52)           124.1636         calculate D2E/DX2 analytically  !
 ! A106  A(34,37,83)           124.6031         calculate D2E/DX2 analytically  !
 ! A107  A(34,42,35)           119.3473         calculate D2E/DX2 analytically  !
 ! A108  A(34,42,60)            99.4047         calculate D2E/DX2 analytically  !
 ! A109  A(35,42,60)           108.1343         calculate D2E/DX2 analytically  !
 ! A110  A(33,44,63)           114.0144         calculate D2E/DX2 analytically  !
 ! A111  A(32,45,67)           113.5759         calculate D2E/DX2 analytically  !
 ! A112  A(36,46,71)           113.2193         calculate D2E/DX2 analytically  !
 ! A113  A(35,47,48)           108.3912         calculate D2E/DX2 analytically  !
 ! A114  A(35,47,49)           109.5448         calculate D2E/DX2 analytically  !
 ! A115  A(35,47,50)           108.8994         calculate D2E/DX2 analytically  !
 ! A116  A(48,47,49)           107.4278         calculate D2E/DX2 analytically  !
 ! A117  A(48,47,50)           111.4929         calculate D2E/DX2 analytically  !
 ! A118  A(49,47,50)           111.0306         calculate D2E/DX2 analytically  !
 ! A119  A(47,50,75)           111.2384         calculate D2E/DX2 analytically  !
 ! A120  A(43,51,52)           115.4211         calculate D2E/DX2 analytically  !
 ! A121  A(43,51,53)           113.0757         calculate D2E/DX2 analytically  !
 ! A122  A(43,51,54)           106.6568         calculate D2E/DX2 analytically  !
 ! A123  A(52,51,53)           111.8482         calculate D2E/DX2 analytically  !
 ! A124  A(52,51,54)           104.7855         calculate D2E/DX2 analytically  !
 ! A125  A(53,51,54)           103.8414         calculate D2E/DX2 analytically  !
 ! A126  A(37,52,51)            92.5319         calculate D2E/DX2 analytically  !
 ! A127  A(51,52,83)           136.0599         calculate D2E/DX2 analytically  !
 ! A128  A(34,53,51)           113.6434         calculate D2E/DX2 analytically  !
 ! A129  A(51,54,55)           119.6507         calculate D2E/DX2 analytically  !
 ! A130  A(51,54,56)           119.5229         calculate D2E/DX2 analytically  !
 ! A131  A(55,54,56)           120.7879         calculate D2E/DX2 analytically  !
 ! A132  A(54,55,57)           119.0936         calculate D2E/DX2 analytically  !
 ! A133  A(54,55,58)           119.9785         calculate D2E/DX2 analytically  !
 ! A134  A(57,55,58)           120.9252         calculate D2E/DX2 analytically  !
 ! A135  A(54,56,59)           119.5209         calculate D2E/DX2 analytically  !
 ! A136  A(54,56,60)           120.4517         calculate D2E/DX2 analytically  !
 ! A137  A(59,56,60)           120.0261         calculate D2E/DX2 analytically  !
 ! A138  A(55,57,61)           120.7547         calculate D2E/DX2 analytically  !
 ! A139  A(55,57,93)           120.7054         calculate D2E/DX2 analytically  !
 ! A140  A(61,57,93)           118.4899         calculate D2E/DX2 analytically  !
 ! A141  A(56,59,61)           120.4642         calculate D2E/DX2 analytically  !
 ! A142  A(56,59,97)           119.0994         calculate D2E/DX2 analytically  !
 ! A143  A(61,59,97)           120.3301         calculate D2E/DX2 analytically  !
 ! A144  A(42,60,56)           162.8243         calculate D2E/DX2 analytically  !
 ! A145  A(57,61,59)           119.3743         calculate D2E/DX2 analytically  !
 ! A146  A(57,61,62)           120.2381         calculate D2E/DX2 analytically  !
 ! A147  A(59,61,62)           120.3875         calculate D2E/DX2 analytically  !
 ! A148  A(44,63,64)           110.9541         calculate D2E/DX2 analytically  !
 ! A149  A(44,63,65)           111.5477         calculate D2E/DX2 analytically  !
 ! A150  A(44,63,66)           106.4941         calculate D2E/DX2 analytically  !
 ! A151  A(64,63,65)           108.9823         calculate D2E/DX2 analytically  !
 ! A152  A(64,63,66)           109.348          calculate D2E/DX2 analytically  !
 ! A153  A(65,63,66)           109.4652         calculate D2E/DX2 analytically  !
 ! A154  A(45,67,68)           111.81           calculate D2E/DX2 analytically  !
 ! A155  A(45,67,69)           111.135          calculate D2E/DX2 analytically  !
 ! A156  A(45,67,70)           106.5223         calculate D2E/DX2 analytically  !
 ! A157  A(68,67,69)           108.8987         calculate D2E/DX2 analytically  !
 ! A158  A(68,67,70)           109.4854         calculate D2E/DX2 analytically  !
 ! A159  A(69,67,70)           108.924          calculate D2E/DX2 analytically  !
 ! A160  A(46,71,72)           111.1112         calculate D2E/DX2 analytically  !
 ! A161  A(46,71,73)           111.4759         calculate D2E/DX2 analytically  !
 ! A162  A(46,71,74)           106.6248         calculate D2E/DX2 analytically  !
 ! A163  A(72,71,73)           108.893          calculate D2E/DX2 analytically  !
 ! A164  A(72,71,74)           109.2974         calculate D2E/DX2 analytically  !
 ! A165  A(73,71,74)           109.3901         calculate D2E/DX2 analytically  !
 ! A166  A(50,75,76)           107.1312         calculate D2E/DX2 analytically  !
 ! A167  A(50,75,77)           111.1595         calculate D2E/DX2 analytically  !
 ! A168  A(50,75,78)           111.3697         calculate D2E/DX2 analytically  !
 ! A169  A(76,75,77)           109.2519         calculate D2E/DX2 analytically  !
 ! A170  A(76,75,78)           109.3547         calculate D2E/DX2 analytically  !
 ! A171  A(77,75,78)           108.5384         calculate D2E/DX2 analytically  !
 ! A172  A(12,79,80)           106.8781         calculate D2E/DX2 analytically  !
 ! A173  A(12,79,81)           111.6788         calculate D2E/DX2 analytically  !
 ! A174  A(12,79,82)           110.9207         calculate D2E/DX2 analytically  !
 ! A175  A(80,79,81)           109.4464         calculate D2E/DX2 analytically  !
 ! A176  A(80,79,82)           109.2997         calculate D2E/DX2 analytically  !
 ! A177  A(81,79,82)           108.5804         calculate D2E/DX2 analytically  !
 ! A178  A(11,83,19)            72.8818         calculate D2E/DX2 analytically  !
 ! A179  A(11,83,37)            80.3364         calculate D2E/DX2 analytically  !
 ! A180  A(11,83,52)            84.2555         calculate D2E/DX2 analytically  !
 ! A181  A(11,83,84)           106.4708         calculate D2E/DX2 analytically  !
 ! A182  A(19,83,52)           108.2015         calculate D2E/DX2 analytically  !
 ! A183  A(19,83,84)            92.747          calculate D2E/DX2 analytically  !
 ! A184  A(37,83,84)           142.6784         calculate D2E/DX2 analytically  !
 ! A185  A(52,83,84)           158.6502         calculate D2E/DX2 analytically  !
 ! A186  A(83,84,85)           132.2396         calculate D2E/DX2 analytically  !
 ! A187  A(83,84,89)           115.3455         calculate D2E/DX2 analytically  !
 ! A188  A(85,84,89)           111.7349         calculate D2E/DX2 analytically  !
 ! A189  A(84,85,86)           111.01           calculate D2E/DX2 analytically  !
 ! A190  A(84,85,87)           107.5839         calculate D2E/DX2 analytically  !
 ! A191  A(84,85,88)           111.1648         calculate D2E/DX2 analytically  !
 ! A192  A(86,85,87)           109.2911         calculate D2E/DX2 analytically  !
 ! A193  A(86,85,88)           108.5055         calculate D2E/DX2 analytically  !
 ! A194  A(87,85,88)           109.2553         calculate D2E/DX2 analytically  !
 ! A195  A(84,89,90)           110.7466         calculate D2E/DX2 analytically  !
 ! A196  A(84,89,91)           106.1861         calculate D2E/DX2 analytically  !
 ! A197  A(84,89,92)           110.5991         calculate D2E/DX2 analytically  !
 ! A198  A(90,89,91)           110.5352         calculate D2E/DX2 analytically  !
 ! A199  A(90,89,92)           108.5374         calculate D2E/DX2 analytically  !
 ! A200  A(91,89,92)           110.2367         calculate D2E/DX2 analytically  !
 ! A201  A(18,91,19)            53.9712         calculate D2E/DX2 analytically  !
 ! A202  A(18,91,89)           112.4476         calculate D2E/DX2 analytically  !
 ! A203  A(19,91,89)           144.6574         calculate D2E/DX2 analytically  !
 ! A204  A(57,93,94)           111.0272         calculate D2E/DX2 analytically  !
 ! A205  A(57,93,95)           111.7122         calculate D2E/DX2 analytically  !
 ! A206  A(57,93,96)           112.4986         calculate D2E/DX2 analytically  !
 ! A207  A(94,93,95)           106.4584         calculate D2E/DX2 analytically  !
 ! A208  A(94,93,96)           107.173          calculate D2E/DX2 analytically  !
 ! A209  A(95,93,96)           107.6607         calculate D2E/DX2 analytically  !
 ! A210  A(59,97,98)           112.3244         calculate D2E/DX2 analytically  !
 ! A211  A(59,97,99)           111.1201         calculate D2E/DX2 analytically  !
 ! A212  A(59,97,100)          112.1422         calculate D2E/DX2 analytically  !
 ! A213  A(98,97,99)           106.3142         calculate D2E/DX2 analytically  !
 ! A214  A(98,97,100)          107.7002         calculate D2E/DX2 analytically  !
 ! A215  A(99,97,100)          106.9018         calculate D2E/DX2 analytically  !
 ! D1    D(5,1,2,3)            -52.2008         calculate D2E/DX2 analytically  !
 ! D2    D(5,1,2,7)             64.6377         calculate D2E/DX2 analytically  !
 ! D3    D(5,1,2,13)          -173.4858         calculate D2E/DX2 analytically  !
 ! D4    D(8,1,2,3)             67.2111         calculate D2E/DX2 analytically  !
 ! D5    D(8,1,2,7)           -175.9504         calculate D2E/DX2 analytically  !
 ! D6    D(8,1,2,13)           -54.074          calculate D2E/DX2 analytically  !
 ! D7    D(14,1,2,3)          -174.3173         calculate D2E/DX2 analytically  !
 ! D8    D(14,1,2,7)           -57.4788         calculate D2E/DX2 analytically  !
 ! D9    D(14,1,2,13)           64.3977         calculate D2E/DX2 analytically  !
 ! D10   D(2,1,5,4)             53.582          calculate D2E/DX2 analytically  !
 ! D11   D(2,1,5,10)           -66.0544         calculate D2E/DX2 analytically  !
 ! D12   D(2,1,5,15)           174.6408         calculate D2E/DX2 analytically  !
 ! D13   D(8,1,5,4)            -65.5484         calculate D2E/DX2 analytically  !
 ! D14   D(8,1,5,10)           174.8152         calculate D2E/DX2 analytically  !
 ! D15   D(8,1,5,15)            55.5104         calculate D2E/DX2 analytically  !
 ! D16   D(14,1,5,4)           172.7611         calculate D2E/DX2 analytically  !
 ! D17   D(14,1,5,10)           53.1246         calculate D2E/DX2 analytically  !
 ! D18   D(14,1,5,15)          -66.1802         calculate D2E/DX2 analytically  !
 ! D19   D(2,1,14,24)         -147.8329         calculate D2E/DX2 analytically  !
 ! D20   D(5,1,14,24)           91.6202         calculate D2E/DX2 analytically  !
 ! D21   D(8,1,14,24)          -29.877          calculate D2E/DX2 analytically  !
 ! D22   D(1,2,3,6)            170.9689         calculate D2E/DX2 analytically  !
 ! D23   D(1,2,3,11)            55.3755         calculate D2E/DX2 analytically  !
 ! D24   D(1,2,3,12)           -68.0297         calculate D2E/DX2 analytically  !
 ! D25   D(7,2,3,6)             53.1999         calculate D2E/DX2 analytically  !
 ! D26   D(7,2,3,11)           -62.3935         calculate D2E/DX2 analytically  !
 ! D27   D(7,2,3,12)           174.2013         calculate D2E/DX2 analytically  !
 ! D28   D(13,2,3,6)           -65.7628         calculate D2E/DX2 analytically  !
 ! D29   D(13,2,3,11)          178.6438         calculate D2E/DX2 analytically  !
 ! D30   D(13,2,3,12)           55.2386         calculate D2E/DX2 analytically  !
 ! D31   D(1,2,13,20)          -99.4562         calculate D2E/DX2 analytically  !
 ! D32   D(3,2,13,20)          137.945          calculate D2E/DX2 analytically  !
 ! D33   D(7,2,13,20)           21.2449         calculate D2E/DX2 analytically  !
 ! D34   D(2,3,11,4)           -60.8154         calculate D2E/DX2 analytically  !
 ! D35   D(2,3,11,83)           93.1487         calculate D2E/DX2 analytically  !
 ! D36   D(6,3,11,4)           179.8115         calculate D2E/DX2 analytically  !
 ! D37   D(6,3,11,83)          -26.2245         calculate D2E/DX2 analytically  !
 ! D38   D(12,3,11,4)           60.2577         calculate D2E/DX2 analytically  !
 ! D39   D(12,3,11,83)        -145.7783         calculate D2E/DX2 analytically  !
 ! D40   D(2,3,12,79)         -175.6471         calculate D2E/DX2 analytically  !
 ! D41   D(6,3,12,79)          -54.3116         calculate D2E/DX2 analytically  !
 ! D42   D(11,3,12,79)          61.9079         calculate D2E/DX2 analytically  !
 ! D43   D(9,4,5,1)             61.2589         calculate D2E/DX2 analytically  !
 ! D44   D(9,4,5,10)           179.8103         calculate D2E/DX2 analytically  !
 ! D45   D(9,4,5,15)           -59.925          calculate D2E/DX2 analytically  !
 ! D46   D(11,4,5,1)           -56.7025         calculate D2E/DX2 analytically  !
 ! D47   D(11,4,5,10)           61.8488         calculate D2E/DX2 analytically  !
 ! D48   D(11,4,5,15)         -177.8865         calculate D2E/DX2 analytically  !
 ! D49   D(16,4,5,1)          -176.3322         calculate D2E/DX2 analytically  !
 ! D50   D(16,4,5,10)          -57.7809         calculate D2E/DX2 analytically  !
 ! D51   D(16,4,5,15)           62.4838         calculate D2E/DX2 analytically  !
 ! D52   D(5,4,11,3)            61.1559         calculate D2E/DX2 analytically  !
 ! D53   D(5,4,11,83)          -97.636          calculate D2E/DX2 analytically  !
 ! D54   D(9,4,11,3)           -56.4138         calculate D2E/DX2 analytically  !
 ! D55   D(9,4,11,83)          144.7942         calculate D2E/DX2 analytically  !
 ! D56   D(16,4,11,3)         -174.4191         calculate D2E/DX2 analytically  !
 ! D57   D(16,4,11,83)          26.789          calculate D2E/DX2 analytically  !
 ! D58   D(5,4,16,17)          -63.5633         calculate D2E/DX2 analytically  !
 ! D59   D(5,4,16,18)         -173.4884         calculate D2E/DX2 analytically  !
 ! D60   D(5,4,16,19)           62.8126         calculate D2E/DX2 analytically  !
 ! D61   D(9,4,16,17)           58.1004         calculate D2E/DX2 analytically  !
 ! D62   D(9,4,16,18)          -51.8247         calculate D2E/DX2 analytically  !
 ! D63   D(9,4,16,19)         -175.5236         calculate D2E/DX2 analytically  !
 ! D64   D(11,4,16,17)         175.6115         calculate D2E/DX2 analytically  !
 ! D65   D(11,4,16,18)          65.6864         calculate D2E/DX2 analytically  !
 ! D66   D(11,4,16,19)         -58.0125         calculate D2E/DX2 analytically  !
 ! D67   D(1,5,10,37)          123.4327         calculate D2E/DX2 analytically  !
 ! D68   D(4,5,10,37)            2.8027         calculate D2E/DX2 analytically  !
 ! D69   D(15,5,10,37)        -117.2979         calculate D2E/DX2 analytically  !
 ! D70   D(1,5,15,28)          134.8861         calculate D2E/DX2 analytically  !
 ! D71   D(4,5,15,28)         -103.1536         calculate D2E/DX2 analytically  !
 ! D72   D(10,5,15,28)          16.9055         calculate D2E/DX2 analytically  !
 ! D73   D(5,10,37,19)          31.0924         calculate D2E/DX2 analytically  !
 ! D74   D(5,10,37,34)         128.0279         calculate D2E/DX2 analytically  !
 ! D75   D(5,10,37,52)         -88.7143         calculate D2E/DX2 analytically  !
 ! D76   D(5,10,37,83)         -25.4168         calculate D2E/DX2 analytically  !
 ! D77   D(3,11,83,19)        -155.4877         calculate D2E/DX2 analytically  !
 ! D78   D(3,11,83,37)        -100.9995         calculate D2E/DX2 analytically  !
 ! D79   D(3,11,83,52)         -44.42           calculate D2E/DX2 analytically  !
 ! D80   D(3,11,83,84)         116.7339         calculate D2E/DX2 analytically  !
 ! D81   D(4,11,83,19)          -1.2152         calculate D2E/DX2 analytically  !
 ! D82   D(4,11,83,37)          53.273          calculate D2E/DX2 analytically  !
 ! D83   D(4,11,83,52)         109.8526         calculate D2E/DX2 analytically  !
 ! D84   D(4,11,83,84)         -88.9936         calculate D2E/DX2 analytically  !
 ! D85   D(3,12,79,80)         173.5301         calculate D2E/DX2 analytically  !
 ! D86   D(3,12,79,81)         -66.8            calculate D2E/DX2 analytically  !
 ! D87   D(3,12,79,82)          54.4686         calculate D2E/DX2 analytically  !
 ! D88   D(2,13,20,21)         -59.8813         calculate D2E/DX2 analytically  !
 ! D89   D(2,13,20,22)          61.8827         calculate D2E/DX2 analytically  !
 ! D90   D(2,13,20,23)        -178.3669         calculate D2E/DX2 analytically  !
 ! D91   D(1,14,24,25)         -71.2064         calculate D2E/DX2 analytically  !
 ! D92   D(1,14,24,26)          50.5365         calculate D2E/DX2 analytically  !
 ! D93   D(1,14,24,27)         169.068          calculate D2E/DX2 analytically  !
 ! D94   D(5,15,28,29)         -69.4838         calculate D2E/DX2 analytically  !
 ! D95   D(5,15,28,30)          51.2482         calculate D2E/DX2 analytically  !
 ! D96   D(5,15,28,31)         171.415          calculate D2E/DX2 analytically  !
 ! D97   D(4,16,18,91)        -140.3215         calculate D2E/DX2 analytically  !
 ! D98   D(17,16,18,91)        109.119          calculate D2E/DX2 analytically  !
 ! D99   D(19,16,18,91)        -15.4152         calculate D2E/DX2 analytically  !
 ! D100  D(4,16,19,37)         -14.8042         calculate D2E/DX2 analytically  !
 ! D101  D(4,16,19,83)          56.3519         calculate D2E/DX2 analytically  !
 ! D102  D(4,16,19,91)         134.7348         calculate D2E/DX2 analytically  !
 ! D103  D(17,16,19,37)        106.7249         calculate D2E/DX2 analytically  !
 ! D104  D(17,16,19,83)        177.881          calculate D2E/DX2 analytically  !
 ! D105  D(17,16,19,91)       -103.7362         calculate D2E/DX2 analytically  !
 ! D106  D(18,16,19,37)       -134.4011         calculate D2E/DX2 analytically  !
 ! D107  D(18,16,19,83)        -63.245          calculate D2E/DX2 analytically  !
 ! D108  D(18,16,19,91)         15.1378         calculate D2E/DX2 analytically  !
 ! D109  D(16,18,91,19)         10.4377         calculate D2E/DX2 analytically  !
 ! D110  D(16,18,91,89)        152.7025         calculate D2E/DX2 analytically  !
 ! D111  D(16,19,37,10)        -20.1436         calculate D2E/DX2 analytically  !
 ! D112  D(16,19,37,34)       -140.9371         calculate D2E/DX2 analytically  !
 ! D113  D(16,19,37,52)         79.6781         calculate D2E/DX2 analytically  !
 ! D114  D(91,19,37,10)       -153.8206         calculate D2E/DX2 analytically  !
 ! D115  D(91,19,37,34)         85.3859         calculate D2E/DX2 analytically  !
 ! D116  D(91,19,37,52)        -53.9988         calculate D2E/DX2 analytically  !
 ! D117  D(16,19,83,11)        -27.884          calculate D2E/DX2 analytically  !
 ! D118  D(16,19,83,52)       -105.6726         calculate D2E/DX2 analytically  !
 ! D119  D(16,19,83,84)         78.5095         calculate D2E/DX2 analytically  !
 ! D120  D(91,19,83,11)       -116.2189         calculate D2E/DX2 analytically  !
 ! D121  D(91,19,83,52)        165.9925         calculate D2E/DX2 analytically  !
 ! D122  D(91,19,83,84)         -9.8254         calculate D2E/DX2 analytically  !
 ! D123  D(16,19,91,18)         -8.4606         calculate D2E/DX2 analytically  !
 ! D124  D(16,19,91,89)        -86.3742         calculate D2E/DX2 analytically  !
 ! D125  D(37,19,91,18)        133.7802         calculate D2E/DX2 analytically  !
 ! D126  D(37,19,91,89)         55.8666         calculate D2E/DX2 analytically  !
 ! D127  D(83,19,91,18)         97.8874         calculate D2E/DX2 analytically  !
 ! D128  D(83,19,91,89)         19.9738         calculate D2E/DX2 analytically  !
 ! D129  D(36,32,33,34)        -45.3499         calculate D2E/DX2 analytically  !
 ! D130  D(36,32,33,38)         67.358          calculate D2E/DX2 analytically  !
 ! D131  D(36,32,33,44)       -170.1657         calculate D2E/DX2 analytically  !
 ! D132  D(39,32,33,34)         74.8855         calculate D2E/DX2 analytically  !
 ! D133  D(39,32,33,38)       -172.4066         calculate D2E/DX2 analytically  !
 ! D134  D(39,32,33,44)        -49.9303         calculate D2E/DX2 analytically  !
 ! D135  D(45,32,33,34)       -164.0825         calculate D2E/DX2 analytically  !
 ! D136  D(45,32,33,38)        -51.3747         calculate D2E/DX2 analytically  !
 ! D137  D(45,32,33,44)         71.1016         calculate D2E/DX2 analytically  !
 ! D138  D(33,32,36,35)         57.6121         calculate D2E/DX2 analytically  !
 ! D139  D(33,32,36,41)        -62.1492         calculate D2E/DX2 analytically  !
 ! D140  D(33,32,36,46)        176.6839         calculate D2E/DX2 analytically  !
 ! D141  D(39,32,36,35)        -62.2758         calculate D2E/DX2 analytically  !
 ! D142  D(39,32,36,41)        177.9629         calculate D2E/DX2 analytically  !
 ! D143  D(39,32,36,46)         56.796          calculate D2E/DX2 analytically  !
 ! D144  D(45,32,36,35)        175.6613         calculate D2E/DX2 analytically  !
 ! D145  D(45,32,36,41)         55.9            calculate D2E/DX2 analytically  !
 ! D146  D(45,32,36,46)        -65.2669         calculate D2E/DX2 analytically  !
 ! D147  D(33,32,45,67)       -141.2988         calculate D2E/DX2 analytically  !
 ! D148  D(36,32,45,67)        100.6748         calculate D2E/DX2 analytically  !
 ! D149  D(39,32,45,67)        -21.0064         calculate D2E/DX2 analytically  !
 ! D150  D(32,33,34,37)       -167.7203         calculate D2E/DX2 analytically  !
 ! D151  D(32,33,34,42)         34.3791         calculate D2E/DX2 analytically  !
 ! D152  D(32,33,34,53)        -71.709          calculate D2E/DX2 analytically  !
 ! D153  D(38,33,34,37)         75.6682         calculate D2E/DX2 analytically  !
 ! D154  D(38,33,34,42)        -82.2324         calculate D2E/DX2 analytically  !
 ! D155  D(38,33,34,53)        171.6794         calculate D2E/DX2 analytically  !
 ! D156  D(44,33,34,37)        -38.5255         calculate D2E/DX2 analytically  !
 ! D157  D(44,33,34,42)        163.5739         calculate D2E/DX2 analytically  !
 ! D158  D(44,33,34,53)         57.4857         calculate D2E/DX2 analytically  !
 ! D159  D(32,33,44,63)        -73.4064         calculate D2E/DX2 analytically  !
 ! D160  D(34,33,44,63)        159.4244         calculate D2E/DX2 analytically  !
 ! D161  D(38,33,44,63)         49.288          calculate D2E/DX2 analytically  !
 ! D162  D(33,34,37,10)       -140.9095         calculate D2E/DX2 analytically  !
 ! D163  D(33,34,37,19)        -53.2111         calculate D2E/DX2 analytically  !
 ! D164  D(33,34,37,52)         84.1121         calculate D2E/DX2 analytically  !
 ! D165  D(33,34,37,83)          7.9467         calculate D2E/DX2 analytically  !
 ! D166  D(42,34,37,10)         18.8031         calculate D2E/DX2 analytically  !
 ! D167  D(42,34,37,19)        106.5015         calculate D2E/DX2 analytically  !
 ! D168  D(42,34,37,52)       -116.1753         calculate D2E/DX2 analytically  !
 ! D169  D(42,34,37,83)        167.6593         calculate D2E/DX2 analytically  !
 ! D170  D(53,34,37,10)        119.8998         calculate D2E/DX2 analytically  !
 ! D171  D(53,34,37,19)       -152.4018         calculate D2E/DX2 analytically  !
 ! D172  D(53,34,37,52)        -15.0786         calculate D2E/DX2 analytically  !
 ! D173  D(53,34,37,83)        -91.244          calculate D2E/DX2 analytically  !
 ! D174  D(33,34,42,35)        -31.8875         calculate D2E/DX2 analytically  !
 ! D175  D(33,34,42,60)       -148.9566         calculate D2E/DX2 analytically  !
 ! D176  D(37,34,42,35)        169.079          calculate D2E/DX2 analytically  !
 ! D177  D(37,34,42,60)         52.01           calculate D2E/DX2 analytically  !
 ! D178  D(53,34,42,35)         72.9969         calculate D2E/DX2 analytically  !
 ! D179  D(53,34,42,60)        -44.0721         calculate D2E/DX2 analytically  !
 ! D180  D(33,34,53,51)       -119.2396         calculate D2E/DX2 analytically  !
 ! D181  D(37,34,53,51)          1.0203         calculate D2E/DX2 analytically  !
 ! D182  D(42,34,53,51)        115.786          calculate D2E/DX2 analytically  !
 ! D183  D(40,35,36,32)         61.301          calculate D2E/DX2 analytically  !
 ! D184  D(40,35,36,41)       -179.287          calculate D2E/DX2 analytically  !
 ! D185  D(40,35,36,46)        -59.3353         calculate D2E/DX2 analytically  !
 ! D186  D(42,35,36,32)        -54.1611         calculate D2E/DX2 analytically  !
 ! D187  D(42,35,36,41)         65.2509         calculate D2E/DX2 analytically  !
 ! D188  D(42,35,36,46)       -174.7974         calculate D2E/DX2 analytically  !
 ! D189  D(47,35,36,32)       -174.3832         calculate D2E/DX2 analytically  !
 ! D190  D(47,35,36,41)        -54.9711         calculate D2E/DX2 analytically  !
 ! D191  D(47,35,36,46)         64.9805         calculate D2E/DX2 analytically  !
 ! D192  D(36,35,42,34)         40.6059         calculate D2E/DX2 analytically  !
 ! D193  D(36,35,42,60)        153.027          calculate D2E/DX2 analytically  !
 ! D194  D(40,35,42,34)        -77.9646         calculate D2E/DX2 analytically  !
 ! D195  D(40,35,42,60)         34.4565         calculate D2E/DX2 analytically  !
 ! D196  D(47,35,42,34)        165.9146         calculate D2E/DX2 analytically  !
 ! D197  D(47,35,42,60)        -81.6642         calculate D2E/DX2 analytically  !
 ! D198  D(36,35,47,48)        -66.9048         calculate D2E/DX2 analytically  !
 ! D199  D(36,35,47,49)        176.1618         calculate D2E/DX2 analytically  !
 ! D200  D(36,35,47,50)         54.5577         calculate D2E/DX2 analytically  !
 ! D201  D(40,35,47,48)         57.5949         calculate D2E/DX2 analytically  !
 ! D202  D(40,35,47,49)        -59.3385         calculate D2E/DX2 analytically  !
 ! D203  D(40,35,47,50)        179.0574         calculate D2E/DX2 analytically  !
 ! D204  D(42,35,47,48)        170.5174         calculate D2E/DX2 analytically  !
 ! D205  D(42,35,47,49)         53.584          calculate D2E/DX2 analytically  !
 ! D206  D(42,35,47,50)        -68.0201         calculate D2E/DX2 analytically  !
 ! D207  D(32,36,46,71)        123.0776         calculate D2E/DX2 analytically  !
 ! D208  D(35,36,46,71)       -115.6109         calculate D2E/DX2 analytically  !
 ! D209  D(41,36,46,71)          3.2715         calculate D2E/DX2 analytically  !
 ! D210  D(10,37,52,51)       -114.0522         calculate D2E/DX2 analytically  !
 ! D211  D(19,37,52,51)        156.948          calculate D2E/DX2 analytically  !
 ! D212  D(34,37,52,51)         27.8439         calculate D2E/DX2 analytically  !
 ! D213  D(10,37,83,11)         -4.5491         calculate D2E/DX2 analytically  !
 ! D214  D(10,37,83,84)         99.9891         calculate D2E/DX2 analytically  !
 ! D215  D(34,37,83,11)       -156.9299         calculate D2E/DX2 analytically  !
 ! D216  D(34,37,83,84)        -52.3918         calculate D2E/DX2 analytically  !
 ! D217  D(34,42,60,56)          8.9441         calculate D2E/DX2 analytically  !
 ! D218  D(35,42,60,56)       -116.2952         calculate D2E/DX2 analytically  !
 ! D219  D(33,44,63,64)        -40.0662         calculate D2E/DX2 analytically  !
 ! D220  D(33,44,63,65)         81.6491         calculate D2E/DX2 analytically  !
 ! D221  D(33,44,63,66)       -158.9727         calculate D2E/DX2 analytically  !
 ! D222  D(32,45,67,68)        -61.0027         calculate D2E/DX2 analytically  !
 ! D223  D(32,45,67,69)         60.9164         calculate D2E/DX2 analytically  !
 ! D224  D(32,45,67,70)        179.4288         calculate D2E/DX2 analytically  !
 ! D225  D(36,46,71,72)        -63.2766         calculate D2E/DX2 analytically  !
 ! D226  D(36,46,71,73)         58.3845         calculate D2E/DX2 analytically  !
 ! D227  D(36,46,71,74)        177.712          calculate D2E/DX2 analytically  !
 ! D228  D(35,47,50,75)        176.5493         calculate D2E/DX2 analytically  !
 ! D229  D(48,47,50,75)        -63.8985         calculate D2E/DX2 analytically  !
 ! D230  D(49,47,50,75)         55.8539         calculate D2E/DX2 analytically  !
 ! D231  D(47,50,75,76)       -179.4426         calculate D2E/DX2 analytically  !
 ! D232  D(47,50,75,77)        -60.1493         calculate D2E/DX2 analytically  !
 ! D233  D(47,50,75,78)         61.0185         calculate D2E/DX2 analytically  !
 ! D234  D(43,51,52,37)       -151.6174         calculate D2E/DX2 analytically  !
 ! D235  D(43,51,52,83)        -99.701          calculate D2E/DX2 analytically  !
 ! D236  D(53,51,52,37)        -20.4613         calculate D2E/DX2 analytically  !
 ! D237  D(53,51,52,83)         31.4551         calculate D2E/DX2 analytically  !
 ! D238  D(54,51,52,37)         91.4024         calculate D2E/DX2 analytically  !
 ! D239  D(54,51,52,83)        143.3188         calculate D2E/DX2 analytically  !
 ! D240  D(43,51,53,34)        151.1773         calculate D2E/DX2 analytically  !
 ! D241  D(52,51,53,34)         18.8374         calculate D2E/DX2 analytically  !
 ! D242  D(54,51,53,34)        -93.6178         calculate D2E/DX2 analytically  !
 ! D243  D(43,51,54,55)        -30.2735         calculate D2E/DX2 analytically  !
 ! D244  D(43,51,54,56)        151.9637         calculate D2E/DX2 analytically  !
 ! D245  D(52,51,54,55)         92.5725         calculate D2E/DX2 analytically  !
 ! D246  D(52,51,54,56)        -85.1903         calculate D2E/DX2 analytically  !
 ! D247  D(53,51,54,55)       -149.9477         calculate D2E/DX2 analytically  !
 ! D248  D(53,51,54,56)         32.2895         calculate D2E/DX2 analytically  !
 ! D249  D(51,52,83,11)       -144.4902         calculate D2E/DX2 analytically  !
 ! D250  D(51,52,83,19)        -74.6408         calculate D2E/DX2 analytically  !
 ! D251  D(51,52,83,84)         93.8174         calculate D2E/DX2 analytically  !
 ! D252  D(51,54,55,57)       -177.6892         calculate D2E/DX2 analytically  !
 ! D253  D(51,54,55,58)          2.8997         calculate D2E/DX2 analytically  !
 ! D254  D(56,54,55,57)          0.0447         calculate D2E/DX2 analytically  !
 ! D255  D(56,54,55,58)       -179.3663         calculate D2E/DX2 analytically  !
 ! D256  D(51,54,56,59)        178.2585         calculate D2E/DX2 analytically  !
 ! D257  D(51,54,56,60)         -2.1595         calculate D2E/DX2 analytically  !
 ! D258  D(55,54,56,59)          0.5217         calculate D2E/DX2 analytically  !
 ! D259  D(55,54,56,60)       -179.8963         calculate D2E/DX2 analytically  !
 ! D260  D(54,55,57,61)         -0.5332         calculate D2E/DX2 analytically  !
 ! D261  D(54,55,57,93)        176.8571         calculate D2E/DX2 analytically  !
 ! D262  D(58,55,57,61)        178.8721         calculate D2E/DX2 analytically  !
 ! D263  D(58,55,57,93)         -3.7376         calculate D2E/DX2 analytically  !
 ! D264  D(54,56,59,61)         -0.6086         calculate D2E/DX2 analytically  !
 ! D265  D(54,56,59,97)        175.6551         calculate D2E/DX2 analytically  !
 ! D266  D(60,56,59,61)        179.8075         calculate D2E/DX2 analytically  !
 ! D267  D(60,56,59,97)         -3.9288         calculate D2E/DX2 analytically  !
 ! D268  D(54,56,60,42)         10.9308         calculate D2E/DX2 analytically  !
 ! D269  D(59,56,60,42)       -169.4893         calculate D2E/DX2 analytically  !
 ! D270  D(55,57,61,59)          0.4477         calculate D2E/DX2 analytically  !
 ! D271  D(55,57,61,62)       -179.6302         calculate D2E/DX2 analytically  !
 ! D272  D(93,57,61,59)       -176.9994         calculate D2E/DX2 analytically  !
 ! D273  D(93,57,61,62)          2.9228         calculate D2E/DX2 analytically  !
 ! D274  D(55,57,93,94)       -105.5565         calculate D2E/DX2 analytically  !
 ! D275  D(55,57,93,95)        135.7725         calculate D2E/DX2 analytically  !
 ! D276  D(55,57,93,96)         14.5492         calculate D2E/DX2 analytically  !
 ! D277  D(61,57,93,94)         71.8919         calculate D2E/DX2 analytically  !
 ! D278  D(61,57,93,95)        -46.7791         calculate D2E/DX2 analytically  !
 ! D279  D(61,57,93,96)       -168.0024         calculate D2E/DX2 analytically  !
 ! D280  D(56,59,61,57)          0.1291         calculate D2E/DX2 analytically  !
 ! D281  D(56,59,61,62)       -179.7929         calculate D2E/DX2 analytically  !
 ! D282  D(97,59,61,57)       -176.0884         calculate D2E/DX2 analytically  !
 ! D283  D(97,59,61,62)          3.9895         calculate D2E/DX2 analytically  !
 ! D284  D(56,59,97,98)         34.5359         calculate D2E/DX2 analytically  !
 ! D285  D(56,59,97,99)        -84.4206         calculate D2E/DX2 analytically  !
 ! D286  D(56,59,97,100)       155.9979         calculate D2E/DX2 analytically  !
 ! D287  D(61,59,97,98)       -149.1952         calculate D2E/DX2 analytically  !
 ! D288  D(61,59,97,99)         91.8483         calculate D2E/DX2 analytically  !
 ! D289  D(61,59,97,100)       -27.7333         calculate D2E/DX2 analytically  !
 ! D290  D(11,83,84,85)       -104.0221         calculate D2E/DX2 analytically  !
 ! D291  D(11,83,84,89)         86.3809         calculate D2E/DX2 analytically  !
 ! D292  D(19,83,84,85)       -176.9781         calculate D2E/DX2 analytically  !
 ! D293  D(19,83,84,89)         13.4249         calculate D2E/DX2 analytically  !
 ! D294  D(37,83,84,85)        160.2913         calculate D2E/DX2 analytically  !
 ! D295  D(37,83,84,89)         -9.3056         calculate D2E/DX2 analytically  !
 ! D296  D(52,83,84,85)         13.9917         calculate D2E/DX2 analytically  !
 ! D297  D(52,83,84,89)       -155.6053         calculate D2E/DX2 analytically  !
 ! D298  D(83,84,85,86)       -109.1463         calculate D2E/DX2 analytically  !
 ! D299  D(83,84,85,87)         10.3888         calculate D2E/DX2 analytically  !
 ! D300  D(83,84,85,88)        129.9705         calculate D2E/DX2 analytically  !
 ! D301  D(89,84,85,86)         60.7355         calculate D2E/DX2 analytically  !
 ! D302  D(89,84,85,87)       -179.7294         calculate D2E/DX2 analytically  !
 ! D303  D(89,84,85,88)        -60.1478         calculate D2E/DX2 analytically  !
 ! D304  D(83,84,89,90)       -124.7377         calculate D2E/DX2 analytically  !
 ! D305  D(83,84,89,91)         -4.702          calculate D2E/DX2 analytically  !
 ! D306  D(83,84,89,92)        114.8935         calculate D2E/DX2 analytically  !
 ! D307  D(85,84,89,90)         63.5368         calculate D2E/DX2 analytically  !
 ! D308  D(85,84,89,91)       -176.4275         calculate D2E/DX2 analytically  !
 ! D309  D(85,84,89,92)        -56.832          calculate D2E/DX2 analytically  !
 ! D310  D(84,89,91,18)        -70.9863         calculate D2E/DX2 analytically  !
 ! D311  D(84,89,91,19)        -12.1574         calculate D2E/DX2 analytically  !
 ! D312  D(90,89,91,18)         49.1867         calculate D2E/DX2 analytically  !
 ! D313  D(90,89,91,19)        108.0157         calculate D2E/DX2 analytically  !
 ! D314  D(92,89,91,18)        169.1817         calculate D2E/DX2 analytically  !
 ! D315  D(92,89,91,19)       -131.9893         calculate D2E/DX2 analytically  !
 --------------------------------------------------------------------------------
 Trust Radius=5.00D-02 FncErr=1.00D-07 GrdErr=1.00D-06 EigMax=2.50D+02 EigMin=1.00D-04
 Number of steps in this run=    600 maximum allowed number of steps=    600.
 Search for a saddle point of order  1.
 GradGradGradGradGradGradGradGradGradGradGradGradGradGradGradGradGradGrad

 Leave Link  103 at Fri Jun  7 08:27:52 2019, MaxMem=  6442450944 cpu:               4.2 elap:               0.2
 (Enter /home/ekwan/sw/g16/l202.exe)
 Stoichiometry    C30H47F6NaO15S
 Framework group  C1[X(C30H47F6NaO15S)]
 Deg. of freedom   294
 Full point group                 C1      NOp   1
 Largest Abelian subgroup         C1      NOp   1
 Largest concise Abelian subgroup C1      NOp   1
                         Standard orientation:                         
 ---------------------------------------------------------------------
 Center     Atomic      Atomic             Coordinates (Angstroms)
 Number     Number       Type             X           Y           Z
 ---------------------------------------------------------------------
      1          6           0       -1.722868    1.556514    2.285555
      2          6           0       -2.074800    2.308835    1.006696
      3          6           0       -1.185499    3.534663    0.837464
      4          6           0        0.578913    2.552272    2.118836
      5          6           0       -0.226563    1.270514    2.317425
      6          1           0       -1.327175    3.986746   -0.159354
      7          1           0       -1.871740    1.646457    0.147625
      8          1           0       -1.991810    2.185203    3.153423
      9          1           0        0.337862    3.240234    2.947471
     10          1           0       -0.003731    0.566237    1.495979
     11          8           0        0.180577    3.169135    0.873212
     12          8           0       -1.513546    4.455501    1.837563
     13          8           0       -3.426801    2.729045    0.995678
     14          8           0       -2.496590    0.366101    2.302642
     15          8           0        0.121446    0.680708    3.562761
     16          6           0        2.091894    2.351235    2.048020
     17          1           0        2.383537    1.950873    3.049443
     18          1           0        2.521235    3.386915    2.025236
     19          8           0        2.509121    1.591821    0.996004
     20          6           0       -4.270348    1.882664    0.245174
     21          1           0       -3.950401    1.828091   -0.809639
     22          1           0       -4.298774    0.863477    0.656028
     23          1           0       -5.273766    2.317614    0.283061
     24          6           0       -2.862932   -0.065656    3.596683
     25          1           0       -2.007086   -0.459644    4.160680
     26          1           0       -3.316099    0.756146    4.174093
     27          1           0       -3.605502   -0.857835    3.466086
     28          6           0        0.982069   -0.432264    3.412743
     29          1           0        0.456158   -1.283030    2.951065
     30          1           0        1.854896   -0.192598    2.786157
     31          1           0        1.315474   -0.718737    4.415384
     32          6           0        3.765253   -1.643765   -1.306030
     33          6           0        3.148649   -0.315958   -0.881140
     34          6           0        1.785877   -0.480063   -0.301172
     35          6           0        2.053537   -2.816091    0.112700
     36          6           0        3.535078   -2.659164   -0.191202
     37          1           0        1.160849    0.388575   -0.145138
     38          1           0        3.725096    0.087740   -0.023527
     39          1           0        3.290818   -1.990072   -2.239249
     40          1           0        1.524209   -3.183210   -0.777431
     41          1           0        4.050597   -2.303254    0.714624
     42          8           0        1.445300   -1.509669    0.404285
     43          8           0       -0.520222    0.139607   -3.912240
     44          8           0        3.077033    0.680690   -1.878016
     45          8           0        5.155065   -1.452240   -1.490229
[...]
 914,-0.00000983,-0.00017576,-0.00060114,-0.00019536,0.00010094,0.00023
 630,0.00002628,0.00364057,0.00084755,-0.00138808,-0.00097488,-0.000943
 96,0.00003664,-0.00163812,0.00038238,-0.00012640,-0.00028922,0.0010111
 1,0.00191180,0.00035759,-0.00079007,0.00050620,0.00346882,0.00026111,0
 .00027727,0.00024625,0.00074436,0.00270509,0.00004453,-0.00020266,-0.0
 0017372,0.01167835,-0.04453680,0.00043622,0.00011026,-0.00068147,-0.00
 078261,-0.00424719,-0.00188645,0.00023265,0.00030697,-0.00078503,-0.00
 086578,0.00012610,0.00005730,-0.00005171,-0.00001735,-0.00000695,-0.00
 000923,-0.00002936,0.00000287,0.00001944,-0.00000439,-0.00000847,0.000
 00550,0.00002682,-0.00005757,-0.00007075,-0.00000554,0.00001958,0.0000
 0506,0.00000157,-0.00000148,0.00000863,-0.00000884,0.00000498,0.000009
 59,0.00003162,-0.00003482,0.00005395,0.00000213,0.00000959,-0.00000922
 ,-0.00000293,-0.00000871,-0.00001849,-0.00002321,0.00001577,0.00000137
 ,0.00000652,-0.00008745,0.00005966,0.00002320,0.00001615,0.00000472,0.
 00001470,-0.00006199,-0.00001531,-0.00005035,0.00004637,0.00000510,0.0
 0008813,0.00016125,-0.00003645,-0.00000143,-0.00003314,-0.00001288,-0.
 00002846,-0.00000850,0.00000340,-0.00000946,-0.00001716,0.00002637,0.0
 0020207,0.00017675,-0.00002433,-0.00004357,-0.00003623,0.00000981,0.00
 001737,0.00003740,-0.00002912,-0.00001161,-0.00000154,0.00000766,0.000
 00261,0.00000052,-0.00000128,-0.00000270,-0.00000898,-0.00000212,0.000
 02558,-0.00000489,0.00000706,-0.00000251,-0.00001107,-0.00000106,0.000
 04159,0.00002583,-0.00000128,-0.00001336,-0.00000493,0.00001343,-0.003
 16130,0.00022738,-0.00091161,0.00087303,-0.00040106,-0.00001941,0.0009
 6610,0.00047135,0.00028369,0.00077498,-0.00040687,0.00089863,0.0327059
 1,-0.23631447,-0.02180916,-0.02395773,-0.04071642,-0.03836029,-0.05317
 525,0.33812106,0.00031832,0.00042312,-0.00009515,-0.00011073,-0.000014
 21,-0.00017300,0.00000438,-0.00000710,0.00000475,-0.00002826,0.0000952
 3,-0.00007813,-0.00003753,0.00007474,-0.00012773,-0.00000769,-0.000032
 58,0.00001658,0.00001051,-0.00002734,-0.00000590,-0.00004104,-0.000083
 38,-0.00000501,-0.00001135,-0.00000510,0.00001155,-0.00000308,0.000009
 41,-0.00002271,0.00002433,-0.00003882,0.00009541,0.00000285,-0.0000041
 8,0.00003533,0.00015565,0.00009906,0.00018573,-0.00001890,-0.00077109,
 0.00007085,-0.00000049,-0.00024119,0.00010055,0.00007212,-0.00005399,-
 0.00011811,0.00001124,0.00000531,0.00004007,-0.00002096,0.00001545,0.0
 0003085,-0.00004661,0.00006099,0.00015735,-0.00007114,-0.00011653,-0.0
 0017188,-0.00001802,-0.00005914,0.00008902,0.00000369,0.00001899,-0.00
 009384,-0.00000845,0.00002474,0.00001925,0.00015455,0.00036897,0.00004
 944,0.00003376,0.00001350,0.00008921,-0.00003340,-0.00018567,0.0000108
 8,-0.00027307,0.00012541,0.00024201,0.00005185,0.00036972,0.00016450,-
 0.00000219,-0.00017170,-0.00004392,-0.00005966,-0.00006426,-0.00004938
 ,-0.00002806,-0.00004160,-0.00002915,-0.00004713,0.00001135,-0.0000246
 2,0.00001730,0.00000807,0.00001121,-0.00026975,-0.00006812,-0.00042540
 ,-0.00008737,0.00005330,-0.00012816,-0.00000393,-0.00000879,0.00001339
 ,-0.00000069,-0.00001869,-0.00002112,0.00001387,-0.00000934,-0.0000197
 8,-0.00000701,0.00000609,0.00001654,-0.00003060,0.00000131,0.00003266,
 0.00001943,0.00000418,0.00000090,0.00015900,-0.00007775,0.00015221,0.0
 0034342,0.00017684,-0.00029827,0.00004527,0.00001103,0.00001895,0.0000
 2500,-0.00000466,0.00001868,0.00002826,-0.00002376,0.00003180,0.000217
 83,0.00001478,-0.00009371,-0.00006588,0.00001853,0.00002339,-0.0000535
 6,-0.00014875,-0.00014356,-0.00008924,0.00000771,0.00010336,-0.0013557
 8,-0.00050844,0.00034354,0.00034529,0.00042762,0.00008061,0.00069434,-
 0.00004301,0.00017483,-0.00009738,-0.00085633,-0.00052425,-0.00020532,
 0.00047131,-0.00046169,-0.00136046,0.00015728,0.00015650,0.00038258,-0
 .00067895,-0.00095684,-0.00001815,0.00005340,0.00010675,-0.00444378,0.
 02252656,0.00767933,0.00003526,0.00025020,0.00004922,0.00162348,0.0005
 5290,0.00051443,-0.00028726,0.00030083,0.00010734,-0.00003146,-0.00002
 133,0.00000898,0.00000826,0.00000254,0.00000536,0.00000415,0.00000092,
 -0.00000257,-0.00000011,-0.00000004,-0.00000244,-0.00000780,0.00000027
 ,-0.00000544,-0.00000170,0.00000050,-0.00000248,0.00000090,-0.00000407
 ,0.00000415,0.00000492,0.00000132,-0.00000017,-0.00001733,0.00001093,-
 0.00003456,0.00000397,0.00000193,0.00000363,0.00000630,-0.00000523,0.0
 0000864,-0.00000116,0.00000023,0.00000218,0.00013816,-0.00000109,-0.00
 005839,-0.00001343,-0.00000271,0.00000546,-0.00003487,-0.00000926,0.00
 001646,-0.00002517,0.00001259,0.00000920,0.00000217,0.00001377,-0.0000
 0666,-0.00000063,0.00000208,0.00000004,0.00000055,0.00000011,-0.000001
 20,0.00000069,-0.00000444,0.00000640,-0.00005097,-0.00006425,-0.000056
 48,0.00000992,0.00000528,0.00001502,-0.00000234,-0.00000359,-0.0000035
 2,-0.00000096,-0.00000018,0.,0.00000179,-0.00000200,0.00000057,0.00000
 108,0.00000262,0.00000254,-0.00000941,0.00000149,-0.00001128,0.0000023
 0,0.00000559,0.00000186,-0.00000424,-0.00000512,-0.00000154,0.00000113
 ,-0.00000022,0.00000095,0.00117705,-0.00031951,0.00024192,-0.00035983,
 0.00021624,0.00006185,-0.00033811,-0.00008334,-0.00007666,-0.00027318,
 0.00015964,-0.00023037,0.00430828,-0.02135216,-0.07371764,-0.01432499,
 -0.04748898,-0.01525043,-0.01510285,0.08125669,0.09300531,-0.00008338,
 -0.00001029,0.00004603,-0.00010936,0.00010175,0.00006610,-0.00012982,0
 .00014071,0.00001907,0.00006290,0.00006845,-0.00007984,-0.00011820,0.0
 0031625,0.00008172,0.00001314,-0.00000630,0.00000278,-0.00001064,0.000
 02261,-0.00002285,0.00002085,-0.00004321,-0.00004858,-0.00000505,-0.00
 005243,-0.00001677,0.00005047,-0.00003044,-0.00008645,0.00008294,-0.00
 012667,0.00002939,0.00003350,-0.00011584,-0.00004952,0.00018475,-0.000
 04589,-0.00006062,0.00063676,-0.00013350,-0.00047635,0.00024360,-0.000
 45823,-0.00007712,-0.00005896,0.00011048,0.00017807,0.00001995,0.00000
 634,-0.00003623,-0.00001315,-0.00008890,-0.00002909,-0.00003841,-0.000
 22361,-0.00014849,-0.00007378,-0.00010863,0.00008303,0.00003099,0.0000
 8310,-0.00008084,-0.00004788,-0.00002986,0.00010711,0.00003488,-0.0000
 3674,0.00000092,-0.00107817,-0.00053730,0.00064708,0.00018009,0.000210
 23,0.00012610,0.00017675,0.00004576,-0.00000473,0.00030024,-0.00057417
 ,-0.00097908,0.00002532,0.00082625,0.00035156,-0.00012682,-0.00029556,
 0.00003611,-0.00004991,-0.00010008,-0.00007434,-0.00007762,-0.00010240
 ,-0.00009195,0.00009500,0.00001785,-0.00007378,-0.00002443,0.00005727,
 -0.00003643,0.00037078,0.00060810,-0.00007670,0.00010193,-0.00002316,-
 0.00014615,0.00016247,-0.00011227,0.00001567,0.00000359,0.00003902,0.0
 0000292,0.00000210,0.00001098,0.00003414,0.00000416,-0.00000403,-0.000
 00315,0.00002813,-0.00001368,-0.00004245,-0.00001725,0.00000217,-0.000
 00379,-0.00022999,-0.00033470,0.00017575,-0.00031415,-0.00021611,0.000
 62709,-0.00013861,-0.00011809,0.00007699,-0.00017877,0.00000129,0.0001
 0409,-0.00017359,0.00009997,-0.00000242,0.00091034,0.00015659,0.000156
 34,-0.00019399,0.00002251,0.00003330,0.00002182,-0.00039315,0.00006274
 ,-0.00037858,0.00003013,-0.00039548,0.00139412,0.00068900,-0.00053663,
 -0.00035529,-0.00057901,-0.00007768,-0.00053185,-0.00007783,0.00007657
 ,-0.00087401,-0.00048791,-0.00029537,0.00034645,0.00008361,0.00006254,
 0.00208912,-0.00108386,0.00298835,0.00122912,-0.00086824,0.00067092,0.
 00017207,0.00011767,0.00000794,-0.01239384,-0.00117863,0.01412771,0.00
 046399,0.00051260,-0.00046194,-0.00357883,0.00016648,-0.00307941,0.002
 19871,0.00076868,0.00021169,0.00011550,0.00006242,-0.00002956,-0.00001
 327,-0.00000106,-0.00000932,-0.00002166,0.00000293,0.00001006,-0.00000
 703,-0.00001482,0.00000852,0.00003935,-0.00005011,-0.00008337,0.000007
 11,0.00001040,0.00000201,0.00000399,0.00000370,0.00001476,-0.00001918,
 0.00000143,0.00001002,0.00011369,-0.00004773,0.00007239,-0.00002681,-0
 .00001001,-0.00000749,0.00002327,-0.00000820,-0.00000684,-0.00001119,0
 .00001737,0.00000056,0.00009710,-0.00019690,0.00020863,-0.00003786,-0.
 00000119,-0.00003949,0.00000308,0.00000509,0.00001756,-0.00002536,0.00
 006056,-0.00000039,0.00001035,0.00004546,-0.00000846,0.00000100,-0.000
 01264,-0.00000583,-0.00000119,0.00000100,0.00000290,-0.00000296,-0.000
 00359,0.00000722,0.00006136,0.00014910,-0.00001577,-0.00001197,-0.0000
 3969,0.00000996,0.00000583,0.00003451,-0.00002040,-0.00000412,-0.00000
 296,0.00000415,0.00000234,0.00000014,0.00000333,-0.00000346,-0.0000092
 3,-0.00000275,0.00000288,0.00000605,-0.00000071,-0.00000130,-0.0000119
 6,-0.00000004,0.00003095,0.00002248,0.00000067,-0.00000370,-0.00000322
 ,0.00000637,-0.00126394,-0.00005365,0.00008483,0.00042305,-0.00019691,
 -0.00014755,0.00039391,0.00020143,0.00001776,0.00027222,-0.00006770,0.
 00013489,-0.18469810,-0.01569276,0.09372302,-0.07758792,-0.01587099,0.
 00213218,-0.02537558,0.03312862,0.02937926,0.29722293,0.00020442,0.000
 31446,0.00002124,-0.00006377,0.00004094,0.00004185,0.00006002,0.000154
 10,0.00003580,-0.00000764,0.00006993,0.00000360,0.00003698,-0.00000685
 ,0.00009259,-0.00000967,-0.00002790,0.00000685,0.00000215,0.00002690,-
 0.00001041,-0.00002092,-0.00005036,-0.00002988,0.00000072,-0.00002113,
 -0.00001292,0.00002433,-0.00000249,-0.00001572,-0.00004341,-0.00006699
 ,-0.00002688,-0.00003353,-0.00014729,-0.00003324,-0.00001815,-0.000142
 04,-0.00006230,0.00012467,0.00000545,-0.00004000,-0.00013478,0.0000028
 2,-0.00007099,0.00001205,0.00000947,0.00007899,-0.00000035,0.00000606,
 -0.00002681,-0.00002447,-0.00004151,-0.00001058,-0.00006531,-0.0000666
 9,-0.00006427,0.00001346,0.00013612,0.00003721,0.00000414,0.00004879,-
 0.00002789,-0.00004257,0.00009139,-0.00002947,0.00003205,-0.00004106,-
 0.00000762,0.00092407,0.00031495,-0.00039165,-0.00013750,-0.00009936,-
 0.00004553,-0.00027258,-0.00030994,-0.00008018,-0.00105192,-0.00150656
 ,-0.00082431,0.00009258,-0.00001154,0.00004366,-0.00002749,-0.00001800
 ,0.00002189,-0.00001421,-0.00000216,0.00000506,-0.00002235,-0.00000437
 ,-0.00003405,0.00005813,-0.00003624,-0.00001408,-0.00000461,0.00000182
 ,-0.00003588,0.00026432,0.00011052,0.00028368,0.00009062,-0.00023460,-
 0.00000610,0.00004119,-0.00002214,0.00000688,0.00001936,0.00002042,-0.
 00000188,-0.00001094,-0.00000031,0.00001821,0.00000478,-0.00000361,-0.
 00000488,-0.00000238,-0.00000914,0.00001097,-0.00000161,0.00000113,0.0
 0000095,-0.00017998,0.00013025,-0.00008041,-0.00037816,-0.00011911,0.0
 0056644,-0.00008479,-0.00002333,0.00002072,-0.00006206,0.00002916,0.00
 002807,-0.00005455,0.00007597,-0.00000678,0.00000348,0.00001087,0.0000
 2341,-0.00004617,0.00002227,-0.00000577,0.00000369,-0.00015445,-0.0000
 4374,0.00001240,0.00007384,-0.00005836,0.00184091,0.00024559,-0.000603
 31,-0.00053833,-0.00051145,-0.00005386,-0.00072687,0.00015262,-0.00008
 130,-0.00052734,-0.00151762,0.00038920,-0.00055041,-0.00027757,0.00039
 107,0.00198185,0.00013026,0.00290418,-0.00014795,-0.00002500,-0.000227
 57,-0.00001041,0.00004102,0.00002650,-0.01876892,0.00502293,0.01629142
 ,0.00010725,0.00038752,-0.00005186,-0.00035238,-0.00048387,0.00086037,
 -0.00012525,-0.00020924,0.00072369,0.00006051,0.00003015,-0.00002311,-
 0.00000879,-0.00000314,-0.00000498,-0.00001309,0.00000122,0.00000824,-
 0.00000195,-0.00000443,0.00000297,0.00001451,-0.00002437,-0.00003140,-
 0.00000080,0.00000752,0.00000241,0.00000079,0.00000061,0.00000366,-0.0
 0000588,0.00000152,0.00000427,0.00002534,-0.00001828,0.00003168,-0.000
 00276,0.00000156,-0.00000445,-0.00000009,-0.00000239,-0.00000832,-0.00
 000827,0.00000687,0.,-0.00002332,-0.00004842,0.00005447,0.00000629,0.0
 0000486,-0.00000364,0.00001290,-0.00001388,-0.00000604,-0.00001072,0.0
 0001748,-0.00000053,0.00003761,0.00006863,-0.00001432,-0.00000055,-0.0
 0001445,-0.00000577,-0.00001214,-0.00000382,0.00000174,-0.00000450,-0.
 00000734,0.00001095,0.00009215,0.00008894,-0.00000382,-0.00001898,-0.0
 0001764,0.00000242,0.00000722,0.00001752,-0.00001232,-0.00000457,-0.00
 000079,0.00000328,0.00000099,0.00000054,-0.00000030,-0.00000139,-0.000
 00450,-0.00000136,0.00001143,-0.00000160,0.00000446,-0.00000131,-0.000
 00582,-0.00000076,0.00001841,0.00001192,-0.00000015,-0.00000551,-0.000
 00200,0.00000544,-0.00116223,0.00009690,-0.00051902,0.00035417,-0.0001
 5125,0.00001599,0.00039677,0.00017496,0.00011987,0.00024339,-0.0001026
 4,0.00028820,-0.01172069,-0.07251558,0.01439405,-0.01622027,0.00832478
 ,0.00158771,0.04471194,-0.01332438,-0.03472068,0.00183750,0.07592706,0
 .00034970,0.00046874,-0.00004352,-0.00008928,-0.00008820,-0.00024755,0
 .00008817,-0.00010750,-0.00000461,-0.00008042,0.00006941,-0.00004487,0
 .00003392,-0.00012353,-0.00021758,-0.00001759,-0.00003520,0.00001775,0
 .00002469,-0.00004671,0.00001070,-0.00004499,-0.00002980,0.00003555,-0
 .00000946,0.00002817,0.00002597,-0.00003647,0.00003426,0.00003378,-0.0
 0001720,0.00003801,0.00010188,-0.00001433,0.00007590,0.00007442,0.0000
 7975,0.00015098,0.00024749,-0.00053274,-0.00062103,0.00053612,-0.00015
 952,-0.00001532,0.00017462,0.00012033,-0.00013351,-0.00025339,0.000001
 25,0.00000206,0.00007154,-0.00001529,0.00007546,0.00005441,-0.00002026
 ,0.00021079,0.00028292,-0.00004010,-0.00008777,-0.00022853,-0.00003223
 ,-0.00012054,0.00013504,0.00002620,-0.00000423,-0.00013870,-0.00002835
 ,0.00004805,0.00002223,0.00175653,0.00089292,-0.00087747,-0.00013349,-
 0.00013260,0.00003105,-0.00038009,-0.00043694,0.00000650,-0.00134090,-
 0.00064777,0.00040013,0.00005173,-0.00009328,-0.00004146,0.00000610,0.
 00001172,-0.00001715,-0.00003505,-0.00000181,-0.00000520,0.00001694,0.
 00001633,0.00002537,-0.00011656,0.00002281,0.00001770,0.00003636,-0.00
 001164,0.00005045,-0.00059360,-0.00039959,-0.00060695,-0.00016179,0.00
 019361,-0.00005081,-0.00009483,0.00005075,-0.00000154,-0.00000924,-0.0
 0004746,-0.00003084,0.00002171,-0.00001733,-0.00004740,-0.00001182,0.0
 0001091,0.00001998,-0.00002172,0.00001858,0.00003849,0.00002496,0.0000
 0167,0.00000254,0.00039483,-0.00000116,0.00012464,0.00082131,0.0003857
 4,-0.00112810,0.00015160,0.00007397,-0.00002204,0.00013326,-0.00002053
 ,-0.00004219,0.00012704,-0.00010274,0.00003247,-0.00017605,-0.00002545
 ,-0.00015474,0.00002804,-0.00000328,0.00001583,0.00005840,0.00000809,-
 0.00006664,0.00007670,-0.00002710,0.00027635,-0.00346649,-0.00095215,0
 .00071613,0.00090739,0.00112145,0.00025067,0.00145723,-0.00015578,0.00
 024458,0.00247367,0.00149128,-0.00041867,0.00018433,0.00035360,-0.0005
 2380,-0.00454054,0.00283530,-0.00631011,0.00026450,0.00043172,-0.00011
 753,-0.00001465,-0.00004776,-0.00004649,0.03864326,0.00632993,-0.02024
 600,-0.00019066,-0.00038282,0.00008023,0.00159689,0.00004185,-0.000408
 78,0.00013663,0.00055665,-0.00205576,-0.00011326,-0.00006534,0.0000354
 1,0.00001964,0.00000482,0.00001155,0.00002100,-0.00000072,-0.00001121,
 0.00000373,0.00000884,-0.00000804,-0.00003173,0.00003466,0.00004801,-0
 .00000387,-0.00000807,-0.00000424,-0.00000137,-0.00000528,-0.00000467,
 0.00001578,-0.00000044,-0.00000686,-0.00007616,0.00003740,-0.00007658,
 0.00001656,0.00000571,0.00000809,-0.00000403,-0.00000063,0.00001416,0.
 00000762,-0.00001047,0.00000247,0.00008238,0.00009590,-0.00015132,0.00
 000804,-0.00000219,0.00002277,-0.00004186,-0.00001146,-0.00000253,-0.0
 0001178,-0.00001817,0.00000965,-0.00000752,-0.00001718,-0.00000136,-0.
 00000158,0.00001074,0.00000367,0.00000277,-0.00000039,-0.00000330,0.00
 000282,-0.00000250,0.00000226,-0.00012429,-0.00018528,-0.00006465,0.00
 002244,0.00003139,0.00001098,-0.00000755,-0.00002659,0.00001043,0.0000
 0243,0.00000162,-0.00000302,0.00000041,-0.00000253,-0.00000100,0.00000
 348,0.00000893,0.00000442,-0.00001524,-0.00000059,-0.00001333,0.000003
 84,0.00001402,0.00000222,-0.00002597,-0.00002079,-0.00000206,0.0000047
 4,0.00000199,-0.00000360,0.00221930,-0.00043571,0.00065343,-0.00075462
 ,0.00041186,0.00011759,-0.00070331,-0.00021896,-0.00017871,-0.00046684
 ,0.00023576,-0.00048830,0.08332008,0.01659354,-0.14775097,-0.01096105,
 -0.00099290,0.02205500,0.02901602,-0.02560636,-0.01087636,-0.13908871,
 -0.00099485,0.16688081\\-0.00000121,0.00000139,-0.00000211,0.00000043,
 0.00000078,-0.00000269,-0.00000051,0.00000081,-0.00000432,-0.00000041,
 0.00000130,-0.00000199,-0.00000228,0.00000163,-0.00000180,0.00000044,-
 0.00000131,-0.00000309,-0.00000048,-0.00000081,-0.00000183,-0.00000024
 ,0.00000209,-0.00000210,-0.00000070,0.00000194,-0.00000216,0.00000157,
 0.00000033,-0.00000028,-0.00000097,0.00000054,-0.00000155,-0.00000065,
 0.00000166,-0.00000372,-0.00000097,-0.00000103,-0.00000065,0.00000084,
 -0.00000039,-0.00000127,-0.00000092,0.00000156,-0.00000068,-0.00000029
 ,0.00000108,-0.00000108,-0.00000084,0.00000268,-0.00000083,-0.00000005
 ,0.00000176,-0.00000192,-0.00000049,-0.00000038,-0.00000137,0.00000064
 ,0.00000187,-0.00000385,-0.00000010,-0.00000123,-0.00000244,0.00000148
 ,-0.00000020,0.00000120,-0.00000021,-0.00000021,-0.00000295,-0.0000018
 9,0.00000295,-0.00000012,-0.00000035,0.00000249,-0.00000083,-0.0000009
 6,0.00000280,-0.00000146,-0.00000027,0.00000237,0.00000008,-0.00000106
 ,0.00000264,0.00000079,0.00000101,0.00000514,0.00000033,-0.00000056,0.
 00000120,0.00000052,-0.00000081,0.00000304,0.00000062,0.00000016,-0.00
 000137,0.00000233,0.00000024,0.00000086,0.00000223,-0.00000518,-0.0000
 0271,-0.00000799,-0.00000009,-0.00000018,0.00000318,0.00000011,-0.0000
 0084,0.00000293,0.00000284,-0.00000027,0.00000242,-0.00000010,-0.00000
 017,0.00000117,0.00000076,-0.00000185,0.00000204,0.00000032,-0.0000006
 5,0.00000207,0.00000041,0.00000052,0.00000234,-0.00000013,0.00000059,0
 .00000468,0.00000090,-0.00000364,0.00000059,0.00000053,-0.00000185,0.0
 0000019,0.00000090,-0.00000083,0.00000195,0.00000102,0.00000003,0.0000
 0348,-0.00000033,0.00000122,0.00000250,0.00000041,0.00000069,0.0000039
 0,-0.00000020,0.00000089,0.00000269,0.00000047,0.00000174,0.00000291,-
 0.00000159,-0.00000247,-0.00000085,0.00000025,0.00000064,-0.00000127,0
 .00000268,-0.00000177,0.00000208,0.00000056,-0.00000173,0.00000034,0.0
 0000058,-0.00000134,0.00000078,0.00000170,-0.00000109,-0.00000099,0.00
 000099,-0.00000292,-0.00000213,0.00000064,-0.00000292,-0.00000086,0.00
 000041,-0.00000085,0.00000070,0.00000162,-0.00000046,0.00000382,-0.000
 00016,-0.00000063,0.00000109,0.00000025,-0.00000093,0.00000017,0.00000
 012,-0.00000128,0.00000022,0.00000033,-0.00000103,0.,0.00000089,-0.000
 00234,0.00000037,0.00000057,-0.00000224,-0.00000074,0.00000093,-0.0000
 0256,0.00000313,0.00000100,-0.00000133,0.00000365,0.00000082,-0.000002
 54,0.00000252,0.00000060,-0.00000178,0.00000290,-0.00000061,0.00000002
 ,0.00000419,0.00000041,0.00000035,0.00000427,-0.00000003,0.00000085,0.
 00000456,0.00000040,0.00000008,0.00000533,-0.00000120,0.00000283,0.000
 00421,-0.00000089,0.00000317,0.00000299,-0.00000027,0.00000255,0.00000
 294,-0.00000010,0.00000250,0.00000436,-0.00000003,0.00000057,-0.000003
 95,-0.00000093,0.00000151,-0.00000509,-0.00000106,0.00000127,-0.000004
 10,-0.00000051,0.00000034,-0.00000516,-0.00000006,-0.00000087,0.000000
 63,0.00000124,-0.00000120,-0.00000476,-0.00000003,-0.00000119,-0.00000
 431,0.00000027,-0.00000171,-0.00000274,0.00000082,-0.00000197,-0.00000
 330,-0.00000018,-0.00000084,-0.00000379,-0.00000018,0.,-0.00000079,-0.
 00000079,0.00000040,-0.00000258,-0.00000150,0.00000041,-0.00000142,0.0
 0000016,-0.00000002,-0.00000158,0.00000023,-0.00000150,-0.00000021,0.0
 0000022,-0.00000216,-0.00000310,0.00000030,-0.00000277,0.00000026,0.00
 000123,-0.00000300,-0.00000099,-0.00000016,0.00000107,0.00000264,-0.00
 000234,-0.00000013,0.00000135,0.00000054,-0.00000014,0.00000238,-0.000
 00038,0.00000048,0.00000077\\\@


 MAN IS A SINGULAR CREATURE.  HE HAS A SET OF GIFTS
 WHICH MAKE HIM UNIQUE AMONG THE ANIMALS: SO THAT, 
 UNLIKE THEM, HE IS NOT A FIGURE IN THE LANDSCAPE --
 HE IS A SHAPER OF THE LANDSCAPE.

                       -- JACOB BRONOWSKI
 Job cpu time:       5 days  6 hours 43 minutes 19.1 seconds.
 Elapsed time:       0 days  4 hours  5 minutes 51.4 seconds.
 File lengths (MBytes):  RWF=   9718 Int=      0 D2E=      0 Chk=     86 Scr=      1
 Normal termination of Gaussian 16 at Fri Jun  7 16:46:04 2019.
