 Entering Gaussian System, Link 0=g16
 Input=clay_new-glu_gluC6-bisCF3-sm-b97d3-631gd-pcm_thf.gjf
 Output=clay_new-glu_gluC6-bisCF3-sm-b97d3-631gd-pcm_thf.out
 Initial command:
 /home/ekwan/sw/g16/l1.exe "/scratch/users/ekwan/clay_new-glu_gluC6-bisCF3-sm-b97d3-631gd-pcm_thf/Gau-51683.inp" -scrdir="/scratch/users/ekwan/clay_new-glu_gluC6-bisCF3-sm-b97d3-631gd-pcm_thf/"
 Entering Link 1 = /home/ekwan/sw/g16/l1.exe PID=     51684.
  
 Copyright (c) 1988,1990,1992,1993,1995,1998,2003,2009,2016,
            Gaussian, Inc.  All Rights Reserved.
  
 This is part of the Gaussian(R) 16 program.  It is based on
 the Gaussian(R) 09 system (copyright 2009, Gaussian, Inc.),
 the Gaussian(R) 03 system (copyright 2003, Gaussian, Inc.),
 the Gaussian(R) 98 system (copyright 1998, Gaussian, Inc.),
 the Gaussian(R) 94 system (copyright 1995, Gaussian, Inc.),
 the Gaussian 92(TM) system (copyright 1992, Gaussian, Inc.),
 the Gaussian 90(TM) system (copyright 1990, Gaussian, Inc.),
 the Gaussian 88(TM) system (copyright 1988, Gaussian, Inc.),
 the Gaussian 86(TM) system (copyright 1986, Carnegie Mellon
 University), and the Gaussian 82(TM) system (copyright 1983,
 Carnegie Mellon University). Gaussian is a federally registered
 trademark of Gaussian, Inc.
  
 This software contains proprietary and confidential information,
 including trade secrets, belonging to Gaussian, Inc.
  
 This software is provided under written license and may be
 used, copied, transmitted, or stored only in accord with that
 written license.
  
 The following legend is applicable only to US Government
 contracts under FAR:
  
                    RESTRICTED RIGHTS LEGEND
  
 Use, reproduction and disclosure by the US Government is
 subject to restrictions as set forth in subparagraphs (a)
 and (c) of the Commercial Computer Software - Restricted
 Rights clause in FAR 52.227-19.
  
 Gaussian, Inc.
 340 Quinnipiac St., Bldg. 40, Wallingford CT 06492
  
  
 ---------------------------------------------------------------
 Warning -- This program may not be used in any manner that
 competes with the business of Gaussian, Inc. or will provide
 assistance to any competitor of Gaussian, Inc.  The licensee
 of this program is prohibited from giving any competitor of
 Gaussian, Inc. access to this program.  By using this program,
 the user acknowledges that Gaussian, Inc. is engaged in the
 business of creating and licensing software in the field of
 computational chemistry and represents and warrants to the
 licensee that it is not a competitor of Gaussian, Inc. and that
 it will not use this program in any manner prohibited above.
 ---------------------------------------------------------------
  

 Cite this work as:
 Gaussian 16, Revision A.03,
 M. J. Frisch, G. W. Trucks, H. B. Schlegel, G. E. Scuseria, 
 M. A. Robb, J. R. Cheeseman, G. Scalmani, V. Barone, 
 G. A. Petersson, H. Nakatsuji, X. Li, M. Caricato, A. V. Marenich, 
 J. Bloino, B. G. Janesko, R. Gomperts, B. Mennucci, H. P. Hratchian, 
 J. V. Ortiz, A. F. Izmaylov, J. L. Sonnenberg, D. Williams-Young, 
 F. Ding, F. Lipparini, F. Egidi, J. Goings, B. Peng, A. Petrone, 
 T. Henderson, D. Ranasinghe, V. G. Zakrzewski, J. Gao, N. Rega, 
 G. Zheng, W. Liang, M. Hada, M. Ehara, K. Toyota, R. Fukuda, 
 J. Hasegawa, M. Ishida, T. Nakajima, Y. Honda, O. Kitao, H. Nakai, 
 T. Vreven, K. Throssell, J. A. Montgomery, Jr., J. E. Peralta, 
 F. Ogliaro, M. J. Bearpark, J. J. Heyd, E. N. Brothers, K. N. Kudin, 
 V. N. Staroverov, T. A. Keith, R. Kobayashi, J. Normand, 
 K. Raghavachari, A. P. Rendell, J. C. Burant, S. S. Iyengar, 
 J. Tomasi, M. Cossi, J. M. Millam, M. Klene, C. Adamo, R. Cammi, 
 J. W. Ochterski, R. L. Martin, K. Morokuma, O. Farkas, 
 J. B. Foresman, and D. J. Fox, Gaussian, Inc., Wallingford CT, 2016.
 
 ******************************************
 Gaussian 16:  AS64L-G16RevA.03 25-Dec-2016
                10-Jun-2019 
 ******************************************
 %nprocshared=64
 Will use up to   64 processors via shared memory.
 %mem=96GB
 ----------------------------------------------------------------------
 #p opt freq=noraman 6-31g(d) scrf=(solvent=tetrahydrofuran,pcm) pop=no
 ne b97d empiricaldispersion=gd3
 ----------------------------------------------------------------------
 1/18=20,19=15,26=3,38=1/1,3;
 2/9=110,12=2,17=6,18=5,40=1/2;
 3/5=1,6=6,7=1,11=2,25=1,30=1,70=2201,71=1,72=20,74=-42,124=31/1,2,3;
 4//1;
 5/5=2,38=5,53=20/2;
 7//1,2,3,16;
 1/18=20,19=15,26=3/3(2);
 2/9=110/2;
 99//99;
 2/9=110/2;
 3/5=1,6=6,7=1,11=2,25=1,30=1,70=2205,71=1,72=20,74=-42,124=31/1,2,3;
 4/5=5,16=3,69=1/1;
 5/5=2,38=5,53=20/2;
 7//1,2,3,16;
 1/18=20,19=15,26=3/3(-5);
 2/9=110/2;
 99/9=1/99;
 Leave Link    1 at Mon Jun 10 05:38:17 2019, MaxMem= 12884901888 cpu:              23.9 elap:               0.4
 (Enter /home/ekwan/sw/g16/l101.exe)
 -----
 title
 -----
 Symbolic Z-matrix:
 Charge =  0 Multiplicity = 1
 C                     3.40802   0.4362    0.56374 
 C                     3.33205  -0.53777  -0.62755 
 C                     1.86172  -0.90701  -0.95097 
 C                     1.00974   1.11351   0.02488 
 C                     2.42594   1.60321   0.37171 
 H                     1.77732  -1.48764  -1.87656 
 H                     3.71026  -0.01102  -1.52624 
 H                     3.13394  -0.10592   1.48521 
 H                     0.59466   0.5661    0.88819 
 H                     2.78557   2.23122  -0.45901 
 O                     1.04468   0.21263  -1.11989 
 O                     1.41074  -1.75024   0.17129 
 O                     4.13449  -1.66848  -0.33139 
 O                     4.71523   1.00182   0.67436 
 O                     2.32401   2.35834   1.58066 
 C                     0.05954   2.27373  -0.30278 
 H                    -0.15341   2.79085   0.64259 
 H                    -0.88234   1.86335  -0.70587 
 O                     0.59694   3.26611  -1.17344 
 S                     0.10072  -2.7343   -0.09054 
 O                     0.08253  -3.62448   1.07553 
 O                     0.15513  -3.25395  -1.46762 
 C                    -1.28286  -1.5874    0.03426 
 C                    -1.75053  -1.23168   1.30434 
 C                    -1.82093  -1.04586  -1.13838 
 C                    -2.79521  -0.30004   1.39341 
 H                    -1.31213  -1.66947   2.19899 
 C                    -2.86591  -0.12048  -1.0247 
 H                    -1.43113  -1.3368   -2.1105 
 C                    -3.35502   0.25696   0.23518 
 H                    -4.16281   0.98222   0.31288 
 C                     4.33749  -2.55444  -1.43865 
 H                     3.42269  -3.12139  -1.68518 
 H                     4.67494  -2.00619  -2.33739 
 H                     5.11879  -3.26112  -1.13062 
 C                     5.57528   0.32329   1.59794 
 H                     6.52423   0.87741   1.59984 
 H                     5.15044   0.3339    2.619 
 H                     5.75441  -0.71885   1.29236 
 C                     2.96478   3.63876   1.51187 
 H                     2.81504   4.11423   2.49122 
 H                     4.04387   3.53108   1.31536 
 H                     2.5084    4.26738   0.72681 
 C                     0.64784   2.87082  -2.55083 
 H                     0.90277   3.77322  -3.12363 
 H                    -0.3306    2.48631  -2.89014 
 H                     1.41015   2.09522  -2.72824 
 C                    -3.36542   0.06403   2.75039 
 F                    -2.44079  -0.07547   3.73674 
 F                    -4.42203  -0.73527   3.0679 
 F                    -3.81093   1.34907   2.77418 
 C                    -3.41993   0.55248  -2.26351 
 F                    -2.84831   1.78369  -2.4437 
 F                    -4.76058   0.75169  -2.16711 
 F                    -3.18135  -0.17028  -3.38675 
 
 ITRead=  0  0  0  0  0  0  0  0  0  0  0  0  0  0  0  0  0  0  0  0
 ITRead=  0  0  0  0  0  0  0  0  0  0  0  0  0  0  0  0  0  0  0  0
 ITRead=  0  0  0  0  0  0  0  0  0  0  0  0  0  0  0
 MicOpt= -1 -1 -1 -1 -1 -1 -1 -1 -1 -1 -1 -1 -1 -1 -1 -1 -1 -1 -1 -1
 MicOpt= -1 -1 -1 -1 -1 -1 -1 -1 -1 -1 -1 -1 -1 -1 -1 -1 -1 -1 -1 -1
 MicOpt= -1 -1 -1 -1 -1 -1 -1 -1 -1 -1 -1 -1 -1 -1 -1
 NAtoms=     55 NQM=       55 NQMF=       0 NMMI=      0 NMMIF=      0
                NMic=       0 NMicF=      0.
                    Isotopes and Nuclear Properties:
 (Nuclear quadrupole moments (NQMom) in fm**2, nuclear magnetic moments (NMagM)
  in nuclear magnetons)

  Atom         1           2           3           4           5           6           7           8           9          10
 IAtWgt=          12          12          12          12          12           1           1           1           1           1
 AtmWgt=  12.0000000  12.0000000  12.0000000  12.0000000  12.0000000   1.0078250   1.0078250   1.0078250   1.0078250   1.0078250
 NucSpn=           0           0           0           0           0           1           1           1           1           1
 AtZEff=   0.0000000   0.0000000   0.0000000   0.0000000   0.0000000   0.0000000   0.0000000   0.0000000   0.0000000   0.0000000
 NQMom=    0.0000000   0.0000000   0.0000000   0.0000000   0.0000000   0.0000000   0.0000000   0.0000000   0.0000000   0.0000000
 NMagM=    0.0000000   0.0000000   0.0000000   0.0000000   0.0000000   2.7928460   2.7928460   2.7928460   2.7928460   2.7928460
 AtZNuc=   6.0000000   6.0000000   6.0000000   6.0000000   6.0000000   1.0000000   1.0000000   1.0000000   1.0000000   1.0000000

  Atom        11          12          13          14          15          16          17          18          19          20
 IAtWgt=          16          16          16          16          16          12           1           1          16          32
 AtmWgt=  15.9949146  15.9949146  15.9949146  15.9949146  15.9949146  12.0000000   1.0078250   1.0078250  15.9949146  31.9720718
 NucSpn=           0           0           0           0           0           0           1           1           0           0
 AtZEff=   0.0000000   0.0000000   0.0000000   0.0000000   0.0000000   0.0000000   0.0000000   0.0000000   0.0000000   0.0000000
 NQMom=    0.0000000   0.0000000   0.0000000   0.0000000   0.0000000   0.0000000   0.0000000   0.0000000   0.0000000   0.0000000
 NMagM=    0.0000000   0.0000000   0.0000000   0.0000000   0.0000000   0.0000000   2.7928460   2.7928460   0.0000000   0.0000000
 AtZNuc=   8.0000000   8.0000000   8.0000000   8.0000000   8.0000000   6.0000000   1.0000000   1.0000000   8.0000000  16.0000000

  Atom        21          22          23          24          25          26          27          28          29          30
 IAtWgt=          16          16          12          12          12          12           1          12           1          12
 AtmWgt=  15.9949146  15.9949146  12.0000000  12.0000000  12.0000000  12.0000000   1.0078250  12.0000000   1.0078250  12.0000000
 NucSpn=           0           0           0           0           0           0           1           0           1           0
 AtZEff=   0.0000000   0.0000000   0.0000000   0.0000000   0.0000000   0.0000000   0.0000000   0.0000000   0.0000000   0.0000000
 NQMom=    0.0000000   0.0000000   0.0000000   0.0000000   0.0000000   0.0000000   0.0000000   0.0000000   0.0000000   0.0000000
 NMagM=    0.0000000   0.0000000   0.0000000   0.0000000   0.0000000   0.0000000   2.7928460   0.0000000   2.7928460   0.0000000
 AtZNuc=   8.0000000   8.0000000   6.0000000   6.0000000   6.0000000   6.0000000   1.0000000   6.0000000   1.0000000   6.0000000

  Atom        31          32          33          34          35          36          37          38          39          40
 IAtWgt=           1          12           1           1           1          12           1           1           1          12
 AtmWgt=   1.0078250  12.0000000   1.0078250   1.0078250   1.0078250  12.0000000   1.0078250   1.0078250   1.0078250  12.0000000
 NucSpn=           1           0           1           1           1           0           1           1           1           0
 AtZEff=   0.0000000   0.0000000   0.0000000   0.0000000   0.0000000   0.0000000   0.0000000   0.0000000   0.0000000   0.0000000
 NQMom=    0.0000000   0.0000000   0.0000000   0.0000000   0.0000000   0.0000000   0.0000000   0.0000000   0.0000000   0.0000000
 NMagM=    2.7928460   0.0000000   2.7928460   2.7928460   2.7928460   0.0000000   2.7928460   2.7928460   2.7928460   0.0000000
 AtZNuc=   1.0000000   6.0000000   1.0000000   1.0000000   1.0000000   6.0000000   1.0000000   1.0000000   1.0000000   6.0000000

  Atom        41          42          43          44          45          46          47          48          49          50
 IAtWgt=           1           1           1          12           1           1           1          12          19          19
 AtmWgt=   1.0078250   1.0078250   1.0078250  12.0000000   1.0078250   1.0078250   1.0078250  12.0000000  18.9984033  18.9984033
 NucSpn=           1           1           1           0           1           1           1           0           1           1
 AtZEff=   0.0000000   0.0000000   0.0000000   0.0000000   0.0000000   0.0000000   0.0000000   0.0000000   0.0000000   0.0000000
 NQMom=    0.0000000   0.0000000   0.0000000   0.0000000   0.0000000   0.0000000   0.0000000   0.0000000   0.0000000   0.0000000
 NMagM=    2.7928460   2.7928460   2.7928460   0.0000000   2.7928460   2.7928460   2.7928460   0.0000000   2.6288670   2.6288670
 AtZNuc=   1.0000000   1.0000000   1.0000000   6.0000000   1.0000000   1.0000000   1.0000000   6.0000000   9.0000000   9.0000000

  Atom        51          52          53          54          55
 IAtWgt=          19          12          19          19          19
 AtmWgt=  18.9984033  12.0000000  18.9984033  18.9984033  18.9984033
 NucSpn=           1           0           1           1           1
 AtZEff=   0.0000000   0.0000000   0.0000000   0.0000000   0.0000000
 NQMom=    0.0000000   0.0000000   0.0000000   0.0000000   0.0000000
 NMagM=    2.6288670   0.0000000   2.6288670   2.6288670   2.6288670
 AtZNuc=   9.0000000   6.0000000   9.0000000   9.0000000   9.0000000
 Leave Link  101 at Mon Jun 10 05:38:18 2019, MaxMem= 12884901888 cpu:              52.2 elap:               0.9
 (Enter /home/ekwan/sw/g16/l103.exe)

 GradGradGradGradGradGradGradGradGradGradGradGradGradGradGradGradGradGrad
 Berny optimization.
 Initialization pass.
                           ----------------------------
                           !    Initial Parameters    !
                           ! (Angstroms and Degrees)  !
 --------------------------                            --------------------------
 ! Name  Definition              Value          Derivative Info.                !
 --------------------------------------------------------------------------------
 ! R1    R(1,2)                  1.5406         estimate D2E/DX2                !
 ! R2    R(1,5)                  1.5373         estimate D2E/DX2                !
 ! R3    R(1,8)                  1.1037         estimate D2E/DX2                !
 ! R4    R(1,14)                 1.4286         estimate D2E/DX2                !
 ! R5    R(2,3)                  1.5501         estimate D2E/DX2                !
 ! R6    R(2,7)                  1.1082         estimate D2E/DX2                !
 ! R7    R(2,13)                 1.4178         estimate D2E/DX2                !
 ! R8    R(3,6)                  1.0959         estimate D2E/DX2                !
 ! R9    R(3,11)                 1.3963         estimate D2E/DX2                !
 ! R10   R(3,12)                 1.4744         estimate D2E/DX2                !
 ! R11   R(4,5)                  1.5381         estimate D2E/DX2                !
 ! R12   R(4,9)                  1.1033         estimate D2E/DX2                !
 ! R13   R(4,11)                 1.4572         estimate D2E/DX2                !
 ! R14   R(4,16)                 1.535          estimate D2E/DX2                !
 ! R15   R(5,10)                 1.1017         estimate D2E/DX2                !
 ! R16   R(5,15)                 1.4291         estimate D2E/DX2                !
 ! R17   R(12,20)                1.6592         estimate D2E/DX2                !
 ! R18   R(13,32)                1.4325         estimate D2E/DX2                !
 ! R19   R(14,36)                1.4329         estimate D2E/DX2                !
 ! R20   R(15,40)                1.4335         estimate D2E/DX2                !
 ! R21   R(16,17)                1.0984         estimate D2E/DX2                !
 ! R22   R(16,18)                1.1036         estimate D2E/DX2                !
 ! R23   R(16,19)                1.4254         estimate D2E/DX2                !
 ! R24   R(19,44)                1.4339         estimate D2E/DX2                !
 ! R25   R(20,21)                1.4671         estimate D2E/DX2                !
 ! R26   R(20,22)                1.4729         estimate D2E/DX2                !
 ! R27   R(20,23)                1.8015         estimate D2E/DX2                !
 ! R28   R(23,24)                1.3994         estimate D2E/DX2                !
 ! R29   R(23,25)                1.3992         estimate D2E/DX2                !
 ! R30   R(24,26)                1.4026         estimate D2E/DX2                !
 ! R31   R(24,27)                1.0882         estimate D2E/DX2                !
 ! R32   R(25,28)                1.4005         estimate D2E/DX2                !
 ! R33   R(25,29)                1.087          estimate D2E/DX2                !
 ! R34   R(26,30)                1.4018         estimate D2E/DX2                !
 ! R35   R(26,48)                1.5163         estimate D2E/DX2                !
 ! R36   R(28,30)                1.4032         estimate D2E/DX2                !
 ! R37   R(28,52)                1.5147         estimate D2E/DX2                !
 ! R38   R(30,31)                1.0884         estimate D2E/DX2                !
 ! R39   R(32,33)                1.1041         estimate D2E/DX2                !
 ! R40   R(32,34)                1.1055         estimate D2E/DX2                !
 ! R41   R(32,35)                1.0976         estimate D2E/DX2                !
 ! R42   R(36,37)                1.0989         estimate D2E/DX2                !
 ! R43   R(36,38)                1.106          estimate D2E/DX2                !
 ! R44   R(36,39)                1.1007         estimate D2E/DX2                !
 ! R45   R(40,41)                1.0989         estimate D2E/DX2                !
 ! R46   R(40,42)                1.1021         estimate D2E/DX2                !
 ! R47   R(40,43)                1.1044         estimate D2E/DX2                !
 ! R48   R(44,45)                1.0988         estimate D2E/DX2                !
 ! R49   R(44,46)                1.1047         estimate D2E/DX2                !
 ! R50   R(44,47)                1.1019         estimate D2E/DX2                !
 ! R51   R(48,49)                1.3591         estimate D2E/DX2                !
 ! R52   R(48,50)                1.3624         estimate D2E/DX2                !
 ! R53   R(48,51)                1.3603         estimate D2E/DX2                !
 ! R54   R(52,53)                1.3693         estimate D2E/DX2                !
 ! R55   R(52,54)                1.3588         estimate D2E/DX2                !
 ! R56   R(52,55)                1.3568         estimate D2E/DX2                !
 ! A1    A(2,1,5)              110.5988         estimate D2E/DX2                !
 ! A2    A(2,1,8)              108.8332         estimate D2E/DX2                !
 ! A3    A(2,1,14)             110.8113         estimate D2E/DX2                !
 ! A4    A(5,1,8)              108.5741         estimate D2E/DX2                !
 ! A5    A(5,1,14)             107.0771         estimate D2E/DX2                !
 ! A6    A(8,1,14)             110.9192         estimate D2E/DX2                !
 ! A7    A(1,2,3)              111.0205         estimate D2E/DX2                !
 ! A8    A(1,2,7)              108.0436         estimate D2E/DX2                !
 ! A9    A(1,2,13)             108.3459         estimate D2E/DX2                !
 ! A10   A(3,2,7)              105.5294         estimate D2E/DX2                !
 ! A11   A(3,2,13)             112.9833         estimate D2E/DX2                !
 ! A12   A(7,2,13)             110.8118         estimate D2E/DX2                !
 ! A13   A(2,3,6)              112.0545         estimate D2E/DX2                !
 ! A14   A(2,3,11)             112.9087         estimate D2E/DX2                !
 ! A15   A(2,3,12)             105.5186         estimate D2E/DX2                !
 ! A16   A(6,3,11)             106.117          estimate D2E/DX2                !
 ! A17   A(6,3,12)             108.4397         estimate D2E/DX2                !
 ! A18   A(11,3,12)            111.8199         estimate D2E/DX2                !
 ! A19   A(5,4,9)              109.1433         estimate D2E/DX2                !
 ! A20   A(5,4,11)             110.6045         estimate D2E/DX2                !
 ! A21   A(5,4,16)             112.1757         estimate D2E/DX2                !
 ! A22   A(9,4,11)             108.4816         estimate D2E/DX2                !
 ! A23   A(9,4,16)             108.008          estimate D2E/DX2                !
 ! A24   A(11,4,16)            108.3266         estimate D2E/DX2                !
 ! A25   A(1,5,4)              112.0047         estimate D2E/DX2                !
 ! A26   A(1,5,10)             108.5652         estimate D2E/DX2                !
 ! A27   A(1,5,15)             109.9395         estimate D2E/DX2                !
 ! A28   A(4,5,10)             108.1803         estimate D2E/DX2                !
 ! A29   A(4,5,15)             107.0572         estimate D2E/DX2                !
 ! A30   A(10,5,15)            111.0975         estimate D2E/DX2                !
 ! A31   A(3,11,4)             114.5026         estimate D2E/DX2                !
 ! A32   A(3,12,20)            117.4242         estimate D2E/DX2                !
 ! A33   A(2,13,32)            114.3293         estimate D2E/DX2                !
 ! A34   A(1,14,36)            114.3081         estimate D2E/DX2                !
 ! A35   A(5,15,40)            113.5478         estimate D2E/DX2                !
 ! A36   A(4,16,17)            106.9859         estimate D2E/DX2                !
 ! A37   A(4,16,18)            108.9777         estimate D2E/DX2                !
 ! A38   A(4,16,19)            115.0382         estimate D2E/DX2                !
 ! A39   A(17,16,18)           108.9026         estimate D2E/DX2                !
 ! A40   A(17,16,19)           105.7259         estimate D2E/DX2                !
 ! A41   A(18,16,19)           110.9497         estimate D2E/DX2                !
 ! A42   A(16,19,44)           114.0924         estimate D2E/DX2                !
 ! A43   A(12,20,21)           104.1357         estimate D2E/DX2                !
 ! A44   A(12,20,22)           109.1238         estimate D2E/DX2                !
 ! A45   A(12,20,23)           102.5839         estimate D2E/DX2                !
 ! A46   A(21,20,22)           121.9714         estimate D2E/DX2                !
 ! A47   A(21,20,23)           108.7664         estimate D2E/DX2                !
 ! A48   A(22,20,23)           108.5278         estimate D2E/DX2                !
 ! A49   A(20,23,24)           118.7748         estimate D2E/DX2                !
 ! A50   A(20,23,25)           118.9262         estimate D2E/DX2                !
 ! A51   A(24,23,25)           122.2574         estimate D2E/DX2                !
 ! A52   A(23,24,26)           118.3843         estimate D2E/DX2                !
 ! A53   A(23,24,27)           120.6138         estimate D2E/DX2                !
 ! A54   A(26,24,27)           121.0018         estimate D2E/DX2                !
 ! A55   A(23,25,28)           118.3359         estimate D2E/DX2                !
 ! A56   A(23,25,29)           120.5305         estimate D2E/DX2                !
 ! A57   A(28,25,29)           121.1332         estimate D2E/DX2                !
 ! A58   A(24,26,30)           120.5904         estimate D2E/DX2                !
 ! A59   A(24,26,48)           119.7633         estimate D2E/DX2                !
 ! A60   A(30,26,48)           119.5936         estimate D2E/DX2                !
 ! A61   A(25,28,30)           120.7116         estimate D2E/DX2                !
 ! A62   A(25,28,52)           120.0057         estimate D2E/DX2                !
 ! A63   A(30,28,52)           119.1641         estimate D2E/DX2                !
 ! A64   A(26,30,28)           119.7198         estimate D2E/DX2                !
 ! A65   A(26,30,31)           120.1443         estimate D2E/DX2                !
 ! A66   A(28,30,31)           120.1354         estimate D2E/DX2                !
 ! A67   A(13,32,33)           111.8848         estimate D2E/DX2                !
 ! A68   A(13,32,34)           111.402          estimate D2E/DX2                !
 ! A69   A(13,32,35)           106.3879         estimate D2E/DX2                !
 ! A70   A(33,32,34)           109.0288         estimate D2E/DX2                !
 ! A71   A(33,32,35)           108.7741         estimate D2E/DX2                !
 ! A72   A(34,32,35)           109.2784         estimate D2E/DX2                !
 ! A73   A(14,36,37)           106.2997         estimate D2E/DX2                !
 ! A74   A(14,36,38)           111.0988         estimate D2E/DX2                !
 ! A75   A(14,36,39)           111.5366         estimate D2E/DX2                !
 ! A76   A(37,36,38)           108.9829         estimate D2E/DX2                !
 ! A77   A(37,36,39)           109.7161         estimate D2E/DX2                !
 ! A78   A(38,36,39)           109.1421         estimate D2E/DX2                !
 ! A79   A(15,40,41)           106.4273         estimate D2E/DX2                !
 ! A80   A(15,40,42)           111.0364         estimate D2E/DX2                !
 ! A81   A(15,40,43)           110.9658         estimate D2E/DX2                !
 ! A82   A(41,40,42)           109.5475         estimate D2E/DX2                !
 ! A83   A(41,40,43)           109.3243         estimate D2E/DX2                !
 ! A84   A(42,40,43)           109.4792         estimate D2E/DX2                !
 ! A85   A(19,44,45)           106.414          estimate D2E/DX2                !
 ! A86   A(19,44,46)           111.0737         estimate D2E/DX2                !
 ! A87   A(19,44,47)           111.9167         estimate D2E/DX2                !
 ! A88   A(45,44,46)           109.3432         estimate D2E/DX2                !
 ! A89   A(45,44,47)           109.4889         estimate D2E/DX2                !
 ! A90   A(46,44,47)           108.5613         estimate D2E/DX2                !
 ! A91   A(26,48,49)           111.6536         estimate D2E/DX2                !
 ! A92   A(26,48,50)           111.0606         estimate D2E/DX2                !
 ! A93   A(26,48,51)           111.4471         estimate D2E/DX2                !
 ! A94   A(49,48,50)           107.3533         estimate D2E/DX2                !
 ! A95   A(49,48,51)           107.8834         estimate D2E/DX2                !
 ! A96   A(50,48,51)           107.2268         estimate D2E/DX2                !
 ! A97   A(28,52,53)           110.7561         estimate D2E/DX2                !
 ! A98   A(28,52,54)           111.5907         estimate D2E/DX2                !
 ! A99   A(28,52,55)           112.0908         estimate D2E/DX2                !
 ! A100  A(53,52,54)           106.821          estimate D2E/DX2                !
 ! A101  A(53,52,55)           107.2541         estimate D2E/DX2                !
 ! A102  A(54,52,55)           108.0787         estimate D2E/DX2                !
 ! D1    D(5,1,2,3)            -48.639          estimate D2E/DX2                !
 ! D2    D(5,1,2,7)             66.628          estimate D2E/DX2                !
 ! D3    D(5,1,2,13)          -173.2587         estimate D2E/DX2                !
 ! D4    D(8,1,2,3)             70.5523         estimate D2E/DX2                !
 ! D5    D(8,1,2,7)           -174.1807         estimate D2E/DX2                !
 ! D6    D(8,1,2,13)           -54.0674         estimate D2E/DX2                !
 ! D7    D(14,1,2,3)          -167.2245         estimate D2E/DX2                !
 ! D8    D(14,1,2,7)           -51.9575         estimate D2E/DX2                !
 ! D9    D(14,1,2,13)           68.1558         estimate D2E/DX2                !
 ! D10   D(2,1,5,4)             50.4293         estimate D2E/DX2                !
 ! D11   D(2,1,5,10)           -68.959          estimate D2E/DX2                !
 ! D12   D(2,1,5,15)           169.3208         estimate D2E/DX2                !
 ! D13   D(8,1,5,4)            -68.9186         estimate D2E/DX2                !
 ! D14   D(8,1,5,10)           171.6931         estimate D2E/DX2                !
 ! D15   D(8,1,5,15)            49.9729         estimate D2E/DX2                !
 ! D16   D(14,1,5,4)           171.2616         estimate D2E/DX2                !
 ! D17   D(14,1,5,10)           51.8733         estimate D2E/DX2                !
 ! D18   D(14,1,5,15)          -69.847          estimate D2E/DX2                !
 ! D19   D(2,1,14,36)          -95.5497         estimate D2E/DX2                !
 ! D20   D(5,1,14,36)          143.7529         estimate D2E/DX2                !
 ! D21   D(8,1,14,36)           25.4481         estimate D2E/DX2                !
 ! D22   D(1,2,3,6)            172.1991         estimate D2E/DX2                !
 ! D23   D(1,2,3,11)            52.439          estimate D2E/DX2                !
 ! D24   D(1,2,3,12)           -69.9815         estimate D2E/DX2                !
 ! D25   D(7,2,3,6)             55.3799         estimate D2E/DX2                !
 ! D26   D(7,2,3,11)           -64.3802         estimate D2E/DX2                !
 ! D27   D(7,2,3,12)           173.1994         estimate D2E/DX2                !
 ! D28   D(13,2,3,6)           -65.8461         estimate D2E/DX2                !
 ! D29   D(13,2,3,11)          174.3938         estimate D2E/DX2                !
 ! D30   D(13,2,3,12)           51.9733         estimate D2E/DX2                !
 ! D31   D(1,2,13,32)         -170.0956         estimate D2E/DX2                !
 ! D32   D(3,2,13,32)           66.4592         estimate D2E/DX2                !
 ! D33   D(7,2,13,32)          -51.7266         estimate D2E/DX2                !
 ! D34   D(2,3,11,4)           -57.5373         estimate D2E/DX2                !
 ! D35   D(6,3,11,4)           179.3403         estimate D2E/DX2                !
 ! D36   D(12,3,11,4)           61.2836         estimate D2E/DX2                !
 ! D37   D(2,3,12,20)         -159.2664         estimate D2E/DX2                !
 ! D38   D(6,3,12,20)          -39.0432         estimate D2E/DX2                !
 ! D39   D(11,3,12,20)          77.6171         estimate D2E/DX2                !
 ! D40   D(9,4,5,1)             65.9516         estimate D2E/DX2                !
 ! D41   D(9,4,5,10)          -174.4341         estimate D2E/DX2                !
 ! D42   D(9,4,5,15)           -54.6282         estimate D2E/DX2                !
 ! D43   D(11,4,5,1)           -53.3229         estimate D2E/DX2                !
 ! D44   D(11,4,5,10)           66.2913         estimate D2E/DX2                !
 ! D45   D(11,4,5,15)         -173.9028         estimate D2E/DX2                !
 ! D46   D(16,4,5,1)          -174.3869         estimate D2E/DX2                !
 ! D47   D(16,4,5,10)          -54.7727         estimate D2E/DX2                !
 ! D48   D(16,4,5,15)           65.0332         estimate D2E/DX2                !
 ! D49   D(5,4,11,3)            57.5742         estimate D2E/DX2                !
 ! D50   D(9,4,11,3)           -62.0992         estimate D2E/DX2                !
 ! D51   D(16,4,11,3)         -179.1054         estimate D2E/DX2                !
 ! D52   D(5,4,16,17)          -71.86           estimate D2E/DX2                !
 ! D53   D(5,4,16,18)          170.5428         estimate D2E/DX2                !
 ! D54   D(5,4,16,19)           45.2359         estimate D2E/DX2                !
 ! D55   D(9,4,16,17)           48.4625         estimate D2E/DX2                !
 ! D56   D(9,4,16,18)          -69.1347         estimate D2E/DX2                !
 ! D57   D(9,4,16,19)          165.5584         estimate D2E/DX2                !
 ! D58   D(11,4,16,17)         165.773          estimate D2E/DX2                !
 ! D59   D(11,4,16,18)          48.1758         estimate D2E/DX2                !
 ! D60   D(11,4,16,19)         -77.1311         estimate D2E/DX2                !
 ! D61   D(1,5,15,40)          107.7186         estimate D2E/DX2                !
 ! D62   D(4,5,15,40)         -130.3961         estimate D2E/DX2                !
 ! D63   D(10,5,15,40)         -12.4792         estimate D2E/DX2                !
 ! D64   D(3,12,20,21)         168.4393         estimate D2E/DX2                !
 ! D65   D(3,12,20,22)          36.7378         estimate D2E/DX2                !
 ! D66   D(3,12,20,23)         -78.2236         estimate D2E/DX2                !
 ! D67   D(2,13,32,33)         -72.1181         estimate D2E/DX2                !
 ! D68   D(2,13,32,34)          50.2139         estimate D2E/DX2                !
 ! D69   D(2,13,32,35)         169.2193         estimate D2E/DX2                !
 ! D70   D(1,14,36,37)        -178.4881         estimate D2E/DX2                !
 ! D71   D(1,14,36,38)         -60.0579         estimate D2E/DX2                !
 ! D72   D(1,14,36,39)          61.9562         estimate D2E/DX2                !
 ! D73   D(5,15,40,41)         179.9169         estimate D2E/DX2                !
 ! D74   D(5,15,40,42)         -60.9312         estimate D2E/DX2                !
 ! D75   D(5,15,40,43)          61.0725         estimate D2E/DX2                !
 ! D76   D(4,16,19,44)          76.1452         estimate D2E/DX2                !
 ! D77   D(17,16,19,44)       -166.0471         estimate D2E/DX2                !
 ! D78   D(18,16,19,44)        -48.1306         estimate D2E/DX2                !
 ! D79   D(16,19,44,45)        169.9736         estimate D2E/DX2                !
 ! D80   D(16,19,44,46)         51.0553         estimate D2E/DX2                !
 ! D81   D(16,19,44,47)        -70.4613         estimate D2E/DX2                !
 ! D82   D(12,20,23,24)        -80.9207         estimate D2E/DX2                !
 ! D83   D(12,20,23,25)         96.7862         estimate D2E/DX2                !
 ! D84   D(21,20,23,24)         28.9639         estimate D2E/DX2                !
 ! D85   D(21,20,23,25)       -153.3291         estimate D2E/DX2                !
 ! D86   D(22,20,23,24)        163.6856         estimate D2E/DX2                !
 ! D87   D(22,20,23,25)        -18.6075         estimate D2E/DX2                !
 ! D88   D(20,23,24,26)        177.6599         estimate D2E/DX2                !
 ! D89   D(20,23,24,27)         -2.3556         estimate D2E/DX2                !
 ! D90   D(25,23,24,26)          0.0332         estimate D2E/DX2                !
 ! D91   D(25,23,24,27)       -179.9823         estimate D2E/DX2                !
 ! D92   D(20,23,25,28)       -177.8397         estimate D2E/DX2                !
 ! D93   D(20,23,25,29)          1.9263         estimate D2E/DX2                !
 ! D94   D(24,23,25,28)         -0.2164         estimate D2E/DX2                !
 ! D95   D(24,23,25,29)        179.5495         estimate D2E/DX2                !
 ! D96   D(23,24,26,30)          0.0842         estimate D2E/DX2                !
 ! D97   D(23,24,26,48)        177.4334         estimate D2E/DX2                !
 ! D98   D(27,24,26,30)       -179.9003         estimate D2E/DX2                !
 ! D99   D(27,24,26,48)         -2.5511         estimate D2E/DX2                !
 ! D100  D(23,25,28,30)          0.2858         estimate D2E/DX2                !
 ! D101  D(23,25,28,52)        176.2928         estimate D2E/DX2                !
 ! D102  D(29,25,28,30)       -179.4787         estimate D2E/DX2                !
 ! D103  D(29,25,28,52)         -3.4717         estimate D2E/DX2                !
 ! D104  D(24,26,30,28)         -0.0142         estimate D2E/DX2                !
 ! D105  D(24,26,30,31)       -179.7606         estimate D2E/DX2                !
 ! D106  D(48,26,30,28)       -177.3678         estimate D2E/DX2                !
 ! D107  D(48,26,30,31)          2.8858         estimate D2E/DX2                !
 ! D108  D(24,26,48,49)         28.0626         estimate D2E/DX2                !
 ! D109  D(24,26,48,50)        -91.7232         estimate D2E/DX2                !
 ! D110  D(24,26,48,51)        148.789          estimate D2E/DX2                !
 ! D111  D(30,26,48,49)       -154.5616         estimate D2E/DX2                !
 ! D112  D(30,26,48,50)         85.6526         estimate D2E/DX2                !
 ! D113  D(30,26,48,51)        -33.8353         estimate D2E/DX2                !
 ! D114  D(25,28,30,26)         -0.1754         estimate D2E/DX2                !
 ! D115  D(25,28,30,31)        179.571          estimate D2E/DX2                !
 ! D116  D(52,28,30,26)       -176.2155         estimate D2E/DX2                !
 ! D117  D(52,28,30,31)          3.5309         estimate D2E/DX2                !
 ! D118  D(25,28,52,53)        -96.718          estimate D2E/DX2                !
 ! D119  D(25,28,52,54)        144.4135         estimate D2E/DX2                !
 ! D120  D(25,28,52,55)         23.0275         estimate D2E/DX2                !
 ! D121  D(30,28,52,53)         79.3507         estimate D2E/DX2                !
 ! D122  D(30,28,52,54)        -39.5178         estimate D2E/DX2                !
 ! D123  D(30,28,52,55)       -160.9038         estimate D2E/DX2                !
 --------------------------------------------------------------------------------
 Trust Radius=3.00D-01 FncErr=1.00D-07 GrdErr=1.00D-06 EigMax=2.50D+02 EigMin=1.00D-04
 Number of steps in this run=    291 maximum allowed number of steps=    330.
 GradGradGradGradGradGradGradGradGradGradGradGradGradGradGradGradGradGrad

 Leave Link  103 at Mon Jun 10 05:38:18 2019, MaxMem= 12884901888 cpu:               5.3 elap:               0.1
 (Enter /home/ekwan/sw/g16/l202.exe)
 Stoichiometry    C18H22F6O8S
 Framework group  C1[X(C18H22F6O8S)]
 Deg. of freedom   159
 Full point group                 C1      NOp   1
 Largest Abelian subgroup         C1      NOp   1
 Largest concise Abelian subgroup C1      NOp   1
                         Standard orientation:                         
 ---------------------------------------------------------------------
 Center     Atomic      Atomic             Coordinates (Angstroms)
 Number     Number       Type             X           Y           Z
 ---------------------------------------------------------------------
      1          6           0        3.408019    0.436199    0.563740
      2          6           0        3.332048   -0.537767   -0.627545
      3          6           0        1.861721   -0.907011   -0.950970
      4          6           0        1.009741    1.113512    0.024878
      5          6           0        2.425942    1.603212    0.371707
      6          1           0        1.777316   -1.487637   -1.876562
      7          1           0        3.710255   -0.011024   -1.526237
      8          1           0        3.133938   -0.105923    1.485213
      9          1           0        0.594659    0.566095    0.888186
     10          1           0        2.785565    2.231221   -0.459008
     11          8           0        1.044675    0.212634   -1.119887
     12          8           0        1.410738   -1.750244    0.171288
     13          8           0        4.134490   -1.668480   -0.331394
     14          8           0        4.715229    1.001822    0.674362
     15          8           0        2.324010    2.358343    1.580664
     16          6           0        0.059537    2.273725   -0.302777
     17          1           0       -0.153406    2.790854    0.642587
     18          1           0       -0.882335    1.863354   -0.705865
     19          8           0        0.596941    3.266109   -1.173443
     20         16           0        0.100715   -2.734302   -0.090537
     21          8           0        0.082529   -3.624482    1.075532
     22          8           0        0.155131   -3.253949   -1.467618
     23          6           0       -1.282863   -1.587396    0.034259
     24          6           0       -1.750528   -1.231681    1.304343
     25          6           0       -1.820927   -1.045863   -1.138382
     26          6           0       -2.795205   -0.300037    1.393410
     27          1           0       -1.312128   -1.669465    2.198991
     28          6           0       -2.865914   -0.120476   -1.024696
     29          1           0       -1.431129   -1.336799   -2.110499
     30          6           0       -3.355020    0.256963    0.235177
     31          1           0       -4.162814    0.982216    0.312876
     32          6           0        4.337486   -2.554442   -1.438652
     33          1           0        3.422688   -3.121387   -1.685175
     34          1           0        4.674944   -2.006193   -2.337386
     35          1           0        5.118790   -3.261122   -1.130617
     36          6           0        5.575275    0.323294    1.597941
     37          1           0        6.524225    0.877405    1.599839
     38          1           0        5.150440    0.333904    2.619003
     39          1           0        5.754413   -0.718848    1.292360
     40          6           0        2.964780    3.638762    1.511868
     41          1           0        2.815042    4.114231    2.491216
     42          1           0        4.043869    3.531084    1.315361
     43          1           0        2.508402    4.267377    0.726810
     44          6           0        0.647835    2.870815   -2.550831
     45          1           0        0.902766    3.773223   -3.123633
     46          1           0       -0.330599    2.486311   -2.890135
     47          1           0        1.410153    2.095220   -2.728236
     48          6           0       -3.365417    0.064033    2.750392
     49          9           0       -2.440793   -0.075469    3.736739
     50          9           0       -4.422031   -0.735272    3.067901
     51          9           0       -3.810931    1.349071    2.774179
     52          6           0       -3.419932    0.552475   -2.263510
     53          9           0       -2.848311    1.783690   -2.443700
     54          9           0       -4.760576    0.751685   -2.167105
     55          9           0       -3.181347   -0.170281   -3.386753
 ---------------------------------------------------------------------
 Rotational constants (GHZ):           0.1488957           0.0842704           0.0825961
 Leave Link  202 at Mon Jun 10 05:38:18 2019, MaxMem= 12884901888 cpu:              10.6 elap:               0.2
 (Enter /home/ekwan/sw/g16/l301.exe)
 Standard basis: 6-31G(d) (6D, 7F)
 Ernie: Thresh=  0.10000D-02 Tol=  0.10000D-05 Strict=F.
 There are   543 symmetry adapted cartesian basis functions of A   symmetry.
 There are   543 symmetry adapted basis functions of A   symmetry.
   543 basis functions,  1036 primitive gaussians,   543 cartesian basis functions
   132 alpha electrons      132 beta electrons
       nuclear repulsion energy      4320.3875988883 Hartrees.
 IExCor= 3630 DFT=T Ex+Corr=B97D ExCW=0 ScaHFX=  0.000000
 ScaDFX=  1.000000  1.000000  1.000000  1.000000 ScalE2=  1.000000  1.000000
 IRadAn=      5 IRanWt=     -1 IRanGd=            0 ICorTp=0 IEmpDi=131
 NAtoms=   55 NActive=   55 NUniq=   55 SFac= 1.00D+00 NAtFMM=   60 NAOKFM=F Big=F
 Integral buffers will be    131072 words long.
 Raffenetti 2 integral format.
 Two-electron integral symmetry is turned on.
 R6Disp:  Grimme-D3 Dispersion energy=       -0.1250309188 Hartrees.
 Nuclear repulsion after empirical dispersion term =     4320.2625679695 Hartrees.
 ------------------------------------------------------------------------------
 Polarizable Continuum Model (PCM)
 =================================
 Model                : PCM.
 Atomic radii         : UFF (Universal Force Field).
 Polarization charges : Total charges.
 Charge compensation  : None.
 Solution method      : On-the-fly selection.
 Cavity type          : Scaled VdW (van der Waals Surface) (Alpha=1.100).
 Cavity algorithm     : GePol (No added spheres)
                        Default sphere list used, NSphG=   55.
                        Lebedev-Laikov grids with approx.  5.0 points / Ang**2.
                        Smoothing algorithm: York/Karplus (Gamma=1.0000).
                        Polarization charges: spherical gaussians, with
                                              point-specific exponents (IZeta= 3).
                        Self-potential: point-specific (ISelfS= 7).
                        Self-field    : sphere-specific E.n sum rule (ISelfD= 2).
 1st derivatives      : Analytical E(r).r(x)/FMM algorithm (CHGder, D1EAlg=3).
                        Cavity 1st derivative terms included.
 Solvent              : TetraHydroFuran, Eps=   7.425700 Eps(inf)=   1.974025
 ------------------------------------------------------------------------------
 GePol: Number of generator spheres                  =      55
 GePol: Total number of spheres                      =      55
 GePol: Number of exposed spheres                    =      55 (100.00%)
 GePol: Number of points                             =    3921
 GePol: Average weight of points                     =       0.13
 GePol: Minimum weight of points                     =   0.87D-11
 GePol: Maximum weight of points                     =    0.20577
 GePol: Number of points with low weight             =     225
 GePol: Fraction of low-weight points (<1% of avg)   =       5.74%
 GePol: Cavity surface area                          =    499.515 Ang**2
 GePol: Cavity volume                                =    582.193 Ang**3
 Leave Link  301 at Mon Jun 10 05:38:19 2019, MaxMem= 12884901888 cpu:              17.5 elap:               0.3
 (Enter /home/ekwan/sw/g16/l302.exe)
 NPDir=0 NMtPBC=     1 NCelOv=     1 NCel=       1 NClECP=     1 NCelD=      1
         NCelK=      1 NCelE2=     1 NClLst=     1 CellRange=     0.0.
 One-electron integrals computed using PRISM.
 One-electron integral symmetry used in STVInt
 NBasis=   543 RedAO= T EigKep=  4.41D-04  NBF=   543
 NBsUse=   543 1.00D-06 EigRej= -1.00D+00 NBFU=   543
 Precomputing XC quadrature grid using
 IXCGrd= 4 IRadAn=           5 IRanWt=          -1 IRanGd=           0 AccXCQ= 0.00D+00.
 Generated NRdTot=       0 NPtTot=           0 NUsed=           0 NTot=          32
 NSgBfM=   533   532   532   532   533 MxSgAt=    55 MxSgA2=    55.
 Leave Link  302 at Mon Jun 10 05:38:27 2019, MaxMem= 12884901888 cpu:             467.6 elap:               7.7
 (Enter /home/ekwan/sw/g16/l303.exe)
 DipDrv:  MaxL=1.
 Leave Link  303 at Mon Jun 10 05:38:27 2019, MaxMem= 12884901888 cpu:              24.6 elap:               0.5
 (Enter /home/ekwan/sw/g16/l401.exe)
 ExpMin= 1.17D-01 ExpMax= 2.19D+04 ExpMxC= 3.30D+03 IAcc=3 IRadAn=         5 AccDes= 0.00D+00
 Harris functional with IExCor= 3630 and IRadAn=       5 diagonalized for initial guess.
 HarFok:  IExCor= 3630 AccDes= 0.00D+00 IRadAn=         5 IDoV= 1 UseB2=F ITyADJ=14
 ICtDFT=  3500011 ScaDFX=  1.000000  1.000000  1.000000  1.000000
 FoFCou: FMM=F IPFlag=           0 FMFlag=      100000 FMFlg1=           0
         NFxFlg=           0 DoJE=T BraDBF=F KetDBF=T FulRan=T
         wScrn=  0.000000 ICntrl=       500 IOpCl=  0 I1Cent=   200000004 NGrid=           0
         NMat0=    1 NMatS0=      1 NMatT0=    0 NMatD0=    1 NMtDS0=    0 NMtDT0=    0
 Petite list used in FoFCou.
 Harris En= -2297.18769692537    
 JPrj=0 DoOrth=F DoCkMO=F.
 Leave Link  401 at Mon Jun 10 05:38:32 2019, MaxMem= 12884901888 cpu:             317.3 elap:               5.1
 (Enter /home/ekwan/sw/g16/l502.exe)
 Integral symmetry usage will be decided dynamically.
 Closed shell SCF:
 Using DIIS extrapolation, IDIIS=  1040.
 NGot= 12884901888 LenX= 12884271583 LenY= 12883976191
 Requested convergence on RMS density matrix=1.00D-08 within 128 cycles.
 Requested convergence on MAX density matrix=1.00D-06.
 Requested convergence on             energy=1.00D-06.
 No special actions if energy rises.
 Fock matrices will be formed incrementally for  20 cycles.

 Cycle   1  Pass 1  IDiag  1:
 FoFJK:  IHMeth= 1 ICntrl=     500 DoSepK=F KAlg= 0 I1Cent=           0 FoldK=F
 IRaf= 700000000 NMat=       1 IRICut=       1 DoRegI=T DoRafI=F ISym2E= 0 IDoP0=0 IntGTp=1.
 FoFCou: FMM=F IPFlag=           0 FMFlag=      100000 FMFlg1=           0
         NFxFlg=           0 DoJE=T BraDBF=F KetDBF=F FulRan=T
         wScrn=  0.000000 ICntrl=       500 IOpCl=  0 I1Cent=           0 NGrid=           0
         NMat0=    1 NMatS0=      1 NMatT0=    0 NMatD0=    1 NMtDS0=    0 NMtDT0=    0
 Symmetry not used in FoFCou.
 Inv3:  Mode=1 IEnd=    46122723.
 Iteration    1 A*A^-1 deviation from unit magnitude is 4.66D-15 for   3921.
 Iteration    1 A*A^-1 deviation from orthogonality  is 3.63D-15 for   3898   3354.
 Iteration    1 A^-1*A deviation from unit magnitude is 4.22D-15 for   3921.
 Iteration    1 A^-1*A deviation from orthogonality  is 2.28D-15 for   3921   2441.
 E= -2296.22334694101    
 DIIS: error= 2.97D-02 at cycle   1 NSaved=   1.
 NSaved= 1 IEnMin= 1 EnMin= -2296.22334694101     IErMin= 1 ErrMin= 2.97D-02
 ErrMax= 2.97D-02  0.00D+00 EMaxC= 1.00D-01 BMatC= 8.78D-01 BMatP= 8.78D-01
 IDIUse=3 WtCom= 7.03D-01 WtEn= 2.97D-01
 Coeff-Com:  0.100D+01
 Coeff-En:   0.100D+01
 Coeff:      0.100D+01
 Gap=     0.079 Goal=   None    Shift=    0.000
 GapD=    0.079 DampG=0.500 DampE=0.500 DampFc=0.2500 IDamp=-1.
 Damping current iteration by 2.50D-01
 RMSDP=5.03D-03 MaxDP=7.38D-01              OVMax= 2.57D-01

 Cycle   2  Pass 1  IDiag  1:
 RMSU=  1.26D-03    CP:  1.00D+00
 E= -2296.47168557130     Delta-E=       -0.248338630287 Rises=F Damp=T
 DIIS: error= 1.00D-02 at cycle   2 NSaved=   2.
 NSaved= 2 IEnMin= 2 EnMin= -2296.47168557130     IErMin= 2 ErrMin= 1.00D-02
 ErrMax= 1.00D-02  0.00D+00 EMaxC= 1.00D-01 BMatC= 1.08D-01 BMatP= 8.78D-01
 IDIUse=3 WtCom= 9.00D-01 WtEn= 1.00D-01
 Coeff-Com: -0.343D+00 0.134D+01
 Coeff-En:   0.395D-02 0.996D+00
 Coeff:     -0.309D+00 0.131D+01
 Gap=     0.130 Goal=   None    Shift=    0.000
 RMSDP=1.20D-03 MaxDP=5.61D-02 DE=-2.48D-01 OVMax= 2.13D-01

 Cycle   3  Pass 1  IDiag  1:
 RMSU=  1.19D-03    CP:  9.98D-01  1.10D+00
 E= -2296.82650178189     Delta-E=       -0.354816210594 Rises=F Damp=F
 DIIS: error= 1.07D-02 at cycle   3 NSaved=   3.
 NSaved= 3 IEnMin= 3 EnMin= -2296.82650178189     IErMin= 2 ErrMin= 1.00D-02
 ErrMax= 1.07D-02  0.00D+00 EMaxC= 1.00D-01 BMatC= 1.43D-01 BMatP= 1.08D-01
 IDIUse=2 WtCom= 0.00D+00 WtEn= 1.00D+00
 Coeff-En:   0.000D+00 0.000D+00 0.100D+01
 Coeff:      0.000D+00 0.000D+00 0.100D+01
 Gap=     0.085 Goal=   None    Shift=    0.000
 RMSDP=2.96D-03 MaxDP=2.50D-01 DE=-3.55D-01 OVMax= 2.95D-01

 Cycle   4  Pass 1  IDiag  1:
 RMSU=  1.28D-03    CP:  1.01D+00  2.20D+00 -9.08D-01
 E= -2295.89831640740     Delta-E=        0.928185374490 Rises=F Damp=F
 DIIS: error= 3.51D-02 at cycle   4 NSaved=   4.
 NSaved= 4 IEnMin= 3 EnMin= -2296.82650178189     IErMin= 2 ErrMin= 1.00D-02
 ErrMax= 3.51D-02  0.00D+00 EMaxC= 1.00D-01 BMatC= 1.27D+00 BMatP= 1.08D-01
 IDIUse=2 WtCom= 0.00D+00 WtEn= 1.00D+00
 Coeff-En:   0.000D+00 0.000D+00 0.833D+00 0.167D+00
 Coeff:      0.000D+00 0.000D+00 0.833D+00 0.167D+00
 Gap=     0.140 Goal=   None    Shift=    0.000
 RMSDP=1.73D-03 MaxDP=1.56D-01 DE= 9.28D-01 OVMax= 2.06D-01

 Cycle   5  Pass 1  IDiag  1:
 RMSU=  3.61D-04    CP:  1.00D+00  1.42D+00  6.15D-02  4.11D-01
 E= -2296.86336777557     Delta-E=       -0.965051368173 Rises=F Damp=F
 DIIS: error= 9.15D-03 at cycle   5 NSaved=   5.
 NSaved= 5 IEnMin= 5 EnMin= -2296.86336777557     IErMin= 5 ErrMin= 9.15D-03
 ErrMax= 9.15D-03  0.00D+00 EMaxC= 1.00D-01 BMatC= 1.07D-01 BMatP= 1.08D-01
 IDIUse=3 WtCom= 9.08D-01 WtEn= 9.15D-02
 Coeff-Com: -0.486D-01 0.129D+00 0.389D+00-0.578D-01 0.588D+00
 Coeff-En:   0.000D+00 0.000D+00 0.440D+00 0.000D+00 0.560D+00
 Coeff:     -0.441D-01 0.117D+00 0.394D+00-0.525D-01 0.585D+00
 Gap=     0.105 Goal=   None    Shift=    0.000
 RMSDP=6.26D-04 MaxDP=4.72D-02 DE=-9.65D-01 OVMax= 6.03D-02

 Cycle   6  Pass 1  IDiag  1:
 RMSU=  1.19D-04    CP:  1.00D+00  1.27D+00  4.79D-01  2.01D-01  6.34D-01
 E= -2296.95406656147     Delta-E=       -0.090698785895 Rises=F Damp=F
 DIIS: error= 1.15D-03 at cycle   6 NSaved=   6.
 NSaved= 6 IEnMin= 6 EnMin= -2296.95406656147     IErMin= 6 ErrMin= 1.15D-03
 ErrMax= 1.15D-03  0.00D+00 EMaxC= 1.00D-01 BMatC= 1.72D-03 BMatP= 1.07D-01
 IDIUse=3 WtCom= 9.89D-01 WtEn= 1.15D-02
 Coeff-Com: -0.298D-01 0.647D-01 0.232D+00-0.551D-01 0.423D+00 0.365D+00
 Coeff-En:   0.000D+00 0.000D+00 0.000D+00 0.000D+00 0.000D+00 0.100D+01
 Coeff:     -0.294D-01 0.639D-01 0.229D+00-0.545D-01 0.418D+00 0.372D+00
 Gap=     0.105 Goal=   None    Shift=    0.000
 RMSDP=8.77D-05 MaxDP=6.54D-03 DE=-9.07D-02 OVMax= 1.04D-02

 Cycle   7  Pass 1  IDiag  1:
 RMSU=  3.99D-05    CP:  1.00D+00  1.27D+00  4.80D-01  2.00D-01  6.98D-01
                    CP:  3.74D-01
 E= -2296.95533903757     Delta-E=       -0.001272476101 Rises=F Damp=F
 DIIS: error= 4.14D-04 at cycle   7 NSaved=   7.
 NSaved= 7 IEnMin= 7 EnMin= -2296.95533903757     IErMin= 7 ErrMin= 4.14D-04
 ErrMax= 4.14D-04  0.00D+00 EMaxC= 1.00D-01 BMatC= 1.63D-04 BMatP= 1.72D-03
 IDIUse=3 WtCom= 9.96D-01 WtEn= 4.14D-03
 Coeff-Com: -0.118D-01 0.238D-01 0.915D-01-0.261D-01 0.176D+00 0.244D+00
 Coeff-Com:  0.503D+00
 Coeff-En:   0.000D+00 0.000D+00 0.000D+00 0.000D+00 0.000D+00 0.819D-01
 Coeff-En:   0.918D+00
 Coeff:     -0.117D-01 0.237D-01 0.911D-01-0.260D-01 0.175D+00 0.243D+00
 Coeff:      0.504D+00
 Gap=     0.105 Goal=   None    Shift=    0.000
 RMSDP=2.81D-05 MaxDP=2.19D-03 DE=-1.27D-03 OVMax= 3.34D-03

 Cycle   8  Pass 1  IDiag  1:
 RMSU=  1.54D-05    CP:  1.00D+00  1.26D+00  4.82D-01  2.00D-01  6.94D-01
                    CP:  4.70D-01  5.08D-01
 E= -2296.95544556977     Delta-E=       -0.000106532202 Rises=F Damp=F
 DIIS: error= 1.19D-04 at cycle   8 NSaved=   8.
 NSaved= 8 IEnMin= 8 EnMin= -2296.95544556977     IErMin= 8 ErrMin= 1.19D-04
 ErrMax= 1.19D-04  0.00D+00 EMaxC= 1.00D-01 BMatC= 2.67D-05 BMatP= 1.63D-04
 IDIUse=3 WtCom= 9.99D-01 WtEn= 1.19D-03
 Coeff-Com: -0.133D-02 0.239D-02 0.228D-01-0.623D-02 0.398D-01 0.971D-01
 Coeff-Com:  0.342D+00 0.503D+00
 Coeff-En:   0.000D+00 0.000D+00 0.000D+00 0.000D+00 0.000D+00 0.000D+00
 Coeff-En:   0.144D+00 0.856D+00
 Coeff:     -0.133D-02 0.238D-02 0.228D-01-0.622D-02 0.398D-01 0.970D-01
 Coeff:      0.342D+00 0.503D+00
 Gap=     0.106 Goal=   None    Shift=    0.000
 RMSDP=1.07D-05 MaxDP=5.33D-04 DE=-1.07D-04 OVMax= 1.02D-03

 Cycle   9  Pass 1  IDiag  1:
 RMSU=  5.09D-06    CP:  1.00D+00  1.26D+00  4.84D-01  1.99D-01  6.90D-01
                    CP:  4.62D-01  6.17D-01  4.94D-01
 E= -2296.95546647214     Delta-E=       -0.000020902364 Rises=F Damp=F
 DIIS: error= 3.24D-05 at cycle   9 NSaved=   9.
 NSaved= 9 IEnMin= 9 EnMin= -2296.95546647214     IErMin= 9 ErrMin= 3.24D-05
 ErrMax= 3.24D-05  0.00D+00 EMaxC= 1.00D-01 BMatC= 2.38D-06 BMatP= 2.67D-05
 IDIUse=1 WtCom= 1.00D+00 WtEn= 0.00D+00
 Coeff-Com:  0.344D-03-0.827D-03 0.720D-02-0.161D-02 0.101D-01 0.409D-01
 Coeff-Com:  0.174D+00 0.320D+00 0.450D+00
 Coeff:      0.344D-03-0.827D-03 0.720D-02-0.161D-02 0.101D-01 0.409D-01
 Coeff:      0.174D+00 0.320D+00 0.450D+00
 Gap=     0.105 Goal=   None    Shift=    0.000
 RMSDP=3.39D-06 MaxDP=1.99D-04 DE=-2.09D-05 OVMax= 2.71D-04

 Cycle  10  Pass 1  IDiag  1:
 RMSU=  1.49D-06    CP:  1.00D+00  1.26D+00  4.84D-01  1.99D-01  6.90D-01
                    CP:  4.63D-01  6.15D-01  5.40D-01  4.44D-01
 E= -2296.95546832432     Delta-E=       -0.000001852189 Rises=F Damp=F
 DIIS: error= 1.43D-05 at cycle  10 NSaved=  10.
 NSaved=10 IEnMin=10 EnMin= -2296.95546832432     IErMin=10 ErrMin= 1.43D-05
 ErrMax= 1.43D-05  0.00D+00 EMaxC= 1.00D-01 BMatC= 2.23D-07 BMatP= 2.38D-06
 IDIUse=1 WtCom= 1.00D+00 WtEn= 0.00D+00
 Coeff-Com:  0.268D-03-0.492D-03 0.191D-02-0.352D-03 0.163D-02 0.144D-01
 Coeff-Com:  0.689D-01 0.145D+00 0.278D+00 0.491D+00
 Coeff:      0.268D-03-0.492D-03 0.191D-02-0.352D-03 0.163D-02 0.144D-01
 Coeff:      0.689D-01 0.145D+00 0.278D+00 0.491D+00
 Gap=     0.105 Goal=   None    Shift=    0.000
 RMSDP=1.07D-06 MaxDP=8.30D-05 DE=-1.85D-06 OVMax= 1.35D-04

 Cycle  11  Pass 1  IDiag  1:
 RMSU=  6.60D-07    CP:  1.00D+00  1.26D+00  4.84D-01  1.99D-01  6.90D-01
                    CP:  4.64D-01  6.16D-01  5.41D-01  5.07D-01  4.81D-01
 E= -2296.95546848036     Delta-E=       -0.000000156037 Rises=F Damp=F
 DIIS: error= 6.58D-06 at cycle  11 NSaved=  11.
 NSaved=11 IEnMin=11 EnMin= -2296.95546848036     IErMin=11 ErrMin= 6.58D-06
 ErrMax= 6.58D-06  0.00D+00 EMaxC= 1.00D-01 BMatC= 3.38D-08 BMatP= 2.23D-07
 IDIUse=1 WtCom= 1.00D+00 WtEn= 0.00D+00
 Coeff-Com:  0.118D-03-0.188D-03 0.505D-03-0.102D-03 0.703D-04 0.513D-02
 Coeff-Com:  0.260D-01 0.610D-01 0.136D+00 0.342D+00 0.430D+00
 Coeff:      0.118D-03-0.188D-03 0.505D-03-0.102D-03 0.703D-04 0.513D-02
 Coeff:      0.260D-01 0.610D-01 0.136D+00 0.342D+00 0.430D+00
 Gap=     0.105 Goal=   None    Shift=    0.000
 RMSDP=3.99D-07 MaxDP=2.95D-05 DE=-1.56D-07 OVMax= 7.40D-05

 Cycle  12  Pass 1  IDiag  1:
 RMSU=  1.69D-07    CP:  1.00D+00  1.26D+00  4.84D-01  1.99D-01  6.89D-01
                    CP:  4.64D-01  6.17D-01  5.45D-01  5.08D-01  5.43D-01
                    CP:  5.04D-01
 E= -2296.95546851342     Delta-E=       -0.000000033058 Rises=F Damp=F
 DIIS: error= 1.99D-06 at cycle  12 NSaved=  12.
 NSaved=12 IEnMin=12 EnMin= -2296.95546851342     IErMin=12 ErrMin= 1.99D-06
 ErrMax= 1.99D-06  0.00D+00 EMaxC= 1.00D-01 BMatC= 1.42D-09 BMatP= 3.38D-08
 IDIUse=1 WtCom= 1.00D+00 WtEn= 0.00D+00
 Coeff-Com:  0.475D-04-0.721D-04 0.471D-04 0.429D-06-0.219D-03 0.124D-02
 Coeff-Com:  0.665D-02 0.182D-01 0.455D-01 0.139D+00 0.229D+00 0.561D+00
 Coeff:      0.475D-04-0.721D-04 0.471D-04 0.429D-06-0.219D-03 0.124D-02
 Coeff:      0.665D-02 0.182D-01 0.455D-01 0.139D+00 0.229D+00 0.561D+00
 Gap=     0.105 Goal=   None    Shift=    0.000
 RMSDP=9.92D-08 MaxDP=6.74D-06 DE=-3.31D-08 OVMax= 1.29D-05

 Cycle  13  Pass 1  IDiag  1:
 RMSU=  5.87D-08    CP:  1.00D+00  1.26D+00  4.84D-01  1.99D-01  6.89D-01
                    CP:  4.64D-01  6.16D-01  5.45D-01  5.08D-01  5.59D-01
                    CP:  5.43D-01  5.87D-01
 E= -2296.95546851451     Delta-E=       -0.000000001091 Rises=F Damp=F
 DIIS: error= 8.86D-07 at cycle  13 NSaved=  13.
 NSaved=13 IEnMin=13 EnMin= -2296.95546851451     IErMin=13 ErrMin= 8.86D-07
 ErrMax= 8.86D-07  0.00D+00 EMaxC= 1.00D-01 BMatC= 2.59D-10 BMatP= 1.42D-09
 IDIUse=1 WtCom= 1.00D+00 WtEn= 0.00D+00
 Coeff-Com:  0.140D-04-0.181D-04-0.998D-06 0.527D-05-0.101D-03 0.288D-03
 Coeff-Com:  0.145D-02 0.494D-02 0.142D-01 0.516D-01 0.949D-01 0.351D+00
 Coeff-Com:  0.482D+00
 Coeff:      0.140D-04-0.181D-04-0.998D-06 0.527D-05-0.101D-03 0.288D-03
 Coeff:      0.145D-02 0.494D-02 0.142D-01 0.516D-01 0.949D-01 0.351D+00
 Coeff:      0.482D+00
 Gap=     0.105 Goal=   None    Shift=    0.000
 RMSDP=3.44D-08 MaxDP=2.18D-06 DE=-1.09D-09 OVMax= 5.55D-06

 Cycle  14  Pass 1  IDiag  1:
 RMSU=  1.50D-08    CP:  1.00D+00  1.26D+00  4.84D-01  1.99D-01  6.89D-01
                    CP:  4.64D-01  6.16D-01  5.45D-01  5.08D-01  5.58D-01
                    CP:  5.36D-01  6.52D-01  5.23D-01
 E= -2296.95546851480     Delta-E=       -0.000000000288 Rises=F Damp=F
 DIIS: error= 1.77D-07 at cycle  14 NSaved=  14.
 NSaved=14 IEnMin=14 EnMin= -2296.95546851480     IErMin=14 ErrMin= 1.77D-07
 ErrMax= 1.77D-07  0.00D+00 EMaxC= 1.00D-01 BMatC= 1.32D-11 BMatP= 2.59D-10
 IDIUse=1 WtCom= 1.00D+00 WtEn= 0.00D+00
 Coeff-Com:  0.392D-05-0.445D-05-0.185D-05 0.201D-05-0.322D-04 0.678D-04
 Coeff-Com:  0.291D-03 0.129D-02 0.434D-02 0.177D-01 0.339D-01 0.145D+00
 Coeff-Com:  0.257D+00 0.540D+00
 Coeff:      0.392D-05-0.445D-05-0.185D-05 0.201D-05-0.322D-04 0.678D-04
 Coeff:      0.291D-03 0.129D-02 0.434D-02 0.177D-01 0.339D-01 0.145D+00
 Coeff:      0.257D+00 0.540D+00
 Gap=     0.105 Goal=   None    Shift=    0.000
 RMSDP=1.02D-08 MaxDP=8.74D-07 DE=-2.88D-10 OVMax= 2.08D-06

 Cycle  15  Pass 1  IDiag  1:
 RMSU=  6.55D-09    CP:  1.00D+00  1.26D+00  4.84D-01  1.99D-01  6.89D-01
                    CP:  4.64D-01  6.16D-01  5.45D-01  5.08D-01  5.58D-01
                    CP:  5.37D-01  6.58D-01  5.48D-01  5.27D-01
 E= -2296.95546851483     Delta-E=       -0.000000000026 Rises=F Damp=F
 DIIS: error= 7.14D-08 at cycle  15 NSaved=  15.
 NSaved=15 IEnMin=15 EnMin= -2296.95546851483     IErMin=15 ErrMin= 7.14D-08
 ErrMax= 7.14D-08  0.00D+00 EMaxC= 1.00D-01 BMatC= 3.55D-12 BMatP= 1.32D-11
 IDIUse=1 WtCom= 1.00D+00 WtEn= 0.00D+00
 Coeff-Com:  0.998D-06-0.111D-05-0.101D-05 0.594D-06-0.802D-05 0.998D-05
 Coeff-Com:  0.227D-04 0.237D-03 0.109D-02 0.509D-02 0.104D-01 0.504D-01
 Coeff-Com:  0.109D+00 0.371D+00 0.452D+00
 Coeff:      0.998D-06-0.111D-05-0.101D-05 0.594D-06-0.802D-05 0.998D-05
 Coeff:      0.227D-04 0.237D-03 0.109D-02 0.509D-02 0.104D-01 0.504D-01
 Coeff:      0.109D+00 0.371D+00 0.452D+00
 Gap=     0.105 Goal=   None    Shift=    0.000
 RMSDP=4.30D-09 MaxDP=2.64D-07 DE=-2.64D-11 OVMax= 7.85D-07

 Error on total polarization charges =  0.00910
 SCF Done:  E(RB97D) =  -2296.95546851     A.U. after   15 cycles
            NFock= 15  Conv=0.43D-08     -V/T= 2.0067
 KE= 2.281616159852D+03 PE=-1.405031555812D+04 EE= 5.151481361783D+03
 Leave Link  502 at Mon Jun 10 05:43:51 2019, MaxMem= 12884901888 cpu:           19518.6 elap:             319.3
 (Enter /home/ekwan/sw/g16/l701.exe)
 ... and contract with generalized density number  0.
 Compute integral first derivatives.
 R6Disp: Adding Grimme-D3 dispersion energy 1st derivatives to the gradient.
 D1PCM: PCM CHGder 1st derivatives, ID1Alg=3 FixD1E=F DoIter=F DoCFld=F I1PDM=0.
 GePol: Maximum number of non-zero 1st derivatives   =     214
 Leave Link  701 at Mon Jun 10 05:44:01 2019, MaxMem= 12884901888 cpu:             576.5 elap:               9.6
 (Enter /home/ekwan/sw/g16/l702.exe)
 L702 exits ... SP integral derivatives will be done elsewhere.
 Leave Link  702 at Mon Jun 10 05:44:01 2019, MaxMem= 12884901888 cpu:               6.1 elap:               0.1
 (Enter /home/ekwan/sw/g16/l703.exe)
 Integral derivatives from FoFJK, PRISM(SPDF).
 Compute integral first derivatives, UseDBF=F ICtDFT=           0.
 Calling FoFJK, ICntrl=      2527 FMM=F ISym2X=0 I1Cent= 0 IOpClX= 0 NMat=1 NMatS=1 NMatT=0.
 FoFJK:  IHMeth= 1 ICntrl=    2527 DoSepK=F KAlg= 0 I1Cent=           0 FoldK=F
 IRaf=         0 NMat=       1 IRICut=       1 DoRegI=T DoRafI=F ISym2E= 0 IDoP0=0 IntGTp=1.
 FoFCou: FMM=F IPFlag=           0 FMFlag=      100000 FMFlg1=         800
         NFxFlg=           0 DoJE=F BraDBF=F KetDBF=F FulRan=T
         wScrn=  0.000000 ICntrl=      2527 IOpCl=  0 I1Cent=           0 NGrid=           0
         NMat0=    1 NMatS0=      1 NMatT0=    0 NMatD0=    1 NMtDS0=    0 NMtDT0=    0
 Symmetry not used in FoFCou.
 Leave Link  703 at Mon Jun 10 05:44:51 2019, MaxMem= 12884901888 cpu:            3050.5 elap:              50.1
 (Enter /home/ekwan/sw/g16/l716.exe)
 Dipole        = 2.61418681D-01 8.89342936D-01-8.03061886D-01
 ***** Axes restored to original set *****
 -------------------------------------------------------------------
 Center     Atomic                   Forces (Hartrees/Bohr)
 Number     Number              X              Y              Z
 -------------------------------------------------------------------
      1        6          -0.000000086   -0.000003929   -0.000002331
      2        6           0.000000311    0.000001455   -0.000000671
      3        6           0.000000442   -0.000000858   -0.000000187
      4        6           0.000001013   -0.000001337   -0.000000080
      5        6          -0.000002605   -0.000000420   -0.000002914
      6        1           0.000000204    0.000001941   -0.000001896
      7        1          -0.000000311    0.000000767   -0.000000065
      8        1           0.000000257   -0.000000683   -0.000000050
      9        1           0.000000260   -0.000000121    0.000000052
     10        1           0.000000782   -0.000000052    0.000001599
     11        8          -0.000001261    0.000002345    0.000000140
     12        8          -0.000002182    0.000000171   -0.000003069
     13        8          -0.000000306   -0.000000086   -0.000001496
     14        8          -0.000001053    0.000002735    0.000001236
     15        8           0.000002923   -0.000000141    0.000002967
     16        6          -0.000001186    0.000003188    0.000001735
     17        1           0.000000779   -0.000000529    0.000001164
     18        1           0.000000647    0.000000175    0.000001317
     19        8          -0.000000160   -0.000001749    0.000003537
     20       16           0.000000307    0.000002836   -0.000000741
     21        8           0.000000615   -0.000002284   -0.000000104
     22        8           0.000000141   -0.000000475   -0.000005032
     23        6          -0.000000035    0.000001279   -0.000000954
     24        6           0.000000774   -0.000002383    0.000000192
     25        6           0.000000237   -0.000000013    0.000000209
     26        6          -0.000000801    0.000000063   -0.000000326
     27        1           0.000000131   -0.000001085   -0.000000798
     28        6           0.000000495   -0.000000584   -0.000001821
     29        1          -0.000000992    0.000001592   -0.000000346
     30        6           0.000000209    0.000002495    0.000001657
     31        1          -0.000000067   -0.000000467    0.000001297
     32        6           0.000000624   -0.000000977   -0.000004480
     33        1          -0.000000268    0.000001055   -0.000002149
     34        1          -0.000000847    0.000001105   -0.000001715
     35        1          -0.000000230    0.000001142   -0.000003377
     36        6           0.000002734   -0.000004094   -0.000001990
     37        1          -0.000000097   -0.000001671   -0.000001111
     38        1           0.000000221   -0.000001248   -0.000000214
     39        1           0.000000046    0.000000142   -0.000000924
     40        6          -0.000002060   -0.000001362    0.000000929
     41        1           0.000000711   -0.000001544    0.000002357
     42        1           0.000001003   -0.000000999    0.000002005
     43        1           0.000000280   -0.000000609    0.000002205
     44        6          -0.000000991    0.000001239    0.000002253
     45        1          -0.000000743    0.000001890    0.000002074
     46        1           0.000000500    0.000001687    0.000001689
     47        1           0.000000019    0.000001916    0.000001069
     48        6           0.000000771   -0.000005674    0.000000121
     49        9           0.000001069   -0.000001980    0.000000396
     50        9           0.000000882   -0.000001071    0.000000642
     51        9          -0.000000281    0.000000598    0.000002053
     52        6           0.000003100    0.000000338    0.000000644
     53        9          -0.000001814    0.000000881    0.000002089
     54        9          -0.000003321    0.000001779    0.000000886
     55        9          -0.000000787    0.000003610    0.000000325
 -------------------------------------------------------------------
 Cartesian Forces:  Max     0.000005674 RMS     0.000001625
 Leave Link  716 at Mon Jun 10 05:44:52 2019, MaxMem= 12884901888 cpu:               7.1 elap:               0.2
 (Enter /home/ekwan/sw/g16/l103.exe)

 GradGradGradGradGradGradGradGradGradGradGradGradGradGradGradGradGradGrad
 Berny optimization.
 FormGI is forming the generalized inverse of G from B-inverse, IUseBI=4.
 GSVD:  received Info=                   1 from GESDD.
 Internal  Forces:  Max     0.000007095 RMS     0.000000975
 Search for a local minimum.
 Step number   1 out of a maximum of  291
 All quantities printed in internal units (Hartrees-Bohrs-Radians)
 RMS Force = .97544D-06 SwitMx=.10000D-02 MixMth= 2
 Mixed Optimization -- En-DIIS/RFO-DIIS
 Second derivative matrix not updated -- first step.
 ITU=  0
     Eigenvalues ---    0.00302   0.00351   0.00462   0.00524   0.00551
     Eigenvalues ---    0.00571   0.00707   0.01243   0.01249   0.01257
     Eigenvalues ---    0.01261   0.01281   0.01307   0.01313   0.01356
     Eigenvalues ---    0.01407   0.01456   0.01474   0.01500   0.01835
     Eigenvalues ---    0.02055   0.02058   0.02070   0.02076   0.02090
     Eigenvalues ---    0.02095   0.02804   0.03191   0.04339   0.04467
     Eigenvalues ---    0.04547   0.04722   0.04808   0.05162   0.05200
     Eigenvalues ---    0.05675   0.05964   0.06487   0.06909   0.06991
     Eigenvalues ---    0.07130   0.07742   0.09145   0.09937   0.09981
     Eigenvalues ---    0.10003   0.10056   0.10512   0.10528   0.10553
     Eigenvalues ---    0.10562   0.10621   0.10625   0.10677   0.10733
     Eigenvalues ---    0.10891   0.10960   0.11424   0.11805   0.11928
     Eigenvalues ---    0.14123   0.14762   0.16000   0.16000   0.16000
     Eigenvalues ---    0.16000   0.16000   0.16000   0.16000   0.16000
     Eigenvalues ---    0.16000   0.16000   0.16000   0.16000   0.16000
     Eigenvalues ---    0.16000   0.16000   0.16443   0.16590   0.17431
     Eigenvalues ---    0.18624   0.19628   0.19723   0.20578   0.22162
     Eigenvalues ---    0.23471   0.23483   0.23496   0.24939   0.24973
     Eigenvalues ---    0.24980   0.25000   0.25000   0.25000   0.25000
     Eigenvalues ---    0.25000   0.25000   0.25000   0.25000   0.25000
     Eigenvalues ---    0.25000   0.25000   0.25000   0.26002   0.26360
     Eigenvalues ---    0.27730   0.28066   0.28321   0.28963   0.30728
     Eigenvalues ---    0.30878   0.32789   0.33031   0.33079   0.33171
     Eigenvalues ---    0.33198   0.33232   0.33277   0.33283   0.33320
     Eigenvalues ---    0.33450   0.33475   0.33491   0.33605   0.33802
     Eigenvalues ---    0.33806   0.33812   0.33860   0.33949   0.34141
     Eigenvalues ---    0.35001   0.35018   0.35160   0.35217   0.36100
     Eigenvalues ---    0.40435   0.40497   0.40582   0.40627   0.41126
     Eigenvalues ---    0.41188   0.41279   0.41519   0.41620   0.41661
     Eigenvalues ---    0.42795   0.44410   0.45191   0.45388   0.45502
     Eigenvalues ---    0.45690   0.51102   0.52465   0.52890   0.53121
     Eigenvalues ---    0.53193   0.53595   0.86412   0.88680
 RFO step:  Lambda= 0.00000000D+00 EMin= 3.02470642D-03
 Linear search not attempted -- first point.
 Iteration  1 RMS(Cart)=  0.00056988 RMS(Int)=  0.00000003
 Iteration  2 RMS(Cart)=  0.00000008 RMS(Int)=  0.00000000
 ITry= 1 IFail=0 DXMaxC= 2.86D-03 DCOld= 1.00D+10 DXMaxT= 3.00D-01 DXLimC= 3.00D+00 Rises=F
 Variable       Old X    -DE/DX   Delta X   Delta X   Delta X     New X
                                 (Linear)    (Quad)   (Total)
    R1        2.91137   0.00000   0.00000   0.00000   0.00000   2.91137
    R2        2.90506   0.00000   0.00000   0.00000   0.00000   2.90507
    R3        2.08567   0.00000   0.00000   0.00000   0.00000   2.08567
    R4        2.69971   0.00000   0.00000   0.00000   0.00000   2.69971
    R5        2.92926   0.00000   0.00000   0.00000   0.00000   2.92926
    R6        2.09423   0.00000   0.00000   0.00000   0.00000   2.09423
    R7        2.67924   0.00000   0.00000   0.00000   0.00000   2.67924
    R8        2.07093   0.00000   0.00000   0.00000   0.00000   2.07093
    R9        2.63866   0.00000   0.00000   0.00000   0.00000   2.63866
   R10        2.78623   0.00000   0.00000   0.00000   0.00000   2.78623
   R11        2.90657   0.00000   0.00000   0.00000   0.00000   2.90657
   R12        2.08492   0.00000   0.00000   0.00000   0.00000   2.08492
   R13        2.75362   0.00000   0.00000   0.00000   0.00000   2.75362
   R14        2.90080   0.00000   0.00000   0.00000   0.00000   2.90080
   R15        2.08197   0.00000   0.00000   0.00000   0.00000   2.08197
   R16        2.70052   0.00000   0.00000   0.00000   0.00000   2.70052
   R17        3.13551   0.00000   0.00000   0.00000   0.00000   3.13551
   R18        2.70710   0.00000   0.00000   0.00000   0.00000   2.70710
   R19        2.70771   0.00000   0.00000   0.00000   0.00000   2.70771
   R20        2.70884   0.00000   0.00000   0.00000   0.00000   2.70883
   R21        2.07567   0.00000   0.00000   0.00000   0.00000   2.07567
   R22        2.08557   0.00000   0.00000   0.00000   0.00000   2.08556
   R23        2.69356   0.00000   0.00000  -0.00001  -0.00001   2.69356
   R24        2.70966   0.00000   0.00000   0.00000   0.00000   2.70966
   R25        2.77247   0.00000   0.00000   0.00000   0.00000   2.77248
   R26        2.78332   0.00000   0.00000   0.00000   0.00000   2.78332
   R27        3.40426   0.00000   0.00000   0.00001   0.00001   3.40427
   R28        2.64451   0.00000   0.00000   0.00000   0.00000   2.64451
   R29        2.64417   0.00000   0.00000   0.00000   0.00000   2.64417
   R30        2.65050   0.00000   0.00000   0.00000   0.00000   2.65050
   R31        2.05646   0.00000   0.00000   0.00000   0.00000   2.05646
   R32        2.64647   0.00000   0.00000   0.00000   0.00000   2.64647
   R33        2.05416   0.00000   0.00000   0.00000   0.00000   2.05416
   R34        2.64909   0.00000   0.00000   0.00000   0.00000   2.64909
   R35        2.86534   0.00000   0.00000   0.00000   0.00000   2.86534
   R36        2.65166   0.00000   0.00000   0.00000   0.00000   2.65166
   R37        2.86246   0.00000   0.00000   0.00000   0.00000   2.86246
   R38        2.05673   0.00000   0.00000   0.00000   0.00000   2.05673
   R39        2.08646   0.00000   0.00000   0.00000   0.00000   2.08646
   R40        2.08913   0.00000   0.00000   0.00000   0.00000   2.08913
   R41        2.07416   0.00000   0.00000   0.00000   0.00000   2.07416
   R42        2.07659   0.00000   0.00000   0.00000   0.00000   2.07659
   R43        2.08998   0.00000   0.00000   0.00000   0.00000   2.08998
   R44        2.08001   0.00000   0.00000   0.00000   0.00000   2.08001
   R45        2.07665   0.00000   0.00000   0.00000   0.00000   2.07665
   R46        2.08268   0.00000   0.00000   0.00000   0.00000   2.08268
   R47        2.08706   0.00000   0.00000   0.00000   0.00000   2.08706
   R48        2.07649   0.00000   0.00000   0.00000   0.00000   2.07649
   R49        2.08753   0.00000   0.00000   0.00000   0.00000   2.08753
   R50        2.08226   0.00000   0.00000   0.00000   0.00000   2.08226
   R51        2.56841   0.00000   0.00000   0.00000   0.00000   2.56841
   R52        2.57456   0.00000   0.00000   0.00000   0.00000   2.57456
   R53        2.57056   0.00000   0.00000   0.00000   0.00000   2.57057
   R54        2.58769   0.00000   0.00000   0.00000   0.00000   2.58769
   R55        2.56774   0.00000   0.00000   0.00001   0.00001   2.56774
   R56        2.56403   0.00000   0.00000   0.00000   0.00000   2.56403
    A1        1.93031   0.00000   0.00000   0.00000   0.00000   1.93031
    A2        1.89950   0.00000   0.00000   0.00001   0.00001   1.89950
    A3        1.93402   0.00000   0.00000   0.00000   0.00000   1.93403
    A4        1.89497   0.00000   0.00000   0.00000   0.00000   1.89498
    A5        1.86885   0.00000   0.00000  -0.00001  -0.00001   1.86884
    A6        1.93591   0.00000   0.00000   0.00000   0.00000   1.93591
    A7        1.93767   0.00000   0.00000   0.00000   0.00000   1.93767
    A8        1.88572   0.00000   0.00000   0.00000   0.00000   1.88571
    A9        1.89099   0.00000   0.00000   0.00000   0.00000   1.89100
   A10        1.84184   0.00000   0.00000   0.00000   0.00000   1.84183
   A11        1.97193   0.00000   0.00000   0.00000   0.00000   1.97193
   A12        1.93403   0.00000   0.00000   0.00000   0.00000   1.93403
   A13        1.95572   0.00000   0.00000  -0.00001  -0.00001   1.95571
   A14        1.97063   0.00000   0.00000   0.00000   0.00000   1.97063
   A15        1.84165   0.00000   0.00000   0.00000   0.00000   1.84165
   A16        1.85209   0.00000   0.00000   0.00001   0.00001   1.85210
   A17        1.89263   0.00000   0.00000   0.00002   0.00002   1.89265
   A18        1.95163   0.00000   0.00000  -0.00001  -0.00001   1.95161
   A19        1.90491   0.00000   0.00000   0.00000   0.00000   1.90491
   A20        1.93041   0.00000   0.00000   0.00000   0.00000   1.93042
   A21        1.95783   0.00000   0.00000  -0.00001  -0.00001   1.95783
   A22        1.89336   0.00000   0.00000   0.00000   0.00000   1.89336
   A23        1.88509   0.00000   0.00000   0.00000   0.00000   1.88510
   A24        1.89066   0.00000   0.00000   0.00000   0.00000   1.89065
   A25        1.95485   0.00000   0.00000   0.00001   0.00001   1.95486
   A26        1.89482   0.00000   0.00000   0.00000   0.00000   1.89482
   A27        1.91881   0.00000   0.00000   0.00000   0.00000   1.91880
   A28        1.88810   0.00000   0.00000   0.00000   0.00000   1.88811
   A29        1.86850   0.00000   0.00000   0.00000   0.00000   1.86850
   A30        1.93902   0.00000   0.00000   0.00000   0.00000   1.93901
   A31        1.99845   0.00000   0.00000  -0.00001  -0.00001   1.99844
   A32        2.04944   0.00001   0.00000   0.00003   0.00003   2.04947
   A33        1.99542   0.00000   0.00000   0.00001   0.00001   1.99543
   A34        1.99505   0.00000   0.00000   0.00000   0.00000   1.99506
   A35        1.98178   0.00000   0.00000   0.00000   0.00000   1.98179
   A36        1.86726   0.00000   0.00000   0.00001   0.00001   1.86727
   A37        1.90202   0.00000   0.00000  -0.00001  -0.00001   1.90201
   A38        2.00780   0.00000   0.00000  -0.00002  -0.00002   2.00778
   A39        1.90071   0.00000   0.00000   0.00001   0.00001   1.90072
   A40        1.84527   0.00000   0.00000   0.00000   0.00000   1.84527
   A41        1.93644   0.00000   0.00000   0.00000   0.00000   1.93644
   A42        1.99129   0.00000   0.00000   0.00000   0.00000   1.99129
   A43        1.81751   0.00000   0.00000  -0.00001  -0.00001   1.81750
   A44        1.90457   0.00000   0.00000   0.00000   0.00000   1.90457
   A45        1.79043   0.00000   0.00000   0.00002   0.00002   1.79045
   A46        2.12880   0.00000   0.00000   0.00000   0.00000   2.12880
   A47        1.89833   0.00000   0.00000   0.00000   0.00000   1.89833
   A48        1.89417   0.00000   0.00000   0.00000   0.00000   1.89416
   A49        2.07301   0.00000   0.00000   0.00001   0.00001   2.07302
   A50        2.07565   0.00000   0.00000   0.00000   0.00000   2.07565
   A51        2.13379   0.00000   0.00000   0.00000   0.00000   2.13379
   A52        2.06620   0.00000   0.00000   0.00000   0.00000   2.06620
   A53        2.10511   0.00000   0.00000   0.00000   0.00000   2.10511
   A54        2.11188   0.00000   0.00000   0.00000   0.00000   2.11188
   A55        2.06535   0.00000   0.00000   0.00000   0.00000   2.06535
   A56        2.10365   0.00000   0.00000   0.00000   0.00000   2.10365
   A57        2.11417   0.00000   0.00000   0.00000   0.00000   2.11417
   A58        2.10470   0.00000   0.00000   0.00000   0.00000   2.10470
   A59        2.09026   0.00000   0.00000  -0.00001  -0.00001   2.09026
   A60        2.08730   0.00000   0.00000   0.00000   0.00000   2.08731
   A61        2.10682   0.00000   0.00000   0.00000   0.00000   2.10681
   A62        2.09449   0.00000   0.00000   0.00001   0.00001   2.09450
   A63        2.07981   0.00000   0.00000   0.00000   0.00000   2.07980
   A64        2.08950   0.00000   0.00000   0.00000   0.00000   2.08950
   A65        2.09691   0.00000   0.00000   0.00000   0.00000   2.09691
   A66        2.09676   0.00000   0.00000   0.00000   0.00000   2.09676
[...]
 ,0.00001279,-0.00014669,-0.00032350,0.00005118,0.00000670,0.00004146,0
 .00001785,0.00005812,0.00003145,-0.00001346,-0.00000380,0.00004344,-0.
 00002862,0.00036824,0.00033210,0.00095710,-0.00003975,0.00002411,-0.00
 011260,-0.00018802,0.00004922,-0.00016271,-0.00004116,-0.00009102,-0.0
 0002301,0.00237085,-0.00099171,-0.00572275,0.00014371,0.00015250,0.001
 95698,-0.00160205,-0.00041916,0.00162728,-0.00078546,0.00101079,0.0013
 6536,0.01742165,-0.01485956,0.53155793,0.00008472,-0.00013304,0.000020
 93,0.00007523,-0.00004346,-0.00004452,0.00016029,-0.00051893,0.0002347
 4,-0.00012761,-0.00065465,-0.00013101,0.00004849,0.00027918,0.00009412
 ,-0.00001820,0.00002969,-0.00000865,0.00001104,0.00001014,-0.00000356,
 -0.00001100,0.00001162,-0.00001403,-0.00001021,0.00004394,-0.00004099,
 0.00005588,-0.00001139,0.00000785,-0.00024219,0.00041832,-0.00002548,0
 .00024539,0.00033571,-0.00015720,-0.00009995,0.00011511,0.00001230,-0.
 00018940,0.00005029,-0.00008334,-0.00013716,-0.00006557,-0.00008988,0.
 00177223,0.00124734,0.00019935,-0.00023581,-0.00005715,-0.00018150,-0.
 00151751,-0.00054881,-0.00050972,-0.00066019,-0.00062471,-0.00043354,-
 0.00033816,-0.00022688,0.00013186,0.00008673,-0.00000035,-0.00001412,0
 .00006973,0.00005507,-0.00001220,0.00047679,-0.00056350,0.00033362,0.0
 0015448,-0.00015920,-0.00037506,-0.00041385,-0.00049636,0.00107179,-0.
 00043695,-0.00007450,-0.00019596,0.00002510,0.00000101,0.00001758,0.01
 004666,-0.00016130,-0.00206438,-0.00005177,-0.00002654,-0.00003356,0.0
 0000332,0.00103635,0.00002607,-0.00002377,0.00003113,-0.00036141,0.000
 00861,-0.00003998,-0.00005058,0.00000524,0.00000115,0.00001152,0.00000
 422,0.00000245,0.00000934,-0.00001030,0.00001162,0.00000300,0.00004201
 ,-0.00004824,0.00008425,-0.00001913,0.00000231,-0.00001114,0.00000124,
 0.00000601,-0.00001718,-0.00000792,0.00001649,-0.00000734,0.00008347,0
 .00010540,0.00003207,-0.00000687,-0.00001891,-0.00002436,-0.00002954,-
 0.00001382,0.00000113,0.00001226,0.00001910,0.00000994,0.00153105,0.00
 055851,0.00119454,-0.00033514,-0.00017361,-0.00003648,-0.00183541,-0.0
 0002462,-0.00027130,-0.00036149,-0.00007860,-0.00004387,-0.00024457,-0
 .00009037,0.00007307,0.00006270,0.00001672,-0.00002386,0.00007029,0.00
 003687,-0.00001926,0.00004373,0.00000722,-0.00000447,-0.08247185,-0.04
 173485,0.01135712,0.11819014,-0.00001710,-0.00020745,-0.00005532,-0.00
 014036,0.00000392,-0.00009872,-0.00019002,-0.00078746,0.00072535,-0.00
 020970,-0.00097041,-0.00020866,-0.00002527,0.00019152,-0.00000353,-0.0
 0004680,0.00005482,-0.00003611,0.00008051,0.00003120,-0.00000331,-0.00
 001802,0.00001679,-0.00002897,-0.00006920,0.00006805,-0.00012200,0.000
 09958,0.00001052,0.00001012,0.00015915,0.00082403,-0.00003421,0.001335
 89,0.00058708,-0.00036607,0.00006775,0.00005279,-0.00000892,-0.0000286
 4,0.00010477,-0.00001349,-0.00006308,0.00013524,0.00000993,0.00127378,
 0.00080540,0.00053236,-0.00013153,-0.00000372,-0.00014567,0.00005353,-
 0.00096598,0.00069240,-0.00051539,-0.00010381,-0.00069483,-0.00286246,
 0.00152645,0.00035174,0.00069774,-0.00075542,0.00030020,0.00072256,-0.
 00051882,-0.00035897,0.00144666,0.00052164,0.00063017,-0.00005840,-0.0
 0032311,0.00072212,-0.00199913,0.00072190,0.00204742,0.00161538,0.0006
 7987,0.00160290,-0.00018614,-0.00013680,-0.00000664,-0.01058032,-0.031
 18174,0.01662841,-0.00090540,-0.00040047,-0.00032207,0.00193917,-0.002
 48639,-0.00182529,-0.00097899,-0.00054675,0.00001416,-0.00006085,-0.00
 000985,0.00002918,0.00000076,0.00001681,0.00001323,0.00000989,0.000011
 01,-0.00001460,0.00000717,0.00000012,0.00000278,-0.00000588,-0.0000152
 2,0.00003226,0.00000102,0.00000522,-0.00000347,0.00000278,-0.00000324,
 -0.00000539,-0.00001232,0.00000821,-0.00000386,0.00003651,-0.00004407,
 0.00006218,0.00000171,0.00000070,-0.00001101,-0.00001616,0.00000222,-0
 .00000602,0.00001329,0.00003906,-0.00001443,0.00149110,0.00087057,0.00
 131064,-0.00028098,-0.00014380,-0.00003975,0.00016248,-0.00037325,-0.0
 0084487,-0.00053183,-0.00011551,-0.00005383,0.00123744,-0.00098155,-0.
 00206436,0.00005172,0.00014752,0.00096227,-0.00057124,-0.00007267,0.00
 058404,-0.00034958,0.00064628,0.00045872,-0.04539853,-0.18817795,0.034
 14967,0.09957087,0.28018751,0.00006718,0.00000469,0.00003549,0.0001505
 1,-0.00004432,0.00002950,0.00023880,0.00027824,-0.00045071,-0.00000062
 ,-0.00007564,-0.00011389,0.00004759,0.00013439,0.00005546,0.00000239,0
 .00000773,0.00002720,-0.00006086,-0.00001924,0.00000446,0.00000691,-0.
 00000259,0.00001585,0.00003956,-0.00001508,0.00008123,-0.00003587,-0.0
 0002305,0.00000237,-0.00025234,-0.00022520,0.00013761,-0.00093737,-0.0
 0019252,0.00026110,-0.00011484,0.00005636,0.00004830,-0.00013030,-0.00
 001793,-0.00004330,-0.00006803,-0.00010944,-0.00004029,0.00053976,0.00
 085789,-0.00025629,-0.00006097,-0.00004756,-0.00000034,-0.00107511,-0.
 00011722,-0.00087586,-0.00016623,-0.00031420,0.00067437,0.00190949,-0.
 00153710,-0.00056179,-0.00046893,0.00061888,-0.00018045,-0.00045898,0.
 00044434,0.00041091,-0.00153540,-0.00021930,-0.00114887,-0.00064933,0.
 00078094,-0.00018397,0.00268781,-0.00024907,-0.00225641,-0.00060946,-0
 .00074157,0.00029054,0.00009935,0.00008068,0.00004454,0.00589912,0.031
 80501,-0.00307326,0.00020376,0.00062173,0.00001025,-0.00097919,0.00048
 583,0.00105453,0.00029235,0.00022341,0.00013844,0.00004766,-0.00003158
 ,-0.00008220,0.00000847,-0.00000509,-0.00000278,-0.00001033,-0.0000098
 5,0.00002062,-0.00001029,0.00000794,0.00000403,0.00003280,-0.00002702,
 0.00003535,-0.00001540,-0.00000166,-0.00000703,-0.00000203,0.00000625,
 -0.00000547,0.00000063,0.00000867,-0.00000414,0.00004317,0.00010226,-0
 .00001659,-0.00000261,-0.00001265,-0.00000511,-0.00001606,-0.00000987,
 0.00000416,0.00000133,-0.00001491,0.00000965,-0.00039183,-0.00027085,-
 0.00062354,0.00007717,0.00003187,0.00006046,0.00025438,0.00001407,0.00
 025671,0.00011441,0.00005177,0.00003573,-0.00073991,0.00040045,0.00149
 751,-0.00002005,-0.00006132,-0.00056077,0.00042070,0.00011083,-0.00042
 851,0.00022483,-0.00031608,-0.00033630,0.01283392,0.03602714,-0.078174
 95,-0.01559185,-0.02862272,0.07062872,0.00014371,-0.00000034,0.0000887
 4,0.00025049,-0.00009548,0.00004833,0.00036677,0.00000023,-0.00033302,
 0.00004928,0.00002382,0.00005686,0.00009843,0.00019684,0.00016458,0.00
 001645,-0.00000642,0.00001973,-0.00005997,-0.00001440,-0.00000773,-0.0
 0000084,0.00000411,0.00000178,0.00003535,0.00000859,0.00004148,0.00000
 254,-0.00002175,-0.00000160,-0.00045096,-0.00010194,-0.00004143,-0.000
 89155,-0.00007060,0.00011076,-0.00021176,0.00014062,0.00002241,-0.0002
 5746,-0.00001542,-0.00012117,-0.00014042,-0.00019510,-0.00014996,0.000
 72459,0.00055605,0.00013518,-0.00009165,-0.00005712,-0.00009314,-0.000
 07713,-0.00007673,0.00014367,-0.00037922,-0.00035933,-0.00011866,0.002
 22224,-0.00163031,-0.00046417,-0.00068637,0.00099677,-0.00047877,-0.00
 055049,0.00060158,0.00038051,-0.00067511,0.00172830,0.00056850,-0.0001
 9429,-0.00007542,-0.00044865,-0.00024765,-0.00056919,-0.00617699,0.000
 29950,0.00057089,-0.00107757,0.00003359,-0.00013852,-0.00005117,-0.034
 58565,0.01114319,-0.00248811,0.00032056,-0.00075974,0.00029189,-0.0012
 4798,0.00187257,0.00282366,-0.00028606,-0.00118658,-0.00154896,0.00006
 675,-0.00005840,-0.00010126,0.00000867,-0.00001406,0.00000711,-0.00000
 072,-0.00000403,0.00002610,-0.00002473,0.00001853,0.00000124,0.0000746
 3,-0.00006506,0.00010463,-0.00002897,-0.00000138,-0.00001347,-0.000000
 42,0.00001172,-0.00002395,-0.00000151,0.00001897,-0.00000663,0.0000908
 9,0.00016652,0.00000602,-0.00000833,-0.00002763,-0.00002585,-0.0000311
 4,-0.00001878,0.00000661,0.00000311,-0.00000314,0.00001768,0.00063800,
 0.00030670,0.00043133,-0.00014636,-0.00011215,0.00001098,0.00001986,0.
 00003274,-0.00031918,-0.00013208,-0.00002303,-0.00002721,-0.00130007,0
 .00060211,0.00159969,0.00005634,-0.00008644,-0.00062112,0.00066147,0.0
 0015873,-0.00051438,0.00036694,-0.00045589,-0.00036151,-0.22863299,0.0
 3426806,-0.01401855,-0.05480820,-0.03356108,0.00868462,0.34815442,-0.0
 0003787,-0.00005094,-0.00003498,-0.00009642,0.00001873,-0.00003494,-0.
 00013298,-0.00020232,0.00026480,-0.00005816,-0.00024417,-0.00005165,-0
 .00002952,-0.00000313,-0.00004301,-0.00001619,0.00001338,-0.00001426,0
 .00003442,0.00001226,-0.00000015,-0.00000473,0.00000337,-0.00000832,-0
 .00003028,0.00001866,-0.00004685,0.00002799,0.00000829,0.00000328,0.00
 014122,0.00023749,-0.00000071,0.00050846,0.00016585,-0.00010305,0.0000
 6726,-0.00001782,-0.00000696,0.00005359,0.00003079,0.00002450,0.000015
 93,0.00008433,0.00003790,0.00016094,0.00002148,0.00008996,-0.00001548,
 0.00001458,-0.00001712,0.00001846,-0.00020442,0.00017724,-0.00006441,0
 .00006080,-0.00018062,-0.00138383,0.00062462,0.00019401,0.00042662,-0.
 00042330,0.00020772,0.00032217,-0.00025684,-0.00019232,-0.00028221,-0.
 00119391,0.00040975,0.00041417,-0.00020413,0.00011247,0.00003625,0.001
 02413,0.00205330,-0.00031379,-0.00025026,0.00030105,0.00000619,0.00008
 099,0.00001051,0.02220369,0.00367640,0.00325335,-0.00002236,0.00059888
 ,-0.00021588,0.00069524,-0.00099842,-0.00051995,-0.00002481,0.00030143
 ,0.00059191,-0.00003241,0.00000941,0.00003080,-0.00000147,0.00000754,0
 .00000217,0.00000305,0.00000417,-0.00001004,0.00000728,-0.00000417,0.0
 0000036,-0.00001840,0.00001068,-0.00001564,0.00000724,0.00000170,0.000
 00231,0.00000085,-0.00000367,0.00000400,-0.00000296,-0.00000215,0.0000
 0070,-0.00001204,-0.00005379,0.00001574,0.00000260,0.00000692,0.000003
 29,0.00000301,0.00000524,-0.00000324,0.00000274,0.00001168,-0.00000862
 ,0.00027833,0.00013244,0.00027205,-0.00004297,-0.00001249,-0.00001558,
 0.00008802,-0.00001334,-0.00018078,-0.00010289,-0.00002263,-0.00000772
 ,0.00053095,-0.00043706,-0.00088588,0.00000105,0.00006545,0.00032865,-
 0.00026780,-0.00002628,0.00025898,-0.00017049,0.00027661,0.00020024,0.
 03345011,-0.07443118,0.00315767,-0.04787778,-0.00184862,0.00380798,-0.
 03875960,0.07662612,0.00005097,0.00003362,0.00003017,0.00011587,-0.000
 03354,0.00003858,0.00016527,0.00022632,-0.00036755,0.00007751,0.000153
 26,0.00000606,0.00003667,0.00002818,0.00004781,0.00000731,0.00000147,0
 .00002115,-0.00004662,-0.00001657,0.00000170,0.00000495,-0.00000239,0.
 00001155,0.00003076,-0.00001186,0.00005730,-0.00002386,-0.00001297,-0.
 00000068,-0.00016956,-0.00019880,0.00005965,-0.00068802,-0.00017014,0.
 00018219,-0.00008587,0.00004318,0.00003184,-0.00007932,-0.00002156,-0.
 00002739,-0.00003729,-0.00007642,-0.00003271,-0.00000621,0.00009391,-0
 .00008289,0.00001301,-0.00001286,0.00001884,0.00002877,0.00010709,-0.0
 0007963,-0.00002501,-0.00007509,0.00020709,0.00169777,-0.00094083,-0.0
 0055913,-0.00053087,0.00060269,-0.00022442,-0.00037961,0.00035303,0.00
 038637,-0.00067168,0.00169866,-0.00010921,-0.00057348,0.00045829,-0.00
 018728,-0.00029862,-0.00076566,-0.00418795,-0.00029908,0.00007004,0.00
 078858,-0.00004651,0.00004007,0.00002770,-0.02644832,0.00852612,0.0055
 9645,-0.00038621,0.00002210,0.00000112,-0.00141848,-0.00021418,-0.0022
 4839,-0.00137883,0.00083339,-0.00055497,0.00003610,-0.00002508,-0.0000
 6015,0.00000671,-0.00000426,-0.00000242,-0.00000743,-0.00000723,0.0000
 1507,-0.00000807,0.00000583,0.00000241,0.00002479,-0.00001802,0.000020
 76,-0.00000977,-0.00000185,-0.00000407,-0.00000177,0.00000437,-0.00000
 354,0.00000139,0.00000553,-0.00000204,0.00002468,0.00005897,-0.0000116
 3,-0.00000098,-0.00000731,-0.00000258,-0.00000970,-0.00000538,0.000002
 80,0.00000004,-0.00000962,0.00000549,-0.00012037,-0.00008354,-0.000197
 40,0.00001607,-0.00000130,0.00001849,0.00002725,0.00002036,0.00004900,
 0.00002955,0.00001959,0.00000401,-0.00048204,0.00019539,0.00127227,-0.
 00005429,-0.00003362,-0.00043627,0.00032168,0.00009264,-0.00033855,0.0
 0016091,-0.00021479,-0.00028693,-0.00807141,0.00215005,-0.07513557,0.0
 1287414,0.00391173,0.01146498,-0.01926736,0.00361532,0.07472585,0.0000
 2806,0.00001053,0.00002319,0.00005043,-0.00002287,0.00000905,0.0000948
 0,0.00000436,-0.00003182,0.00001336,0.00005564,0.00005809,0.00001918,0
 .00003163,0.00002933,0.00001321,-0.00001145,0.00000049,-0.00000854,-0.
 00000068,-0.00000317,-0.00000023,0.00000031,-0.00000122,0.00000585,0.0
 0000228,-0.00000133,0.00000135,-0.00000252,-0.00000111,-0.00007077,-0.
 00004922,-0.00003667,-0.00015731,-0.00000680,-0.00001086,-0.00004217,0
 .00002487,-0.00000349,-0.00004971,-0.00000761,-0.00002739,-0.00002490,
 -0.00004467,-0.00003526,0.00007223,0.00006066,0.00002495,-0.00001239,-
 0.00001108,-0.00001669,0.00000740,0.00000363,0.00004697,-0.00004033,-0
 .00005787,-0.00005150,0.00041822,-0.00038205,0.00021855,-0.00007095,0.
 00013569,-0.00010936,-0.00012543,0.00013746,-0.00000813,0.00057278,-0.
 00056961,-0.00012078,0.00001390,0.00004151,-0.00027693,-0.00222062,0.0
 0090815,-0.00139239,0.00023306,-0.00040599,-0.00072278,0.00005384,-0.0
 0002515,-0.00007533,0.00990525,-0.00181380,-0.00706421,0.00029467,-0.0
 0028975,-0.00183566,-0.00083342,0.00146664,-0.00084216,0.00010471,-0.0
 0005604,-0.00041150,0.00001377,-0.00000907,-0.00001253,0.00000053,-0.0
 0000506,0.00000213,0.00000207,0.00000057,0.00000415,-0.00000609,0.0000
 0383,-0.00000111,0.00001592,-0.00001307,0.00002264,-0.00000566,-0.0000
 0033,-0.00000239,0.00000020,0.00000240,-0.00000585,0.00000020,0.000003
 37,-0.00000083,0.00001600,0.00003307,0.00000049,-0.00000194,-0.0000058
 2,-0.00000571,-0.00000491,-0.00000380,0.00000169,-0.00000039,-0.000001
 29,0.00000424,0.00010202,0.00005446,0.00007497,-0.00002164,-0.00002164
 ,-0.00000031,-0.00002801,0.00005247,0.00000434,0.00000931,0.00000037,-
 0.00000373,-0.00043250,0.00014272,0.00032632,0.00001112,-0.00002897,-0
 .00023203,0.00016202,0.00004274,-0.00011526,0.00009583,-0.00011366,-0.
 00007140,-0.07325474,0.01137545,0.01653451,0.01127313,-0.01226407,-0.0
 1052446,-0.02855450,0.03029402,0.04587443,0.08236275,0.00001683,-0.000
 06367,-0.00001262,-0.00000149,-0.00000793,-0.00002136,0.00000900,-0.00
 022927,0.00007971,-0.00002623,-0.00027818,-0.00009665,0.00001385,0.000
 06950,0.00001718,-0.00002271,0.00002630,0.00000049,0.00000630,0.000003
 53,0.00000086,-0.00000379,0.00000429,-0.00000360,-0.00001055,0.0000136
 1,-0.00000504,0.00001981,-0.00000385,0.00000367,-0.00007136,0.00023795
 ,0.00004451,0.00013171,0.00016344,-0.00000370,-0.00001790,0.00004662,0
 .00002159,-0.00004286,0.00003163,-0.00001092,-0.00004293,0.00002275,-0
 .00000208,0.00047990,0.00031356,0.00011835,-0.00004387,-0.00000776,-0.
 00003412,0.00005985,-0.00027520,0.00018155,-0.00023694,-0.00006125,-0.
 00005698,-0.00033463,-0.00004941,-0.00039460,0.00004042,0.00001150,0.0
 0007295,0.00011385,0.00000312,0.00015174,-0.00061343,0.00080209,-0.000
 11692,-0.00020707,0.00019379,0.00050330,0.00290455,-0.00173585,0.00135
 870,0.00011775,-0.00065895,0.00052994,-0.00007363,0.00003492,0.0000842
 4,0.00122438,0.00701701,0.00148452,-0.00076941,0.00046866,0.00140695,0
 .00042991,0.00069997,-0.00020250,-0.00004073,0.00016372,0.00031377,-0.
 00000881,-0.00002257,-0.00002818,0.00000613,0.00000724,0.00000366,-0.0
 0000174,-0.00000034,0.00000269,0.,0.00000269,0.00000362,0.00000800,-0.
 00001314,0.00001661,-0.00000351,0.00000102,-0.00000303,-0.00000023,0.0
 0000049,-0.00000172,-0.00000441,0.00000590,-0.00000248,0.00002421,0.00
 000710,0.00001610,0.00000111,-0.00000219,-0.00000319,-0.00001128,-0.00
 000133,-0.00000118,0.00000513,0.00000931,-0.00000467,0.00041167,0.0001
 4101,0.00019613,-0.00006566,-0.00003662,0.00000049,0.00009799,-0.00000
 010,-0.00018041,-0.00014313,-0.00001326,-0.00000923,0.00003049,-0.0003
 2610,-0.00011935,-0.00001608,0.00003658,-0.00002791,-0.00005547,0.0000
 5459,0.00006570,-0.00005462,0.00012915,0.00001418,0.00985158,-0.101730
 20,-0.06741251,-0.00955253,-0.05709715,-0.04363470,0.02513741,-0.00324
 936,-0.02040631,-0.02866485,0.15514066,0.00009859,-0.00000562,0.000031
 99,0.00018766,-0.00005110,0.00002603,0.00032677,0.00016698,-0.00053858
 ,0.00010620,-0.00001003,-0.00012411,0.00007652,0.00011207,0.00009636,-
 0.00000853,0.00003069,0.00003470,-0.00007119,-0.00002457,0.00000720,0.
 00000577,-0.00000084,0.00001887,0.00005188,-0.00001378,0.00010670,-0.0
 0002785,-0.00002770,0.00000331,-0.00039509,-0.00012800,0.00019156,-0.0
 0103073,-0.00008203,0.00026721,-0.00015776,0.00010814,0.00008029,-0.00
 016816,-0.00000753,-0.00004850,-0.00010285,-0.00011024,-0.00004979,0.0
 0047759,0.00047833,-0.00006034,-0.00002257,-0.00002752,0.00000261,0.00
 001452,0.00001169,-0.00003135,-0.00028280,-0.00021867,0.00037311,0.002
 37514,-0.00190993,-0.00068056,-0.00061631,0.00074097,-0.00019401,-0.00
 055905,0.00062253,0.00066358,0.00004046,0.00096450,-0.00011910,-0.0001
 8887,-0.00002408,-0.00061145,0.00188034,-0.00127793,-0.00189699,0.0017
 9458,-0.00039508,-0.00233459,-0.00009126,-0.00000391,0.00005656,0.0070
 7015,-0.02386455,-0.04228658,-0.00207175,0.00083038,-0.00134331,-0.006
 76706,0.00486867,-0.00301114,-0.00008592,-0.00030300,0.00069581,0.0000
 5295,-0.00006048,-0.00013033,0.00001725,0.00000063,-0.00000173,-0.0000
 1614,-0.00001389,0.00002865,-0.00001202,0.00001141,0.00000834,0.000046
 03,-0.00003946,0.00004416,-0.00001940,-0.00000227,-0.00000939,-0.00000
 354,0.00000769,-0.00000541,-0.00000165,0.00001418,-0.00000598,0.000063
 46,0.00011139,-0.00000841,-0.00000089,-0.00001372,-0.00000645,-0.00002
 676,-0.00001094,0.00000356,0.00000505,-0.00000959,0.00000638,0.0001334
 3,-0.00002993,-0.00020024,-0.00003276,-0.00003175,0.00003689,0.0001313
 2,-0.00001474,-0.00010256,-0.00008964,0.00002078,0.00000044,-0.0016295
 1,0.00108333,0.00224950,-0.00018918,-0.00016355,-0.00128387,0.00087421
 ,0.00020982,-0.00071440,0.00032972,-0.00044469,-0.00050901,0.01152590,
 -0.06057520,-0.20937729,-0.00691854,-0.02976685,0.00209276,0.03310748,
 -0.01683375,-0.00995196,-0.03920518,0.12610276,0.26851086\\0.00000002,
 0.00000200,0.00000117,0.00000004,-0.00000059,0.00000134,0.00000067,-0.
 00000054,-0.00000109,-0.00000008,0.00000070,-0.00000060,0.00000179,0.0
 0000050,0.00000141,0.00000019,-0.00000081,0.00000142,0.00000007,-0.000
 00107,0.00000046,-0.00000040,0.00000076,0.00000040,-0.00000055,0.00000
 070,-0.00000036,-0.00000078,0.00000025,-0.00000143,-0.00000022,-0.0000
 0158,-0.00000009,-0.00000068,0.00000173,0.00000336,0.00000090,0.000000
 33,0.00000125,0.00000044,-0.00000175,-0.00000041,-0.00000256,0.0000013
 3,-0.00000245,-0.00000049,-0.00000197,-0.00000098,-0.00000052,0.000000
 35,-0.00000154,0.00000084,-0.00000041,-0.00000091,0.00000075,-0.000000
 08,-0.00000227,-0.00000011,-0.00000111,0.00000055,-0.00000007,0.000000
 56,0.00000160,-0.00000005,-0.00000067,0.00000314,0.00000079,0.00000045
 ,-0.00000008,-0.00000090,0.00000139,0.00000125,0.00000099,-0.00000059,
 0.00000014,0.00000077,0.00000035,0.00000031,-0.00000022,0.00000141,0.0
 0000090,-0.00000130,0.00000018,0.00000148,0.00000071,-0.00000136,0.000
 00077,-0.00000023,-0.00000051,-0.00000189,0.00000009,0.00000012,-0.000
 00118,0.00000023,-0.00000009,0.00000382,0.00000057,-0.00000109,0.00000
 228,0.00000068,-0.00000143,0.00000227,0.00000004,-0.00000083,0.0000031
 7,-0.00000086,0.00000235,0.00000118,-0.00000036,0.00000133,0.00000091,
 -0.00000036,0.00000165,0.00000070,-0.00000009,0.00000054,0.00000146,0.
 00000122,0.00000113,-0.00000127,-0.00000059,0.00000164,-0.00000213,-0.
 00000064,0.00000115,-0.00000182,-0.00000053,0.00000066,-0.00000232,0.0
 0000050,-0.00000198,-0.00000095,0.00000065,-0.00000216,-0.00000222,-0.
 00000031,-0.00000189,-0.00000178,0.00000048,-0.00000213,-0.00000099,-0
 .00000020,0.00000361,-0.00000047,-0.00000090,0.00000259,-0.00000037,-0
 .00000107,0.00000113,-0.00000018,-0.00000029,0.00000063,-0.00000147,-0
 .00000168,-0.00000135,0.00000052,0.00000105,-0.00000123,-0.00000300,0.
 00000173,-0.00000132,-0.00000177,0.00000084,-0.00000299,-0.00000125\\\
 @


 A MAN BEGINS CUTTING HIS WISDOM TEETH THE 1ST
 TIME HE BITES OFF MORE THAN HE CAN CHEW.
 Job cpu time:       1 days 16 hours 13 minutes 48.2 seconds.
 Elapsed time:       0 days  0 hours 38 minutes 54.2 seconds.
 File lengths (MBytes):  RWF=   2251 Int=      0 D2E=      0 Chk=     39 Scr=      1
 Normal termination of Gaussian 16 at Mon Jun 10 06:41:49 2019.
