 Entering Gaussian System, Link 0=g16
 Input=clay_new-glu_gluC6-BCDR-Na2_1Me2O-bisCF3-ts-b972-631gd-pcm_thf.gjf
 Output=clay_new-glu_gluC6-BCDR-Na2_1Me2O-bisCF3-ts-b972-631gd-pcm_thf.out
 Initial command:
 /home/ekwan/sw/g16/l1.exe "/scratch/users/ekwan/clay_new-glu_gluC6-BCDR-Na2_1Me2O-bisCF3-ts-b972-631gd-pcm_thf/Gau-22562.inp" -scrdir="/scratch/users/ekwan/clay_new-glu_gluC6-BCDR-Na2_1Me2O-bisCF3-ts-b972-631gd-pcm_thf/"
 Entering Link 1 = /home/ekwan/sw/g16/l1.exe PID=     22563.
  
 Copyright (c) 1988,1990,1992,1993,1995,1998,2003,2009,2016,
            Gaussian, Inc.  All Rights Reserved.
  
 This is part of the Gaussian(R) 16 program.  It is based on
 the Gaussian(R) 09 system (copyright 2009, Gaussian, Inc.),
 the Gaussian(R) 03 system (copyright 2003, Gaussian, Inc.),
 the Gaussian(R) 98 system (copyright 1998, Gaussian, Inc.),
 the Gaussian(R) 94 system (copyright 1995, Gaussian, Inc.),
 the Gaussian 92(TM) system (copyright 1992, Gaussian, Inc.),
 the Gaussian 90(TM) system (copyright 1990, Gaussian, Inc.),
 the Gaussian 88(TM) system (copyright 1988, Gaussian, Inc.),
 the Gaussian 86(TM) system (copyright 1986, Carnegie Mellon
 University), and the Gaussian 82(TM) system (copyright 1983,
 Carnegie Mellon University). Gaussian is a federally registered
 trademark of Gaussian, Inc.
  
 This software contains proprietary and confidential information,
 including trade secrets, belonging to Gaussian, Inc.
  
 This software is provided under written license and may be
 used, copied, transmitted, or stored only in accord with that
 written license.
  
 The following legend is applicable only to US Government
 contracts under FAR:
  
                    RESTRICTED RIGHTS LEGEND
  
 Use, reproduction and disclosure by the US Government is
 subject to restrictions as set forth in subparagraphs (a)
 and (c) of the Commercial Computer Software - Restricted
 Rights clause in FAR 52.227-19.
  
 Gaussian, Inc.
 340 Quinnipiac St., Bldg. 40, Wallingford CT 06492
  
  
 ---------------------------------------------------------------
 Warning -- This program may not be used in any manner that
 competes with the business of Gaussian, Inc. or will provide
 assistance to any competitor of Gaussian, Inc.  The licensee
 of this program is prohibited from giving any competitor of
 Gaussian, Inc. access to this program.  By using this program,
 the user acknowledges that Gaussian, Inc. is engaged in the
 business of creating and licensing software in the field of
 computational chemistry and represents and warrants to the
 licensee that it is not a competitor of Gaussian, Inc. and that
 it will not use this program in any manner prohibited above.
 ---------------------------------------------------------------
  

 Cite this work as:
 Gaussian 16, Revision A.03,
 M. J. Frisch, G. W. Trucks, H. B. Schlegel, G. E. Scuseria, 
 M. A. Robb, J. R. Cheeseman, G. Scalmani, V. Barone, 
 G. A. Petersson, H. Nakatsuji, X. Li, M. Caricato, A. V. Marenich, 
 J. Bloino, B. G. Janesko, R. Gomperts, B. Mennucci, H. P. Hratchian, 
 J. V. Ortiz, A. F. Izmaylov, J. L. Sonnenberg, D. Williams-Young, 
 F. Ding, F. Lipparini, F. Egidi, J. Goings, B. Peng, A. Petrone, 
 T. Henderson, D. Ranasinghe, V. G. Zakrzewski, J. Gao, N. Rega, 
 G. Zheng, W. Liang, M. Hada, M. Ehara, K. Toyota, R. Fukuda, 
 J. Hasegawa, M. Ishida, T. Nakajima, Y. Honda, O. Kitao, H. Nakai, 
 T. Vreven, K. Throssell, J. A. Montgomery, Jr., J. E. Peralta, 
 F. Ogliaro, M. J. Bearpark, J. J. Heyd, E. N. Brothers, K. N. Kudin, 
 V. N. Staroverov, T. A. Keith, R. Kobayashi, J. Normand, 
 K. Raghavachari, A. P. Rendell, J. C. Burant, S. S. Iyengar, 
 J. Tomasi, M. Cossi, J. M. Millam, M. Klene, C. Adamo, R. Cammi, 
 J. W. Ochterski, R. L. Martin, K. Morokuma, O. Farkas, 
 J. B. Foresman, and D. J. Fox, Gaussian, Inc., Wallingford CT, 2016.
 
 ******************************************
 Gaussian 16:  AS64L-G16RevA.03 25-Dec-2016
                 6-Jun-2019 
 ******************************************
 %nprocshared=32
 Will use up to   32 processors via shared memory.
 %mem=48GB
 ----------------------------------------------------------------------
 #p opt=(calcfc,ts,noeigentest,maxstep=5) freq=noraman 6-31g(d) scrf=(s
 olvent=tetrahydrofuran,pcm) pop=none b972
 ----------------------------------------------------------------------
 1/5=1,8=5,10=4,11=1,18=20,26=3,38=1/1,3;
 2/9=110,12=2,17=6,18=5,40=1/2;
 3/5=1,6=6,7=1,11=2,25=1,30=1,70=2201,71=2,72=20,74=-21,140=1/1,2,3;
 4//1;
 5/5=2,38=5,53=20/2;
 8/6=4,10=90,11=11/1;
 11/6=1,8=1,9=11,15=111,16=1/1,2,10;
 10/6=1,13=1/2;
 7/10=1,18=20,25=1/1,2,3,16;
 1/5=1,8=5,10=4,11=1,18=20,26=3/3(2);
 2/9=110/2;
 99//99;
 2/9=110/2;
 3/5=1,6=6,7=1,11=2,25=1,30=1,70=2205,71=1,72=20,74=-21/1,2,3;
 4/5=5,16=3,69=1/1;
 5/5=2,38=5,53=20/2;
 7//1,2,3,16;
 1/5=1,8=5,11=1,18=20,26=3/3(-5);
 2/9=110/2;
 99/9=1/99;
 Leave Link    1 at Thu Jun  6 22:38:24 2019, MaxMem=  6442450944 cpu:               5.9 elap:               0.2
 (Enter /home/ekwan/sw/g16/l101.exe)
 -----
 title
 -----
 Symbolic Z-matrix:
 Charge =  0 Multiplicity = 1
 C                    -2.10532   1.30211   2.49929 
 C                    -2.57921   2.09414   1.28248 
 C                    -1.91644   3.47395   1.26215 
 C                     0.05175   2.652     2.38941 
 C                    -0.5779    1.26475   2.56211 
 H                    -2.15438   3.99786   0.32698 
 H                    -2.24491   1.57388   0.37739 
 H                    -2.47541   1.79428   3.40505 
 H                    -0.16938   3.23713   3.2908 
 H                    -0.21526   0.61332   1.75911 
 O                    -0.50987   3.327     1.24506 
 O                    -2.37127   4.20877   2.35543 
 O                    -3.98676   2.24035   1.27078 
 O                    -2.59483  -0.03082   2.43506 
 O                    -0.17915   0.76103   3.82893 
 C                     1.57776   2.61062   2.17308 
 H                     1.98067   2.09171   3.06803 
 H                     1.91454   3.66695   2.28429 
 O                     1.97691   2.06252   0.98644 
 C                    -4.64345   1.46296   0.28884 
 H                    -4.31951   1.73189  -0.7251 
 H                    -4.47663   0.392     0.4391 
 H                    -5.7099    1.67547   0.38268 
 C                    -3.57233  -0.34786   3.40415 
 H                    -3.18036  -0.23538   4.4226 
 H                    -4.46793   0.27436   3.29823 
 H                    -3.84101  -1.3929    3.24232 
 C                     0.3995   -0.52744   3.80326 
 H                    -0.27207  -1.26305   3.34921 
 H                     1.35483  -0.53407   3.26531 
 H                     0.58187  -0.80747   4.84317 
 C                     4.33807  -0.81581  -1.27112 
 C                     3.43804   0.33837  -0.81818 
 C                     2.20829  -0.16993  -0.13183 
 C                     3.222    -2.28273   0.44764 
 C                     4.55595  -1.74538  -0.07458 
 H                     1.33566   0.44863  -0.03224 
 H                     3.94429   0.89007  -0.01144 
 H                     3.83552  -1.35822  -2.07863 
 H                     2.80221  -2.96907  -0.29121 
 H                     5.0576   -1.18455   0.72036 
 O                     2.20622  -1.23182   0.58347 
 O                    -0.24235  -0.25752  -3.85917 
 O                     3.07565   1.22692  -1.84112 
 O                     5.57486  -0.29911  -1.70867 
 O                     5.31652  -2.87443  -0.44572 
 C                     3.29634  -2.98823   1.78292 
 H                     3.89872  -3.89655   1.64657 
 H                     2.28473  -3.29744   2.08135 
 O                     3.86675  -2.12691   2.73328 
 S                    -0.09353  -0.34809  -2.40073 
 O                    -0.30676   0.93998  -1.6844 
 O                     1.15412  -1.04678  -1.95967 
 C                    -1.43684  -1.38884  -1.81207 
 C                    -2.67254  -1.32887  -2.44716 
 C                    -1.25842  -2.17383  -0.67676 
 C                    -3.7439   -2.05317  -1.92603 
 H                    -2.79275  -0.72759  -3.33956 
 C                    -2.3346   -2.89494  -0.16754 
 H                    -0.2905   -2.21548  -0.19618 
 C                    -3.58201  -2.83613  -0.78618 
 H                    -4.41832  -3.3936   -0.38468 
 C                     3.93439   2.35916  -1.95629 
 H                     3.947     2.92777  -1.02029 
 H                     4.95024   2.06096  -2.21978 
 H                     3.51409   2.97607  -2.75063 
 C                     6.02092  -0.82079  -2.95024 
 H                     6.14779  -1.90644  -2.90697 
 H                     5.3251   -0.57061  -3.75919 
 H                     6.98512  -0.35323  -3.1526 
 C                     6.61228  -2.92538   0.13143 
 H                     7.2187   -2.06822  -0.17556 
 H                     6.56037  -2.95735   1.22568 
 H                     7.0747   -3.84365  -0.23147 
 C                     3.98503  -2.72723   4.00653 
 H                     4.43327  -1.98512   4.667 
 H                     3.00491  -3.01841   4.4051 
 H                     4.62868  -3.61574   3.97196 
 C                    -2.00666   5.57721   2.31711 
 H                    -2.47552   6.05095   3.17956 
 H                    -0.92208   5.70913   2.3773 
 H                    -2.37384   6.05549   1.40017 
 Na                    0.79537   2.80804  -0.78498 
 O                     0.91262   4.85146  -1.98575 
 C                     0.55859   5.00851  -3.34717 
 H                     1.43526   5.26233  -3.95551 
 H                     0.14784   4.05811  -3.68803 
 H                    -0.19738   5.79373  -3.46861 
 C                     1.46176   6.03095  -1.42971 
 H                     0.7435    6.85858  -1.47455 
 H                     1.6995    5.81823  -0.38717 
 H                     2.3771    6.32635  -1.9571 
 C                    -5.10353  -1.92073  -2.55808 
 F                    -5.76545  -0.85055  -2.06942 
 F                    -5.87474  -2.99687  -2.32767 
 F                    -5.02334  -1.7559   -3.88904 
 C                    -2.1498   -3.78291   1.03368 
 F                    -1.07172  -3.43692   1.76023 
 F                    -1.98469  -5.07099   0.67489 
 F                    -3.2186   -3.74235   1.85158 
 
 Add virtual bond connecting atoms H37        and O19        Dist= 3.80D+00.
 Add virtual bond connecting atoms O52        and H37        Dist= 4.50D+00.
 Add virtual bond connecting atoms O52        and Na83       Dist= 4.44D+00.
 Add virtual bond connecting atoms O53        and C34        Dist= 4.32D+00.
 Add virtual bond connecting atoms O84        and Na83       Dist= 4.48D+00.
 ITRead=  0  0  0  0  0  0  0  0  0  0  0  0  0  0  0  0  0  0  0  0
 ITRead=  0  0  0  0  0  0  0  0  0  0  0  0  0  0  0  0  0  0  0  0
 ITRead=  0  0  0  0  0  0  0  0  0  0  0  0  0  0  0  0  0  0  0  0
 ITRead=  0  0  0  0  0  0  0  0  0  0  0  0  0  0  0  0  0  0  0  0
 ITRead=  0  0  0  0  0  0  0  0  0  0  0  0  0  0  0  0  0  0  0  0
 MicOpt= -1 -1 -1 -1 -1 -1 -1 -1 -1 -1 -1 -1 -1 -1 -1 -1 -1 -1 -1 -1
 MicOpt= -1 -1 -1 -1 -1 -1 -1 -1 -1 -1 -1 -1 -1 -1 -1 -1 -1 -1 -1 -1
 MicOpt= -1 -1 -1 -1 -1 -1 -1 -1 -1 -1 -1 -1 -1 -1 -1 -1 -1 -1 -1 -1
 MicOpt= -1 -1 -1 -1 -1 -1 -1 -1 -1 -1 -1 -1 -1 -1 -1 -1 -1 -1 -1 -1
 MicOpt= -1 -1 -1 -1 -1 -1 -1 -1 -1 -1 -1 -1 -1 -1 -1 -1 -1 -1 -1 -1
 NAtoms=    100 NQM=      100 NQMF=       0 NMMI=      0 NMMIF=      0
                NMic=       0 NMicF=      0.
                    Isotopes and Nuclear Properties:
 (Nuclear quadrupole moments (NQMom) in fm**2, nuclear magnetic moments (NMagM)
  in nuclear magnetons)

  Atom         1           2           3           4           5           6           7           8           9          10
 IAtWgt=          12          12          12          12          12           1           1           1           1           1
 AtmWgt=  12.0000000  12.0000000  12.0000000  12.0000000  12.0000000   1.0078250   1.0078250   1.0078250   1.0078250   1.0078250
 NucSpn=           0           0           0           0           0           1           1           1           1           1
 AtZEff=   0.0000000   0.0000000   0.0000000   0.0000000   0.0000000   0.0000000   0.0000000   0.0000000   0.0000000   0.0000000
 NQMom=    0.0000000   0.0000000   0.0000000   0.0000000   0.0000000   0.0000000   0.0000000   0.0000000   0.0000000   0.0000000
 NMagM=    0.0000000   0.0000000   0.0000000   0.0000000   0.0000000   2.7928460   2.7928460   2.7928460   2.7928460   2.7928460
 AtZNuc=   6.0000000   6.0000000   6.0000000   6.0000000   6.0000000   1.0000000   1.0000000   1.0000000   1.0000000   1.0000000

  Atom        11          12          13          14          15          16          17          18          19          20
 IAtWgt=          16          16          16          16          16          12           1           1          16          12
 AtmWgt=  15.9949146  15.9949146  15.9949146  15.9949146  15.9949146  12.0000000   1.0078250   1.0078250  15.9949146  12.0000000
 NucSpn=           0           0           0           0           0           0           1           1           0           0
 AtZEff=   0.0000000   0.0000000   0.0000000   0.0000000   0.0000000   0.0000000   0.0000000   0.0000000   0.0000000   0.0000000
 NQMom=    0.0000000   0.0000000   0.0000000   0.0000000   0.0000000   0.0000000   0.0000000   0.0000000   0.0000000   0.0000000
 NMagM=    0.0000000   0.0000000   0.0000000   0.0000000   0.0000000   0.0000000   2.7928460   2.7928460   0.0000000   0.0000000
 AtZNuc=   8.0000000   8.0000000   8.0000000   8.0000000   8.0000000   6.0000000   1.0000000   1.0000000   8.0000000   6.0000000

  Atom        21          22          23          24          25          26          27          28          29          30
 IAtWgt=           1           1           1          12           1           1           1          12           1           1
 AtmWgt=   1.0078250   1.0078250   1.0078250  12.0000000   1.0078250   1.0078250   1.0078250  12.0000000   1.0078250   1.0078250
 NucSpn=           1           1           1           0           1           1           1           0           1           1
 AtZEff=   0.0000000   0.0000000   0.0000000   0.0000000   0.0000000   0.0000000   0.0000000   0.0000000   0.0000000   0.0000000
 NQMom=    0.0000000   0.0000000   0.0000000   0.0000000   0.0000000   0.0000000   0.0000000   0.0000000   0.0000000   0.0000000
 NMagM=    2.7928460   2.7928460   2.7928460   0.0000000   2.7928460   2.7928460   2.7928460   0.0000000   2.7928460   2.7928460
 AtZNuc=   1.0000000   1.0000000   1.0000000   6.0000000   1.0000000   1.0000000   1.0000000   6.0000000   1.0000000   1.0000000

  Atom        31          32          33          34          35          36          37          38          39          40
 IAtWgt=           1          12          12          12          12          12           1           1           1           1
 AtmWgt=   1.0078250  12.0000000  12.0000000  12.0000000  12.0000000  12.0000000   1.0078250   1.0078250   1.0078250   1.0078250
 NucSpn=           1           0           0           0           0           0           1           1           1           1
 AtZEff=   0.0000000   0.0000000   0.0000000   0.0000000   0.0000000   0.0000000   0.0000000   0.0000000   0.0000000   0.0000000
 NQMom=    0.0000000   0.0000000   0.0000000   0.0000000   0.0000000   0.0000000   0.0000000   0.0000000   0.0000000   0.0000000
 NMagM=    2.7928460   0.0000000   0.0000000   0.0000000   0.0000000   0.0000000   2.7928460   2.7928460   2.7928460   2.7928460
 AtZNuc=   1.0000000   6.0000000   6.0000000   6.0000000   6.0000000   6.0000000   1.0000000   1.0000000   1.0000000   1.0000000

  Atom        41          42          43          44          45          46          47          48          49          50
 IAtWgt=           1          16          16          16          16          16          12           1           1          16
 AtmWgt=   1.0078250  15.9949146  15.9949146  15.9949146  15.9949146  15.9949146  12.0000000   1.0078250   1.0078250  15.9949146
 NucSpn=           1           0           0           0           0           0           0           1           1           0
 AtZEff=   0.0000000   0.0000000   0.0000000   0.0000000   0.0000000   0.0000000   0.0000000   0.0000000   0.0000000   0.0000000
 NQMom=    0.0000000   0.0000000   0.0000000   0.0000000   0.0000000   0.0000000   0.0000000   0.0000000   0.0000000   0.0000000
 NMagM=    2.7928460   0.0000000   0.0000000   0.0000000   0.0000000   0.0000000   0.0000000   2.7928460   2.7928460   0.0000000
 AtZNuc=   1.0000000   8.0000000   8.0000000   8.0000000   8.0000000   8.0000000   6.0000000   1.0000000   1.0000000   8.0000000

  Atom        51          52          53          54          55          56          57          58          59          60
 IAtWgt=          32          16          16          12          12          12          12           1          12           1
 AtmWgt=  31.9720718  15.9949146  15.9949146  12.0000000  12.0000000  12.0000000  12.0000000   1.0078250  12.0000000   1.0078250
 NucSpn=           0           0           0           0           0           0           0           1           0           1
 AtZEff=   0.0000000   0.0000000   0.0000000   0.0000000   0.0000000   0.0000000   0.0000000   0.0000000   0.0000000   0.0000000
 NQMom=    0.0000000   0.0000000   0.0000000   0.0000000   0.0000000   0.0000000   0.0000000   0.0000000   0.0000000   0.0000000
 NMagM=    0.0000000   0.0000000   0.0000000   0.0000000   0.0000000   0.0000000   0.0000000   2.7928460   0.0000000   2.7928460
 AtZNuc=  16.0000000   8.0000000   8.0000000   6.0000000   6.0000000   6.0000000   6.0000000   1.0000000   6.0000000   1.0000000

  Atom        61          62          63          64          65          66          67          68          69          70
 IAtWgt=          12           1          12           1           1           1          12           1           1           1
 AtmWgt=  12.0000000   1.0078250  12.0000000   1.0078250   1.0078250   1.0078250  12.0000000   1.0078250   1.0078250   1.0078250
 NucSpn=           0           1           0           1           1           1           0           1           1           1
 AtZEff=   0.0000000   0.0000000   0.0000000   0.0000000   0.0000000   0.0000000   0.0000000   0.0000000   0.0000000   0.0000000
 NQMom=    0.0000000   0.0000000   0.0000000   0.0000000   0.0000000   0.0000000   0.0000000   0.0000000   0.0000000   0.0000000
 NMagM=    0.0000000   2.7928460   0.0000000   2.7928460   2.7928460   2.7928460   0.0000000   2.7928460   2.7928460   2.7928460
 AtZNuc=   6.0000000   1.0000000   6.0000000   1.0000000   1.0000000   1.0000000   6.0000000   1.0000000   1.0000000   1.0000000

  Atom        71          72          73          74          75          76          77          78          79          80
 IAtWgt=          12           1           1           1          12           1           1           1          12           1
 AtmWgt=  12.0000000   1.0078250   1.0078250   1.0078250  12.0000000   1.0078250   1.0078250   1.0078250  12.0000000   1.0078250
 NucSpn=           0           1           1           1           0           1           1           1           0           1
 AtZEff=   0.0000000   0.0000000   0.0000000   0.0000000   0.0000000   0.0000000   0.0000000   0.0000000   0.0000000   0.0000000
 NQMom=    0.0000000   0.0000000   0.0000000   0.0000000   0.0000000   0.0000000   0.0000000   0.0000000   0.0000000   0.0000000
 NMagM=    0.0000000   2.7928460   2.7928460   2.7928460   0.0000000   2.7928460   2.7928460   2.7928460   0.0000000   2.7928460
 AtZNuc=   6.0000000   1.0000000   1.0000000   1.0000000   6.0000000   1.0000000   1.0000000   1.0000000   6.0000000   1.0000000

  Atom        81          82          83          84          85          86          87          88          89          90
 IAtWgt=           1           1          23          16          12           1           1           1          12           1
 AtmWgt=   1.0078250   1.0078250  22.9897697  15.9949146  12.0000000   1.0078250   1.0078250   1.0078250  12.0000000   1.0078250
 NucSpn=           1           1           3           0           0           1           1           1           0           1
 AtZEff=   0.0000000   0.0000000   0.0000000   0.0000000   0.0000000   0.0000000   0.0000000   0.0000000   0.0000000   0.0000000
 NQMom=    0.0000000   0.0000000  10.4000000   0.0000000   0.0000000   0.0000000   0.0000000   0.0000000   0.0000000   0.0000000
 NMagM=    2.7928460   2.7928460   2.2175200   0.0000000   0.0000000   2.7928460   2.7928460   2.7928460   0.0000000   2.7928460
 AtZNuc=   1.0000000   1.0000000  11.0000000   8.0000000   6.0000000   1.0000000   1.0000000   1.0000000   6.0000000   1.0000000

  Atom        91          92          93          94          95          96          97          98          99         100
 IAtWgt=           1           1          12          19          19          19          12          19          19          19
 AtmWgt=   1.0078250   1.0078250  12.0000000  18.9984033  18.9984033  18.9984033  12.0000000  18.9984033  18.9984033  18.9984033
 NucSpn=           1           1           0           1           1           1           0           1           1           1
 AtZEff=   0.0000000   0.0000000   0.0000000   0.0000000   0.0000000   0.0000000   0.0000000   0.0000000   0.0000000   0.0000000
 NQMom=    0.0000000   0.0000000   0.0000000   0.0000000   0.0000000   0.0000000   0.0000000   0.0000000   0.0000000   0.0000000
 NMagM=    2.7928460   2.7928460   0.0000000   2.6288670   2.6288670   2.6288670   0.0000000   2.6288670   2.6288670   2.6288670
 AtZNuc=   1.0000000   1.0000000   6.0000000   9.0000000   9.0000000   9.0000000   6.0000000   9.0000000   9.0000000   9.0000000
 Leave Link  101 at Thu Jun  6 22:38:24 2019, MaxMem=  6442450944 cpu:              17.7 elap:               0.7
 (Enter /home/ekwan/sw/g16/l103.exe)

 GradGradGradGradGradGradGradGradGradGradGradGradGradGradGradGradGradGrad
 Berny optimization.
 Initialization pass.
                           ----------------------------
                           !    Initial Parameters    !
                           ! (Angstroms and Degrees)  !
 --------------------------                            --------------------------
 ! Name  Definition              Value          Derivative Info.                !
 --------------------------------------------------------------------------------
 ! R1    R(1,2)                  1.5273         calculate D2E/DX2 analytically  !
 ! R2    R(1,5)                  1.5292         calculate D2E/DX2 analytically  !
 ! R3    R(1,8)                  1.0953         calculate D2E/DX2 analytically  !
 ! R4    R(1,14)                 1.4214         calculate D2E/DX2 analytically  !
 ! R5    R(2,3)                  1.5309         calculate D2E/DX2 analytically  !
 ! R6    R(2,7)                  1.0962         calculate D2E/DX2 analytically  !
 ! R7    R(2,13)                 1.4152         calculate D2E/DX2 analytically  !
 ! R8    R(3,6)                  1.098          calculate D2E/DX2 analytically  !
 ! R9    R(3,11)                 1.4143         calculate D2E/DX2 analytically  !
 ! R10   R(3,12)                 1.3936         calculate D2E/DX2 analytically  !
 ! R11   R(4,5)                  1.5332         calculate D2E/DX2 analytically  !
 ! R12   R(4,9)                  1.0972         calculate D2E/DX2 analytically  !
 ! R13   R(4,11)                 1.4424         calculate D2E/DX2 analytically  !
 ! R14   R(4,16)                 1.5418         calculate D2E/DX2 analytically  !
 ! R15   R(5,10)                 1.0958         calculate D2E/DX2 analytically  !
 ! R16   R(5,15)                 1.4204         calculate D2E/DX2 analytically  !
 ! R17   R(12,79)                1.4167         calculate D2E/DX2 analytically  !
 ! R18   R(13,20)                1.4141         calculate D2E/DX2 analytically  !
 ! R19   R(14,24)                1.4125         calculate D2E/DX2 analytically  !
 ! R20   R(15,28)                1.4127         calculate D2E/DX2 analytically  !
 ! R21   R(16,17)                1.1102         calculate D2E/DX2 analytically  !
 ! R22   R(16,18)                1.1143         calculate D2E/DX2 analytically  !
 ! R23   R(16,19)                1.3667         calculate D2E/DX2 analytically  !
 ! R24   R(19,37)                2.0133         calculate D2E/DX2 analytically  !
 ! R25   R(19,83)                2.256          calculate D2E/DX2 analytically  !
 ! R26   R(20,21)                1.0979         calculate D2E/DX2 analytically  !
 ! R27   R(20,22)                1.0942         calculate D2E/DX2 analytically  !
 ! R28   R(20,23)                1.0915         calculate D2E/DX2 analytically  !
 ! R29   R(24,25)                1.0971         calculate D2E/DX2 analytically  !
 ! R30   R(24,26)                1.0957         calculate D2E/DX2 analytically  !
 ! R31   R(24,27)                1.0911         calculate D2E/DX2 analytically  !
 ! R32   R(28,29)                1.0947         calculate D2E/DX2 analytically  !
 ! R33   R(28,30)                1.0964         calculate D2E/DX2 analytically  !
 ! R34   R(28,31)                1.0923         calculate D2E/DX2 analytically  !
 ! R35   R(32,33)                1.5321         calculate D2E/DX2 analytically  !
 ! R36   R(32,36)                1.5308         calculate D2E/DX2 analytically  !
 ! R37   R(32,39)                1.0949         calculate D2E/DX2 analytically  !
 ! R38   R(32,45)                1.41           calculate D2E/DX2 analytically  !
 ! R39   R(33,34)                1.4972         calculate D2E/DX2 analytically  !
 ! R40   R(33,38)                1.1007         calculate D2E/DX2 analytically  !
 ! R41   R(33,44)                1.4026         calculate D2E/DX2 analytically  !
 ! R42   R(34,37)                1.0743         calculate D2E/DX2 analytically  !
 ! R43   R(34,42)                1.2803         calculate D2E/DX2 analytically  !
 ! R44   R(34,53)                2.285          calculate D2E/DX2 analytically  !
 ! R45   R(35,36)                1.53           calculate D2E/DX2 analytically  !
 ! R46   R(35,40)                1.0923         calculate D2E/DX2 analytically  !
 ! R47   R(35,42)                1.4679         calculate D2E/DX2 analytically  !
 ! R48   R(35,47)                1.512          calculate D2E/DX2 analytically  !
 ! R49   R(36,41)                1.0946         calculate D2E/DX2 analytically  !
 ! R50   R(36,46)                1.411          calculate D2E/DX2 analytically  !
 ! R51   R(37,52)                2.3809         calculate D2E/DX2 analytically  !
 ! R52   R(43,51)                1.4688         calculate D2E/DX2 analytically  !
 ! R53   R(44,63)                1.4257         calculate D2E/DX2 analytically  !
 ! R54   R(45,67)                1.4187         calculate D2E/DX2 analytically  !
 ! R55   R(46,71)                1.4194         calculate D2E/DX2 analytically  !
 ! R56   R(47,48)                1.0984         calculate D2E/DX2 analytically  !
 ! R57   R(47,49)                1.0991         calculate D2E/DX2 analytically  !
 ! R58   R(47,50)                1.4037         calculate D2E/DX2 analytically  !
 ! R59   R(50,75)                1.4126         calculate D2E/DX2 analytically  !
 ! R60   R(51,52)                1.4892         calculate D2E/DX2 analytically  !
 ! R61   R(51,53)                1.4964         calculate D2E/DX2 analytically  !
 ! R62   R(51,54)                1.7984         calculate D2E/DX2 analytically  !
 ! R63   R(52,83)                2.348          calculate D2E/DX2 analytically  !
 ! R64   R(54,55)                1.3906         calculate D2E/DX2 analytically  !
 ! R65   R(54,56)                1.3917         calculate D2E/DX2 analytically  !
 ! R66   R(55,57)                1.3943         calculate D2E/DX2 analytically  !
 ! R67   R(55,58)                1.0828         calculate D2E/DX2 analytically  !
 ! R68   R(56,59)                1.3919         calculate D2E/DX2 analytically  !
 ! R69   R(56,60)                1.0815         calculate D2E/DX2 analytically  !
 ! R70   R(57,61)                1.3923         calculate D2E/DX2 analytically  !
 ! R71   R(57,93)                1.5052         calculate D2E/DX2 analytically  !
 ! R72   R(59,61)                1.3936         calculate D2E/DX2 analytically  !
 ! R73   R(59,97)                1.5052         calculate D2E/DX2 analytically  !
 ! R74   R(61,62)                1.0823         calculate D2E/DX2 analytically  !
 ! R75   R(63,64)                1.0952         calculate D2E/DX2 analytically  !
 ! R76   R(63,65)                1.091          calculate D2E/DX2 analytically  !
 ! R77   R(63,66)                1.09           calculate D2E/DX2 analytically  !
 ! R78   R(67,68)                1.0939         calculate D2E/DX2 analytically  !
 ! R79   R(67,69)                1.096          calculate D2E/DX2 analytically  !
 ! R80   R(67,70)                1.0905         calculate D2E/DX2 analytically  !
 ! R81   R(71,72)                1.0939         calculate D2E/DX2 analytically  !
 ! R82   R(71,73)                1.096          calculate D2E/DX2 analytically  !
 ! R83   R(71,74)                1.0903         calculate D2E/DX2 analytically  !
 ! R84   R(75,76)                1.0899         calculate D2E/DX2 analytically  !
 ! R85   R(75,77)                1.0974         calculate D2E/DX2 analytically  !
 ! R86   R(75,78)                1.0977         calculate D2E/DX2 analytically  !
 ! R87   R(79,80)                1.09           calculate D2E/DX2 analytically  !
 ! R88   R(79,81)                1.0942         calculate D2E/DX2 analytically  !
 ! R89   R(79,82)                1.0974         calculate D2E/DX2 analytically  !
 ! R90   R(83,84)                2.373          calculate D2E/DX2 analytically  !
 ! R91   R(84,85)                1.4154         calculate D2E/DX2 analytically  !
 ! R92   R(84,89)                1.4149         calculate D2E/DX2 analytically  !
 ! R93   R(85,86)                1.0968         calculate D2E/DX2 analytically  !
 ! R94   R(85,87)                1.09           calculate D2E/DX2 analytically  !
 ! R95   R(85,88)                1.0967         calculate D2E/DX2 analytically  !
 ! R96   R(89,90)                1.0968         calculate D2E/DX2 analytically  !
 ! R97   R(89,91)                1.0903         calculate D2E/DX2 analytically  !
 ! R98   R(89,92)                1.0969         calculate D2E/DX2 analytically  !
 ! R99   R(93,94)                1.3499         calculate D2E/DX2 analytically  !
 ! R100  R(93,95)                1.3438         calculate D2E/DX2 analytically  !
 ! R101  R(93,96)                1.3435         calculate D2E/DX2 analytically  !
 ! R102  R(97,98)                1.3453         calculate D2E/DX2 analytically  !
 ! R103  R(97,99)                1.3473         calculate D2E/DX2 analytically  !
 ! R104  R(97,100)               1.3465         calculate D2E/DX2 analytically  !
 ! A1    A(2,1,5)              110.8142         calculate D2E/DX2 analytically  !
 ! A2    A(2,1,8)              108.7233         calculate D2E/DX2 analytically  !
 ! A3    A(2,1,14)             110.0873         calculate D2E/DX2 analytically  !
 ! A4    A(5,1,8)              108.3323         calculate D2E/DX2 analytically  !
 ! A5    A(5,1,14)             108.8402         calculate D2E/DX2 analytically  !
 ! A6    A(8,1,14)             110.0217         calculate D2E/DX2 analytically  !
 ! A7    A(1,2,3)              110.1004         calculate D2E/DX2 analytically  !
 ! A8    A(1,2,7)              108.4865         calculate D2E/DX2 analytically  !
 ! A9    A(1,2,13)             111.6407         calculate D2E/DX2 analytically  !
 ! A10   A(3,2,7)              106.546          calculate D2E/DX2 analytically  !
 ! A11   A(3,2,13)             109.7168         calculate D2E/DX2 analytically  !
 ! A12   A(7,2,13)             110.2144         calculate D2E/DX2 analytically  !
 ! A13   A(2,3,6)              110.3375         calculate D2E/DX2 analytically  !
 ! A14   A(2,3,11)             109.6983         calculate D2E/DX2 analytically  !
 ! A15   A(2,3,12)             108.8773         calculate D2E/DX2 analytically  !
 ! A16   A(6,3,11)             104.7616         calculate D2E/DX2 analytically  !
 ! A17   A(6,3,12)             110.2335         calculate D2E/DX2 analytically  !
 ! A18   A(11,3,12)            112.8828         calculate D2E/DX2 analytically  !
 ! A19   A(5,4,9)              107.8926         calculate D2E/DX2 analytically  !
 ! A20   A(5,4,11)             110.6634         calculate D2E/DX2 analytically  !
 ! A21   A(5,4,16)             113.4522         calculate D2E/DX2 analytically  !
 ! A22   A(9,4,11)             108.8897         calculate D2E/DX2 analytically  !
 ! A23   A(9,4,16)             109.2117         calculate D2E/DX2 analytically  !
 ! A24   A(11,4,16)            106.6547         calculate D2E/DX2 analytically  !
 ! A25   A(1,5,4)              112.5485         calculate D2E/DX2 analytically  !
 ! A26   A(1,5,10)             108.3601         calculate D2E/DX2 analytically  !
 ! A27   A(1,5,15)             109.0087         calculate D2E/DX2 analytically  !
 ! A28   A(4,5,10)             108.6297         calculate D2E/DX2 analytically  !
 ! A29   A(4,5,15)             107.8207         calculate D2E/DX2 analytically  !
 ! A30   A(10,5,15)            110.4785         calculate D2E/DX2 analytically  !
 ! A31   A(3,11,4)             115.23           calculate D2E/DX2 analytically  !
 ! A32   A(3,12,79)            113.8353         calculate D2E/DX2 analytically  !
 ! A33   A(2,13,20)            114.2566         calculate D2E/DX2 analytically  !
 ! A34   A(1,14,24)            114.696          calculate D2E/DX2 analytically  !
 ! A35   A(5,15,28)            114.9754         calculate D2E/DX2 analytically  !
 ! A36   A(4,16,17)            104.9891         calculate D2E/DX2 analytically  !
 ! A37   A(4,16,18)            105.0521         calculate D2E/DX2 analytically  !
 ! A38   A(4,16,19)            114.9384         calculate D2E/DX2 analytically  !
 ! A39   A(17,16,18)           104.6531         calculate D2E/DX2 analytically  !
 ! A40   A(17,16,19)           113.9834         calculate D2E/DX2 analytically  !
 ! A41   A(18,16,19)           112.2447         calculate D2E/DX2 analytically  !
 ! A42   A(16,19,37)           131.8944         calculate D2E/DX2 analytically  !
 ! A43   A(16,19,83)           113.3445         calculate D2E/DX2 analytically  !
 ! A44   A(37,19,83)            72.591          calculate D2E/DX2 analytically  !
 ! A45   A(13,20,21)           111.6911         calculate D2E/DX2 analytically  !
 ! A46   A(13,20,22)           111.8319         calculate D2E/DX2 analytically  !
 ! A47   A(13,20,23)           106.6785         calculate D2E/DX2 analytically  !
 ! A48   A(21,20,22)           108.7585         calculate D2E/DX2 analytically  !
 ! A49   A(21,20,23)           108.6639         calculate D2E/DX2 analytically  !
 ! A50   A(22,20,23)           109.1303         calculate D2E/DX2 analytically  !
 ! A51   A(14,24,25)           111.5094         calculate D2E/DX2 analytically  !
 ! A52   A(14,24,26)           111.8317         calculate D2E/DX2 analytically  !
 ! A53   A(14,24,27)           106.4772         calculate D2E/DX2 analytically  !
 ! A54   A(25,24,26)           108.8792         calculate D2E/DX2 analytically  !
 ! A55   A(25,24,27)           108.8974         calculate D2E/DX2 analytically  !
 ! A56   A(26,24,27)           109.1654         calculate D2E/DX2 analytically  !
 ! A57   A(15,28,29)           111.6639         calculate D2E/DX2 analytically  !
 ! A58   A(15,28,30)           111.7986         calculate D2E/DX2 analytically  !
 ! A59   A(15,28,31)           106.554          calculate D2E/DX2 analytically  !
 ! A60   A(29,28,30)           109.0853         calculate D2E/DX2 analytically  !
 ! A61   A(29,28,31)           108.9682         calculate D2E/DX2 analytically  !
 ! A62   A(30,28,31)           108.6685         calculate D2E/DX2 analytically  !
 ! A63   A(33,32,36)           108.0591         calculate D2E/DX2 analytically  !
 ! A64   A(33,32,39)           108.7592         calculate D2E/DX2 analytically  !
 ! A65   A(33,32,45)           109.3274         calculate D2E/DX2 analytically  !
 ! A66   A(36,32,39)           109.936          calculate D2E/DX2 analytically  !
 ! A67   A(36,32,45)           109.8923         calculate D2E/DX2 analytically  !
 ! A68   A(39,32,45)           110.8105         calculate D2E/DX2 analytically  !
 ! A69   A(32,33,34)           111.2398         calculate D2E/DX2 analytically  !
 ! A70   A(32,33,38)           108.9097         calculate D2E/DX2 analytically  !
 ! A71   A(32,33,44)           114.4192         calculate D2E/DX2 analytically  !
 ! A72   A(34,33,38)           102.2363         calculate D2E/DX2 analytically  !
 ! A73   A(34,33,44)           109.7056         calculate D2E/DX2 analytically  !
 ! A74   A(38,33,44)           109.625          calculate D2E/DX2 analytically  !
 ! A75   A(33,34,37)           120.9444         calculate D2E/DX2 analytically  !
 ! A76   A(33,34,42)           122.6155         calculate D2E/DX2 analytically  !
 ! A77   A(33,34,53)            98.1925         calculate D2E/DX2 analytically  !
 ! A78   A(37,34,42)           115.1163         calculate D2E/DX2 analytically  !
 ! A79   A(37,34,53)            85.4323         calculate D2E/DX2 analytically  !
 ! A80   A(42,34,53)            97.348          calculate D2E/DX2 analytically  !
 ! A81   A(36,35,40)           108.9577         calculate D2E/DX2 analytically  !
 ! A82   A(36,35,42)           112.5495         calculate D2E/DX2 analytically  !
 ! A83   A(36,35,47)           114.9882         calculate D2E/DX2 analytically  !
 ! A84   A(40,35,42)           104.2697         calculate D2E/DX2 analytically  !
 ! A85   A(40,35,47)           108.8473         calculate D2E/DX2 analytically  !
 ! A86   A(42,35,47)           106.6398         calculate D2E/DX2 analytically  !
 ! A87   A(32,36,35)           110.8532         calculate D2E/DX2 analytically  !
 ! A88   A(32,36,41)           108.77           calculate D2E/DX2 analytically  !
 ! A89   A(32,36,46)           110.9179         calculate D2E/DX2 analytically  !
 ! A90   A(35,36,41)           109.368          calculate D2E/DX2 analytically  !
 ! A91   A(35,36,46)           106.1831         calculate D2E/DX2 analytically  !
 ! A92   A(41,36,46)           110.7306         calculate D2E/DX2 analytically  !
 ! A93   A(19,37,34)           104.4625         calculate D2E/DX2 analytically  !
 ! A94   A(19,37,52)           113.9156         calculate D2E/DX2 analytically  !
 ! A95   A(34,37,52)           127.9418         calculate D2E/DX2 analytically  !
 ! A96   A(34,42,35)           122.7495         calculate D2E/DX2 analytically  !
 ! A97   A(33,44,63)           113.9786         calculate D2E/DX2 analytically  !
 ! A98   A(32,45,67)           114.37           calculate D2E/DX2 analytically  !
 ! A99   A(36,46,71)           114.4463         calculate D2E/DX2 analytically  !
 ! A100  A(35,47,48)           107.6494         calculate D2E/DX2 analytically  !
 ! A101  A(35,47,49)           109.0145         calculate D2E/DX2 analytically  !
 ! A102  A(35,47,50)           109.3636         calculate D2E/DX2 analytically  !
 ! A103  A(48,47,49)           107.8075         calculate D2E/DX2 analytically  !
 ! A104  A(48,47,50)           111.6292         calculate D2E/DX2 analytically  !
 ! A105  A(49,47,50)           111.272          calculate D2E/DX2 analytically  !
 ! A106  A(47,50,75)           112.5501         calculate D2E/DX2 analytically  !
 ! A107  A(43,51,52)           114.1912         calculate D2E/DX2 analytically  !
 ! A108  A(43,51,53)           113.949          calculate D2E/DX2 analytically  !
 ! A109  A(43,51,54)           106.5603         calculate D2E/DX2 analytically  !
 ! A110  A(52,51,53)           112.4228         calculate D2E/DX2 analytically  !
 ! A111  A(52,51,54)           103.6598         calculate D2E/DX2 analytically  !
 ! A112  A(53,51,54)           104.8382         calculate D2E/DX2 analytically  !
 ! A113  A(37,52,51)            93.2403         calculate D2E/DX2 analytically  !
 ! A114  A(37,52,83)            64.8226         calculate D2E/DX2 analytically  !
 ! A115  A(51,52,83)           143.6278         calculate D2E/DX2 analytically  !
 ! A116  A(34,53,51)           116.1839         calculate D2E/DX2 analytically  !
 ! A117  A(51,54,55)           119.2936         calculate D2E/DX2 analytically  !
 ! A118  A(51,54,56)           119.8462         calculate D2E/DX2 analytically  !
 ! A119  A(55,54,56)           120.7155         calculate D2E/DX2 analytically  !
 ! A120  A(54,55,57)           119.3203         calculate D2E/DX2 analytically  !
 ! A121  A(54,55,58)           119.9336         calculate D2E/DX2 analytically  !
 ! A122  A(57,55,58)           120.7454         calculate D2E/DX2 analytically  !
 ! A123  A(54,56,59)           119.4407         calculate D2E/DX2 analytically  !
 ! A124  A(54,56,60)           119.9312         calculate D2E/DX2 analytically  !
 ! A125  A(59,56,60)           120.6275         calculate D2E/DX2 analytically  !
 ! A126  A(55,57,61)           120.5824         calculate D2E/DX2 analytically  !
 ! A127  A(55,57,93)           119.435          calculate D2E/DX2 analytically  !
 ! A128  A(61,57,93)           119.8865         calculate D2E/DX2 analytically  !
 ! A129  A(56,59,61)           120.5158         calculate D2E/DX2 analytically  !
 ! A130  A(56,59,97)           120.1767         calculate D2E/DX2 analytically  !
 ! A131  A(61,59,97)           119.2779         calculate D2E/DX2 analytically  !
 ! A132  A(57,61,59)           119.421          calculate D2E/DX2 analytically  !
 ! A133  A(57,61,62)           120.2325         calculate D2E/DX2 analytically  !
 ! A134  A(59,61,62)           120.3465         calculate D2E/DX2 analytically  !
 ! A135  A(44,63,64)           110.499          calculate D2E/DX2 analytically  !
 ! A136  A(44,63,65)           111.3015         calculate D2E/DX2 analytically  !
 ! A137  A(44,63,66)           106.0259         calculate D2E/DX2 analytically  !
 ! A138  A(64,63,65)           109.7292         calculate D2E/DX2 analytically  !
 ! A139  A(64,63,66)           109.4744         calculate D2E/DX2 analytically  !
 ! A140  A(65,63,66)           109.7376         calculate D2E/DX2 analytically  !
 ! A141  A(45,67,68)           111.5192         calculate D2E/DX2 analytically  !
 ! A142  A(45,67,69)           111.2478         calculate D2E/DX2 analytically  !
 ! A143  A(45,67,70)           106.4233         calculate D2E/DX2 analytically  !
 ! A144  A(68,67,69)           109.2315         calculate D2E/DX2 analytically  !
 ! A145  A(68,67,70)           109.288          calculate D2E/DX2 analytically  !
 ! A146  A(69,67,70)           109.0563         calculate D2E/DX2 analytically  !
 ! A147  A(46,71,72)           111.3357         calculate D2E/DX2 analytically  !
 ! A148  A(46,71,73)           111.333          calculate D2E/DX2 analytically  !
 ! A149  A(46,71,74)           106.3841         calculate D2E/DX2 analytically  !
 ! A150  A(72,71,73)           109.2263         calculate D2E/DX2 analytically  !
 ! A151  A(72,71,74)           109.3543         calculate D2E/DX2 analytically  !
 ! A152  A(73,71,74)           109.1382         calculate D2E/DX2 analytically  !
 ! A153  A(50,75,76)           106.934          calculate D2E/DX2 analytically  !
 ! A154  A(50,75,77)           111.4285         calculate D2E/DX2 analytically  !
 ! A155  A(50,75,78)           111.3883         calculate D2E/DX2 analytically  !
 ! A156  A(76,75,77)           109.1411         calculate D2E/DX2 analytically  !
 ! A157  A(76,75,78)           109.2123         calculate D2E/DX2 analytically  !
 ! A158  A(77,75,78)           108.6858         calculate D2E/DX2 analytically  !
 ! A159  A(12,79,80)           106.721          calculate D2E/DX2 analytically  !
 ! A160  A(12,79,81)           111.7187         calculate D2E/DX2 analytically  !
 ! A161  A(12,79,82)           110.9443         calculate D2E/DX2 analytically  !
 ! A162  A(80,79,81)           109.2949         calculate D2E/DX2 analytically  !
 ! A163  A(80,79,82)           109.1347         calculate D2E/DX2 analytically  !
 ! A164  A(81,79,82)           108.9686         calculate D2E/DX2 analytically  !
 ! A165  A(19,83,52)           106.4806         calculate D2E/DX2 analytically  !
 ! A166  A(19,83,84)           130.995          calculate D2E/DX2 analytically  !
 ! A167  A(52,83,84)           120.9604         calculate D2E/DX2 analytically  !
 ! A168  A(83,84,85)           124.7427         calculate D2E/DX2 analytically  !
 ! A169  A(83,84,89)           122.5583         calculate D2E/DX2 analytically  !
 ! A170  A(85,84,89)           112.4929         calculate D2E/DX2 analytically  !
 ! A171  A(84,85,86)           111.0532         calculate D2E/DX2 analytically  !
 ! A172  A(84,85,87)           107.3544         calculate D2E/DX2 analytically  !
 ! A173  A(84,85,88)           110.9993         calculate D2E/DX2 analytically  !
 ! A174  A(86,85,87)           109.2393         calculate D2E/DX2 analytically  !
 ! A175  A(86,85,88)           108.895          calculate D2E/DX2 analytically  !
 ! A176  A(87,85,88)           109.2613         calculate D2E/DX2 analytically  !
 ! A177  A(84,89,90)           111.0278         calculate D2E/DX2 analytically  !
 ! A178  A(84,89,91)           107.3241         calculate D2E/DX2 analytically  !
 ! A179  A(84,89,92)           111.0642         calculate D2E/DX2 analytically  !
 ! A180  A(90,89,91)           109.2158         calculate D2E/DX2 analytically  !
 ! A181  A(90,89,92)           108.8813         calculate D2E/DX2 analytically  !
 ! A182  A(91,89,92)           109.289          calculate D2E/DX2 analytically  !
 ! A183  A(57,93,94)           111.1422         calculate D2E/DX2 analytically  !
 ! A184  A(57,93,95)           112.082          calculate D2E/DX2 analytically  !
 ! A185  A(57,93,96)           111.8925         calculate D2E/DX2 analytically  !
 ! A186  A(94,93,95)           106.9409         calculate D2E/DX2 analytically  !
 ! A187  A(94,93,96)           106.8944         calculate D2E/DX2 analytically  !
 ! A188  A(95,93,96)           107.5984         calculate D2E/DX2 analytically  !
 ! A189  A(59,97,98)           112.1892         calculate D2E/DX2 analytically  !
 ! A190  A(59,97,99)           111.5026         calculate D2E/DX2 analytically  !
 ! A191  A(59,97,100)          111.6877         calculate D2E/DX2 analytically  !
 ! A192  A(98,97,99)           106.9477         calculate D2E/DX2 analytically  !
 ! A193  A(98,97,100)          107.4756         calculate D2E/DX2 analytically  !
 ! A194  A(99,97,100)          106.7295         calculate D2E/DX2 analytically  !
 ! D1    D(5,1,2,3)            -52.696          calculate D2E/DX2 analytically  !
 ! D2    D(5,1,2,7)             63.5424         calculate D2E/DX2 analytically  !
 ! D3    D(5,1,2,13)          -174.8156         calculate D2E/DX2 analytically  !
 ! D4    D(8,1,2,3)             66.2599         calculate D2E/DX2 analytically  !
 ! D5    D(8,1,2,7)           -177.5017         calculate D2E/DX2 analytically  !
 ! D6    D(8,1,2,13)           -55.8597         calculate D2E/DX2 analytically  !
 ! D7    D(14,1,2,3)          -173.1516         calculate D2E/DX2 analytically  !
 ! D8    D(14,1,2,7)           -56.9132         calculate D2E/DX2 analytically  !
 ! D9    D(14,1,2,13)           64.7288         calculate D2E/DX2 analytically  !
 ! D10   D(2,1,5,4)             48.8737         calculate D2E/DX2 analytically  !
 ! D11   D(2,1,5,10)           -71.2749         calculate D2E/DX2 analytically  !
 ! D12   D(2,1,5,15)           168.4459         calculate D2E/DX2 analytically  !
 ! D13   D(8,1,5,4)            -70.3178         calculate D2E/DX2 analytically  !
 ! D14   D(8,1,5,10)           169.5336         calculate D2E/DX2 analytically  !
 ! D15   D(8,1,5,15)            49.2544         calculate D2E/DX2 analytically  !
 ! D16   D(14,1,5,4)           170.068          calculate D2E/DX2 analytically  !
 ! D17   D(14,1,5,10)           49.9193         calculate D2E/DX2 analytically  !
 ! D18   D(14,1,5,15)          -70.3598         calculate D2E/DX2 analytically  !
 ! D19   D(2,1,14,24)         -110.9289         calculate D2E/DX2 analytically  !
 ! D20   D(5,1,14,24)          127.433          calculate D2E/DX2 analytically  !
 ! D21   D(8,1,14,24)            8.875          calculate D2E/DX2 analytically  !
 ! D22   D(1,2,3,6)            172.9062         calculate D2E/DX2 analytically  !
 ! D23   D(1,2,3,11)            57.9877         calculate D2E/DX2 analytically  !
 ! D24   D(1,2,3,12)           -65.993          calculate D2E/DX2 analytically  !
 ! D25   D(7,2,3,6)             55.4576         calculate D2E/DX2 analytically  !
 ! D26   D(7,2,3,11)           -59.4609         calculate D2E/DX2 analytically  !
 ! D27   D(7,2,3,12)           176.5584         calculate D2E/DX2 analytically  !
 ! D28   D(13,2,3,6)           -63.8424         calculate D2E/DX2 analytically  !
 ! D29   D(13,2,3,11)         -178.7609         calculate D2E/DX2 analytically  !
 ! D30   D(13,2,3,12)           57.2585         calculate D2E/DX2 analytically  !
 ! D31   D(1,2,13,20)         -107.9184         calculate D2E/DX2 analytically  !
 ! D32   D(3,2,13,20)          129.7417         calculate D2E/DX2 analytically  !
 ! D33   D(7,2,13,20)           12.7192         calculate D2E/DX2 analytically  !
 ! D34   D(2,3,11,4)           -61.4195         calculate D2E/DX2 analytically  !
 ! D35   D(6,3,11,4)          -179.8497         calculate D2E/DX2 analytically  !
 ! D36   D(12,3,11,4)           60.1892         calculate D2E/DX2 analytically  !
 ! D37   D(2,3,12,79)         -169.7349         calculate D2E/DX2 analytically  !
 ! D38   D(6,3,12,79)          -48.5704         calculate D2E/DX2 analytically  !
 ! D39   D(11,3,12,79)          68.1938         calculate D2E/DX2 analytically  !
 ! D40   D(9,4,5,1)             70.1518         calculate D2E/DX2 analytically  !
 ! D41   D(9,4,5,10)          -169.8553         calculate D2E/DX2 analytically  !
 ! D42   D(9,4,5,15)           -50.1078         calculate D2E/DX2 analytically  !
 ! D43   D(11,4,5,1)           -48.8836         calculate D2E/DX2 analytically  !
 ! D44   D(11,4,5,10)           71.1093         calculate D2E/DX2 analytically  !
 ! D45   D(11,4,5,15)         -169.1432         calculate D2E/DX2 analytically  !
 ! D46   D(16,4,5,1)          -168.7184         calculate D2E/DX2 analytically  !
 ! D47   D(16,4,5,10)          -48.7255         calculate D2E/DX2 analytically  !
 ! D48   D(16,4,5,15)           71.022          calculate D2E/DX2 analytically  !
 ! D49   D(5,4,11,3)            56.5798         calculate D2E/DX2 analytically  !
 ! D50   D(9,4,11,3)           -61.8508         calculate D2E/DX2 analytically  !
 ! D51   D(16,4,11,3)         -179.5858         calculate D2E/DX2 analytically  !
 ! D52   D(5,4,16,17)          -58.1525         calculate D2E/DX2 analytically  !
 ! D53   D(5,4,16,18)         -168.2234         calculate D2E/DX2 analytically  !
 ! D54   D(5,4,16,19)           67.9023         calculate D2E/DX2 analytically  !
 ! D55   D(9,4,16,17)           62.2334         calculate D2E/DX2 analytically  !
 ! D56   D(9,4,16,18)          -47.8375         calculate D2E/DX2 analytically  !
 ! D57   D(9,4,16,19)         -171.7118         calculate D2E/DX2 analytically  !
 ! D58   D(11,4,16,17)         179.7559         calculate D2E/DX2 analytically  !
 ! D59   D(11,4,16,18)          69.685          calculate D2E/DX2 analytically  !
 ! D60   D(11,4,16,19)         -54.1893         calculate D2E/DX2 analytically  !
 ! D61   D(1,5,15,28)          110.0022         calculate D2E/DX2 analytically  !
 ! D62   D(4,5,15,28)         -127.534          calculate D2E/DX2 analytically  !
 ! D63   D(10,5,15,28)          -8.9635         calculate D2E/DX2 analytically  !
 ! D64   D(3,12,79,80)         176.1258         calculate D2E/DX2 analytically  !
 ! D65   D(3,12,79,81)         -64.4648         calculate D2E/DX2 analytically  !
 ! D66   D(3,12,79,82)          57.345          calculate D2E/DX2 analytically  !
 ! D67   D(2,13,20,21)         -60.8713         calculate D2E/DX2 analytically  !
 ! D68   D(2,13,20,22)          61.2815         calculate D2E/DX2 analytically  !
 ! D69   D(2,13,20,23)        -179.4719         calculate D2E/DX2 analytically  !
 ! D70   D(1,14,24,25)         -60.6482         calculate D2E/DX2 analytically  !
 ! D71   D(1,14,24,26)          61.5295         calculate D2E/DX2 analytically  !
 ! D72   D(1,14,24,27)        -179.3071         calculate D2E/DX2 analytically  !
 ! D73   D(5,15,28,29)         -56.9285         calculate D2E/DX2 analytically  !
 ! D74   D(5,15,28,30)          65.6046         calculate D2E/DX2 analytically  !
 ! D75   D(5,15,28,31)        -175.8061         calculate D2E/DX2 analytically  !
 ! D76   D(4,16,19,37)         -41.6576         calculate D2E/DX2 analytically  !
 ! D77   D(4,16,19,83)          45.4418         calculate D2E/DX2 analytically  !
 ! D78   D(17,16,19,37)         79.6111         calculate D2E/DX2 analytically  !
 ! D79   D(17,16,19,83)        166.7105         calculate D2E/DX2 analytically  !
 ! D80   D(18,16,19,37)       -161.6323         calculate D2E/DX2 analytically  !
 ! D81   D(18,16,19,83)        -74.5329         calculate D2E/DX2 analytically  !
 ! D82   D(16,19,37,34)       -121.993          calculate D2E/DX2 analytically  !
 ! D83   D(16,19,37,52)         94.0089         calculate D2E/DX2 analytically  !
 ! D84   D(83,19,37,34)        131.9489         calculate D2E/DX2 analytically  !
 ! D85   D(83,19,37,52)        -12.0492         calculate D2E/DX2 analytically  !
 ! D86   D(16,19,83,52)       -117.1791         calculate D2E/DX2 analytically  !
 ! D87   D(16,19,83,84)         77.3716         calculate D2E/DX2 analytically  !
 ! D88   D(37,19,83,52)         11.6416         calculate D2E/DX2 analytically  !
 ! D89   D(37,19,83,84)       -153.8078         calculate D2E/DX2 analytically  !
 ! D90   D(36,32,33,34)        -50.8166         calculate D2E/DX2 analytically  !
 ! D91   D(36,32,33,38)         61.1155         calculate D2E/DX2 analytically  !
 ! D92   D(36,32,33,44)       -175.8301         calculate D2E/DX2 analytically  !
 ! D93   D(39,32,33,34)         68.491          calculate D2E/DX2 analytically  !
 ! D94   D(39,32,33,38)       -179.5769         calculate D2E/DX2 analytically  !
 ! D95   D(39,32,33,44)        -56.5225         calculate D2E/DX2 analytically  !
 ! D96   D(45,32,33,34)       -170.3952         calculate D2E/DX2 analytically  !
 ! D97   D(45,32,33,38)        -58.463          calculate D2E/DX2 analytically  !
 ! D98   D(45,32,33,44)         64.5913         calculate D2E/DX2 analytically  !
 ! D99   D(33,32,36,35)         58.9044         calculate D2E/DX2 analytically  !
 ! D100  D(33,32,36,41)        -61.3785         calculate D2E/DX2 analytically  !
 ! D101  D(33,32,36,46)        176.6072         calculate D2E/DX2 analytically  !
 ! D102  D(39,32,36,35)        -59.6558         calculate D2E/DX2 analytically  !
 ! D103  D(39,32,36,41)       -179.9387         calculate D2E/DX2 analytically  !
 ! D104  D(39,32,36,46)         58.047          calculate D2E/DX2 analytically  !
 ! D105  D(45,32,36,35)        178.1258         calculate D2E/DX2 analytically  !
 ! D106  D(45,32,36,41)         57.8429         calculate D2E/DX2 analytically  !
 ! D107  D(45,32,36,46)        -64.1714         calculate D2E/DX2 analytically  !
 ! D108  D(33,32,45,67)       -132.7878         calculate D2E/DX2 analytically  !
 ! D109  D(36,32,45,67)        108.7704         calculate D2E/DX2 analytically  !
 ! D110  D(39,32,45,67)        -12.9274         calculate D2E/DX2 analytically  !
 ! D111  D(32,33,34,37)       -160.1879         calculate D2E/DX2 analytically  !
 ! D112  D(32,33,34,42)         33.5959         calculate D2E/DX2 analytically  !
 ! D113  D(32,33,34,53)        -70.6174         calculate D2E/DX2 analytically  !
 ! D114  D(38,33,34,37)         83.7037         calculate D2E/DX2 analytically  !
 ! D115  D(38,33,34,42)        -82.5125         calculate D2E/DX2 analytically  !
 ! D116  D(38,33,34,53)        173.2743         calculate D2E/DX2 analytically  !
 ! D117  D(44,33,34,37)        -32.574          calculate D2E/DX2 analytically  !
 ! D118  D(44,33,34,42)        161.2098         calculate D2E/DX2 analytically  !
 ! D119  D(44,33,34,53)         56.9965         calculate D2E/DX2 analytically  !
 ! D120  D(32,33,44,63)        -93.6207         calculate D2E/DX2 analytically  !
 ! D121  D(34,33,44,63)        140.5603         calculate D2E/DX2 analytically  !
 ! D122  D(38,33,44,63)         29.0466         calculate D2E/DX2 analytically  !
 ! D123  D(33,34,37,19)        -58.8001         calculate D2E/DX2 analytically  !
 ! D124  D(33,34,37,52)         78.25           calculate D2E/DX2 analytically  !
 ! D125  D(42,34,37,19)        108.3943         calculate D2E/DX2 analytically  !
 ! D126  D(42,34,37,52)       -114.5556         calculate D2E/DX2 analytically  !
 ! D127  D(53,34,37,19)       -155.6218         calculate D2E/DX2 analytically  !
 ! D128  D(53,34,37,52)        -18.5717         calculate D2E/DX2 analytically  !
 ! D129  D(33,34,42,35)        -21.4558         calculate D2E/DX2 analytically  !
 ! D130  D(37,34,42,35)        171.5874         calculate D2E/DX2 analytically  !
 ! D131  D(53,34,42,35)         83.2051         calculate D2E/DX2 analytically  !
 ! D132  D(33,34,53,51)       -111.6913         calculate D2E/DX2 analytically  !
 ! D133  D(37,34,53,51)          8.95           calculate D2E/DX2 analytically  !
 ! D134  D(42,34,53,51)        123.7236         calculate D2E/DX2 analytically  !
 ! D135  D(40,35,36,32)         68.9466         calculate D2E/DX2 analytically  !
 ! D136  D(40,35,36,41)       -171.127          calculate D2E/DX2 analytically  !
 ! D137  D(40,35,36,46)        -51.6086         calculate D2E/DX2 analytically  !
 ! D138  D(42,35,36,32)        -46.1933         calculate D2E/DX2 analytically  !
 ! D139  D(42,35,36,41)         73.7331         calculate D2E/DX2 analytically  !
 ! D140  D(42,35,36,46)       -166.7485         calculate D2E/DX2 analytically  !
 ! D141  D(47,35,36,32)       -168.5777         calculate D2E/DX2 analytically  !
 ! D142  D(47,35,36,41)        -48.6513         calculate D2E/DX2 analytically  !
 ! D143  D(47,35,36,46)         70.8671         calculate D2E/DX2 analytically  !
 ! D144  D(36,35,42,34)         27.2026         calculate D2E/DX2 analytically  !
 ! D145  D(40,35,42,34)        -90.7388         calculate D2E/DX2 analytically  !
 ! D146  D(47,35,42,34)        154.1792         calculate D2E/DX2 analytically  !
 ! D147  D(36,35,47,48)        -65.5016         calculate D2E/DX2 analytically  !
 ! D148  D(36,35,47,49)        177.813          calculate D2E/DX2 analytically  !
 ! D149  D(36,35,47,50)         55.9525         calculate D2E/DX2 analytically  !
 ! D150  D(40,35,47,48)         57.0334         calculate D2E/DX2 analytically  !
 ! D151  D(40,35,47,49)        -59.652          calculate D2E/DX2 analytically  !
 ! D152  D(40,35,47,50)        178.4875         calculate D2E/DX2 analytically  !
 ! D153  D(42,35,47,48)        168.9869         calculate D2E/DX2 analytically  !
 ! D154  D(42,35,47,49)         52.3016         calculate D2E/DX2 analytically  !
 ! D155  D(42,35,47,50)        -69.5589         calculate D2E/DX2 analytically  !
 ! D156  D(32,36,46,71)        112.2371         calculate D2E/DX2 analytically  !
 ! D157  D(35,36,46,71)       -127.2496         calculate D2E/DX2 analytically  !
 ! D158  D(41,36,46,71)         -8.6256         calculate D2E/DX2 analytically  !
 ! D159  D(19,37,52,51)        162.0368         calculate D2E/DX2 analytically  !
 ! D160  D(19,37,52,83)         12.2089         calculate D2E/DX2 analytically  !
 ! D161  D(34,37,52,51)         28.2345         calculate D2E/DX2 analytically  !
 ! D162  D(34,37,52,83)       -121.5933         calculate D2E/DX2 analytically  !
 ! D163  D(33,44,63,64)        -59.0866         calculate D2E/DX2 analytically  !
 ! D164  D(33,44,63,65)         63.0945         calculate D2E/DX2 analytically  !
 ! D165  D(33,44,63,66)       -177.6221         calculate D2E/DX2 analytically  !
 ! D166  D(32,45,67,68)        -59.8524         calculate D2E/DX2 analytically  !
 ! D167  D(32,45,67,69)         62.37           calculate D2E/DX2 analytically  !
 ! D168  D(32,45,67,70)       -178.9561         calculate D2E/DX2 analytically  !
 ! D169  D(36,46,71,72)        -61.4758         calculate D2E/DX2 analytically  !
 ! D170  D(36,46,71,73)         60.6705         calculate D2E/DX2 analytically  !
 ! D171  D(36,46,71,74)        179.4662         calculate D2E/DX2 analytically  !
 ! D172  D(35,47,50,75)       -179.205          calculate D2E/DX2 analytically  !
 ! D173  D(48,47,50,75)        -60.1882         calculate D2E/DX2 analytically  !
 ! D174  D(49,47,50,75)         60.3032         calculate D2E/DX2 analytically  !
 ! D175  D(47,50,75,76)       -179.9491         calculate D2E/DX2 analytically  !
 ! D176  D(47,50,75,77)        -60.7593         calculate D2E/DX2 analytically  !
 ! D177  D(47,50,75,78)         60.7973         calculate D2E/DX2 analytically  !
 ! D178  D(43,51,52,37)       -145.2712         calculate D2E/DX2 analytically  !
 ! D179  D(43,51,52,83)        -95.1864         calculate D2E/DX2 analytically  !
 ! D180  D(53,51,52,37)        -13.453          calculate D2E/DX2 analytically  !
 ! D181  D(53,51,52,83)         36.6318         calculate D2E/DX2 analytically  !
 ! D182  D(54,51,52,37)         99.2145         calculate D2E/DX2 analytically  !
 ! D183  D(54,51,52,83)        149.2993         calculate D2E/DX2 analytically  !
 ! D184  D(43,51,53,34)        141.0999         calculate D2E/DX2 analytically  !
 ! D185  D(52,51,53,34)          9.1611         calculate D2E/DX2 analytically  !
 ! D186  D(54,51,53,34)       -102.7768         calculate D2E/DX2 analytically  !
 ! D187  D(43,51,54,55)        -34.8998         calculate D2E/DX2 analytically  !
 ! D188  D(43,51,54,56)        149.44           calculate D2E/DX2 analytically  !
 ! D189  D(52,51,54,55)         85.9125         calculate D2E/DX2 analytically  !
 ! D190  D(52,51,54,56)        -89.7477         calculate D2E/DX2 analytically  !
 ! D191  D(53,51,54,55)       -156.0229         calculate D2E/DX2 analytically  !
 ! D192  D(53,51,54,56)         28.317          calculate D2E/DX2 analytically  !
 ! D193  D(37,52,83,19)        -10.3648         calculate D2E/DX2 analytically  !
 ! D194  D(37,52,83,84)        156.8598         calculate D2E/DX2 analytically  !
 ! D195  D(51,52,83,19)        -68.161          calculate D2E/DX2 analytically  !
 ! D196  D(51,52,83,84)         99.0636         calculate D2E/DX2 analytically  !
 ! D197  D(51,54,55,57)       -174.8562         calculate D2E/DX2 analytically  !
 ! D198  D(51,54,55,58)          5.4403         calculate D2E/DX2 analytically  !
 ! D199  D(56,54,55,57)          0.7653         calculate D2E/DX2 analytically  !
 ! D200  D(56,54,55,58)       -178.9382         calculate D2E/DX2 analytically  !
 ! D201  D(51,54,56,59)        174.9788         calculate D2E/DX2 analytically  !
 ! D202  D(51,54,56,60)         -4.7453         calculate D2E/DX2 analytically  !
 ! D203  D(55,54,56,59)         -0.6186         calculate D2E/DX2 analytically  !
 ! D204  D(55,54,56,60)        179.6573         calculate D2E/DX2 analytically  !
 ! D205  D(54,55,57,61)         -0.3646         calculate D2E/DX2 analytically  !
 ! D206  D(54,55,57,93)        176.067          calculate D2E/DX2 analytically  !
 ! D207  D(58,55,57,61)        179.3364         calculate D2E/DX2 analytically  !
 ! D208  D(58,55,57,93)         -4.232          calculate D2E/DX2 analytically  !
 ! D209  D(54,56,59,61)          0.0675         calculate D2E/DX2 analytically  !
 ! D210  D(54,56,59,97)        178.0759         calculate D2E/DX2 analytically  !
 ! D211  D(60,56,59,61)        179.7896         calculate D2E/DX2 analytically  !
 ! D212  D(60,56,59,97)         -2.2021         calculate D2E/DX2 analytically  !
 ! D213  D(55,57,61,59)         -0.1752         calculate D2E/DX2 analytically  !
 ! D214  D(55,57,61,62)        179.8066         calculate D2E/DX2 analytically  !
 ! D215  D(93,57,61,59)       -176.5907         calculate D2E/DX2 analytically  !
 ! D216  D(93,57,61,62)          3.3911         calculate D2E/DX2 analytically  !
 ! D217  D(55,57,93,94)        -84.5602         calculate D2E/DX2 analytically  !
 ! D218  D(55,57,93,95)        155.8339         calculate D2E/DX2 analytically  !
 ! D219  D(55,57,93,96)         34.8591         calculate D2E/DX2 analytically  !
 ! D220  D(61,57,93,94)         91.8966         calculate D2E/DX2 analytically  !
 ! D221  D(61,57,93,95)        -27.7093         calculate D2E/DX2 analytically  !
 ! D222  D(61,57,93,96)       -148.6841         calculate D2E/DX2 analytically  !
 ! D223  D(56,59,61,57)          0.325          calculate D2E/DX2 analytically  !
 ! D224  D(56,59,61,62)       -179.6568         calculate D2E/DX2 analytically  !
 ! D225  D(97,59,61,57)       -177.7011         calculate D2E/DX2 analytically  !
 ! D226  D(97,59,61,62)          2.3171         calculate D2E/DX2 analytically  !
 ! D227  D(56,59,97,98)         21.4375         calculate D2E/DX2 analytically  !
 ! D228  D(56,59,97,99)        -98.4996         calculate D2E/DX2 analytically  !
 ! D229  D(56,59,97,100)       142.1838         calculate D2E/DX2 analytically  !
 ! D230  D(61,59,97,98)       -160.5295         calculate D2E/DX2 analytically  !
 ! D231  D(61,59,97,99)         79.5333         calculate D2E/DX2 analytically  !
 ! D232  D(61,59,97,100)       -39.7833         calculate D2E/DX2 analytically  !
 ! D233  D(19,83,84,85)        152.2814         calculate D2E/DX2 analytically  !
 ! D234  D(19,83,84,89)        -22.1053         calculate D2E/DX2 analytically  !
 ! D235  D(52,83,84,85)        -11.4021         calculate D2E/DX2 analytically  !
 ! D236  D(52,83,84,89)        174.2111         calculate D2E/DX2 analytically  !
 ! D237  D(83,84,85,86)       -114.2273         calculate D2E/DX2 analytically  !
 ! D238  D(83,84,85,87)          5.1275         calculate D2E/DX2 analytically  !
 ! D239  D(83,84,85,88)        124.4781         calculate D2E/DX2 analytically  !
 ! D240  D(89,84,85,86)         60.6535         calculate D2E/DX2 analytically  !
 ! D241  D(89,84,85,87)       -179.9917         calculate D2E/DX2 analytically  !
 ! D242  D(89,84,85,88)        -60.6411         calculate D2E/DX2 analytically  !
 ! D243  D(83,84,89,90)       -124.4496         calculate D2E/DX2 analytically  !
 ! D244  D(83,84,89,91)         -5.1566         calculate D2E/DX2 analytically  !
 ! D245  D(83,84,89,92)        114.2462         calculate D2E/DX2 analytically  !
 ! D246  D(85,84,89,90)         60.5411         calculate D2E/DX2 analytically  !
 ! D247  D(85,84,89,91)        179.834          calculate D2E/DX2 analytically  !
 ! D248  D(85,84,89,92)        -60.7632         calculate D2E/DX2 analytically  !
 --------------------------------------------------------------------------------
 Trust Radius=5.00D-02 FncErr=1.00D-07 GrdErr=1.00D-06 EigMax=2.50D+02 EigMin=1.00D-04
 Number of steps in this run=    556 maximum allowed number of steps=    600.
 Search for a saddle point of order  1.
 GradGradGradGradGradGradGradGradGradGradGradGradGradGradGradGradGradGrad

 Leave Link  103 at Thu Jun  6 22:38:25 2019, MaxMem=  6442450944 cpu:               5.7 elap:               0.2
 (Enter /home/ekwan/sw/g16/l202.exe)
 Stoichiometry    C30H47F6NaO15S
 Framework group  C1[X(C30H47F6NaO15S)]
 Deg. of freedom   294
 Full point group                 C1      NOp   1
 Largest Abelian subgroup         C1      NOp   1
 Largest concise Abelian subgroup C1      NOp   1
                         Standard orientation:                         
 ---------------------------------------------------------------------
 Center     Atomic      Atomic             Coordinates (Angstroms)
 Number     Number       Type             X           Y           Z
 ---------------------------------------------------------------------
      1          6           0       -2.105315    1.302114    2.499288
      2          6           0       -2.579207    2.094139    1.282476
      3          6           0       -1.916442    3.473952    1.262150
      4          6           0        0.051747    2.651996    2.389414
      5          6           0       -0.577899    1.264749    2.562111
      6          1           0       -2.154384    3.997859    0.326979
      7          1           0       -2.244906    1.573881    0.377390
      8          1           0       -2.475414    1.794276    3.405047
      9          1           0       -0.169380    3.237126    3.290796
     10          1           0       -0.215262    0.613320    1.759110
     11          8           0       -0.509865    3.326995    1.245057
     12          8           0       -2.371265    4.208766    2.355428
     13          8           0       -3.986757    2.240348    1.270775
     14          8           0       -2.594828   -0.030822    2.435064
     15          8           0       -0.179153    0.761031    3.828933
     16          6           0        1.577759    2.610622    2.173085
     17          1           0        1.980668    2.091710    3.068026
     18          1           0        1.914537    3.666952    2.284285
     19          8           0        1.976911    2.062517    0.986438
     20          6           0       -4.643453    1.462956    0.288837
     21          1           0       -4.319509    1.731886   -0.725100
     22          1           0       -4.476632    0.392002    0.439096
     23          1           0       -5.709899    1.675468    0.382680
     24          6           0       -3.572326   -0.347862    3.404153
     25          1           0       -3.180361   -0.235382    4.422602
     26          1           0       -4.467929    0.274357    3.298229
     27          1           0       -3.841008   -1.392904    3.242323
     28          6           0        0.399499   -0.527436    3.803260
     29          1           0       -0.272065   -1.263052    3.349208
     30          1           0        1.354830   -0.534067    3.265314
     31          1           0        0.581868   -0.807468    4.843170
     32          6           0        4.338075   -0.815806   -1.271118
     33          6           0        3.438039    0.338371   -0.818184
     34          6           0        2.208285   -0.169928   -0.131827
     35          6           0        3.222003   -2.282725    0.447639
     36          6           0        4.555952   -1.745381   -0.074581
     37          1           0        1.335657    0.448632   -0.032237
     38          1           0        3.944292    0.890066   -0.011442
     39          1           0        3.835523   -1.358224   -2.078628
     40          1           0        2.802208   -2.969067   -0.291213
     41          1           0        5.057596   -1.184554    0.720364
     42          8           0        2.206217   -1.231815    0.583473
     43          8           0       -0.242345   -0.257524   -3.859169
     44          8           0        3.075651    1.226916   -1.841122
     45          8           0        5.574855   -0.299107   -1.708670
     46          8           0        5.316521   -2.874434   -0.445720
     47          6           0        3.296338   -2.988231    1.782915
     48          1           0        3.898721   -3.896553    1.646572
     49          1           0        2.284735   -3.297438    2.081354
     50          8           0        3.866749   -2.126909    2.733277
     51         16           0       -0.093532   -0.348092   -2.400732
     52          8           0       -0.306756    0.939977   -1.684400
     53          8           0        1.154115   -1.046775   -1.959668
     54          6           0       -1.436835   -1.388843   -1.812072
     55          6           0       -2.672542   -1.328865   -2.447159
     56          6           0       -1.258420   -2.173827   -0.676760
     57          6           0       -3.743904   -2.053167   -1.926032
     58          1           0       -2.792750   -0.727585   -3.339558
     59          6           0       -2.334595   -2.894942   -0.167538
     60          1           0       -0.290503   -2.215482   -0.196183
     61          6           0       -3.582012   -2.836129   -0.786175
     62          1           0       -4.418319   -3.393603   -0.384677
     63          6           0        3.934391    2.359161   -1.956291
     64          1           0        3.946997    2.927767   -1.020294
     65          1           0        4.950241    2.060964   -2.219779
     66          1           0        3.514092    2.976065   -2.750625
     67          6           0        6.020918   -0.820794   -2.950235
     68          1           0        6.147789   -1.906441   -2.906971
     69          1           0        5.325097   -0.570605   -3.759193
     70          1           0        6.985117   -0.353225   -3.152595
     71          6           0        6.612280   -2.925381    0.131425
     72          1           0        7.218704   -2.068220   -0.175559
     73          1           0        6.560366   -2.957349    1.225683
     74          1           0        7.074703   -3.843652   -0.231470
     75          6           0        3.985026   -2.727234    4.006533
     76          1           0        4.433273   -1.985115    4.667002
     77          1           0        3.004913   -3.018410    4.405102
     78          1           0        4.628683   -3.615736    3.971960
     79          6           0       -2.006663    5.577214    2.317108
     80          1           0       -2.475518    6.050946    3.179562
     81          1           0       -0.922079    5.709130    2.377302
     82          1           0       -2.373837    6.055485    1.400166
     83         11           0        0.795367    2.808036   -0.784975
     84          8           0        0.912619    4.851457   -1.985750
     85          6           0        0.558592    5.008513   -3.347165
     86          1           0        1.435256    5.262331   -3.955511
     87          1           0        0.147835    4.058112   -3.688027
     88          1           0       -0.197377    5.793731   -3.468608
     89          6           0        1.461764    6.030946   -1.429710
     90          1           0        0.743495    6.858584   -1.474547
     91          1           0        1.699502    5.818230   -0.387171
     92          1           0        2.377097    6.326346   -1.957101
     93          6           0       -5.103526   -1.920733   -2.558075
     94          9           0       -5.765454   -0.850550   -2.069425
     95          9           0       -5.874740   -2.996870   -2.327671
     96          9           0       -5.023340   -1.755902   -3.889039
     97          6           0       -2.149799   -3.782913    1.033677
     98          9           0       -1.071720   -3.436922    1.760233
     99          9           0       -1.984687   -5.070988    0.674890
    100          9           0       -3.218602   -3.742347    1.851583
 ---------------------------------------------------------------------
 Rotational constants (GHZ):           0.0529662           0.0410070           0.0352705
 Leave Link  202 at Thu Jun  6 22:38:25 2019, MaxMem=  6442450944 cpu:               4.8 elap:               0.2
 (Enter /home/ekwan/sw/g16/l301.exe)
 Standard basis: 6-31G(d) (6D, 7F)
 Ernie: Thresh=  0.10000D-02 Tol=  0.10000D-05 Strict=F.
 There are   897 symmetry adapted cartesian basis functions of A   symmetry.
 There are   897 symmetry adapted basis functions of A   symmetry.
   897 basis functions,  1720 primitive gaussians,   897 cartesian basis functions
   214 alpha electrons      214 beta electrons
       nuclear repulsion energy      9465.4353220119 Hartrees.
 IExCor= 1715 DFT=T Ex+Corr=B972 ExCW=0 ScaHFX=  0.210000
 ScaDFX=  1.000000  1.000000  1.000000  1.000000 ScalE2=  1.000000  1.000000
 IRadAn=      5 IRanWt=     -1 IRanGd=            0 ICorTp=0 IEmpDi=  4
 NAtoms=  100 NActive=  100 NUniq=  100 SFac= 1.00D+00 NAtFMM=   60 NAOKFM=T Big=T
 Integral buffers will be    131072 words long.
 Raffenetti 2 integral format.
 Two-electron integral symmetry is turned on.
 Force inversion solution in PCM.
 ------------------------------------------------------------------------------
 Polarizable Continuum Model (PCM)
 =================================
 Model                : PCM.
 Atomic radii         : UFF (Universal Force Field).
 Polarization charges : Total charges.
 Charge compensation  : None.
 Solution method      : Matrix inversion.
 Cavity type          : Scaled VdW (van der Waals Surface) (Alpha=1.100).
 Cavity algorithm     : GePol (No added spheres)
                        Default sphere list used, NSphG=  100.
                        Lebedev-Laikov grids with approx.  5.0 points / Ang**2.
                        Smoothing algorithm: York/Karplus (Gamma=1.0000).
                        Polarization charges: spherical gaussians, with
                                              point-specific exponents (IZeta= 3).
                        Self-potential: point-specific (ISelfS= 7).
                        Self-field    : sphere-specific E.n sum rule (ISelfD= 2).
 1st derivatives      : Analytical E(r).r(x)/FMM algorithm (CHGder, D1EAlg=3).
                        Cavity 1st derivative terms included.
 2nd derivatives      : Analytical E(r).r(xy)/FMM algorithm (CHGder, D2EAlg=3).
                        Cavity 2nd derivative terms included.
 Solvent              : TetraHydroFuran, Eps=   7.425700 Eps(inf)=   1.974025
 ------------------------------------------------------------------------------
 GePol: Number of generator spheres                  =     100
 GePol: Total number of spheres                      =     100
 GePol: Number of exposed spheres                    =     100 (100.00%)
 GePol: Number of points                             =    6869
 GePol: Average weight of points                     =       0.12
 GePol: Minimum weight of points                     =   0.16D-11
 GePol: Maximum weight of points                     =    0.21371
 GePol: Number of points with low weight             =     490
 GePol: Fraction of low-weight points (<1% of avg)   =       7.13%
 GePol: Cavity surface area                          =    855.587 Ang**2
 GePol: Cavity volume                                =   1005.685 Ang**3
 Leave Link  301 at Thu Jun  6 22:38:25 2019, MaxMem=  6442450944 cpu:               7.9 elap:               0.3
 (Enter /home/ekwan/sw/g16/l302.exe)
 NPDir=0 NMtPBC=     1 NCelOv=     1 NCel=       1 NClECP=     1 NCelD=      1
         NCelK=      1 NCelE2=     1 NClLst=     1 CellRange=     0.0.
 One-electron integrals computed using PRISM.
 One-electron integral symmetry used in STVInt
 NBasis=   897 RedAO= T EigKep=  3.92D-04  NBF=   897
 NBsUse=   897 1.00D-06 EigRej= -1.00D+00 NBFU=   897
 Precomputing XC quadrature grid using
 IXCGrd= 4 IRadAn=           5 IRanWt=          -1 IRanGd=           0 AccXCQ= 0.00D+00.
 Generated NRdTot=       0 NPtTot=           0 NUsed=           0 NTot=          32
 NSgBfM=   828   827   827   827   828 MxSgAt=   100 MxSgA2=   100.
 Leave Link  302 at Thu Jun  6 22:38:41 2019, MaxMem=  6442450944 cpu:             440.2 elap:              15.2
 (Enter /home/ekwan/sw/g16/l303.exe)
 DipDrv:  MaxL=1.
 Leave Link  303 at Thu Jun  6 22:38:41 2019, MaxMem=  6442450944 cpu:              13.1 elap:               0.6
[...]
 .00001347,-0.00001278,0.00003897,-0.00005962,0.00001579,-0.00005362,0.
 00008747,-0.00004701,0.00334371,0.00183037,-0.00109594,-0.00068901,-0.
 00120108,-0.00006968,-0.00163166,-0.00008859,-0.00010512,-0.00065257,0
 .00074864,0.00224505,0.00026581,-0.00080411,0.00045118,0.00385667,-0.0
 0047692,0.00100765,-0.00011022,0.00056932,0.00235640,0.00011898,-0.000
 19236,-0.00015207,0.00675284,-0.04394265,-0.00087822,0.00035605,-0.000
 69169,-0.00095379,-0.00342220,-0.00130778,0.00002352,0.00065314,-0.000
 82528,-0.00080312,0.00006509,0.00009656,-0.00002653,-0.00000881,-0.000
 00877,-0.00000526,-0.00002354,-0.00001439,0.00000506,0.00000344,-0.000
 00747,0.00000672,0.00002915,-0.00004242,-0.00006676,-0.00000543,0.0000
 1527,0.00000577,0.00000099,0.00000170,0.00000535,-0.00000856,0.0000013
 1,0.00000942,0.00005372,-0.00001057,0.00002996,-0.00000363,0.00000169,
 -0.00000450,-0.00000373,-0.00000644,-0.00000769,-0.00001962,0.00000794
 ,0.00000236,0.00004240,-0.00004626,0.00005419,0.00000102,0.00000447,-0
 .00000419,0.00000340,-0.00001062,-0.00000185,-0.00002615,0.00001772,-0
 .00000124,0.00002137,0.00010842,-0.00000548,0.00000316,-0.00001809,-0.
 00001070,-0.00001150,-0.00000839,0.00000417,-0.00000277,-0.00001405,0.
 00000997,0.00011326,0.00022030,0.00001062,-0.00002991,-0.00006575,0.00
 001408,0.00001346,0.00002267,-0.00001697,-0.00001167,-0.00000696,0.000
 00386,-0.00000224,-0.00000448,-0.00001048,0.00000325,-0.00000345,-0.00
 000130,0.00002529,0.00004530,0.00001937,0.00000104,-0.00000749,-0.0000
 0094,0.00000306,-0.00000018,-0.00000056,-0.00001052,-0.00000819,0.0000
 0513,-0.00286113,-0.00008105,-0.00102589,0.00086869,-0.00042277,0.0000
 8886,0.00086984,0.00042275,0.00020243,0.00071428,-0.00011453,0.0009259
 4,0.02618920,-0.25890652,-0.02727400,-0.02818527,-0.03862242,-0.033785
 97,-0.03675914,0.36269936,0.00007087,0.00017470,-0.00001948,-0.0000231
 2,-0.00001328,-0.00008652,0.00000209,0.00000819,-0.00000577,-0.0000191
 8,0.00005711,-0.00003728,-0.00002662,0.00004349,-0.00011390,0.00000049
 ,-0.00002055,0.00000747,0.00000114,-0.00000413,0.00000418,-0.00000606,
 -0.00001935,0.00000526,-0.00000620,-0.00000453,0.00000707,0.00000778,0
 .00001257,-0.00000719,0.00001216,-0.00003437,0.00005794,0.00000101,-0.
 00001073,0.00002191,0.00004225,0.00001510,0.00009525,-0.00004507,-0.00
 025238,0.00007066,0.00002386,-0.00025921,0.00006809,0.00005568,-0.0000
 0816,-0.00009811,0.00000816,-0.00000352,0.00002749,-0.00001719,0.00000
 700,0.00002360,-0.00004005,0.00004329,0.00012235,-0.00001885,-0.000035
 38,-0.00007693,-0.00000229,-0.00002921,0.00003101,0.00000900,0.0000009
 0,-0.00003601,-0.00000341,0.00001124,0.00000737,0.00014768,0.00029208,
 -0.00005134,-0.00002012,-0.00003687,0.00000043,0.00000352,-0.00007676,
 -0.00000479,-0.00021786,0.00006212,0.00018673,0.00016632,0.00033130,0.
 00009229,-0.00008022,0.00003114,0.00007544,-0.00003508,-0.00002965,-0.
 00001259,-0.00001666,-0.00002542,-0.00002168,-0.00003313,-0.00000143,-
 0.00001860,-0.00000317,0.00000737,-0.00000201,-0.00017764,-0.00005646,
 -0.00034286,-0.00005262,0.00002021,-0.00006371,0.00000629,-0.00000330,
 -0.00000268,0.00001183,-0.00000431,-0.00001759,0.00000925,0.00000221,-
 0.00000488,-0.00000821,0.00000826,0.00001558,0.00000371,0.00000617,-0.
 00000578,0.00000744,0.00000357,0.00000074,0.00005393,-0.00009465,0.000
 15191,0.00031793,0.00026725,-0.00030227,0.00003564,0.00001543,0.000015
 35,0.00001807,0.00000174,0.00001824,0.00002040,-0.00000907,0.00002050,
 0.00010603,0.00003700,-0.00005779,-0.00001942,0.00000070,0.00000924,-0
 .00000174,-0.00002076,0.00001965,-0.00004564,-0.00001802,0.00004816,-0
 .00120659,-0.00081127,0.00018593,0.00023339,0.00048977,0.00011293,0.00
 063420,0.00009603,0.00015324,0.00001873,-0.00068429,-0.00110025,0.0000
 9673,0.00051587,-0.00040435,-0.00181488,0.00010517,0.00021714,0.000497
 37,-0.00055508,-0.00045320,-0.00002608,0.00005635,0.00008787,-0.002805
 73,0.02310149,0.00823706,0.00008996,0.00045842,0.00014555,0.00107588,0
 .00056616,0.00030656,-0.00021779,0.00024519,0.00005606,-0.00001662,-0.
 00002950,0.00000322,0.00000274,0.00000606,0.00000443,0.00000497,0.0000
 0364,-0.00000144,-0.00000082,-0.00000144,-0.00000075,-0.00000552,-0.00
 000327,-0.00000880,-0.00000243,0.00000063,-0.00000169,0.00000165,-0.00
 000315,0.00000407,0.00000302,0.00000204,0.00000015,-0.00001462,0.00000
 052,-0.00001558,0.00000105,0.00000056,0.00000079,0.00000354,0.00000032
 ,0.00000660,0.00000025,0.00000051,-0.00000023,0.00004924,0.00001625,-0
 .00003292,-0.00000475,-0.00000459,0.00000259,-0.00001504,-0.00000561,0
 .00001182,-0.00000879,0.00000239,0.00000443,-0.00000048,0.00001296,-0.
 00000464,-0.00000092,0.00000095,0.00000043,-0.00000031,-0.00000043,-0.
 00000104,0.00000177,-0.00000334,0.00000405,-0.00002848,-0.00007145,-0.
 00005634,0.00000992,0.00002305,0.00001388,-0.00000681,-0.00001004,-0.0
 0000974,0.00000183,0.00000053,0.00000111,0.00000308,0.00000368,0.00000
 299,-0.00000077,0.00000142,0.00000192,-0.00000889,-0.00001727,-0.00001
 244,-0.00000012,0.00000371,0.00000018,0.00000113,-0.00000002,0.0000031
 1,0.00000219,0.00000295,-0.00000027,0.00105249,-0.00019951,0.00030415,
 -0.00032728,0.00020956,-0.00000107,-0.00031381,-0.00008024,-0.00005841
 ,-0.00025583,0.00006969,-0.00024206,0.00287790,-0.02606366,-0.07862590
 ,-0.01665153,-0.04359060,-0.01066012,-0.01166235,0.08718156,0.09662007
 ,-0.00015866,-0.00032322,0.00001731,-0.00006583,0.00005139,0.00006797,
 -0.00013070,0.00000948,0.00000146,0.00004443,-0.00000231,-0.00003059,-
 0.00013325,0.00017686,-0.00001691,0.00001244,0.00001799,-0.00000193,-0
 .00001071,0.00000586,-0.00001475,0.00001562,0.00001341,-0.00001061,0.0
 0000369,-0.00001904,-0.00000749,0.00003784,-0.00001719,-0.00002581,0.0
 0009439,-0.00004033,0.00001044,0.00004282,-0.00000468,-0.00003163,0.00
 012787,0.00006176,-0.00004154,0.00043009,0.00040603,-0.00015720,0.0001
 4435,-0.00031955,-0.00001542,-0.00008462,0.00004870,0.00015338,0.00001
 281,0.00000587,-0.00002493,0.00002149,-0.00004769,-0.00004164,0.000059
 65,-0.00015057,-0.00016132,-0.00002250,-0.00012066,0.00002527,0.000008
 83,0.00006040,-0.00003899,-0.00002678,0.00002556,0.00005954,0.00001342
 ,-0.00001182,0.00000139,-0.00069755,-0.00101865,0.00034697,0.00008035,
 0.00021535,0.00005299,0.00006276,0.00017032,0.00000102,0.00055936,-0.0
 0000542,-0.00064355,0.00012142,0.00039687,0.00012468,-0.00014570,0.000
 07873,0.00015100,0.00003014,0.00000599,-0.00000646,-0.00003624,-0.0000
 4649,-0.00005642,0.00006226,0.00002245,-0.00003919,-0.00002707,0.00004
 001,-0.00002281,0.00018419,0.00046623,0.00005052,0.00009629,0.00001928
 ,-0.00000704,0.00009233,-0.00002814,-0.00001672,-0.00002166,0.00003267
 ,0.00000337,-0.00000244,-0.00000023,0.00001612,0.00000687,-0.00000656,
 -0.00001799,0.00003629,-0.00000925,-0.00003129,-0.00001849,-0.00000267
 ,0.00000211,-0.00014118,-0.00026402,0.00010381,-0.00023566,-0.00025338
 ,0.00047500,-0.00005739,-0.00010119,0.00004411,-0.00009723,-0.00002951
 ,0.00006472,-0.00012146,0.00001799,0.00000105,0.00029586,0.00016321,0.
 00004372,-0.00003978,-0.00000605,0.00000360,0.00001947,-0.00005287,0.0
 0009751,-0.00015598,-0.00007870,-0.00017452,0.00101008,0.00091596,-0.0
 0038757,-0.00016572,-0.00058746,-0.00011649,-0.00046923,-0.00021273,0.
 00004896,-0.00034012,-0.00056282,-0.00032830,0.00038351,0.00014231,0.0
 0015773,0.00155648,-0.00053287,0.00202217,0.00107010,-0.00100792,0.000
 61402,0.00011675,0.00013610,0.00005029,-0.00751965,-0.00047775,0.01392
 645,0.00042921,0.00066049,-0.00036563,-0.00276765,-0.00071459,-0.00265
 259,0.00168425,0.00114864,0.00050457,0.00004811,0.00007641,-0.00000867
 ,-0.00000788,-0.00000726,-0.00000755,-0.00001209,-0.00000596,0.0000011
 1,-0.00000040,-0.00000855,0.00000762,0.00002054,-0.00001306,-0.0000452
 0,0.00000570,0.00000318,0.00000393,0.00000190,0.00000561,0.00000596,-0
 .00001133,-0.00000341,0.00000679,0.00008602,-0.00000273,0.00003623,-0.
 00001318,-0.00000945,-0.00000025,0.00000007,-0.00000083,-0.00000744,-0
 .00000640,0.00000698,-0.00000147,0.00005654,-0.00004606,0.00009980,-0.
 00001706,-0.00001054,-0.00001804,-0.00000236,0.00001447,0.00000607,-0.
 00000795,0.00001877,-0.00000610,-0.00000975,-0.00000389,0.00000131,0.0
 0000096,-0.00000233,-0.00000239,0.00000500,0.00000363,0.00000179,-0.00
 000080,0.00000134,0.00000009,-0.00000188,0.00012592,0.00001883,0.00000
 151,-0.00003114,-0.00000175,-0.00000075,0.00001173,-0.00000178,-0.0000
 0043,-0.00000013,0.00000006,-0.00000563,-0.00000116,-0.00000272,0.0000
 0277,-0.00000572,-0.00000054,0.00000437,0.00002125,0.00000958,0.000002
 36,-0.00000629,0.00000087,-0.00000122,0.00000099,0.00000001,-0.0000017
 3,-0.00000230,-0.00000018,-0.00112727,-0.00010663,0.00008636,0.0003883
 1,-0.00019384,-0.00007155,0.00035044,0.00018174,-0.00004664,0.00025385
 ,-0.00003065,0.00013801,-0.17706218,-0.00617165,0.09779233,-0.07980165
 ,-0.01276568,0.01193506,-0.01721138,0.03083855,0.02851122,0.27880041,0
 .00007760,0.00018585,0.00000285,-0.00003784,0.00001779,0.00003336,0.00
 002463,0.00008419,0.00003505,-0.00000572,0.00003757,0.00000238,0.00002
 140,-0.00000116,0.00008737,-0.00000349,-0.00001342,0.00000084,-0.00000
 366,0.00002510,-0.00000242,-0.00000581,-0.00002398,-0.00000925,0.00000
 028,-0.00001451,-0.00000937,0.00002586,-0.00001186,-0.00001322,-0.0000
 1932,-0.00003749,-0.00001666,-0.00000148,-0.00008838,-0.00003395,0.000
 00538,-0.00007842,-0.00002660,-0.00001136,-0.00020517,-0.00011785,-0.0
 0004948,0.00000792,-0.00006834,0.00000421,-0.00000308,0.00005951,-0.00
 000076,0.00000613,-0.00001929,-0.00000831,-0.00002805,-0.00001519,-0.0
 0002443,-0.00005091,-0.00006239,-0.00001000,0.00009930,0.00001651,-0.0
 0000069,0.00000479,-0.00000339,-0.00002121,-0.00002884,0.00000971,0.00
 002019,-0.00002261,-0.00000529,0.00025109,0.00034591,-0.00006136,-0.00
 002785,-0.00015253,-0.00006344,-0.00002746,-0.00015031,-0.00004727,-0.
 00018741,-0.00123926,-0.00027374,0.00005061,0.00000916,0.00003692,-0.0
 0000672,-0.00001460,0.00000837,-0.00000721,-0.00000090,0.00000351,-0.0
 0001261,-0.00000642,-0.00002565,0.00004306,-0.00001312,-0.00001035,-0.
 00000098,0.00000038,-0.00001745,0.00019003,0.00009582,0.00024157,0.000
 09572,-0.00010944,0.00001853,0.00002649,-0.00001030,0.00000153,0.00000
 173,0.00001018,0.00000432,-0.00000643,-0.00000338,0.00001037,0.0000077
 5,-0.00000809,-0.00000951,-0.00000279,-0.00000346,0.00000800,-0.000002
 01,0.00000171,0.00000080,-0.00011560,0.00008102,-0.00008992,-0.0003123
 7,-0.00018645,0.00044477,-0.00005219,-0.00002683,0.00001134,-0.0000449
 3,0.00000809,0.00002110,-0.00004617,0.00003719,-0.00000234,0.00000779,
 -0.00000901,0.00000757,-0.00001793,0.00000433,-0.00000645,0.00001836,-
 0.00001321,0.00000783,-0.00000791,0.00003225,-0.00003072,0.00152948,0.
 00062013,-0.00045637,-0.00035883,-0.00055756,-0.00007623,-0.00066024,-
 0.00003883,-0.00006851,0.00021514,-0.00154864,0.00026814,-0.00055781,-
 0.00037334,0.00038474,0.00171651,0.00068160,0.00173912,0.00003874,-0.0
 0016176,-0.00030553,-0.00000682,0.00006118,0.00003370,-0.01611501,0.00
 601204,0.01767600,-0.00006259,0.00048780,0.00003887,-0.00053928,-0.000
 46726,0.00069266,0.00013046,-0.00009787,0.00060598,0.00002572,0.000038
 69,-0.00001018,-0.00000367,-0.00000414,-0.00000255,-0.00000907,-0.0000
 0567,0.00000211,0.00000151,-0.00000243,0.00000245,0.00001086,-0.000013
 33,-0.00002065,-0.00000117,0.00000496,0.00000233,0.00000004,0.00000122
 ,0.00000099,-0.00000353,-0.00000007,0.00000314,0.00002158,-0.00000368,
 0.00001379,-0.00000150,0.00000036,-0.00000170,-0.00000207,-0.00000223,
 -0.00000411,-0.00000645,0.00000257,0.00000080,0.00000010,-0.00002079,0
 .00002895,0.00000177,0.00000249,-0.00000215,0.00000545,-0.00000145,-0.
 00000383,-0.00000589,0.00000553,-0.00000165,0.00000978,0.00004602,-0.0
 0000128,0.00000135,-0.00000824,-0.00000473,-0.00000526,-0.00000420,0.0
 0000189,-0.00000159,-0.00000626,0.00000377,0.00005180,0.00009484,0.000
 00838,-0.00001255,-0.00002743,0.00000348,0.00000565,0.00000947,-0.0000
 0502,-0.00000451,-0.00000253,0.00000132,-0.00000136,-0.00000209,-0.000
 00415,0.00000129,-0.00000149,-0.00000078,0.00001039,0.00001910,0.00000
 904,0.00000034,-0.00000321,-0.00000038,0.00000103,-0.00000016,-0.00000
 061,-0.00000429,-0.00000333,0.00000197,-0.00104005,-0.00002639,-0.0004
 5792,0.00032462,-0.00013982,0.00004330,0.00033483,0.00015302,0.0000757
 6,0.00021894,-0.00002648,0.00027913,-0.00544017,-0.07388768,0.00882138
 ,-0.01326241,0.01023028,0.00306098,0.04399957,-0.01839292,-0.04143125,
 -0.01034090,0.07882048,0.00017488,0.00040522,-0.00003080,0.00000180,-0
 .00005774,-0.00016158,0.00008709,-0.00002382,-0.00001320,-0.00005771,0
 .00006142,-0.00002747,0.00005815,-0.00008082,-0.00013553,-0.00000762,-
 0.00003473,0.00000997,0.00001162,-0.00001576,0.00001869,-0.00001790,-0
 .00002255,0.00001932,-0.00000999,0.00001146,0.00001659,-0.00002329,0.0
 0003136,0.00001365,-0.00004067,0.00000079,0.00006788,-0.00002545,0.000
 01653,0.00005719,-0.00001085,0.00001325,0.00016384,-0.00033330,-0.0005
 3167,0.00026764,-0.00006298,-0.00005719,0.00011557,0.00012332,-0.00004
 557,-0.00024006,0.00000064,-0.00001020,0.00005618,-0.00003342,0.000050
 16,0.00006150,-0.00007588,0.00017111,0.00027865,-0.00001828,-0.0000254
 2,-0.00011873,-0.00000641,-0.00006409,0.00005854,0.00002410,-0.0000008
 2,-0.00008178,-0.00001479,0.00002422,0.00000996,0.00084280,0.00104804,
 -0.00027742,-0.00008325,-0.00018718,-0.00001767,-0.00006249,-0.0002713
 7,-0.00002396,-0.00075575,-0.00034215,0.00027054,0.00003355,0.00005446
 ,0.00000097,0.00005667,-0.00004519,-0.00008588,-0.00005613,-0.00003824
 ,-0.00000909,0.00001901,0.00001286,0.00002999,-0.00009554,-0.00000554,
 0.00001121,0.00001219,-0.00001320,0.00002089,-0.00042007,-0.00039325,-
 0.00056714,-0.00016496,0.00008139,-0.00007083,-0.00006148,0.00001740,0
 .00000287,0.00002525,-0.00003033,-0.00002878,0.00001631,0.00000384,-0.
 00002114,-0.00001787,0.00001832,0.00003202,-0.00001410,0.00001327,0.00
 000666,0.00001861,0.00000395,-0.00000045,0.00020907,-0.00000268,0.0001
 6331,0.00073322,0.00055507,-0.00105070,0.00010630,0.00009194,-0.000014
 07,0.00010191,0.00001351,-0.00003232,0.00011593,-0.00004043,0.00002078
 ,-0.00004441,-0.00004485,-0.00009932,0.00000909,0.00000161,0.00001300,
 0.00000817,0.00001034,-0.00001474,0.00004357,0.00001300,0.00016210,-0.
 00320897,-0.00176757,0.00066320,0.00064422,0.00139654,0.00032414,0.001
 44271,0.00022597,0.00019920,0.00152817,0.00228558,-0.00037026,0.000325
 95,0.00045122,-0.00059261,-0.00467061,0.00104188,-0.00596485,0.0000222
 1,0.00050337,-0.00001295,-0.00002442,-0.00006441,-0.00005410,0.0376001
 3,0.00603760,-0.02481711,0.00003221,-0.00049828,0.00004461,0.00180101,
 0.00042759,-0.00003957,-0.00008953,0.00006193,-0.00154651,-0.00006082,
 -0.00010069,0.00001495,0.00000959,0.00001373,0.00001065,0.00001814,0.0
 0001121,-0.00000332,-0.00000180,0.00000505,-0.00000654,-0.00002403,0.0
 0001257,0.00003061,-0.00000457,-0.00000426,-0.00000525,0.00000043,-0.0
 0000684,-0.00000007,0.00001165,0.00000381,-0.00000576,-0.00007516,0.00
 000329,-0.00004347,0.00000933,0.00000609,0.00000158,0.00000466,0.00000
 153,0.00001278,0.00000740,-0.00000487,0.00000066,0.00001850,0.00005038
 ,-0.00010211,0.00000501,0.00000103,0.00001383,-0.00001551,-0.00001441,
 0.00000993,-0.00000326,-0.00001034,0.00000921,0.00000228,0.00000339,-0
 .00000552,-0.00000234,0.00000487,0.00000320,-0.00000161,-0.00000174,-0
 .00000299,0.00000288,-0.00000317,0.00000366,-0.00005575,-0.00021387,-0
 .00008895,0.00001522,0.00005830,0.00001429,-0.00000960,-0.00002299,-0.
 00000626,0.00000447,0.00000192,0.00000045,0.00000790,0.00000535,0.0000
 0749,-0.00000310,0.00000619,0.00000264,-0.00001791,-0.00004129,-0.0000
 2443,-0.00000164,0.00000975,-0.00000009,0.00000164,-0.00000076,0.00000
 383,0.00000555,0.00000637,-0.00000100,0.00230649,-0.00025814,0.0006987
 5,-0.00078629,0.00045984,0.00000762,-0.00071869,-0.00023646,-0.0001204
 4,-0.00049848,0.00011592,-0.00055608,0.09083845,0.00998930,-0.16740722
 ,-0.00369931,0.00066551,0.02227087,0.02918521,-0.02997950,-0.01461522,
 -0.15219664,0.00902275,0.19321773\\-0.00000027,-0.00000045,0.00000108,
 -0.00000063,-0.00000020,-0.00000024,-0.00000071,-0.00000120,0.00000063
 ,-0.00000110,-0.00000032,0.00000006,-0.00000007,-0.00000049,0.00000043
 ,-0.00000091,-0.00000061,0.00000010,-0.00000052,-0.00000076,0.00000008
 ,-0.00000016,-0.00000112,-0.00000031,-0.00000077,-0.00000052,0.0000002
 7,0.00000004,-0.00000032,-0.00000020,-0.00000048,-0.00000019,0.0000003
 7,-0.00000111,-0.00000144,0.00000003,-0.00000022,-0.00000130,-0.000000
 21,-0.00000002,-0.00000093,-0.00000046,-0.00000061,-0.00000018,-0.0000
 0016,-0.00000023,0.00000068,-0.00000045,-0.00000021,0.00000004,0.00000
 023,-0.00000101,0.00000007,0.00000031,-0.00000030,-0.00000020,0.000000
 65,-0.00000100,-0.00000085,0.00000076,-0.00000013,-0.00000099,-0.00000
 025,0.00000013,-0.00000158,0.,0.00000006,-0.00000166,0.,0.00000051,-0.
 00000103,0.00000049,0.00000015,-0.00000128,-0.00000032,-0.00000003,-0.
 00000141,-0.00000019,0.00000034,-0.00000145,-0.00000011,0.00000074,-0.
 00000025,-0.00000026,0.00000015,-0.00000042,-0.00000016,0.00000017,-0.
 00000016,0.,0.00000032,-0.00000040,0.00000020,0.00000024,0.00000061,-0
 .00000042,0.00000049,0.00000064,0.00000043,-0.00000009,0.00000069,-0.0
 0000042,0.00000097,0.00000039,-0.00000008,0.00000057,0.00000157,0.0000
 0018,0.00000024,0.00000086,-0.00000038,-0.00000028,0.00000079,-0.00000
 001,0.00000039,0.00000129,0.00000005,0.00000086,0.00000060,-0.00000031
 ,-0.00000011,0.00000095,-0.00000023,0.00000010,-0.00000007,0.00000042,
 0.00000021,-0.00000010,0.00000055,-0.00000057,0.00000043,-0.00000036,0
 .00000036,0.00000147,-0.00000008,0.00000131,0.00000105,-0.00000013,0.0
 0000060,0.00000043,-0.00000004,0.00000105,0.00000077,-0.00000037,0.000
 00131,0.00000054,-0.00000044,0.00000042,0.00000108,-0.00000066,0.00000
 061,-0.00000033,-0.00000044,0.00000042,0.00000021,0.00000020,0.0000001
 9,0.00000050,-0.00000040,0.00000034,-0.00000029,-0.00000021,0.00000032
 ,-0.00000078,0.00000036,0.00000116,-0.00000060,0.00000059,0.00000106,-
 0.00000033,-0.00000076,0.,-0.00000038,-0.00000033,0.00000083,-0.000000
 51,-0.00000062,0.00000007,-0.00000005,-0.00000047,0.00000092,-0.000001
 42,0.00000038,0.00000086,-0.00000122,-0.00000028,0.00000018,0.00000156
 ,-0.00000106,-0.00000072,0.00000113,0.00000040,-0.00000031,0.00000134,
 0.,-0.00000071,0.00000089,0.00000042,0.00000015,0.00000200,-0.00000011
 ,0.00000055,0.00000114,-0.00000001,0.00000026,0.00000148,-0.00000005,0
 .00000023,0.00000184,-0.00000001,0.00000078,0.00000183,0.00000010,0.00
 000038,0.00000144,-0.00000018,0.00000070,0.00000141,-0.00000061,0.0000
 0104,0.00000158,-0.00000041,0.00000086,0.00000022,0.00000009,0.0000005
 8,0.00000078,-0.00000006,0.00000094,0.00000029,-0.00000033,0.00000085,
 0.00000076,-0.00000025,-0.00000127,-0.00000014,-0.00000011,-0.00000149
 ,-0.00000083,0.00000062,-0.00000146,-0.00000055,0.00000036,-0.00000124
 ,-0.00000097,0.00000074,-0.00000099,0.00000140,0.00000115,-0.00000220,
 -0.00000299,0.00000059,-0.00000048,0.00000120,0.00000127,-0.00000113,0
 .00000061,0.00000015,-0.00000101,0.00000031,0.00000057,-0.00000160,0.0
 0000025,0.00000026,-0.00000187,0.00000054,-0.00000070,-0.00000155,0.00
 000027,0.00000058,-0.00000167,0.00000036,0.00000024,-0.00000109,0.0000
 0087,0.00000018,0.00000023,-0.00000163,-0.00000055,0.00000026,-0.00000
 132,-0.00000004,0.00000095,-0.00000110,-0.00000017,0.00000061,-0.00000
 109,-0.00000002,0.00000150,-0.00000036,-0.00000007,0.00000085,-0.00000
 047,-0.00000034,0.00000118,-0.00000086,-0.00000044,0.00000074,-0.00000
 111,-0.00000028\\\@


 THOSE WHO TRY TO PASS CHEMISTRY OFF AS A NEW SCIENCE
 SHOW HOW LITTLE KNOWLEDGE THEY HAVE OF THE CHARACTER
 AND LITERATURE OF THE ANCIENTS.
   -- NICOLAS LEFEVRE
 "COURS DE CHYMIE" J.-N.LELOUP, PARIS, 1751
 Job cpu time:       4 days  7 hours 21 minutes 49.0 seconds.
 Elapsed time:       0 days  3 hours 24 minutes  4.6 seconds.
 File lengths (MBytes):  RWF=   9930 Int=      0 D2E=      0 Chk=     87 Scr=      1
 Normal termination of Gaussian 16 at Fri Jun  7 05:24:52 2019.
