 Entering Gaussian System, Link 0=g16
 Input=clay_new-glu_gluC6-BCDR-Na2_1Me2O-bisCF3-ts-pbe0_d3bj-631gd-pcm_thf.gjf
 Output=clay_new-glu_gluC6-BCDR-Na2_1Me2O-bisCF3-ts-pbe0_d3bj-631gd-pcm_thf.out
 Initial command:
 /home/ekwan/sw/g16/l1.exe "/scratch/users/ekwan/clay_new-glu_gluC6-BCDR-Na2_1Me2O-bisCF3-ts-pbe0_d3bj-631gd-pcm_thf/Gau-60967.inp" -scrdir="/scratch/users/ekwan/clay_new-glu_gluC6-BCDR-Na2_1Me2O-bisCF3-ts-pbe0_d3bj-631gd-pcm_thf/"
 Entering Link 1 = /home/ekwan/sw/g16/l1.exe PID=     60968.
  
 Copyright (c) 1988,1990,1992,1993,1995,1998,2003,2009,2016,
            Gaussian, Inc.  All Rights Reserved.
  
 This is part of the Gaussian(R) 16 program.  It is based on
 the Gaussian(R) 09 system (copyright 2009, Gaussian, Inc.),
 the Gaussian(R) 03 system (copyright 2003, Gaussian, Inc.),
 the Gaussian(R) 98 system (copyright 1998, Gaussian, Inc.),
 the Gaussian(R) 94 system (copyright 1995, Gaussian, Inc.),
 the Gaussian 92(TM) system (copyright 1992, Gaussian, Inc.),
 the Gaussian 90(TM) system (copyright 1990, Gaussian, Inc.),
 the Gaussian 88(TM) system (copyright 1988, Gaussian, Inc.),
 the Gaussian 86(TM) system (copyright 1986, Carnegie Mellon
 University), and the Gaussian 82(TM) system (copyright 1983,
 Carnegie Mellon University). Gaussian is a federally registered
 trademark of Gaussian, Inc.
  
 This software contains proprietary and confidential information,
 including trade secrets, belonging to Gaussian, Inc.
  
 This software is provided under written license and may be
 used, copied, transmitted, or stored only in accord with that
 written license.
  
 The following legend is applicable only to US Government
 contracts under FAR:
  
                    RESTRICTED RIGHTS LEGEND
  
 Use, reproduction and disclosure by the US Government is
 subject to restrictions as set forth in subparagraphs (a)
 and (c) of the Commercial Computer Software - Restricted
 Rights clause in FAR 52.227-19.
  
 Gaussian, Inc.
 340 Quinnipiac St., Bldg. 40, Wallingford CT 06492
  
  
 ---------------------------------------------------------------
 Warning -- This program may not be used in any manner that
 competes with the business of Gaussian, Inc. or will provide
 assistance to any competitor of Gaussian, Inc.  The licensee
 of this program is prohibited from giving any competitor of
 Gaussian, Inc. access to this program.  By using this program,
 the user acknowledges that Gaussian, Inc. is engaged in the
 business of creating and licensing software in the field of
 computational chemistry and represents and warrants to the
 licensee that it is not a competitor of Gaussian, Inc. and that
 it will not use this program in any manner prohibited above.
 ---------------------------------------------------------------
  

 Cite this work as:
 Gaussian 16, Revision A.03,
 M. J. Frisch, G. W. Trucks, H. B. Schlegel, G. E. Scuseria, 
 M. A. Robb, J. R. Cheeseman, G. Scalmani, V. Barone, 
 G. A. Petersson, H. Nakatsuji, X. Li, M. Caricato, A. V. Marenich, 
 J. Bloino, B. G. Janesko, R. Gomperts, B. Mennucci, H. P. Hratchian, 
 J. V. Ortiz, A. F. Izmaylov, J. L. Sonnenberg, D. Williams-Young, 
 F. Ding, F. Lipparini, F. Egidi, J. Goings, B. Peng, A. Petrone, 
 T. Henderson, D. Ranasinghe, V. G. Zakrzewski, J. Gao, N. Rega, 
 G. Zheng, W. Liang, M. Hada, M. Ehara, K. Toyota, R. Fukuda, 
 J. Hasegawa, M. Ishida, T. Nakajima, Y. Honda, O. Kitao, H. Nakai, 
 T. Vreven, K. Throssell, J. A. Montgomery, Jr., J. E. Peralta, 
 F. Ogliaro, M. J. Bearpark, J. J. Heyd, E. N. Brothers, K. N. Kudin, 
 V. N. Staroverov, T. A. Keith, R. Kobayashi, J. Normand, 
 K. Raghavachari, A. P. Rendell, J. C. Burant, S. S. Iyengar, 
 J. Tomasi, M. Cossi, J. M. Millam, M. Klene, C. Adamo, R. Cammi, 
 J. W. Ochterski, R. L. Martin, K. Morokuma, O. Farkas, 
 J. B. Foresman, and D. J. Fox, Gaussian, Inc., Wallingford CT, 2016.
 
 ******************************************
 Gaussian 16:  AS64L-G16RevA.03 25-Dec-2016
                 5-Jun-2019 
 ******************************************
 %nprocshared=32
 Will use up to   32 processors via shared memory.
 %mem=48GB
 ----------------------------------------------------------------------
 #p opt=(ts,calcfc,noeigentest,maxstep=5) freq=noraman pop=none 6-31g* 
 scrf=(pcm,solvent=tetrahydrofuran) pbe1pbe empiricaldispersion=gd3bj
 ----------------------------------------------------------------------
 1/5=1,8=5,10=4,11=1,18=20,26=3,38=1/1,3;
 2/9=110,12=2,17=6,18=5,40=1/2;
 3/5=1,6=6,7=1,11=2,25=1,30=1,70=2201,71=2,72=20,74=-13,124=41,140=1/1,2,3;
 4//1;
 5/5=2,38=5,53=20/2;
 8/6=4,10=90,11=11/1;
 11/6=1,8=1,9=11,15=111,16=1/1,2,10;
 10/6=1,13=1/2;
 7/10=1,18=20,25=1/1,2,3,16;
 1/5=1,8=5,10=4,11=1,18=20,26=3/3(2);
 2/9=110/2;
 99//99;
 2/9=110/2;
 3/5=1,6=6,7=1,11=2,25=1,30=1,70=2205,71=1,72=20,74=-13,124=41/1,2,3;
 4/5=5,16=3,69=1/1;
 5/5=2,38=5,53=20/2;
 7//1,2,3,16;
 1/5=1,8=5,11=1,18=20,26=3/3(-5);
 2/9=110/2;
 99/9=1/99;
 Leave Link    1 at Wed Jun  5 13:46:56 2019, MaxMem=  6442450944 cpu:               5.5 elap:               0.2
 (Enter /home/ekwan/sw/g16/l101.exe)
 -----
 title
 -----
 Symbolic Z-matrix:
 Charge =  0 Multiplicity = 1
 6                    -1.73239   1.54891   2.28129 
 6                    -2.02699   2.32819   1.00655 
 6                    -1.12004   3.55051   0.91611 
 6                     0.60789   2.49041   2.18324 
 6                    -0.24419   1.23656   2.37235 
 1                    -1.2371    4.04008  -0.06182 
 1                    -1.78596   1.69706   0.14023 
 1                    -2.0238    2.16975   3.14027 
 1                     0.4141    3.15855   3.03449 
 1                    -0.01067   0.51214   1.58252 
 8                     0.23381   3.15868   0.96846 
 8                    -1.45355   4.42927   1.941 
 8                    -3.3686    2.75487   0.95414 
 8                    -2.49696   0.35875   2.26107 
 8                     0.03951   0.67611   3.64156 
 6                     2.11143   2.21659   2.09307 
 1                     2.37775   1.71351   3.04667 
 1                     2.59399   3.21971   2.15354 
 8                     2.50267   1.53411   0.97305 
 6                    -4.18811   1.93787   0.14745 
 1                    -3.85621   1.94654  -0.90092 
 1                    -4.20081   0.90292   0.50556 
 1                    -5.1986    2.35192   0.1968 
 6                    -3.03381   0.00257   3.51586 
 1                    -2.24638  -0.16936   4.25792 
 1                    -3.71295   0.78174   3.89172 
 1                    -3.5996   -0.91862   3.36562 
 6                     0.73522  -0.54997   3.57449 
 1                     0.11793  -1.32791   3.10592 
 1                     1.6712   -0.46162   3.01149 
 1                     0.96071  -0.84439   4.60324 
 6                     3.73067  -1.58602  -1.36342 
 6                     3.13967  -0.24978  -0.92779 
 6                     1.81422  -0.42427  -0.25791 
 6                     2.16389  -2.72788   0.23922 
 6                     3.61388  -2.55675  -0.19129 
 1                     1.12251   0.39223  -0.17685 
 1                     3.76336   0.17282  -0.12088 
 1                     3.17346  -1.96658  -2.22937 
 1                     1.59417  -3.18371  -0.57778 
 1                     4.19143  -2.15224   0.64928 
 8                     1.52716  -1.4418    0.47744 
 8                    -0.49255   0.061    -3.86994 
 8                     2.98045   0.71732  -1.93355 
 8                     5.09074  -1.39764  -1.67718 
 8                     4.09288  -3.82767  -0.56105 
 6                     1.97398  -3.54337   1.49151 
 1                     2.26595  -4.58101   1.26958 
 1                     0.90646  -3.54244   1.76196 
 8                     2.75746  -2.99734   2.51742 
 16                   -0.30491  -0.04315  -2.42111 
 8                    -0.17157   1.25912  -1.71539 
 8                     0.77513  -1.00863  -2.02011 
 6                    -1.79234  -0.77594  -1.75473 
 6                    -3.01281  -0.54061  -2.37459 
 6                    -1.71242  -1.53804  -0.59577 
 6                    -4.16922  -1.0713   -1.81048 
 1                    -3.05371   0.04117  -3.28939 
 6                    -2.87416  -2.07494  -0.05509 
 1                    -0.75346  -1.71465  -0.12236 
 6                    -4.1076   -1.84304  -0.65424 
 1                    -5.01266  -2.25989  -0.22633 
 6                     4.19163   1.29101  -2.4054 
 1                     4.88726   1.47743  -1.57947 
 1                     4.67673   0.64526  -3.14215 
 1                     3.92029   2.24111  -2.86991 
 6                     5.52283  -2.12871  -2.80783 
 1                     5.36561  -3.20412  -2.67418 
 1                     4.99994  -1.7987   -3.71689 
 1                     6.59068  -1.92775  -2.92057 
 6                     5.17096  -4.28056   0.23679 
 1                     6.04543  -3.6277    0.12424 
 1                     4.89014  -4.32546   1.29693 
 1                     5.42152  -5.28377  -0.11442 
 6                     2.58797  -3.68576   3.73504 
 1                     3.2252   -3.19504   4.47323 
 1                     1.54317  -3.64348   4.07488 
 1                     2.88548  -4.74046   3.64321 
 6                    -0.76878   5.66257   1.85551 
 1                    -1.16547   6.30147   2.64672 
 1                     0.31104   5.53532   1.99736 
 1                    -0.94469   6.14158   0.88152 
 11                    1.6018    2.58707  -0.87903 
 8                     3.20386   4.22639  -1.10061 
 6                     3.36987   5.3765   -1.89645 
 1                     4.29932   5.3202   -2.48066 
 1                     2.51861   5.43025  -2.57884 
 1                     3.39624   6.28467  -1.27814 
 6                     4.25472   4.05073  -0.16893 
 1                     4.30275   4.8995    0.5274 
 1                     4.03203   3.12682   0.37452 
 1                     5.22061   3.96261  -0.68667 
 6                    -5.50377  -0.7457   -2.41465 
 9                    -6.00459   0.39368  -1.89849 
 9                    -6.40649  -1.70952  -2.18245 
 9                    -5.42159  -0.57141  -3.7408 
 6                    -2.78475  -2.97894   1.13892 
 9                    -1.7239   -2.69418   1.91213 
 9                    -2.66     -4.26518   0.76728 
 9                    -3.88261  -2.90118   1.90837 
 
 Add virtual bond connecting atoms H37        and H10        Dist= 3.96D+00.
 Add virtual bond connecting atoms H37        and O19        Dist= 4.02D+00.
 Add virtual bond connecting atoms H38        and O19        Dist= 4.07D+00.
 Add virtual bond connecting atoms O52        and H37        Dist= 4.14D+00.
 Add virtual bond connecting atoms O53        and C34        Dist= 4.02D+00.
 Add virtual bond connecting atoms Na83       and O11        Dist= 4.48D+00.
 Add virtual bond connecting atoms Na83       and O19        Dist= 4.37D+00.
 Add virtual bond connecting atoms Na83       and H37        Dist= 4.45D+00.
 Add virtual bond connecting atoms Na83       and O52        Dist= 4.48D+00.
 Add virtual bond connecting atoms H91        and H18        Dist= 4.33D+00.
 ITRead=  0  0  0  0  0  0  0  0  0  0  0  0  0  0  0  0  0  0  0  0
 ITRead=  0  0  0  0  0  0  0  0  0  0  0  0  0  0  0  0  0  0  0  0
 ITRead=  0  0  0  0  0  0  0  0  0  0  0  0  0  0  0  0  0  0  0  0
 ITRead=  0  0  0  0  0  0  0  0  0  0  0  0  0  0  0  0  0  0  0  0
 ITRead=  0  0  0  0  0  0  0  0  0  0  0  0  0  0  0  0  0  0  0  0
 MicOpt= -1 -1 -1 -1 -1 -1 -1 -1 -1 -1 -1 -1 -1 -1 -1 -1 -1 -1 -1 -1
 MicOpt= -1 -1 -1 -1 -1 -1 -1 -1 -1 -1 -1 -1 -1 -1 -1 -1 -1 -1 -1 -1
 MicOpt= -1 -1 -1 -1 -1 -1 -1 -1 -1 -1 -1 -1 -1 -1 -1 -1 -1 -1 -1 -1
 MicOpt= -1 -1 -1 -1 -1 -1 -1 -1 -1 -1 -1 -1 -1 -1 -1 -1 -1 -1 -1 -1
 MicOpt= -1 -1 -1 -1 -1 -1 -1 -1 -1 -1 -1 -1 -1 -1 -1 -1 -1 -1 -1 -1
 NAtoms=    100 NQM=      100 NQMF=       0 NMMI=      0 NMMIF=      0
                NMic=       0 NMicF=      0.
                    Isotopes and Nuclear Properties:
 (Nuclear quadrupole moments (NQMom) in fm**2, nuclear magnetic moments (NMagM)
  in nuclear magnetons)

  Atom         1           2           3           4           5           6           7           8           9          10
 IAtWgt=          12          12          12          12          12           1           1           1           1           1
 AtmWgt=  12.0000000  12.0000000  12.0000000  12.0000000  12.0000000   1.0078250   1.0078250   1.0078250   1.0078250   1.0078250
 NucSpn=           0           0           0           0           0           1           1           1           1           1
 AtZEff=   0.0000000   0.0000000   0.0000000   0.0000000   0.0000000   0.0000000   0.0000000   0.0000000   0.0000000   0.0000000
 NQMom=    0.0000000   0.0000000   0.0000000   0.0000000   0.0000000   0.0000000   0.0000000   0.0000000   0.0000000   0.0000000
 NMagM=    0.0000000   0.0000000   0.0000000   0.0000000   0.0000000   2.7928460   2.7928460   2.7928460   2.7928460   2.7928460
 AtZNuc=   6.0000000   6.0000000   6.0000000   6.0000000   6.0000000   1.0000000   1.0000000   1.0000000   1.0000000   1.0000000

  Atom        11          12          13          14          15          16          17          18          19          20
 IAtWgt=          16          16          16          16          16          12           1           1          16          12
 AtmWgt=  15.9949146  15.9949146  15.9949146  15.9949146  15.9949146  12.0000000   1.0078250   1.0078250  15.9949146  12.0000000
 NucSpn=           0           0           0           0           0           0           1           1           0           0
 AtZEff=   0.0000000   0.0000000   0.0000000   0.0000000   0.0000000   0.0000000   0.0000000   0.0000000   0.0000000   0.0000000
 NQMom=    0.0000000   0.0000000   0.0000000   0.0000000   0.0000000   0.0000000   0.0000000   0.0000000   0.0000000   0.0000000
 NMagM=    0.0000000   0.0000000   0.0000000   0.0000000   0.0000000   0.0000000   2.7928460   2.7928460   0.0000000   0.0000000
 AtZNuc=   8.0000000   8.0000000   8.0000000   8.0000000   8.0000000   6.0000000   1.0000000   1.0000000   8.0000000   6.0000000

  Atom        21          22          23          24          25          26          27          28          29          30
 IAtWgt=           1           1           1          12           1           1           1          12           1           1
 AtmWgt=   1.0078250   1.0078250   1.0078250  12.0000000   1.0078250   1.0078250   1.0078250  12.0000000   1.0078250   1.0078250
 NucSpn=           1           1           1           0           1           1           1           0           1           1
 AtZEff=   0.0000000   0.0000000   0.0000000   0.0000000   0.0000000   0.0000000   0.0000000   0.0000000   0.0000000   0.0000000
 NQMom=    0.0000000   0.0000000   0.0000000   0.0000000   0.0000000   0.0000000   0.0000000   0.0000000   0.0000000   0.0000000
 NMagM=    2.7928460   2.7928460   2.7928460   0.0000000   2.7928460   2.7928460   2.7928460   0.0000000   2.7928460   2.7928460
 AtZNuc=   1.0000000   1.0000000   1.0000000   6.0000000   1.0000000   1.0000000   1.0000000   6.0000000   1.0000000   1.0000000

  Atom        31          32          33          34          35          36          37          38          39          40
 IAtWgt=           1          12          12          12          12          12           1           1           1           1
 AtmWgt=   1.0078250  12.0000000  12.0000000  12.0000000  12.0000000  12.0000000   1.0078250   1.0078250   1.0078250   1.0078250
 NucSpn=           1           0           0           0           0           0           1           1           1           1
 AtZEff=   0.0000000   0.0000000   0.0000000   0.0000000   0.0000000   0.0000000   0.0000000   0.0000000   0.0000000   0.0000000
 NQMom=    0.0000000   0.0000000   0.0000000   0.0000000   0.0000000   0.0000000   0.0000000   0.0000000   0.0000000   0.0000000
 NMagM=    2.7928460   0.0000000   0.0000000   0.0000000   0.0000000   0.0000000   2.7928460   2.7928460   2.7928460   2.7928460
 AtZNuc=   1.0000000   6.0000000   6.0000000   6.0000000   6.0000000   6.0000000   1.0000000   1.0000000   1.0000000   1.0000000

  Atom        41          42          43          44          45          46          47          48          49          50
 IAtWgt=           1          16          16          16          16          16          12           1           1          16
 AtmWgt=   1.0078250  15.9949146  15.9949146  15.9949146  15.9949146  15.9949146  12.0000000   1.0078250   1.0078250  15.9949146
 NucSpn=           1           0           0           0           0           0           0           1           1           0
 AtZEff=   0.0000000   0.0000000   0.0000000   0.0000000   0.0000000   0.0000000   0.0000000   0.0000000   0.0000000   0.0000000
 NQMom=    0.0000000   0.0000000   0.0000000   0.0000000   0.0000000   0.0000000   0.0000000   0.0000000   0.0000000   0.0000000
 NMagM=    2.7928460   0.0000000   0.0000000   0.0000000   0.0000000   0.0000000   0.0000000   2.7928460   2.7928460   0.0000000
 AtZNuc=   1.0000000   8.0000000   8.0000000   8.0000000   8.0000000   8.0000000   6.0000000   1.0000000   1.0000000   8.0000000

  Atom        51          52          53          54          55          56          57          58          59          60
 IAtWgt=          32          16          16          12          12          12          12           1          12           1
 AtmWgt=  31.9720718  15.9949146  15.9949146  12.0000000  12.0000000  12.0000000  12.0000000   1.0078250  12.0000000   1.0078250
 NucSpn=           0           0           0           0           0           0           0           1           0           1
 AtZEff=   0.0000000   0.0000000   0.0000000   0.0000000   0.0000000   0.0000000   0.0000000   0.0000000   0.0000000   0.0000000
 NQMom=    0.0000000   0.0000000   0.0000000   0.0000000   0.0000000   0.0000000   0.0000000   0.0000000   0.0000000   0.0000000
 NMagM=    0.0000000   0.0000000   0.0000000   0.0000000   0.0000000   0.0000000   0.0000000   2.7928460   0.0000000   2.7928460
 AtZNuc=  16.0000000   8.0000000   8.0000000   6.0000000   6.0000000   6.0000000   6.0000000   1.0000000   6.0000000   1.0000000

  Atom        61          62          63          64          65          66          67          68          69          70
 IAtWgt=          12           1          12           1           1           1          12           1           1           1
 AtmWgt=  12.0000000   1.0078250  12.0000000   1.0078250   1.0078250   1.0078250  12.0000000   1.0078250   1.0078250   1.0078250
 NucSpn=           0           1           0           1           1           1           0           1           1           1
 AtZEff=   0.0000000   0.0000000   0.0000000   0.0000000   0.0000000   0.0000000   0.0000000   0.0000000   0.0000000   0.0000000
 NQMom=    0.0000000   0.0000000   0.0000000   0.0000000   0.0000000   0.0000000   0.0000000   0.0000000   0.0000000   0.0000000
 NMagM=    0.0000000   2.7928460   0.0000000   2.7928460   2.7928460   2.7928460   0.0000000   2.7928460   2.7928460   2.7928460
 AtZNuc=   6.0000000   1.0000000   6.0000000   1.0000000   1.0000000   1.0000000   6.0000000   1.0000000   1.0000000   1.0000000

  Atom        71          72          73          74          75          76          77          78          79          80
 IAtWgt=          12           1           1           1          12           1           1           1          12           1
 AtmWgt=  12.0000000   1.0078250   1.0078250   1.0078250  12.0000000   1.0078250   1.0078250   1.0078250  12.0000000   1.0078250
 NucSpn=           0           1           1           1           0           1           1           1           0           1
 AtZEff=   0.0000000   0.0000000   0.0000000   0.0000000   0.0000000   0.0000000   0.0000000   0.0000000   0.0000000   0.0000000
 NQMom=    0.0000000   0.0000000   0.0000000   0.0000000   0.0000000   0.0000000   0.0000000   0.0000000   0.0000000   0.0000000
 NMagM=    0.0000000   2.7928460   2.7928460   2.7928460   0.0000000   2.7928460   2.7928460   2.7928460   0.0000000   2.7928460
 AtZNuc=   6.0000000   1.0000000   1.0000000   1.0000000   6.0000000   1.0000000   1.0000000   1.0000000   6.0000000   1.0000000

  Atom        81          82          83          84          85          86          87          88          89          90
 IAtWgt=           1           1          23          16          12           1           1           1          12           1
 AtmWgt=   1.0078250   1.0078250  22.9897697  15.9949146  12.0000000   1.0078250   1.0078250   1.0078250  12.0000000   1.0078250
 NucSpn=           1           1           3           0           0           1           1           1           0           1
 AtZEff=   0.0000000   0.0000000   0.0000000   0.0000000   0.0000000   0.0000000   0.0000000   0.0000000   0.0000000   0.0000000
 NQMom=    0.0000000   0.0000000  10.4000000   0.0000000   0.0000000   0.0000000   0.0000000   0.0000000   0.0000000   0.0000000
 NMagM=    2.7928460   2.7928460   2.2175200   0.0000000   0.0000000   2.7928460   2.7928460   2.7928460   0.0000000   2.7928460
 AtZNuc=   1.0000000   1.0000000  11.0000000   8.0000000   6.0000000   1.0000000   1.0000000   1.0000000   6.0000000   1.0000000

  Atom        91          92          93          94          95          96          97          98          99         100
 IAtWgt=           1           1          12          19          19          19          12          19          19          19
 AtmWgt=   1.0078250   1.0078250  12.0000000  18.9984033  18.9984033  18.9984033  12.0000000  18.9984033  18.9984033  18.9984033
 NucSpn=           1           1           0           1           1           1           0           1           1           1
 AtZEff=   0.0000000   0.0000000   0.0000000   0.0000000   0.0000000   0.0000000   0.0000000   0.0000000   0.0000000   0.0000000
 NQMom=    0.0000000   0.0000000   0.0000000   0.0000000   0.0000000   0.0000000   0.0000000   0.0000000   0.0000000   0.0000000
 NMagM=    2.7928460   2.7928460   0.0000000   2.6288670   2.6288670   2.6288670   0.0000000   2.6288670   2.6288670   2.6288670
 AtZNuc=   1.0000000   1.0000000   6.0000000   9.0000000   9.0000000   9.0000000   6.0000000   9.0000000   9.0000000   9.0000000
 Leave Link  101 at Wed Jun  5 13:46:57 2019, MaxMem=  6442450944 cpu:              17.6 elap:               0.7
 (Enter /home/ekwan/sw/g16/l103.exe)

 GradGradGradGradGradGradGradGradGradGradGradGradGradGradGradGradGradGrad
 Berny optimization.
 Initialization pass.
                           ----------------------------
                           !    Initial Parameters    !
                           ! (Angstroms and Degrees)  !
 --------------------------                            --------------------------
 ! Name  Definition              Value          Derivative Info.                !
 --------------------------------------------------------------------------------
 ! R1    R(1,2)                  1.5228         calculate D2E/DX2 analytically  !
 ! R2    R(1,5)                  1.5234         calculate D2E/DX2 analytically  !
 ! R3    R(1,8)                  1.0992         calculate D2E/DX2 analytically  !
 ! R4    R(1,14)                 1.4147         calculate D2E/DX2 analytically  !
 ! R5    R(2,3)                  1.5247         calculate D2E/DX2 analytically  !
 ! R6    R(2,7)                  1.0986         calculate D2E/DX2 analytically  !
 ! R7    R(2,13)                 1.4088         calculate D2E/DX2 analytically  !
 ! R8    R(3,6)                  1.0999         calculate D2E/DX2 analytically  !
 ! R9    R(3,11)                 1.4104         calculate D2E/DX2 analytically  !
 ! R10   R(3,12)                 1.3906         calculate D2E/DX2 analytically  !
 ! R11   R(4,5)                  1.5277         calculate D2E/DX2 analytically  !
 ! R12   R(4,9)                  1.0994         calculate D2E/DX2 analytically  !
 ! R13   R(4,11)                 1.436          calculate D2E/DX2 analytically  !
 ! R14   R(4,16)                 1.5309         calculate D2E/DX2 analytically  !
 ! R15   R(5,10)                 1.0969         calculate D2E/DX2 analytically  !
 ! R16   R(5,15)                 1.4162         calculate D2E/DX2 analytically  !
 ! R17   R(10,37)                2.0962         calculate D2E/DX2 analytically  !
 ! R18   R(11,83)                2.3688         calculate D2E/DX2 analytically  !
 ! R19   R(12,79)                1.4132         calculate D2E/DX2 analytically  !
 ! R20   R(13,20)                1.4106         calculate D2E/DX2 analytically  !
 ! R21   R(14,24)                1.4105         calculate D2E/DX2 analytically  !
 ! R22   R(15,28)                1.4113         calculate D2E/DX2 analytically  !
 ! R23   R(16,17)                1.1106         calculate D2E/DX2 analytically  !
 ! R24   R(16,18)                1.1148         calculate D2E/DX2 analytically  !
 ! R25   R(16,19)                1.3687         calculate D2E/DX2 analytically  !
 ! R26   R(18,91)                2.2894         calculate D2E/DX2 analytically  !
 ! R27   R(19,37)                2.1286         calculate D2E/DX2 analytically  !
 ! R28   R(19,38)                2.1539         calculate D2E/DX2 analytically  !
 ! R29   R(19,83)                2.3131         calculate D2E/DX2 analytically  !
 ! R30   R(20,21)                1.0997         calculate D2E/DX2 analytically  !
 ! R31   R(20,22)                1.0952         calculate D2E/DX2 analytically  !
 ! R32   R(20,23)                1.0931         calculate D2E/DX2 analytically  !
 ! R33   R(24,25)                1.0956         calculate D2E/DX2 analytically  !
 ! R34   R(24,26)                1.0998         calculate D2E/DX2 analytically  !
 ! R35   R(24,27)                1.0915         calculate D2E/DX2 analytically  !
 ! R36   R(28,29)                1.0981         calculate D2E/DX2 analytically  !
 ! R37   R(28,30)                1.0958         calculate D2E/DX2 analytically  !
 ! R38   R(28,31)                1.0936         calculate D2E/DX2 analytically  !
 ! R39   R(32,33)                1.5247         calculate D2E/DX2 analytically  !
 ! R40   R(32,36)                1.5264         calculate D2E/DX2 analytically  !
 ! R41   R(32,39)                1.0978         calculate D2E/DX2 analytically  !
 ! R42   R(32,45)                1.4084         calculate D2E/DX2 analytically  !
 ! R43   R(33,34)                1.4953         calculate D2E/DX2 analytically  !
 ! R44   R(33,38)                1.1039         calculate D2E/DX2 analytically  !
 ! R45   R(33,44)                1.4043         calculate D2E/DX2 analytically  !
 ! R46   R(34,37)                1.0732         calculate D2E/DX2 analytically  !
 ! R47   R(34,42)                1.2878         calculate D2E/DX2 analytically  !
 ! R48   R(34,53)                2.1276         calculate D2E/DX2 analytically  !
 ! R49   R(35,36)                1.5222         calculate D2E/DX2 analytically  !
 ! R50   R(35,40)                1.0954         calculate D2E/DX2 analytically  !
 ! R51   R(35,42)                1.4547         calculate D2E/DX2 analytically  !
 ! R52   R(35,47)                1.5064         calculate D2E/DX2 analytically  !
 ! R53   R(36,41)                1.0971         calculate D2E/DX2 analytically  !
 ! R54   R(36,46)                1.4076         calculate D2E/DX2 analytically  !
 ! R55   R(37,52)                2.1893         calculate D2E/DX2 analytically  !
 ! R56   R(37,83)                2.3537         calculate D2E/DX2 analytically  !
 ! R57   R(43,51)                1.4646         calculate D2E/DX2 analytically  !
 ! R58   R(44,63)                1.4208         calculate D2E/DX2 analytically  !
 ! R59   R(45,67)                1.414          calculate D2E/DX2 analytically  !
 ! R60   R(46,71)                1.4156         calculate D2E/DX2 analytically  !
 ! R61   R(47,48)                1.1005         calculate D2E/DX2 analytically  !
 ! R62   R(47,49)                1.1012         calculate D2E/DX2 analytically  !
 ! R63   R(47,50)                1.4016         calculate D2E/DX2 analytically  !
 ! R64   R(50,75)                1.409          calculate D2E/DX2 analytically  !
 ! R65   R(51,52)                1.4872         calculate D2E/DX2 analytically  !
 ! R66   R(51,53)                1.5031         calculate D2E/DX2 analytically  !
 ! R67   R(51,54)                1.787          calculate D2E/DX2 analytically  !
 ! R68   R(52,83)                2.3681         calculate D2E/DX2 analytically  !
 ! R69   R(54,55)                1.3889         calculate D2E/DX2 analytically  !
 ! R70   R(54,56)                1.3894         calculate D2E/DX2 analytically  !
 ! R71   R(55,57)                1.3918         calculate D2E/DX2 analytically  !
 ! R72   R(55,58)                1.0849         calculate D2E/DX2 analytically  !
 ! R73   R(56,59)                1.3893         calculate D2E/DX2 analytically  !
 ! R74   R(56,60)                1.0839         calculate D2E/DX2 analytically  !
 ! R75   R(57,61)                1.3915         calculate D2E/DX2 analytically  !
 ! R76   R(57,93)                1.5007         calculate D2E/DX2 analytically  !
 ! R77   R(59,61)                1.3907         calculate D2E/DX2 analytically  !
 ! R78   R(59,97)                1.5003         calculate D2E/DX2 analytically  !
 ! R79   R(61,62)                1.0844         calculate D2E/DX2 analytically  !
 ! R80   R(63,64)                1.0958         calculate D2E/DX2 analytically  !
 ! R81   R(63,65)                1.0932         calculate D2E/DX2 analytically  !
 ! R82   R(63,66)                1.0918         calculate D2E/DX2 analytically  !
 ! R83   R(67,68)                1.095          calculate D2E/DX2 analytically  !
 ! R84   R(67,69)                1.0994         calculate D2E/DX2 analytically  !
 ! R85   R(67,70)                1.0924         calculate D2E/DX2 analytically  !
 ! R86   R(71,72)                1.0971         calculate D2E/DX2 analytically  !
 ! R87   R(71,73)                1.0976         calculate D2E/DX2 analytically  !
 ! R88   R(71,74)                1.092          calculate D2E/DX2 analytically  !
 ! R89   R(75,76)                1.0917         calculate D2E/DX2 analytically  !
 ! R90   R(75,77)                1.0995         calculate D2E/DX2 analytically  !
 ! R91   R(75,78)                1.0997         calculate D2E/DX2 analytically  !
 ! R92   R(79,80)                1.0916         calculate D2E/DX2 analytically  !
 ! R93   R(79,81)                1.0965         calculate D2E/DX2 analytically  !
 ! R94   R(79,82)                1.0996         calculate D2E/DX2 analytically  !
 ! R95   R(83,84)                2.3028         calculate D2E/DX2 analytically  !
 ! R96   R(84,85)                1.4084         calculate D2E/DX2 analytically  !
 ! R97   R(84,89)                1.4153         calculate D2E/DX2 analytically  !
 ! R98   R(85,86)                1.0993         calculate D2E/DX2 analytically  !
 ! R99   R(85,87)                1.0923         calculate D2E/DX2 analytically  !
 ! R100  R(85,88)                1.099          calculate D2E/DX2 analytically  !
 ! R101  R(89,90)                1.0989         calculate D2E/DX2 analytically  !
 ! R102  R(89,91)                1.0948         calculate D2E/DX2 analytically  !
 ! R103  R(89,92)                1.0994         calculate D2E/DX2 analytically  !
 ! R104  R(93,94)                1.3474         calculate D2E/DX2 analytically  !
 ! R105  R(93,95)                1.3408         calculate D2E/DX2 analytically  !
 ! R106  R(93,96)                1.3401         calculate D2E/DX2 analytically  !
 ! R107  R(97,98)                1.3433         calculate D2E/DX2 analytically  !
 ! R108  R(97,99)                1.3447         calculate D2E/DX2 analytically  !
 ! R109  R(97,100)               1.3429         calculate D2E/DX2 analytically  !
 ! A1    A(2,1,5)              110.1179         calculate D2E/DX2 analytically  !
 ! A2    A(2,1,8)              108.2905         calculate D2E/DX2 analytically  !
 ! A3    A(2,1,14)             108.2997         calculate D2E/DX2 analytically  !
 ! A4    A(5,1,8)              109.1533         calculate D2E/DX2 analytically  !
 ! A5    A(5,1,14)             110.875          calculate D2E/DX2 analytically  !
 ! A6    A(8,1,14)             110.0624         calculate D2E/DX2 analytically  !
 ! A7    A(1,2,3)              110.1706         calculate D2E/DX2 analytically  !
 ! A8    A(1,2,7)              108.8854         calculate D2E/DX2 analytically  !
 ! A9    A(1,2,13)             111.7376         calculate D2E/DX2 analytically  !
 ! A10   A(3,2,7)              106.455          calculate D2E/DX2 analytically  !
 ! A11   A(3,2,13)             108.7507         calculate D2E/DX2 analytically  !
 ! A12   A(7,2,13)             110.7068         calculate D2E/DX2 analytically  !
 ! A13   A(2,3,6)              110.2591         calculate D2E/DX2 analytically  !
 ! A14   A(2,3,11)             110.2468         calculate D2E/DX2 analytically  !
 ! A15   A(2,3,12)             108.6758         calculate D2E/DX2 analytically  !
 ! A16   A(6,3,11)             105.0005         calculate D2E/DX2 analytically  !
 ! A17   A(6,3,12)             110.3944         calculate D2E/DX2 analytically  !
 ! A18   A(11,3,12)            112.2356         calculate D2E/DX2 analytically  !
 ! A19   A(5,4,9)              107.7362         calculate D2E/DX2 analytically  !
 ! A20   A(5,4,11)             109.9597         calculate D2E/DX2 analytically  !
 ! A21   A(5,4,16)             114.0956         calculate D2E/DX2 analytically  !
 ! A22   A(9,4,11)             109.0424         calculate D2E/DX2 analytically  !
 ! A23   A(9,4,16)             109.1129         calculate D2E/DX2 analytically  !
 ! A24   A(11,4,16)            106.8128         calculate D2E/DX2 analytically  !
 ! A25   A(1,5,4)              111.6659         calculate D2E/DX2 analytically  !
 ! A26   A(1,5,10)             107.4785         calculate D2E/DX2 analytically  !
 ! A27   A(1,5,15)             109.2947         calculate D2E/DX2 analytically  !
 ! A28   A(4,5,10)             109.5224         calculate D2E/DX2 analytically  !
 ! A29   A(4,5,15)             108.9063         calculate D2E/DX2 analytically  !
 ! A30   A(10,5,15)            109.9576         calculate D2E/DX2 analytically  !
 ! A31   A(5,10,37)            139.2218         calculate D2E/DX2 analytically  !
 ! A32   A(3,11,4)             114.2511         calculate D2E/DX2 analytically  !
 ! A33   A(3,11,83)            126.3301         calculate D2E/DX2 analytically  !
 ! A34   A(4,11,83)            113.392          calculate D2E/DX2 analytically  !
 ! A35   A(3,12,79)            112.9962         calculate D2E/DX2 analytically  !
 ! A36   A(2,13,20)            113.5225         calculate D2E/DX2 analytically  !
 ! A37   A(1,14,24)            113.9172         calculate D2E/DX2 analytically  !
 ! A38   A(5,15,28)            113.5769         calculate D2E/DX2 analytically  !
 ! A39   A(4,16,17)            105.4242         calculate D2E/DX2 analytically  !
 ! A40   A(4,16,18)            105.1283         calculate D2E/DX2 analytically  !
 ! A41   A(4,16,19)            114.7158         calculate D2E/DX2 analytically  !
 ! A42   A(17,16,18)           104.9058         calculate D2E/DX2 analytically  !
 ! A43   A(17,16,19)           114.0939         calculate D2E/DX2 analytically  !
 ! A44   A(18,16,19)           111.6753         calculate D2E/DX2 analytically  !
 ! A45   A(16,18,91)           101.1415         calculate D2E/DX2 analytically  !
 ! A46   A(16,19,37)           121.6157         calculate D2E/DX2 analytically  !
 ! A47   A(16,19,38)           153.907          calculate D2E/DX2 analytically  !
 ! A48   A(16,19,83)           108.4758         calculate D2E/DX2 analytically  !
 ! A49   A(37,19,38)            76.4729         calculate D2E/DX2 analytically  !
 ! A50   A(38,19,83)            96.2578         calculate D2E/DX2 analytically  !
 ! A51   A(13,20,21)           111.4246         calculate D2E/DX2 analytically  !
 ! A52   A(13,20,22)           111.5344         calculate D2E/DX2 analytically  !
 ! A53   A(13,20,23)           106.9683         calculate D2E/DX2 analytically  !
 ! A54   A(21,20,22)           108.8241         calculate D2E/DX2 analytically  !
 ! A55   A(21,20,23)           108.6047         calculate D2E/DX2 analytically  !
 ! A56   A(22,20,23)           109.417          calculate D2E/DX2 analytically  !
 ! A57   A(14,24,25)           111.6304         calculate D2E/DX2 analytically  !
 ! A58   A(14,24,26)           111.1087         calculate D2E/DX2 analytically  !
 ! A59   A(14,24,27)           106.7365         calculate D2E/DX2 analytically  !
 ! A60   A(25,24,26)           108.8766         calculate D2E/DX2 analytically  !
 ! A61   A(25,24,27)           109.4734         calculate D2E/DX2 analytically  !
 ! A62   A(26,24,27)           108.9579         calculate D2E/DX2 analytically  !
 ! A63   A(15,28,29)           111.0161         calculate D2E/DX2 analytically  !
 ! A64   A(15,28,30)           112.0506         calculate D2E/DX2 analytically  !
 ! A65   A(15,28,31)           106.9082         calculate D2E/DX2 analytically  !
 ! A66   A(29,28,30)           108.5448         calculate D2E/DX2 analytically  !
 ! A67   A(29,28,31)           109.0625         calculate D2E/DX2 analytically  !
 ! A68   A(30,28,31)           109.2022         calculate D2E/DX2 analytically  !
 ! A69   A(33,32,36)           107.9566         calculate D2E/DX2 analytically  !
 ! A70   A(33,32,39)           109.4171         calculate D2E/DX2 analytically  !
 ! A71   A(33,32,45)           108.7079         calculate D2E/DX2 analytically  !
 ! A72   A(36,32,39)           110.2694         calculate D2E/DX2 analytically  !
 ! A73   A(36,32,45)           109.2696         calculate D2E/DX2 analytically  !
 ! A74   A(39,32,45)           111.1484         calculate D2E/DX2 analytically  !
 ! A75   A(32,33,34)           111.6736         calculate D2E/DX2 analytically  !
 ! A76   A(32,33,38)           108.9866         calculate D2E/DX2 analytically  !
 ! A77   A(32,33,44)           116.2867         calculate D2E/DX2 analytically  !
 ! A78   A(34,33,38)           102.5917         calculate D2E/DX2 analytically  !
 ! A79   A(34,33,44)           107.4995         calculate D2E/DX2 analytically  !
 ! A80   A(38,33,44)           108.9003         calculate D2E/DX2 analytically  !
 ! A81   A(33,34,37)           121.0897         calculate D2E/DX2 analytically  !
 ! A82   A(33,34,42)           123.0641         calculate D2E/DX2 analytically  !
 ! A83   A(33,34,53)            95.3884         calculate D2E/DX2 analytically  !
 ! A84   A(37,34,42)           114.4775         calculate D2E/DX2 analytically  !
 ! A85   A(37,34,53)            87.5201         calculate D2E/DX2 analytically  !
 ! A86   A(42,34,53)            98.4566         calculate D2E/DX2 analytically  !
 ! A87   A(36,35,40)           109.3466         calculate D2E/DX2 analytically  !
 ! A88   A(36,35,42)           111.3371         calculate D2E/DX2 analytically  !
 ! A89   A(36,35,47)           114.5855         calculate D2E/DX2 analytically  !
 ! A90   A(40,35,42)           105.2118         calculate D2E/DX2 analytically  !
 ! A91   A(40,35,47)           109.2201         calculate D2E/DX2 analytically  !
 ! A92   A(42,35,47)           106.6952         calculate D2E/DX2 analytically  !
 ! A93   A(32,36,35)           111.1965         calculate D2E/DX2 analytically  !
 ! A94   A(32,36,41)           108.275          calculate D2E/DX2 analytically  !
 ! A95   A(32,36,46)           110.2699         calculate D2E/DX2 analytically  !
 ! A96   A(35,36,41)           109.039          calculate D2E/DX2 analytically  !
 ! A97   A(35,36,46)           107.2734         calculate D2E/DX2 analytically  !
 ! A98   A(41,36,46)           110.7934         calculate D2E/DX2 analytically  !
 ! A99   A(10,37,19)            82.323          calculate D2E/DX2 analytically  !
 ! A100  A(10,37,34)           117.0882         calculate D2E/DX2 analytically  !
 ! A101  A(10,37,52)           104.3381         calculate D2E/DX2 analytically  !
 ! A102  A(10,37,83)           107.8863         calculate D2E/DX2 analytically  !
 ! A103  A(19,37,34)            91.7778         calculate D2E/DX2 analytically  !
 ! A104  A(19,37,52)           123.3987         calculate D2E/DX2 analytically  !
 ! A105  A(34,37,52)           128.9881         calculate D2E/DX2 analytically  !
 ! A106  A(34,37,83)           123.7574         calculate D2E/DX2 analytically  !
 ! A107  A(19,38,33)           106.4093         calculate D2E/DX2 analytically  !
 ! A108  A(34,42,35)           120.4947         calculate D2E/DX2 analytically  !
 ! A109  A(33,44,63)           114.7872         calculate D2E/DX2 analytically  !
 ! A110  A(32,45,67)           113.8311         calculate D2E/DX2 analytically  !
 ! A111  A(36,46,71)           113.5758         calculate D2E/DX2 analytically  !
 ! A112  A(35,47,48)           108.0181         calculate D2E/DX2 analytically  !
 ! A113  A(35,47,49)           109.0204         calculate D2E/DX2 analytically  !
 ! A114  A(35,47,50)           109.094          calculate D2E/DX2 analytically  !
 ! A115  A(48,47,49)           107.9079         calculate D2E/DX2 analytically  !
 ! A116  A(48,47,50)           111.5068         calculate D2E/DX2 analytically  !
 ! A117  A(49,47,50)           111.2096         calculate D2E/DX2 analytically  !
 ! A118  A(47,50,75)           112.0219         calculate D2E/DX2 analytically  !
 ! A119  A(43,51,52)           114.7485         calculate D2E/DX2 analytically  !
 ! A120  A(43,51,53)           113.6796         calculate D2E/DX2 analytically  !
 ! A121  A(43,51,54)           106.942          calculate D2E/DX2 analytically  !
 ! A122  A(52,51,53)           111.8031         calculate D2E/DX2 analytically  !
 ! A123  A(52,51,54)           104.8771         calculate D2E/DX2 analytically  !
 ! A124  A(53,51,54)           103.603          calculate D2E/DX2 analytically  !
 ! A125  A(37,52,51)            92.2781         calculate D2E/DX2 analytically  !
 ! A126  A(51,52,83)           136.5345         calculate D2E/DX2 analytically  !
 ! A127  A(34,53,51)           113.2952         calculate D2E/DX2 analytically  !
 ! A128  A(51,54,55)           119.702          calculate D2E/DX2 analytically  !
 ! A129  A(51,54,56)           119.2161         calculate D2E/DX2 analytically  !
 ! A130  A(55,54,56)           121.0478         calculate D2E/DX2 analytically  !
 ! A131  A(54,55,57)           118.9867         calculate D2E/DX2 analytically  !
 ! A132  A(54,55,58)           120.0195         calculate D2E/DX2 analytically  !
 ! A133  A(57,55,58)           120.9913         calculate D2E/DX2 analytically  !
 ! A134  A(54,56,59)           119.2419         calculate D2E/DX2 analytically  !
 ! A135  A(54,56,60)           120.3034         calculate D2E/DX2 analytically  !
 ! A136  A(59,56,60)           120.4541         calculate D2E/DX2 analytically  !
 ! A137  A(55,57,61)           120.7608         calculate D2E/DX2 analytically  !
 ! A138  A(55,57,93)           119.5371         calculate D2E/DX2 analytically  !
 ! A139  A(61,57,93)           119.6196         calculate D2E/DX2 analytically  !
 ! A140  A(56,59,61)           120.6318         calculate D2E/DX2 analytically  !
 ! A141  A(56,59,97)           119.5208         calculate D2E/DX2 analytically  !
 ! A142  A(61,59,97)           119.7485         calculate D2E/DX2 analytically  !
 ! A143  A(57,61,59)           119.323          calculate D2E/DX2 analytically  !
 ! A144  A(57,61,62)           120.2717         calculate D2E/DX2 analytically  !
 ! A145  A(59,61,62)           120.4052         calculate D2E/DX2 analytically  !
 ! A146  A(44,63,64)           111.0708         calculate D2E/DX2 analytically  !
 ! A147  A(44,63,65)           111.3194         calculate D2E/DX2 analytically  !
 ! A148  A(44,63,66)           106.3081         calculate D2E/DX2 analytically  !
 ! A149  A(64,63,65)           109.0717         calculate D2E/DX2 analytically  !
 ! A150  A(64,63,66)           109.2928         calculate D2E/DX2 analytically  !
 ! A151  A(65,63,66)           109.7288         calculate D2E/DX2 analytically  !
 ! A152  A(45,67,68)           111.4865         calculate D2E/DX2 analytically  !
 ! A153  A(45,67,69)           111.1393         calculate D2E/DX2 analytically  !
 ! A154  A(45,67,70)           106.6249         calculate D2E/DX2 analytically  !
 ! A155  A(68,67,69)           109.1122         calculate D2E/DX2 analytically  !
 ! A156  A(68,67,70)           109.487          calculate D2E/DX2 analytically  !
 ! A157  A(69,67,70)           108.9266         calculate D2E/DX2 analytically  !
 ! A158  A(46,71,72)           111.0285         calculate D2E/DX2 analytically  !
 ! A159  A(46,71,73)           111.2599         calculate D2E/DX2 analytically  !
 ! A160  A(46,71,74)           106.701          calculate D2E/DX2 analytically  !
 ! A161  A(72,71,73)           109.1092         calculate D2E/DX2 analytically  !
 ! A162  A(72,71,74)           109.3173         calculate D2E/DX2 analytically  !
 ! A163  A(73,71,74)           109.375          calculate D2E/DX2 analytically  !
 ! A164  A(50,75,76)           107.1279         calculate D2E/DX2 analytically  !
 ! A165  A(50,75,77)           111.2611         calculate D2E/DX2 analytically  !
 ! A166  A(50,75,78)           111.3395         calculate D2E/DX2 analytically  !
 ! A167  A(76,75,77)           109.1709         calculate D2E/DX2 analytically  !
 ! A168  A(76,75,78)           109.2484         calculate D2E/DX2 analytically  !
 ! A169  A(77,75,78)           108.6494         calculate D2E/DX2 analytically  !
 ! A170  A(12,79,80)           106.9081         calculate D2E/DX2 analytically  !
 ! A171  A(12,79,81)           111.5964         calculate D2E/DX2 analytically  !
 ! A172  A(12,79,82)           110.8689         calculate D2E/DX2 analytically  !
 ! A173  A(80,79,81)           109.3921         calculate D2E/DX2 analytically  !
 ! A174  A(80,79,82)           109.2038         calculate D2E/DX2 analytically  !
 ! A175  A(81,79,82)           108.8264         calculate D2E/DX2 analytically  !
 ! A176  A(11,83,19)            73.1594         calculate D2E/DX2 analytically  !
 ! A177  A(11,83,37)            82.805          calculate D2E/DX2 analytically  !
 ! A178  A(11,83,52)            88.7568         calculate D2E/DX2 analytically  !
 ! A179  A(11,83,84)           107.7597         calculate D2E/DX2 analytically  !
 ! A180  A(19,83,52)           108.6127         calculate D2E/DX2 analytically  !
 ! A181  A(19,83,84)            97.4783         calculate D2E/DX2 analytically  !
 ! A182  A(37,83,84)           146.5304         calculate D2E/DX2 analytically  !
 ! A183  A(52,83,84)           152.3983         calculate D2E/DX2 analytically  !
 ! A184  A(83,84,85)           135.8626         calculate D2E/DX2 analytically  !
 ! A185  A(83,84,89)           111.3981         calculate D2E/DX2 analytically  !
 ! A186  A(85,84,89)           112.6931         calculate D2E/DX2 analytically  !
 ! A187  A(84,85,86)           110.9863         calculate D2E/DX2 analytically  !
 ! A188  A(84,85,87)           107.5375         calculate D2E/DX2 analytically  !
 ! A189  A(84,85,88)           111.0835         calculate D2E/DX2 analytically  !
 ! A190  A(86,85,87)           109.2348         calculate D2E/DX2 analytically  !
 ! A191  A(86,85,88)           108.7254         calculate D2E/DX2 analytically  !
 ! A192  A(87,85,88)           109.2388         calculate D2E/DX2 analytically  !
 ! A193  A(84,89,90)           110.7146         calculate D2E/DX2 analytically  !
 ! A194  A(84,89,91)           106.2886         calculate D2E/DX2 analytically  !
 ! A195  A(84,89,92)           110.6244         calculate D2E/DX2 analytically  !
 ! A196  A(90,89,91)           110.2536         calculate D2E/DX2 analytically  !
 ! A197  A(90,89,92)           108.7785         calculate D2E/DX2 analytically  !
 ! A198  A(91,89,92)           110.1711         calculate D2E/DX2 analytically  !
 ! A199  A(18,91,89)           118.6367         calculate D2E/DX2 analytically  !
 ! A200  A(57,93,94)           111.0878         calculate D2E/DX2 analytically  !
 ! A201  A(57,93,95)           111.9037         calculate D2E/DX2 analytically  !
 ! A202  A(57,93,96)           111.845          calculate D2E/DX2 analytically  !
 ! A203  A(94,93,95)           106.934          calculate D2E/DX2 analytically  !
 ! A204  A(94,93,96)           106.9723         calculate D2E/DX2 analytically  !
 ! A205  A(95,93,96)           107.8277         calculate D2E/DX2 analytically  !
 ! A206  A(59,97,98)           112.1753         calculate D2E/DX2 analytically  !
 ! A207  A(59,97,99)           111.2193         calculate D2E/DX2 analytically  !
 ! A208  A(59,97,100)          111.8633         calculate D2E/DX2 analytically  !
 ! A209  A(98,97,99)           106.7747         calculate D2E/DX2 analytically  !
 ! A210  A(98,97,100)          107.6714         calculate D2E/DX2 analytically  !
 ! A211  A(99,97,100)          106.8336         calculate D2E/DX2 analytically  !
 ! D1    D(5,1,2,3)            -52.8905         calculate D2E/DX2 analytically  !
 ! D2    D(5,1,2,7)             63.5075         calculate D2E/DX2 analytically  !
 ! D3    D(5,1,2,13)          -173.8968         calculate D2E/DX2 analytically  !
 ! D4    D(8,1,2,3)             66.3899         calculate D2E/DX2 analytically  !
 ! D5    D(8,1,2,7)           -177.212          calculate D2E/DX2 analytically  !
 ! D6    D(8,1,2,13)           -54.6164         calculate D2E/DX2 analytically  !
 ! D7    D(14,1,2,3)          -174.279          calculate D2E/DX2 analytically  !
 ! D8    D(14,1,2,7)           -57.881          calculate D2E/DX2 analytically  !
 ! D9    D(14,1,2,13)           64.7146         calculate D2E/DX2 analytically  !
 ! D10   D(2,1,5,4)             51.5453         calculate D2E/DX2 analytically  !
 ! D11   D(2,1,5,10)           -68.5922         calculate D2E/DX2 analytically  !
 ! D12   D(2,1,5,15)           172.1078         calculate D2E/DX2 analytically  !
 ! D13   D(8,1,5,4)            -67.208          calculate D2E/DX2 analytically  !
 ! D14   D(8,1,5,10)           172.6545         calculate D2E/DX2 analytically  !
 ! D15   D(8,1,5,15)            53.3545         calculate D2E/DX2 analytically  !
 ! D16   D(14,1,5,4)           171.385          calculate D2E/DX2 analytically  !
 ! D17   D(14,1,5,10)           51.2475         calculate D2E/DX2 analytically  !
 ! D18   D(14,1,5,15)          -68.0525         calculate D2E/DX2 analytically  !
 ! D19   D(2,1,14,24)         -140.8401         calculate D2E/DX2 analytically  !
 ! D20   D(5,1,14,24)           98.2396         calculate D2E/DX2 analytically  !
 ! D21   D(8,1,14,24)          -22.6314         calculate D2E/DX2 analytically  !
 ! D22   D(1,2,3,6)            172.5879         calculate D2E/DX2 analytically  !
 ! D23   D(1,2,3,11)            57.1069         calculate D2E/DX2 analytically  !
 ! D24   D(1,2,3,12)           -66.2898         calculate D2E/DX2 analytically  !
 ! D25   D(7,2,3,6)             54.6801         calculate D2E/DX2 analytically  !
 ! D26   D(7,2,3,11)           -60.8009         calculate D2E/DX2 analytically  !
 ! D27   D(7,2,3,12)           175.8024         calculate D2E/DX2 analytically  !
 ! D28   D(13,2,3,6)           -64.6352         calculate D2E/DX2 analytically  !
 ! D29   D(13,2,3,11)          179.8838         calculate D2E/DX2 analytically  !
 ! D30   D(13,2,3,12)           56.4871         calculate D2E/DX2 analytically  !
 ! D31   D(1,2,13,20)          -99.9318         calculate D2E/DX2 analytically  !
 ! D32   D(3,2,13,20)          138.2405         calculate D2E/DX2 analytically  !
 ! D33   D(7,2,13,20)           21.6176         calculate D2E/DX2 analytically  !
 ! D34   D(2,3,11,4)           -61.3274         calculate D2E/DX2 analytically  !
 ! D35   D(2,3,11,83)           89.3407         calculate D2E/DX2 analytically  !
 ! D36   D(6,3,11,4)           179.9265         calculate D2E/DX2 analytically  !
 ! D37   D(6,3,11,83)          -29.4054         calculate D2E/DX2 analytically  !
 ! D38   D(12,3,11,4)           59.9724         calculate D2E/DX2 analytically  !
 ! D39   D(12,3,11,83)        -149.3595         calculate D2E/DX2 analytically  !
 ! D40   D(2,3,12,79)         -173.41           calculate D2E/DX2 analytically  !
 ! D41   D(6,3,12,79)          -52.3709         calculate D2E/DX2 analytically  !
 ! D42   D(11,3,12,79)          64.393          calculate D2E/DX2 analytically  !
 ! D43   D(9,4,5,1)             65.7893         calculate D2E/DX2 analytically  !
 ! D44   D(9,4,5,10)          -175.2804         calculate D2E/DX2 analytically  !
 ! D45   D(9,4,5,15)           -54.9999         calculate D2E/DX2 analytically  !
 ! D46   D(11,4,5,1)           -52.9351         calculate D2E/DX2 analytically  !
 ! D47   D(11,4,5,10)           65.9952         calculate D2E/DX2 analytically  !
 ! D48   D(11,4,5,15)         -173.7243         calculate D2E/DX2 analytically  !
 ! D49   D(16,4,5,1)          -172.9036         calculate D2E/DX2 analytically  !
 ! D50   D(16,4,5,10)          -53.9733         calculate D2E/DX2 analytically  !
 ! D51   D(16,4,5,15)           66.3071         calculate D2E/DX2 analytically  !
 ! D52   D(5,4,11,3)            58.8746         calculate D2E/DX2 analytically  !
 ! D53   D(5,4,11,83)          -95.6587         calculate D2E/DX2 analytically  !
 ! D54   D(9,4,11,3)           -59.044          calculate D2E/DX2 analytically  !
 ! D55   D(9,4,11,83)          146.4227         calculate D2E/DX2 analytically  !
 ! D56   D(16,4,11,3)         -176.8284         calculate D2E/DX2 analytically  !
 ! D57   D(16,4,11,83)          28.6383         calculate D2E/DX2 analytically  !
 ! D58   D(5,4,16,17)          -59.0246         calculate D2E/DX2 analytically  !
 ! D59   D(5,4,16,18)         -169.5737         calculate D2E/DX2 analytically  !
 ! D60   D(5,4,16,19)           67.3588         calculate D2E/DX2 analytically  !
 ! D61   D(9,4,16,17)           61.5169         calculate D2E/DX2 analytically  !
 ! D62   D(9,4,16,18)          -49.0322         calculate D2E/DX2 analytically  !
 ! D63   D(9,4,16,19)         -172.0998         calculate D2E/DX2 analytically  !
 ! D64   D(11,4,16,17)         179.255          calculate D2E/DX2 analytically  !
 ! D65   D(11,4,16,18)          68.7059         calculate D2E/DX2 analytically  !
 ! D66   D(11,4,16,19)         -54.3617         calculate D2E/DX2 analytically  !
 ! D67   D(1,5,10,37)          114.895          calculate D2E/DX2 analytically  !
 ! D68   D(4,5,10,37)           -6.593          calculate D2E/DX2 analytically  !
 ! D69   D(15,5,10,37)        -126.23           calculate D2E/DX2 analytically  !
 ! D70   D(1,5,15,28)          127.3417         calculate D2E/DX2 analytically  !
 ! D71   D(4,5,15,28)         -110.4244         calculate D2E/DX2 analytically  !
 ! D72   D(10,5,15,28)           9.5872         calculate D2E/DX2 analytically  !
 ! D73   D(5,10,37,19)          38.8513         calculate D2E/DX2 analytically  !
 ! D74   D(5,10,37,34)         126.9153         calculate D2E/DX2 analytically  !
 ! D75   D(5,10,37,52)         -83.7536         calculate D2E/DX2 analytically  !
 ! D76   D(5,10,37,83)         -18.2602         calculate D2E/DX2 analytically  !
 ! D77   D(3,11,83,19)        -155.5057         calculate D2E/DX2 analytically  !
 ! D78   D(3,11,83,37)        -100.7343         calculate D2E/DX2 analytically  !
 ! D79   D(3,11,83,52)         -45.6216         calculate D2E/DX2 analytically  !
 ! D80   D(3,11,83,84)         111.8671         calculate D2E/DX2 analytically  !
 ! D81   D(4,11,83,19)          -4.6253         calculate D2E/DX2 analytically  !
 ! D82   D(4,11,83,37)          50.146          calculate D2E/DX2 analytically  !
 ! D83   D(4,11,83,52)         105.2588         calculate D2E/DX2 analytically  !
 ! D84   D(4,11,83,84)         -97.2526         calculate D2E/DX2 analytically  !
 ! D85   D(3,12,79,80)         175.1473         calculate D2E/DX2 analytically  !
 ! D86   D(3,12,79,81)         -65.2776         calculate D2E/DX2 analytically  !
 ! D87   D(3,12,79,82)          56.2123         calculate D2E/DX2 analytically  !
 ! D88   D(2,13,20,21)         -62.4072         calculate D2E/DX2 analytically  !
 ! D89   D(2,13,20,22)          59.4272         calculate D2E/DX2 analytically  !
 ! D90   D(2,13,20,23)         179.0349         calculate D2E/DX2 analytically  !
 ! D91   D(1,14,24,25)         -60.7247         calculate D2E/DX2 analytically  !
 ! D92   D(1,14,24,26)          61.0213         calculate D2E/DX2 analytically  !
 ! D93   D(1,14,24,27)         179.6893         calculate D2E/DX2 analytically  !
 ! D94   D(5,15,28,29)         -65.2553         calculate D2E/DX2 analytically  !
 ! D95   D(5,15,28,30)          56.2929         calculate D2E/DX2 analytically  !
 ! D96   D(5,15,28,31)         175.8981         calculate D2E/DX2 analytically  !
 ! D97   D(4,16,18,91)        -130.8473         calculate D2E/DX2 analytically  !
 ! D98   D(17,16,18,91)        118.2324         calculate D2E/DX2 analytically  !
 ! D99   D(19,16,18,91)         -5.8502         calculate D2E/DX2 analytically  !
 ! D100  D(4,16,19,37)         -19.7202         calculate D2E/DX2 analytically  !
 ! D101  D(4,16,19,38)        -148.9515         calculate D2E/DX2 analytically  !
 ! D102  D(4,16,19,83)          50.3938         calculate D2E/DX2 analytically  !
 ! D103  D(17,16,19,37)        102.0533         calculate D2E/DX2 analytically  !
 ! D104  D(17,16,19,38)        -27.178          calculate D2E/DX2 analytically  !
 ! D105  D(17,16,19,83)        172.1673         calculate D2E/DX2 analytically  !
 ! D106  D(18,16,19,37)       -139.1989         calculate D2E/DX2 analytically  !
 ! D107  D(18,16,19,38)         91.5699         calculate D2E/DX2 analytically  !
 ! D108  D(18,16,19,83)        -69.0849         calculate D2E/DX2 analytically  !
 ! D109  D(16,18,91,89)        147.7023         calculate D2E/DX2 analytically  !
 ! D110  D(16,19,37,10)        -18.6002         calculate D2E/DX2 analytically  !
 ! D111  D(16,19,37,34)       -135.6985         calculate D2E/DX2 analytically  !
 ! D112  D(16,19,37,52)         83.5475         calculate D2E/DX2 analytically  !
 ! D113  D(38,19,37,10)        140.8872         calculate D2E/DX2 analytically  !
 ! D114  D(38,19,37,34)         23.7889         calculate D2E/DX2 analytically  !
 ! D115  D(38,19,37,52)       -116.9651         calculate D2E/DX2 analytically  !
 ! D116  D(16,19,38,33)        152.3776         calculate D2E/DX2 analytically  !
 ! D117  D(37,19,38,33)         15.1008         calculate D2E/DX2 analytically  !
 ! D118  D(83,19,38,33)        -46.0477         calculate D2E/DX2 analytically  !
 ! D119  D(16,19,83,11)        -23.6071         calculate D2E/DX2 analytically  !
 ! D120  D(16,19,83,52)       -106.3766         calculate D2E/DX2 analytically  !
 ! D121  D(16,19,83,84)         82.7541         calculate D2E/DX2 analytically  !
 ! D122  D(38,19,83,11)        164.8212         calculate D2E/DX2 analytically  !
 ! D123  D(38,19,83,52)         82.0516         calculate D2E/DX2 analytically  !
 ! D124  D(38,19,83,84)        -88.8176         calculate D2E/DX2 analytically  !
 ! D125  D(36,32,33,34)        -47.2653         calculate D2E/DX2 analytically  !
 ! D126  D(36,32,33,38)         65.3673         calculate D2E/DX2 analytically  !
 ! D127  D(36,32,33,44)       -171.1272         calculate D2E/DX2 analytically  !
 ! D128  D(39,32,33,34)         72.7593         calculate D2E/DX2 analytically  !
 ! D129  D(39,32,33,38)       -174.6081         calculate D2E/DX2 analytically  !
 ! D130  D(39,32,33,44)        -51.1025         calculate D2E/DX2 analytically  !
 ! D131  D(45,32,33,34)       -165.6904         calculate D2E/DX2 analytically  !
 ! D132  D(45,32,33,38)        -53.0578         calculate D2E/DX2 analytically  !
 ! D133  D(45,32,33,44)         70.4478         calculate D2E/DX2 analytically  !
 ! D134  D(33,32,36,35)         58.5331         calculate D2E/DX2 analytically  !
 ! D135  D(33,32,36,41)        -61.2379         calculate D2E/DX2 analytically  !
 ! D136  D(33,32,36,46)        177.3965         calculate D2E/DX2 analytically  !
 ! D137  D(39,32,36,35)        -60.9535         calculate D2E/DX2 analytically  !
 ! D138  D(39,32,36,41)        179.2755         calculate D2E/DX2 analytically  !
 ! D139  D(39,32,36,46)         57.9099         calculate D2E/DX2 analytically  !
 ! D140  D(45,32,36,35)        176.5983         calculate D2E/DX2 analytically  !
 ! D141  D(45,32,36,41)         56.8274         calculate D2E/DX2 analytically  !
 ! D142  D(45,32,36,46)        -64.5382         calculate D2E/DX2 analytically  !
 ! D143  D(33,32,45,67)       -140.6955         calculate D2E/DX2 analytically  !
 ! D144  D(36,32,45,67)        101.7108         calculate D2E/DX2 analytically  !
 ! D145  D(39,32,45,67)        -20.2093         calculate D2E/DX2 analytically  !
 ! D146  D(32,33,34,37)       -159.935          calculate D2E/DX2 analytically  !
 ! D147  D(32,33,34,42)         34.1644         calculate D2E/DX2 analytically  !
 ! D148  D(32,33,34,53)        -69.584          calculate D2E/DX2 analytically  !
 ! D149  D(38,33,34,37)         83.4817         calculate D2E/DX2 analytically  !
 ! D150  D(38,33,34,42)        -82.4188         calculate D2E/DX2 analytically  !
 ! D151  D(38,33,34,53)        173.8327         calculate D2E/DX2 analytically  !
 ! D152  D(44,33,34,37)        -31.2544         calculate D2E/DX2 analytically  !
 ! D153  D(44,33,34,42)        162.8451         calculate D2E/DX2 analytically  !
 ! D154  D(44,33,34,53)         59.0966         calculate D2E/DX2 analytically  !
 ! D155  D(32,33,38,19)       -156.8446         calculate D2E/DX2 analytically  !
 ! D156  D(34,33,38,19)        -38.3518         calculate D2E/DX2 analytically  !
 ! D157  D(44,33,38,19)         75.3606         calculate D2E/DX2 analytically  !
 ! D158  D(32,33,44,63)        -71.5867         calculate D2E/DX2 analytically  !
 ! D159  D(34,33,44,63)        162.4237         calculate D2E/DX2 analytically  !
 ! D160  D(38,33,44,63)         51.9635         calculate D2E/DX2 analytically  !
 ! D161  D(33,34,37,10)       -143.563          calculate D2E/DX2 analytically  !
 ! D162  D(33,34,37,19)        -61.278          calculate D2E/DX2 analytically  !
 ! D163  D(33,34,37,52)         75.9159         calculate D2E/DX2 analytically  !
 ! D164  D(33,34,37,83)         -4.3823         calculate D2E/DX2 analytically  !
 ! D165  D(42,34,37,10)         23.4743         calculate D2E/DX2 analytically  !
 ! D166  D(42,34,37,19)        105.7593         calculate D2E/DX2 analytically  !
 ! D167  D(42,34,37,52)       -117.0469         calculate D2E/DX2 analytically  !
 ! D168  D(42,34,37,83)        162.655          calculate D2E/DX2 analytically  !
 ! D169  D(53,34,37,10)        121.6389         calculate D2E/DX2 analytically  !
 ! D170  D(53,34,37,19)       -156.0761         calculate D2E/DX2 analytically  !
 ! D171  D(53,34,37,52)        -18.8823         calculate D2E/DX2 analytically  !
 ! D172  D(53,34,37,83)        -99.1804         calculate D2E/DX2 analytically  !
 ! D173  D(33,34,42,35)        -28.4335         calculate D2E/DX2 analytically  !
 ! D174  D(37,34,42,35)        164.8174         calculate D2E/DX2 analytically  !
 ! D175  D(53,34,42,35)         73.6931         calculate D2E/DX2 analytically  !
 ! D176  D(33,34,53,51)       -116.3098         calculate D2E/DX2 analytically  !
 ! D177  D(37,34,53,51)          4.6925         calculate D2E/DX2 analytically  !
 ! D178  D(42,34,53,51)        119.0761         calculate D2E/DX2 analytically  !
 ! D179  D(40,35,36,32)         63.8215         calculate D2E/DX2 analytically  !
 ! D180  D(40,35,36,41)       -176.8627         calculate D2E/DX2 analytically  !
 ! D181  D(40,35,36,46)        -56.8237         calculate D2E/DX2 analytically  !
 ! D182  D(42,35,36,32)        -52.0088         calculate D2E/DX2 analytically  !
 ! D183  D(42,35,36,41)         67.307          calculate D2E/DX2 analytically  !
 ! D184  D(42,35,36,46)       -172.6541         calculate D2E/DX2 analytically  !
 ! D185  D(47,35,36,32)       -173.1999         calculate D2E/DX2 analytically  !
 ! D186  D(47,35,36,41)        -53.8841         calculate D2E/DX2 analytically  !
 ! D187  D(47,35,36,46)         66.1548         calculate D2E/DX2 analytically  !
 ! D188  D(36,35,42,34)         36.247          calculate D2E/DX2 analytically  !
 ! D189  D(40,35,42,34)        -82.0987         calculate D2E/DX2 analytically  !
 ! D190  D(47,35,42,34)        161.9429         calculate D2E/DX2 analytically  !
 ! D191  D(36,35,47,48)        -67.3918         calculate D2E/DX2 analytically  !
 ! D192  D(36,35,47,49)        175.5981         calculate D2E/DX2 analytically  !
 ! D193  D(36,35,47,50)         53.978          calculate D2E/DX2 analytically  !
 ! D194  D(40,35,47,48)         55.6549         calculate D2E/DX2 analytically  !
 ! D195  D(40,35,47,49)        -61.3552         calculate D2E/DX2 analytically  !
 ! D196  D(40,35,47,50)        177.0247         calculate D2E/DX2 analytically  !
 ! D197  D(42,35,47,48)        168.9001         calculate D2E/DX2 analytically  !
 ! D198  D(42,35,47,49)         51.89           calculate D2E/DX2 analytically  !
 ! D199  D(42,35,47,50)        -69.7301         calculate D2E/DX2 analytically  !
 ! D200  D(32,36,46,71)        120.737          calculate D2E/DX2 analytically  !
 ! D201  D(35,36,46,71)       -118.0326         calculate D2E/DX2 analytically  !
 ! D202  D(41,36,46,71)          0.8818         calculate D2E/DX2 analytically  !
 ! D203  D(10,37,52,51)       -113.7616         calculate D2E/DX2 analytically  !
 ! D204  D(19,37,52,51)        156.0451         calculate D2E/DX2 analytically  !
 ! D205  D(34,37,52,51)         30.4884         calculate D2E/DX2 analytically  !
 ! D206  D(10,37,83,11)         -3.7606         calculate D2E/DX2 analytically  !
 ! D207  D(10,37,83,84)        107.7412         calculate D2E/DX2 analytically  !
 ! D208  D(34,37,83,11)       -146.0605         calculate D2E/DX2 analytically  !
 ! D209  D(34,37,83,84)        -34.5587         calculate D2E/DX2 analytically  !
 ! D210  D(33,44,63,64)        -40.3793         calculate D2E/DX2 analytically  !
 ! D211  D(33,44,63,65)         81.3733         calculate D2E/DX2 analytically  !
 ! D212  D(33,44,63,66)       -159.1716         calculate D2E/DX2 analytically  !
 ! D213  D(32,45,67,68)        -58.4653         calculate D2E/DX2 analytically  !
 ! D214  D(32,45,67,69)         63.5039         calculate D2E/DX2 analytically  !
 ! D215  D(32,45,67,70)       -177.9165         calculate D2E/DX2 analytically  !
 ! D216  D(36,46,71,72)        -63.4323         calculate D2E/DX2 analytically  !
 ! D217  D(36,46,71,73)         58.2974         calculate D2E/DX2 analytically  !
 ! D218  D(36,46,71,74)        177.5321         calculate D2E/DX2 analytically  !
 ! D219  D(35,47,50,75)        177.8049         calculate D2E/DX2 analytically  !
 ! D220  D(48,47,50,75)        -62.971          calculate D2E/DX2 analytically  !
 ! D221  D(49,47,50,75)         57.5218         calculate D2E/DX2 analytically  !
 ! D222  D(47,50,75,76)       -179.7125         calculate D2E/DX2 analytically  !
 ! D223  D(47,50,75,77)        -60.4616         calculate D2E/DX2 analytically  !
 ! D224  D(47,50,75,78)         60.8975         calculate D2E/DX2 analytically  !
 ! D225  D(43,51,52,37)       -149.5649         calculate D2E/DX2 analytically  !
 ! D226  D(43,51,52,83)        -99.3587         calculate D2E/DX2 analytically  !
 ! D227  D(53,51,52,37)        -18.2102         calculate D2E/DX2 analytically  !
 ! D228  D(53,51,52,83)         31.996          calculate D2E/DX2 analytically  !
 ! D229  D(54,51,52,37)         93.4049         calculate D2E/DX2 analytically  !
 ! D230  D(54,51,52,83)        143.611          calculate D2E/DX2 analytically  !
 ! D231  D(43,51,53,34)        146.7625         calculate D2E/DX2 analytically  !
 ! D232  D(52,51,53,34)         14.8669         calculate D2E/DX2 analytically  !
 ! D233  D(54,51,53,34)        -97.5479         calculate D2E/DX2 analytically  !
 ! D234  D(43,51,54,55)        -31.2349         calculate D2E/DX2 analytically  !
 ! D235  D(43,51,54,56)        150.868          calculate D2E/DX2 analytically  !
 ! D236  D(52,51,54,55)         91.023          calculate D2E/DX2 analytically  !
 ! D237  D(52,51,54,56)        -86.874          calculate D2E/DX2 analytically  !
 ! D238  D(53,51,54,55)       -151.6109         calculate D2E/DX2 analytically  !
 ! D239  D(53,51,54,56)         30.492          calculate D2E/DX2 analytically  !
 ! D240  D(51,52,83,11)       -142.4636         calculate D2E/DX2 analytically  !
 ! D241  D(51,52,83,19)        -70.7085         calculate D2E/DX2 analytically  !
 ! D242  D(51,52,83,84)         89.4397         calculate D2E/DX2 analytically  !
 ! D243  D(51,54,55,57)       -177.271          calculate D2E/DX2 analytically  !
 ! D244  D(51,54,55,58)          3.3021         calculate D2E/DX2 analytically  !
 ! D245  D(56,54,55,57)          0.5866         calculate D2E/DX2 analytically  !
 ! D246  D(56,54,55,58)       -178.8403         calculate D2E/DX2 analytically  !
 ! D247  D(51,54,56,59)        178.1007         calculate D2E/DX2 analytically  !
 ! D248  D(51,54,56,60)         -2.1725         calculate D2E/DX2 analytically  !
 ! D249  D(55,54,56,59)          0.2329         calculate D2E/DX2 analytically  !
 ! D250  D(55,54,56,60)        179.9596         calculate D2E/DX2 analytically  !
 ! D251  D(54,55,57,61)         -0.9368         calculate D2E/DX2 analytically  !
 ! D252  D(54,55,57,93)        175.7487         calculate D2E/DX2 analytically  !
 ! D253  D(58,55,57,61)        178.4844         calculate D2E/DX2 analytically  !
 ! D254  D(58,55,57,93)         -4.8301         calculate D2E/DX2 analytically  !
 ! D255  D(54,56,59,61)         -0.72           calculate D2E/DX2 analytically  !
 ! D256  D(54,56,59,97)        175.654          calculate D2E/DX2 analytically  !
 ! D257  D(60,56,59,61)        179.5536         calculate D2E/DX2 analytically  !
 ! D258  D(60,56,59,97)         -4.0724         calculate D2E/DX2 analytically  !
 ! D259  D(55,57,61,59)          0.4626         calculate D2E/DX2 analytically  !
 ! D260  D(55,57,61,62)       -179.4619         calculate D2E/DX2 analytically  !
 ! D261  D(93,57,61,59)       -176.2202         calculate D2E/DX2 analytically  !
 ! D262  D(93,57,61,62)          3.8553         calculate D2E/DX2 analytically  !
 ! D263  D(55,57,93,94)        -87.4786         calculate D2E/DX2 analytically  !
 ! D264  D(55,57,93,95)        153.0812         calculate D2E/DX2 analytically  !
 ! D265  D(55,57,93,96)         31.9709         calculate D2E/DX2 analytically  !
 ! D266  D(61,57,93,94)         89.2451         calculate D2E/DX2 analytically  !
 ! D267  D(61,57,93,95)        -30.1951         calculate D2E/DX2 analytically  !
 ! D268  D(61,57,93,96)       -151.3054         calculate D2E/DX2 analytically  !
 ! D269  D(56,59,61,57)          0.3766         calculate D2E/DX2 analytically  !
 ! D270  D(56,59,61,62)       -179.699          calculate D2E/DX2 analytically  !
 ! D271  D(97,59,61,57)       -175.9892         calculate D2E/DX2 analytically  !
 ! D272  D(97,59,61,62)          3.9352         calculate D2E/DX2 analytically  !
 ! D273  D(56,59,97,98)         29.0738         calculate D2E/DX2 analytically  !
 ! D274  D(56,59,97,99)        -90.4365         calculate D2E/DX2 analytically  !
 ! D275  D(56,59,97,100)       150.1886         calculate D2E/DX2 analytically  !
 ! D276  D(61,59,97,98)       -154.5197         calculate D2E/DX2 analytically  !
 ! D277  D(61,59,97,99)         85.97           calculate D2E/DX2 analytically  !
 ! D278  D(61,59,97,100)       -33.4049         calculate D2E/DX2 analytically  !
 ! D279  D(11,83,84,85)        -98.0442         calculate D2E/DX2 analytically  !
 ! D280  D(11,83,84,89)         79.2124         calculate D2E/DX2 analytically  !
 ! D281  D(19,83,84,85)       -172.6907         calculate D2E/DX2 analytically  !
 ! D282  D(19,83,84,89)          4.5659         calculate D2E/DX2 analytically  !
 ! D283  D(37,83,84,85)        157.7153         calculate D2E/DX2 analytically  !
 ! D284  D(37,83,84,89)        -25.0282         calculate D2E/DX2 analytically  !
 ! D285  D(52,83,84,85)         26.25           calculate D2E/DX2 analytically  !
 ! D286  D(52,83,84,89)       -156.4935         calculate D2E/DX2 analytically  !
 ! D287  D(83,84,85,86)       -122.1391         calculate D2E/DX2 analytically  !
 ! D288  D(83,84,85,87)         -2.7152         calculate D2E/DX2 analytically  !
 ! D289  D(83,84,85,88)        116.77           calculate D2E/DX2 analytically  !
 ! D290  D(89,84,85,86)         60.6296         calculate D2E/DX2 analytically  !
 ! D291  D(89,84,85,87)       -179.9465         calculate D2E/DX2 analytically  !
 ! D292  D(89,84,85,88)        -60.4613         calculate D2E/DX2 analytically  !
 ! D293  D(83,84,89,90)       -116.6199         calculate D2E/DX2 analytically  !
 ! D294  D(83,84,89,91)          3.121          calculate D2E/DX2 analytically  !
 ! D295  D(83,84,89,92)        122.7129         calculate D2E/DX2 analytically  !
 ! D296  D(85,84,89,90)         61.3097         calculate D2E/DX2 analytically  !
 ! D297  D(85,84,89,91)       -178.9495         calculate D2E/DX2 analytically  !
 ! D298  D(85,84,89,92)        -59.3575         calculate D2E/DX2 analytically  !
 ! D299  D(84,89,91,18)        -83.5728         calculate D2E/DX2 analytically  !
 ! D300  D(90,89,91,18)         36.4677         calculate D2E/DX2 analytically  !
 ! D301  D(92,89,91,18)        156.5403         calculate D2E/DX2 analytically  !
 --------------------------------------------------------------------------------
 Trust Radius=5.00D-02 FncErr=1.00D-07 GrdErr=1.00D-06 EigMax=2.50D+02 EigMin=1.00D-04
 Number of steps in this run=    600 maximum allowed number of steps=    600.
 Search for a saddle point of order  1.
 GradGradGradGradGradGradGradGradGradGradGradGradGradGradGradGradGradGrad

 Leave Link  103 at Wed Jun  5 13:46:58 2019, MaxMem=  6442450944 cpu:               8.9 elap:               0.4
 (Enter /home/ekwan/sw/g16/l202.exe)
 Stoichiometry    C30H47F6NaO15S
 Framework group  C1[X(C30H47F6NaO15S)]
 Deg. of freedom   294
 Full point group                 C1      NOp   1
 Largest Abelian subgroup         C1      NOp   1
 Largest concise Abelian subgroup C1      NOp   1
                         Standard orientation:                         
 ---------------------------------------------------------------------
 Center     Atomic      Atomic             Coordinates (Angstroms)
 Number     Number       Type             X           Y           Z
 ---------------------------------------------------------------------
      1          6           0       -1.732390    1.548911    2.281286
      2          6           0       -2.026988    2.328186    1.006553
      3          6           0       -1.120037    3.550510    0.916110
      4          6           0        0.607889    2.490408    2.183238
      5          6           0       -0.244185    1.236564    2.372346
      6          1           0       -1.237097    4.040084   -0.061823
      7          1           0       -1.785961    1.697062    0.140230
      8          1           0       -2.023805    2.169748    3.140269
      9          1           0        0.414097    3.158549    3.034493
     10          1           0       -0.010674    0.512139    1.582521
     11          8           0        0.233810    3.158682    0.968462
     12          8           0       -1.453549    4.429272    1.940997
     13          8           0       -3.368600    2.754868    0.954143
     14          8           0       -2.496963    0.358753    2.261070
     15          8           0        0.039511    0.676105    3.641556
     16          6           0        2.111432    2.216586    2.093070
     17          1           0        2.377752    1.713510    3.046673
     18          1           0        2.593985    3.219705    2.153542
     19          8           0        2.502667    1.534107    0.973048
     20          6           0       -4.188107    1.937870    0.147454
     21          1           0       -3.856207    1.946543   -0.900918
     22          1           0       -4.200813    0.902919    0.505559
     23          1           0       -5.198601    2.351922    0.196797
     24          6           0       -3.033812    0.002570    3.515857
     25          1           0       -2.246375   -0.169361    4.257918
     26          1           0       -3.712951    0.781743    3.891716
     27          1           0       -3.599603   -0.918616    3.365618
     28          6           0        0.735221   -0.549966    3.574485
     29          1           0        0.117926   -1.327908    3.105921
     30          1           0        1.671203   -0.461616    3.011489
     31          1           0        0.960713   -0.844389    4.603236
     32          6           0        3.730674   -1.586021   -1.363424
     33          6           0        3.139670   -0.249775   -0.927792
     34          6           0        1.814223   -0.424268   -0.257909
     35          6           0        2.163885   -2.727883    0.239220
     36          6           0        3.613879   -2.556746   -0.191285
     37          1           0        1.122508    0.392225   -0.176853
     38          1           0        3.763355    0.172816   -0.120882
     39          1           0        3.173459   -1.966581   -2.229373
     40          1           0        1.594167   -3.183712   -0.577781
     41          1           0        4.191426   -2.152244    0.649275
     42          8           0        1.527160   -1.441802    0.477435
     43          8           0       -0.492552    0.061003   -3.869944
     44          8           0        2.980446    0.717316   -1.933547
     45          8           0        5.090744   -1.397643   -1.677177
     46          8           0        4.092884   -3.827674   -0.561047
     47          6           0        1.973981   -3.543366    1.491509
     48          1           0        2.265952   -4.581011    1.269578
     49          1           0        0.906461   -3.542440    1.761963
     50          8           0        2.757459   -2.997341    2.517421
     51         16           0       -0.304913   -0.043147   -2.421114
     52          8           0       -0.171565    1.259119   -1.715386
     53          8           0        0.775132   -1.008626   -2.020113
     54          6           0       -1.792339   -0.775938   -1.754725
     55          6           0       -3.012812   -0.540607   -2.374586
     56          6           0       -1.712416   -1.538044   -0.595767
     57          6           0       -4.169219   -1.071298   -1.810484
     58          1           0       -3.053708    0.041166   -3.289390
     59          6           0       -2.874155   -2.074943   -0.055087
     60          1           0       -0.753462   -1.714645   -0.122361
     61          6           0       -4.107597   -1.843044   -0.654236
     62          1           0       -5.012662   -2.259894   -0.226333
     63          6           0        4.191631    1.291014   -2.405398
     64          1           0        4.887258    1.477427   -1.579466
     65          1           0        4.676730    0.645262   -3.142150
     66          1           0        3.920291    2.241110   -2.869912
     67          6           0        5.522825   -2.128705   -2.807828
     68          1           0        5.365608   -3.204124   -2.674183
     69          1           0        4.999942   -1.798701   -3.716889
[...]
 0.00007365,0.00007381,-0.00009797,0.00016803,0.00000902,0.00015018,-0.
 00002572,-0.00006269,-0.00013677,0.00005825,0.00000254,0.00010371,-0.0
 0027869,0.00000508,-0.00002104,0.00017652,-0.00004357,0.00361510,0.001
 05842,-0.00127283,-0.00095347,-0.00098711,-0.00003550,-0.00161165,0.00
 027294,-0.00012268,-0.00038526,0.00095742,0.00220865,0.00022851,-0.000
 87091,0.00052927,0.00337358,-0.00037453,0.00069119,0.00004289,0.000742
 60,0.00249400,0.00007052,-0.00019809,-0.00017122,0.00548208,-0.0460319
 5,-0.00084510,0.00019914,-0.00080981,-0.00090264,-0.00361107,-0.001133
 87,0.00024948,0.00031030,-0.00085834,-0.00087678,0.00011405,0.00005691
 ,-0.00006341,-0.00002104,-0.00000657,-0.00000404,-0.00002474,0.0000016
 4,0.00001881,-0.00000511,-0.00001024,0.00000685,0.00002427,-0.00005883
 ,-0.00007028,-0.00000362,0.00001679,0.00000303,0.00000130,-0.00000065,
 0.00000674,-0.00000844,0.00000528,0.00001018,0.00004308,-0.00002923,0.
 00004077,-0.00000079,0.00000684,-0.00000763,-0.00000063,-0.00001068,-0
 .00001104,-0.00002228,0.00001467,0.00000298,0.00003585,-0.00009063,0.0
 0007488,0.00000896,0.00001036,-0.00000428,0.00000302,-0.00003777,-0.00
 000014,-0.00004001,0.00003848,0.00000006,0.00006787,0.00013888,-0.0000
 1743,-0.00000153,-0.00002687,-0.00001149,-0.00002014,-0.00000946,0.000
 00355,-0.00000842,-0.00001576,0.00001838,0.00020434,0.00017772,0.00000
 129,-0.00004851,-0.00003862,-0.00000327,0.00001410,0.00003433,-0.00002
 555,-0.00001025,-0.00000230,0.00000633,0.00000338,0.00000349,-0.000002
 63,-0.00000117,-0.00000759,-0.00000135,0.00002292,-0.00000223,0.000012
 35,-0.00000133,-0.00000746,-0.00000155,0.00003674,0.00001911,-0.000005
 92,-0.00001222,-0.00000537,0.00000997,-0.00287938,0.00033893,-0.000977
 73,0.00079099,-0.00051713,0.00006488,0.00091103,0.00029180,0.00019896,
 0.00071757,-0.00023848,0.00093789,0.01939157,-0.26972639,-0.03183085,-
 0.02888497,-0.03461083,-0.03529458,-0.02857414,0.37425677,0.00023400,0
 .00031123,-0.00006110,-0.00008660,-0.00000656,-0.00015058,-0.00000104,
 -0.00000314,0.00000266,-0.00002329,0.00008731,-0.00006529,-0.00002104,
 0.00006084,-0.00015156,-0.00000699,-0.00002721,0.00001218,0.00000369,-
 0.00001932,-0.00000194,-0.00003044,-0.00005184,0.00000145,-0.00000773,
 -0.00000346,0.00000998,-0.00000237,0.00001652,-0.00002411,0.00001940,-
 0.00004075,0.00008849,0.00000301,-0.00000794,0.00003087,0.00012964,0.0
 0007998,0.00017023,-0.00006684,-0.00059260,0.00012479,0.00000175,-0.00
 030316,0.00009887,0.00006703,-0.00003367,-0.00011010,0.00001370,0.0000
 0143,0.00003524,-0.00002033,0.00000894,0.00002858,-0.00003518,0.000067
 84,0.00015441,-0.00006215,-0.00009776,-0.00014832,-0.00001621,-0.00005
 833,0.00007783,0.00000301,-0.00000385,-0.00010475,-0.00000721,0.000024
 29,0.00001610,0.00024444,0.00040724,-0.00002811,-0.00002145,-0.0000270
 4,0.00004234,-0.00003605,-0.00016324,-0.00000925,-0.00025122,0.0001025
 1,0.00032263,0.00010677,0.00046546,0.00016500,0.00010251,-0.00011548,0
 .00001202,-0.00007492,-0.00007333,-0.00004685,-0.00003762,-0.00004358,
 -0.00003745,-0.00004308,0.00000995,-0.00002297,0.00001208,0.00001223,0
 .00000953,-0.00025367,-0.00008128,-0.00043894,-0.00007284,0.00005032,-
 0.00011652,0.00000766,-0.00001021,0.00001166,-0.00000867,-0.00000653,-
 0.00001859,0.00001377,-0.00000694,-0.00001717,-0.00000427,0.00000652,0
 .00001539,-0.00001529,0.00000820,0.00001464,0.00001536,0.00000334,-0.0
 0000121,0.00009152,-0.00009634,0.00018867,0.00034588,0.00019324,-0.000
 29440,0.00004397,0.00000907,0.00001522,0.00002140,-0.00000431,0.000021
 00,0.00002278,-0.00001897,0.00002930,0.00023543,0.00002599,-0.00009346
 ,-0.00005258,0.00001410,0.00002128,0.00006229,-0.00008583,0.00003399,-
 0.00009874,0.00000230,0.00006058,-0.00133601,-0.00056942,0.00027446,0.
 00034016,0.00043245,0.00010641,0.00066588,-0.00001109,0.00017991,-0.00
 013031,-0.00079301,-0.00080118,-0.00002423,0.00048234,-0.00044178,-0.0
 0148107,0.00015435,0.00024511,0.00042904,-0.00068251,-0.00071108,-0.00
 002129,0.00005110,0.00009542,-0.00204272,0.02309130,0.00824777,0.00009
 630,0.00042713,0.00005387,0.00129061,0.00044977,0.00039181,-0.00022658
 ,0.00028818,0.00006552,-0.00002526,-0.00001957,0.00001138,0.00000858,0
 .00000249,0.00000317,0.00000265,0.00000115,-0.00000237,-0.00000014,0.0
 0000023,-0.00000251,-0.00000609,-0.00000136,-0.00000722,-0.00000187,0.
 00000086,-0.00000320,0.00000022,-0.00000397,0.00000512,0.00000415,0.00
 000119,0.,-0.00001534,0.00000760,-0.00002652,0.00000249,0.00000100,0.0
 0000247,0.00000614,-0.00000361,0.00000815,-0.00000075,0.00000063,0.000
 00128,0.00008837,-0.00000854,-0.00003646,-0.00001033,-0.00000326,0.000
 00283,-0.00002002,-0.00000677,0.00002439,-0.00001377,0.00000991,0.0000
 0557,0.00000240,0.00001465,-0.00000423,-0.00000062,0.00000165,0.000000
 16,0.00000036,0.,-0.00000136,0.00000060,-0.00000470,0.00000495,-0.0000
 5228,-0.00006089,-0.00006356,0.00001202,0.00000572,0.00001849,-0.00000
 230,-0.00000337,-0.00000300,-0.00000038,-0.00000041,-0.00000030,0.0000
 0136,-0.00000264,0.00000111,0.00000058,0.00000244,0.00000213,-0.000009
 83,0.00000141,-0.00001238,0.00000190,0.00000470,0.00000195,-0.00000262
 ,-0.00000351,-0.00000128,0.00000129,-0.00000013,0.00000126,0.00104973,
 -0.00034169,0.00027455,-0.00029773,0.00024537,0.00000721,-0.00032275,-
 0.00004093,-0.00004772,-0.00025472,0.00011436,-0.00023895,0.00287762,-
 0.03054106,-0.07980909,-0.01918609,-0.04530219,-0.01383892,-0.00897651
 ,0.09369304,0.09970403,-0.00016398,-0.00013137,0.00001087,-0.00005628,
 0.00008583,0.00006868,-0.00012120,0.00010641,0.00001276,0.00005849,0.0
 0003696,-0.00004566,-0.00009280,0.00025483,-0.00000539,0.00001356,0.00
 000235,-0.00000076,-0.00000751,0.00001669,-0.00001555,0.00001321,-0.00
 002682,-0.00002164,-0.00000512,-0.00003367,-0.00001096,0.00004121,-0.0
 0000703,-0.00004834,0.00007467,-0.00010829,0.00002113,0.00003487,-0.00
 008014,-0.00004744,0.00013846,-0.00003972,-0.00006675,0.00063223,0.000
 04520,-0.00044987,0.00021051,-0.00049186,-0.00004460,-0.00006822,0.000
 07596,0.00014324,0.00002159,0.00000657,-0.00002360,-0.00000279,-0.0000
 6868,-0.00003283,-0.00002743,-0.00021379,-0.00016652,-0.00004606,-0.00
 007995,0.00008186,0.00002877,0.00008035,-0.00007744,-0.00002222,0.0000
 2233,0.00012153,0.00002719,-0.00003596,0.00000009,-0.00069353,-0.00085
 187,0.00061706,0.00013589,0.00025323,0.00009713,0.00008374,0.00011043,
 -0.00001355,-0.00011068,-0.00075402,-0.00111273,0.00011536,0.00079668,
 0.00026963,0.00006059,-0.00011366,0.00010291,-0.00005257,-0.00007937,-
 0.00005912,-0.00008050,-0.00008885,-0.00008960,0.00007632,0.00001718,-
 0.00006277,-0.00002268,0.00005040,-0.00004063,0.00035821,0.00058170,0.
 00001124,0.00005055,-0.00000512,-0.00010252,0.00013801,-0.00009459,-0.
 00000292,0.00000338,0.00002655,-0.00000411,0.00000306,0.00000895,0.000
 03592,-0.00000278,-0.00000402,-0.00000918,0.00004057,-0.00001630,-0.00
 004792,-0.00001694,0.00000329,-0.00000030,-0.00026903,-0.00032037,0.00
 020276,-0.00030127,-0.00021034,0.00056472,-0.00011398,-0.00010252,0.00
 007738,-0.00015025,-0.00000208,0.00009667,-0.00015404,0.00007869,0.000
 00020,0.00075177,0.00016094,0.00003082,-0.00013588,0.00001650,0.000035
 35,0.00010892,-0.00027811,0.00023430,-0.00037676,-0.00001378,-0.000324
 40,0.00130097,0.00071742,-0.00050843,-0.00033387,-0.00057366,-0.000100
 08,-0.00051965,-0.00011512,0.00007113,-0.00062861,-0.00058267,-0.00026
 487,0.00036166,0.00004433,0.00014694,0.00171876,-0.00108094,0.00264759
 ,0.00103016,-0.00094177,0.00063237,0.00015514,0.00011215,0.00001973,-0
 .01113737,0.00042185,0.01541063,0.00059951,0.00064109,-0.00044502,-0.0
 0314890,-0.00011762,-0.00288898,0.00202422,0.00075358,0.00056335,0.000
 09377,0.00005531,-0.00003606,-0.00001454,-0.00000135,-0.00000541,-0.00
 001628,0.00000185,0.00000822,-0.00000596,-0.00001284,0.00000928,0.0000
 2867,-0.00003840,-0.00006690,0.00000663,0.00000563,0.00000263,0.000003
 92,0.00000454,0.00000924,-0.00001548,0.00000130,0.00000900,0.00010456,
 -0.00003899,0.00005333,-0.00002208,-0.00000760,-0.00000424,0.00001300,
 -0.00000582,-0.00000446,-0.00000825,0.00001362,-0.00000041,0.00007458,
 -0.00014277,0.00018020,-0.00002979,-0.00000305,-0.00003121,0.00000625,
 0.00001048,0.00002524,-0.00000883,0.00004169,-0.00000645,0.00000188,0.
 00002760,-0.00000276,0.00000050,-0.00000857,-0.00000472,0.00000197,0.0
 0000067,0.00000280,-0.00000229,-0.00000180,0.00000364,0.00005839,0.000
 14109,0.00000676,-0.00001222,-0.00003710,0.00000039,0.00000315,0.00002
 859,-0.00001587,-0.00000273,-0.00000227,0.00000315,0.00000160,0.000001
 95,0.00000217,-0.00000219,-0.00000769,-0.00000230,0.00000277,0.0000056
 8,0.00000357,-0.00000057,-0.00000875,-0.00000068,0.00002457,0.00001706
 ,-0.00000292,-0.00000285,-0.00000281,0.00000407,-0.00120371,0.00000775
 ,0.00007400,0.00036655,-0.00023248,-0.00006391,0.00040094,0.00015891,-
 0.00004689,0.00026117,-0.00006385,0.00014619,-0.19355643,-0.00341866,0
 .10388558,-0.08167837,-0.00818364,0.00716845,-0.01655179,0.03196681,0.
 02713592,0.30013083,0.00024508,0.00033627,-0.00000232,-0.00007376,0.00
 002471,0.00001555,0.00007905,0.00012956,0.00005181,-0.00001544,0.00007
 170,0.00000362,0.00004870,-0.00003907,0.00008060,-0.00001331,-0.000029
 87,0.00000285,0.00001131,0.00001884,-0.00000420,-0.00002941,-0.0000347
 3,-0.00000845,0.00000003,-0.00001374,-0.00000814,0.00001959,-0.0000043
 0,-0.00000037,-0.00004945,-0.00005644,-0.00002363,-0.00003441,-0.00013
 173,-0.00003169,-0.00002635,-0.00013064,-0.00004697,-0.00012643,-0.000
 26028,-0.00008482,-0.00015420,0.00005830,-0.00006134,0.00001857,-0.000
 01605,0.00005046,0.00000120,0.00000697,-0.00001904,-0.00002385,-0.0000
 2885,-0.00000897,-0.00006745,-0.00004590,-0.00005107,0.00001425,0.0001
 4924,0.00001841,0.00000349,0.00003373,-0.00001789,-0.00004695,-0.00001
 596,0.00001560,0.00002528,-0.00003624,-0.00000545,0.00087806,0.0005735
 2,-0.00052145,-0.00015720,-0.00027393,-0.00008815,-0.00021880,-0.00040
 876,-0.00010067,-0.00111310,-0.00204939,-0.00068861,0.00008220,-0.0000
 9652,0.00002049,0.00000914,0.00000234,0.00001285,-0.00000950,0.0000078
 5,0.00000791,-0.00001245,0.00000503,-0.00002437,0.00004464,-0.00002887
 ,-0.00000951,-0.00000197,-0.00000303,-0.00002804,0.00023566,0.00008065
 ,0.00028450,0.00008551,-0.00018622,0.00000759,0.00002716,-0.00001770,0
 .00000391,0.00002688,0.00000801,-0.00000079,-0.00000695,-0.00000143,0.
 00001572,0.00000390,-0.00000763,-0.00000702,-0.00000151,-0.00001292,0.
 00001230,-0.00000011,0.00000139,0.00000112,-0.00014254,0.00013933,-0.0
 0009291,-0.00034085,-0.00011060,0.00047476,-0.00007156,-0.00001273,0.0
 0002115,-0.00004844,0.00002663,0.00002235,-0.00003893,0.00006096,-0.00
 000356,0.00001026,-0.00000885,-0.00000546,-0.00003056,0.00001577,-0.00
 000457,0.00002663,-0.00007705,0.00001401,0.00001001,0.00005715,-0.0000
 3386,0.00164617,0.00026347,-0.00052176,-0.00048281,-0.00045082,-0.0000
 5608,-0.00065835,0.00010887,-0.00008072,-0.00027056,-0.00153575,0.0003
 8223,-0.00057967,-0.00029609,0.00040822,0.00173444,0.00017912,0.002220
 64,-0.00014655,-0.00002796,-0.00027801,-0.00000889,0.00004193,0.000017
 22,-0.01695674,0.00695943,0.01646941,0.00003713,0.00043706,0.00000729,
 -0.00014357,-0.00047228,0.00083430,-0.00014086,-0.00032953,0.00070064,
 0.00004571,0.00002448,-0.00002536,-0.00000895,-0.00000291,-0.00000198,
 -0.00000943,0.00000053,0.00000726,-0.00000165,-0.00000393,0.00000267,0
 .00000993,-0.00002018,-0.00002383,-0.00000073,0.00000563,0.00000178,0.
 00000050,0.00000058,0.00000147,-0.00000396,0.00000152,0.00000359,0.000
 01892,-0.00001179,0.00001979,-0.00000104,0.00000181,-0.00000317,-0.000
 00151,-0.00000272,-0.00000538,-0.00000713,0.00000495,0.00000063,-0.000
 01123,-0.00002989,0.00003779,0.00000576,0.00000354,-0.00000239,0.00000
 612,-0.00000993,-0.00000576,-0.00000864,0.00001068,-0.00000133,0.00003
 260,0.00006430,-0.00000668,-0.00000087,-0.00001229,-0.00000535,-0.0000
 0990,-0.00000488,0.00000165,-0.00000438,-0.00000784,0.00000834,0.00009
 111,0.00007575,0.00000260,-0.00002091,-0.00001575,-0.00000312,0.000005
 78,0.00001406,-0.00000999,-0.00000405,-0.00000083,0.00000264,0.0000012
 4,0.00000173,-0.00000119,-0.00000043,-0.00000322,-0.00000076,0.0000104
 5,-0.00000109,0.00000656,-0.00000061,-0.00000328,-0.00000091,0.0000145
 6,0.00000746,-0.00000213,-0.00000507,-0.00000206,0.00000391,-0.0010112
 5,0.00015258,-0.00048433,0.00029073,-0.00017304,0.00004138,0.00034229,
 0.00009357,0.00008235,0.00021130,-0.00006418,0.00028662,-0.00127527,-0
 .07429084,0.00524211,-0.00914839,0.01108605,0.00196717,0.04550403,-0.0
 2081373,-0.04106655,-0.01813650,0.08137918,0.00035732,0.00048921,0.000
 01399,-0.00011719,-0.00006889,-0.00023686,0.00008720,-0.00008265,0.000
 00171,-0.00007893,0.00008711,-0.00005264,0.00004913,-0.00012210,-0.000
 17427,-0.00001997,-0.00003840,0.00001604,0.00001682,-0.00003623,0.0000
 1072,-0.00003255,-0.00000534,0.00002632,-0.00000513,0.00001919,0.00002
 088,-0.00003158,0.00002907,0.00000952,-0.00002121,0.00002932,0.0000978
 3,-0.00001741,0.00004679,0.00007073,0.00009769,0.00013762,0.00025248,-
 0.00059122,-0.00062412,0.00058714,-0.00017996,0.00000530,0.00015719,0.
 00012676,-0.00009576,-0.00022879,0.00000090,-0.00000337,0.00005880,-0.
 00002322,0.00005869,0.00005637,-0.00001445,0.00022505,0.00030331,-0.00
 006288,-0.00010479,-0.00020958,-0.00003064,-0.00011544,0.00012523,0.00
 000705,-0.00000689,-0.00018805,-0.00002122,0.00004843,0.00001895,0.001
 70684,0.00122767,-0.00095859,-0.00019042,-0.00030750,-0.00002126,-0.00
 030634,-0.00056878,-0.00004087,-0.00119418,-0.00093799,0.00028018,0.00
 006012,-0.00010685,-0.00003350,0.00001308,-0.00000437,-0.00003440,-0.0
 0003897,-0.00001041,-0.00000032,0.00002222,0.00002040,0.00002580,-0.00
 010493,0.00001687,0.00001467,0.00003031,-0.00000584,0.00004647,-0.0005
 8919,-0.00044855,-0.00066112,-0.00014421,0.00016343,-0.00006753,-0.000
 07437,0.00004333,0.00000829,-0.00002124,-0.00002518,-0.00002656,0.0000
 1921,-0.00001408,-0.00004705,-0.00000579,0.00001455,0.00002455,-0.0000
 3099,0.00002463,0.00003059,0.00002310,0.00000081,-0.00000145,0.0003184
 4,-0.00000970,0.00015423,0.00079377,0.00038810,-0.00106470,0.00014373,
 0.00006879,-0.00003132,0.00012168,-0.00001699,-0.00003894,0.00011755,-
 0.00008654,0.00002964,-0.00009252,-0.00002657,-0.00012724,0.00001400,0
 .00000008,0.00001274,0.00002234,0.00001252,-0.00003495,0.00006868,-0.0
 0000989,0.00021909,-0.00336769,-0.00108089,0.00072282,0.00089338,0.001
 15417,0.00029090,0.00142265,-0.00005439,0.00023335,0.00214650,0.001747
 38,-0.00045118,0.00019383,0.00037417,-0.00058661,-0.00426642,0.0025025
 1,-0.00617894,0.00019513,0.00049222,-0.00011995,-0.00003400,-0.0000586
 1,-0.00003014,0.03896717,0.00367998,-0.02273496,-0.00016101,-0.0004575
 5,0.00005306,0.00171758,0.00008102,-0.00008483,-0.00003435,0.00018993,
 -0.00173654,-0.00009747,-0.00006221,0.00004463,0.00002186,0.00000497,0
 .00000663,0.00001645,0.00000026,-0.00001037,0.00000351,0.00000887,-0.0
 0000907,-0.00002537,0.00002802,0.00003918,-0.00000445,-0.00000488,-0.0
 0000519,-0.00000205,-0.00000609,-0.00000059,0.00001377,-0.00000048,-0.
 00000645,-0.00007474,0.00003068,-0.00006097,0.00001397,0.00000438,0.00
 000547,0.00000062,-0.00000028,0.00001220,0.00000634,-0.00000831,0.0000
 0201,0.00005112,0.00006509,-0.00012694,0.00000560,-0.00000151,0.000017
 89,-0.00002450,-0.00001113,0.00000957,-0.00000934,-0.00001222,0.000009
 27,-0.00000031,-0.00000322,-0.00000272,-0.00000145,0.00000773,0.000003
 07,0.,-0.00000052,-0.00000355,0.00000209,-0.00000445,0.00000338,-0.000
 12627,-0.00018327,-0.00009046,0.00002627,0.00003244,0.00002194,-0.0000
 0587,-0.00002410,0.00000862,0.00000227,0.00000119,-0.00000278,0.000000
 26,-0.00000472,0.00000034,0.00000219,0.00000817,0.00000382,-0.00001592
 ,-0.00000104,-0.00001810,0.00000294,0.00001145,0.00000286,-0.00002096,
 -0.00001609,0.00000063,0.00000446,0.00000195,-0.00000169,0.00214186,-0
 .00055140,0.00065533,-0.00067636,0.00052315,0.00002443,-0.00070107,-0.
 00012464,-0.00010733,-0.00045623,0.00018001,-0.00052002,0.09506680,0.0
 0753019,-0.16358686,-0.00795110,0.00041129,0.02258439,0.02859317,-0.03
 034518,-0.01355964,-0.15363215,0.01467228,0.18688660\\-0.00000198,0.00
 000226,-0.00000198,-0.00000006,0.00000056,-0.00000262,0.00000131,0.000
 00048,-0.00000278,-0.00000380,0.00000106,-0.00000240,0.00000110,-0.000
 00120,0.00000260,0.00000113,0.00000018,-0.00000151,0.00000028,0.000000
 06,-0.00000229,-0.00000269,0.00000065,-0.00000229,-0.00000178,0.000000
 74,-0.00000035,-0.00000356,-0.00000027,-0.00000346,0.00000033,0.000000
 87,0.00000106,-0.00000030,0.00000045,-0.00000129,-0.00000084,0.0000006
 8,-0.00000314,-0.00000206,0.00000147,-0.00000459,-0.00000181,0.0000023
 2,-0.00000061,-0.00000143,-0.00000038,0.00000324,-0.00000184,0.0000005
 5,0.00000199,-0.00000098,-0.00000073,0.00000169,0.00000055,-0.00000096
 ,-0.00000101,-0.00000003,0.00000095,-0.00000385,0.00000116,0.00000063,
 -0.00000361,0.00000024,0.00000035,-0.00000398,0.00000033,0.00000105,-0
 .00000489,-0.00000314,0.00000164,-0.00000219,-0.00000322,0.00000062,-0
 .00000201,-0.00000257,0.00000049,-0.00000335,-0.00000277,0.00000032,-0
 .00000407,-0.00000446,-0.00000288,0.00000038,0.00000029,-0.00000073,-0
 .00000039,-0.00000247,0.00000072,0.,-0.00000384,0.00000003,0.00000009,
 0.00000103,-0.00000141,0.00000383,-0.00000126,-0.00000209,-0.00000181,
 0.00000422,0.00000394,0.00000633,0.00000097,-0.00000154,0.00000113,-0.
 00000078,-0.00000053,0.00000158,0.00000115,0.00000015,-0.00000289,0.00
 000047,-0.00000058,0.00000281,0.00000116,-0.00000064,0.00000216,-0.000
 00017,0.00000022,0.00000111,-0.00000066,-0.00000011,0.00000328,-0.0000
 0415,-0.00000366,-0.00000567,0.00000347,-0.00000221,-0.00000186,0.0000
 0031,0.00000098,0.00000219,0.00000239,-0.00000106,0.00000447,-0.000000
 44,-0.00000108,0.00000305,-0.00000207,-0.00000043,0.00000108,-0.000001
 61,-0.00000014,0.00000171,-0.00000204,0.00000010,0.00000032,-0.0000018
 2,-0.00000066,0.00000207,0.00000450,0.00000344,0.00000214,0.00000333,-
 0.00000344,0.00000105,0.00000173,0.00000230,0.00000005,0.00000084,0.00
 000037,-0.00000388,0.00000212,0.00000060,-0.00000189,0.00000402,-0.000
 00015,-0.00000766,0.00000140,-0.00000003,-0.00000387,0.00000284,0.0000
 0073,-0.00000346,-0.00000140,0.00000123,-0.00000275,-0.00000196,-0.000
 00233,0.00001288,0.00000143,0.00000108,-0.00000375,-0.00000027,0.00000
 131,-0.00000442,0.00000179,-0.00000109,0.00000044,0.00000276,-0.000002
 12,0.00000319,0.00000285,0.00000012,0.00000462,0.00000103,0.00000181,0
 .00000335,0.00000236,-0.00000043,0.00000378,0.00000179,-0.00000123,0.0
 0000402,0.00000299,-0.00000109,0.00000384,0.00000201,-0.00000131,0.000
 00501,-0.00000004,-0.00000031,0.00000413,-0.00000072,-0.00000126,0.000
 00454,-0.00000141,-0.00000086,0.00000370,-0.00000050,-0.00000108,0.000
 00407,-0.00000324,0.00000014,0.00000223,-0.00000413,-0.00000033,0.0000
 0230,-0.00000362,0.00000003,0.00000107,-0.00000351,-0.00000021,0.00000
 211,-0.00000089,0.00000121,-0.00000146,-0.00000063,0.00000028,-0.00000
 208,-0.00000019,0.00000004,-0.00000054,0.00000066,0.00000007,-0.000001
 06,-0.00000023,-0.00000261,-0.00000027,0.00000296,0.00000009,0.0000009
 9,0.00000275,0.00000057,0.00000073,0.00000290,-0.00000096,0.00000273,0
 .00000320,-0.00000056,0.00000138,0.00000241,-0.00000099,0.00000173,0.0
 0000206,0.00000067,0.00000342,0.00000055,-0.00000088,0.00000266,0.0000
 0144,-0.00000012,0.00000365,0.00000109,-0.00000075,0.00000383,0.000002
 98,0.00000056,-0.00000472,0.00000136,0.00000197,-0.00000444,0.00000141
 ,0.00000058,-0.00000555,0.00000325,0.00000100,-0.00000557,-0.00000098,
 0.00000104,-0.00000406,-0.00000222,0.00000163,-0.00000098,-0.00000134,
 -0.00000053,-0.00000207,-0.00000277,0.00000058,-0.00000242\\\@


 KNOWLEDGE IS EXPERIMENT'S DAUGHTER.
 -- LEONARDO DA VINCI, IN "PENSIERI" CA. 1492
 Job cpu time:       4 days 20 hours 32 minutes 27.4 seconds.
 Elapsed time:       0 days  4 hours  1 minutes 54.2 seconds.
 File lengths (MBytes):  RWF=   9726 Int=      0 D2E=      0 Chk=     86 Scr=      1
 Normal termination of Gaussian 16 at Wed Jun  5 21:48:49 2019.
