 Entering Gaussian System, Link 0=g16
 Input=clay_new-glu_gluC6-BCDR-Na2_1Me2O-bisCF3-ts-m11-631gd-pcm_thf.gjf
 Output=clay_new-glu_gluC6-BCDR-Na2_1Me2O-bisCF3-ts-m11-631gd-pcm_thf.out
 Initial command:
 /home/ekwan/sw/g16/l1.exe "/scratch/users/ekwan/clay_new-glu_gluC6-BCDR-Na2_1Me2O-bisCF3-ts-m11-631gd-pcm_thf/Gau-7902.inp" -scrdir="/scratch/users/ekwan/clay_new-glu_gluC6-BCDR-Na2_1Me2O-bisCF3-ts-m11-631gd-pcm_thf/"
 Entering Link 1 = /home/ekwan/sw/g16/l1.exe PID=      7903.
  
 Copyright (c) 1988,1990,1992,1993,1995,1998,2003,2009,2016,
            Gaussian, Inc.  All Rights Reserved.
  
 This is part of the Gaussian(R) 16 program.  It is based on
 the Gaussian(R) 09 system (copyright 2009, Gaussian, Inc.),
 the Gaussian(R) 03 system (copyright 2003, Gaussian, Inc.),
 the Gaussian(R) 98 system (copyright 1998, Gaussian, Inc.),
 the Gaussian(R) 94 system (copyright 1995, Gaussian, Inc.),
 the Gaussian 92(TM) system (copyright 1992, Gaussian, Inc.),
 the Gaussian 90(TM) system (copyright 1990, Gaussian, Inc.),
 the Gaussian 88(TM) system (copyright 1988, Gaussian, Inc.),
 the Gaussian 86(TM) system (copyright 1986, Carnegie Mellon
 University), and the Gaussian 82(TM) system (copyright 1983,
 Carnegie Mellon University). Gaussian is a federally registered
 trademark of Gaussian, Inc.
  
 This software contains proprietary and confidential information,
 including trade secrets, belonging to Gaussian, Inc.
  
 This software is provided under written license and may be
 used, copied, transmitted, or stored only in accord with that
 written license.
  
 The following legend is applicable only to US Government
 contracts under FAR:
  
                    RESTRICTED RIGHTS LEGEND
  
 Use, reproduction and disclosure by the US Government is
 subject to restrictions as set forth in subparagraphs (a)
 and (c) of the Commercial Computer Software - Restricted
 Rights clause in FAR 52.227-19.
  
 Gaussian, Inc.
 340 Quinnipiac St., Bldg. 40, Wallingford CT 06492
  
  
 ---------------------------------------------------------------
 Warning -- This program may not be used in any manner that
 competes with the business of Gaussian, Inc. or will provide
 assistance to any competitor of Gaussian, Inc.  The licensee
 of this program is prohibited from giving any competitor of
 Gaussian, Inc. access to this program.  By using this program,
 the user acknowledges that Gaussian, Inc. is engaged in the
 business of creating and licensing software in the field of
 computational chemistry and represents and warrants to the
 licensee that it is not a competitor of Gaussian, Inc. and that
 it will not use this program in any manner prohibited above.
 ---------------------------------------------------------------
  

 Cite this work as:
 Gaussian 16, Revision A.03,
 M. J. Frisch, G. W. Trucks, H. B. Schlegel, G. E. Scuseria, 
 M. A. Robb, J. R. Cheeseman, G. Scalmani, V. Barone, 
 G. A. Petersson, H. Nakatsuji, X. Li, M. Caricato, A. V. Marenich, 
 J. Bloino, B. G. Janesko, R. Gomperts, B. Mennucci, H. P. Hratchian, 
 J. V. Ortiz, A. F. Izmaylov, J. L. Sonnenberg, D. Williams-Young, 
 F. Ding, F. Lipparini, F. Egidi, J. Goings, B. Peng, A. Petrone, 
 T. Henderson, D. Ranasinghe, V. G. Zakrzewski, J. Gao, N. Rega, 
 G. Zheng, W. Liang, M. Hada, M. Ehara, K. Toyota, R. Fukuda, 
 J. Hasegawa, M. Ishida, T. Nakajima, Y. Honda, O. Kitao, H. Nakai, 
 T. Vreven, K. Throssell, J. A. Montgomery, Jr., J. E. Peralta, 
 F. Ogliaro, M. J. Bearpark, J. J. Heyd, E. N. Brothers, K. N. Kudin, 
 V. N. Staroverov, T. A. Keith, R. Kobayashi, J. Normand, 
 K. Raghavachari, A. P. Rendell, J. C. Burant, S. S. Iyengar, 
 J. Tomasi, M. Cossi, J. M. Millam, M. Klene, C. Adamo, R. Cammi, 
 J. W. Ochterski, R. L. Martin, K. Morokuma, O. Farkas, 
 J. B. Foresman, and D. J. Fox, Gaussian, Inc., Wallingford CT, 2016.
 
 ******************************************
 Gaussian 16:  AS64L-G16RevA.03 25-Dec-2016
                 6-Jun-2019 
 ******************************************
 %nprocshared=32
 Will use up to   32 processors via shared memory.
 %mem=48GB
 ----------------------------------------------------------------------
 #p opt=(calcfc,ts,noeigentest,maxstep=5) freq=noraman 6-31g(d) scrf=(s
 olvent=tetrahydrofuran,pcm) pop=none m11
 ----------------------------------------------------------------------
 1/5=1,8=5,10=4,11=1,18=20,26=3,38=1/1,3;
 2/9=110,12=2,17=6,18=5,40=1/2;
 3/5=1,6=6,7=1,11=2,25=1,30=1,70=2201,71=2,72=20,74=-64,140=1/1,2,3;
 4//1;
 5/5=2,38=5,53=20/2;
 8/6=4,10=90,11=11/1;
 11/6=1,8=1,9=11,15=111,16=1/1,2,10;
 10/6=1,13=1/2;
 7/10=1,18=20,25=1/1,2,3,16;
 1/5=1,8=5,10=4,11=1,18=20,26=3/3(2);
 2/9=110/2;
 99//99;
 2/9=110/2;
 3/5=1,6=6,7=1,11=2,25=1,30=1,70=2205,71=1,72=20,74=-64/1,2,3;
 4/5=5,16=3,69=1/1;
 5/5=2,38=5,53=20/2;
 7//1,2,3,16;
 1/5=1,8=5,11=1,18=20,26=3/3(-5);
 2/9=110/2;
 99/9=1/99;
 Leave Link    1 at Thu Jun  6 22:38:24 2019, MaxMem=  6442450944 cpu:               6.0 elap:               0.2
 (Enter /home/ekwan/sw/g16/l101.exe)
 -----
 title
 -----
 Symbolic Z-matrix:
 Charge =  0 Multiplicity = 1
 C                    -1.49818   1.63383   2.42014 
 C                    -1.90191   2.23896   1.07587 
 C                    -1.01211   3.44126   0.75052 
 C                     0.80269   2.58214   2.05377 
 C                    -0.00289   1.32762   2.39787 
 H                    -1.20424   3.79713  -0.27633 
 H                    -1.73085   1.48838   0.28296 
 H                    -1.71296   2.36718   3.22002 
 H                     0.60517   3.35014   2.82254 
 H                     0.16734   0.56396   1.61865 
 O                     0.35533   3.07099   0.77378 
 O                    -1.28448   4.44584   1.68102 
 O                    -3.24477   2.6704    1.0702 
 O                    -2.2778    0.46779   2.61282 
 O                     0.41167   0.82414   3.6556 
 C                     2.31059   2.32318   1.94688 
 H                     2.62993   2.00601   2.96693 
 H                     2.77715   3.32929   1.78658 
 O                     2.64498   1.43137   0.95562 
 C                    -4.15549   1.716     0.54832 
 H                    -3.89169   1.45125  -0.49142 
 H                    -4.17294   0.8023    1.16043 
 H                    -5.14807   2.18374   0.55 
 C                    -2.36377   0.01685   3.95802 
 H                    -1.55464  -0.68662   4.20189 
 H                    -2.31053   0.86678   4.65642 
 H                    -3.3294   -0.48884   4.07441 
 C                     1.1666   -0.37213   3.52772 
 H                     0.52908  -1.18929   3.13942 
 H                     2.01167  -0.23338   2.83443 
 H                     1.53541  -0.64122   4.5262 
 C                     3.48821  -1.81442  -1.37753 
 C                     3.05717  -0.41335  -0.94466 
 C                     1.72593  -0.43991  -0.24712 
 C                     1.84371  -2.75506   0.29929 
 C                     3.29207  -2.73997  -0.17548 
 H                     1.10296   0.44128  -0.20418 
 H                     3.74843  -0.05197  -0.15959 
 H                     2.88181  -2.14807  -2.2363 
 H                     1.19108  -3.1597   -0.48854 
 H                     3.92832  -2.37305   0.64687 
 O                     1.36315  -1.39456   0.53122 
 O                    -0.53271   0.06884  -3.87976 
 O                     2.96255   0.55771  -1.95977 
 O                     4.86471  -1.78731  -1.70133 
 O                     3.63135  -4.06798  -0.51145 
 C                     1.64858  -3.51194   1.5933 
 H                     1.84317  -4.58287   1.40284 
 H                     0.60089  -3.40008   1.93016 
 O                     2.54408  -2.99106   2.54657 
 S                    -0.35285  -0.0009   -2.42548 
 O                    -0.11809   1.31033  -1.75647 
 O                     0.64965  -1.03235  -1.97803 
 C                    -1.89235  -0.61196  -1.73932 
 C                    -3.06681  -0.49229  -2.46377 
 C                    -1.87221  -1.18112  -0.46827 
 C                    -4.25145  -0.95211  -1.89064 
 H                    -3.05262  -0.05225  -3.46183 
 C                    -3.05934  -1.65351   0.06662 
 H                    -0.94037  -1.27094   0.09455 
 C                    -4.25742  -1.54381  -0.63562 
 H                    -5.18853  -1.91254  -0.2019 
 C                     4.20541   0.88971  -2.58114 
 H                     5.01381   0.91734  -1.83567 
 H                     4.46028   0.15734  -3.35953 
 H                     4.07757   1.88201  -3.02917 
 C                     5.21133  -2.61711  -2.80243 
 H                     4.93382  -3.66403  -2.6118 
 H                     4.71228  -2.27242  -3.72441 
 H                     6.29713  -2.53956  -2.93113 
 C                     4.75373  -4.55948   0.21221 
 H                     5.65142  -3.96215  -0.01487 
 H                     4.55894  -4.52808   1.29742 
 H                     4.91195  -5.59678  -0.10358 
 C                     2.39152  -3.61016   3.81073 
 H                     3.1108   -3.14383   4.49328 
 H                     1.36914  -3.46087   4.19965 
 H                     2.59425  -4.693     3.74657 
 C                    -0.56049   5.64069   1.42858 
 H                    -0.92986   6.39748   2.12905 
 H                     0.51964   5.49062   1.58284 
 H                    -0.72952   5.98531   0.39414 
 Na                    1.80996   2.48242  -0.97439 
 O                     3.67366   3.82321  -1.22991 
 C                     4.03203   4.86969  -2.11281 
 H                     4.86026   4.55404  -2.77078 
 H                     3.15446   5.11245  -2.72293 
 H                     4.34655   5.76472  -1.55073 
 C                     4.75043   3.44455  -0.37989 
 H                     5.02683   4.28226   0.28272 
 H                     4.39556   2.58646   0.20902 
 H                     5.6315    3.16612  -0.98419 
 C                    -5.55618  -0.71756  -2.60076 
 F                    -6.08474   0.47628  -2.24929 
 F                    -6.46867  -1.66041  -2.29337 
 F                    -5.40199  -0.70629  -3.93837 
 C                    -3.08543  -2.33014   1.40876 
 F                    -1.89861  -2.26748   2.04396 
 F                    -3.40343  -3.63863   1.28406 
 F                    -4.0266   -1.78275   2.20623 
 
 Add virtual bond connecting atoms H37        and H10        Dist= 3.88D+00.
 Add virtual bond connecting atoms H37        and O19        Dist= 4.10D+00.
 Add virtual bond connecting atoms H38        and O19        Dist= 4.08D+00.
 Add virtual bond connecting atoms O52        and H37        Dist= 4.08D+00.
 Add virtual bond connecting atoms O53        and C34        Dist= 4.01D+00.
 Add virtual bond connecting atoms O84        and Na83       Dist= 4.37D+00.
 Add virtual bond connecting atoms H91        and H18        Dist= 4.50D+00.
 Add virtual bond connecting atoms H91        and O19        Dist= 4.21D+00.
 ITRead=  0  0  0  0  0  0  0  0  0  0  0  0  0  0  0  0  0  0  0  0
 ITRead=  0  0  0  0  0  0  0  0  0  0  0  0  0  0  0  0  0  0  0  0
 ITRead=  0  0  0  0  0  0  0  0  0  0  0  0  0  0  0  0  0  0  0  0
 ITRead=  0  0  0  0  0  0  0  0  0  0  0  0  0  0  0  0  0  0  0  0
 ITRead=  0  0  0  0  0  0  0  0  0  0  0  0  0  0  0  0  0  0  0  0
 MicOpt= -1 -1 -1 -1 -1 -1 -1 -1 -1 -1 -1 -1 -1 -1 -1 -1 -1 -1 -1 -1
 MicOpt= -1 -1 -1 -1 -1 -1 -1 -1 -1 -1 -1 -1 -1 -1 -1 -1 -1 -1 -1 -1
 MicOpt= -1 -1 -1 -1 -1 -1 -1 -1 -1 -1 -1 -1 -1 -1 -1 -1 -1 -1 -1 -1
 MicOpt= -1 -1 -1 -1 -1 -1 -1 -1 -1 -1 -1 -1 -1 -1 -1 -1 -1 -1 -1 -1
 MicOpt= -1 -1 -1 -1 -1 -1 -1 -1 -1 -1 -1 -1 -1 -1 -1 -1 -1 -1 -1 -1
 NAtoms=    100 NQM=      100 NQMF=       0 NMMI=      0 NMMIF=      0
                NMic=       0 NMicF=      0.
                    Isotopes and Nuclear Properties:
 (Nuclear quadrupole moments (NQMom) in fm**2, nuclear magnetic moments (NMagM)
  in nuclear magnetons)

  Atom         1           2           3           4           5           6           7           8           9          10
 IAtWgt=          12          12          12          12          12           1           1           1           1           1
 AtmWgt=  12.0000000  12.0000000  12.0000000  12.0000000  12.0000000   1.0078250   1.0078250   1.0078250   1.0078250   1.0078250
 NucSpn=           0           0           0           0           0           1           1           1           1           1
 AtZEff=   0.0000000   0.0000000   0.0000000   0.0000000   0.0000000   0.0000000   0.0000000   0.0000000   0.0000000   0.0000000
 NQMom=    0.0000000   0.0000000   0.0000000   0.0000000   0.0000000   0.0000000   0.0000000   0.0000000   0.0000000   0.0000000
 NMagM=    0.0000000   0.0000000   0.0000000   0.0000000   0.0000000   2.7928460   2.7928460   2.7928460   2.7928460   2.7928460
 AtZNuc=   6.0000000   6.0000000   6.0000000   6.0000000   6.0000000   1.0000000   1.0000000   1.0000000   1.0000000   1.0000000

  Atom        11          12          13          14          15          16          17          18          19          20
 IAtWgt=          16          16          16          16          16          12           1           1          16          12
 AtmWgt=  15.9949146  15.9949146  15.9949146  15.9949146  15.9949146  12.0000000   1.0078250   1.0078250  15.9949146  12.0000000
 NucSpn=           0           0           0           0           0           0           1           1           0           0
 AtZEff=   0.0000000   0.0000000   0.0000000   0.0000000   0.0000000   0.0000000   0.0000000   0.0000000   0.0000000   0.0000000
 NQMom=    0.0000000   0.0000000   0.0000000   0.0000000   0.0000000   0.0000000   0.0000000   0.0000000   0.0000000   0.0000000
 NMagM=    0.0000000   0.0000000   0.0000000   0.0000000   0.0000000   0.0000000   2.7928460   2.7928460   0.0000000   0.0000000
 AtZNuc=   8.0000000   8.0000000   8.0000000   8.0000000   8.0000000   6.0000000   1.0000000   1.0000000   8.0000000   6.0000000

  Atom        21          22          23          24          25          26          27          28          29          30
 IAtWgt=           1           1           1          12           1           1           1          12           1           1
 AtmWgt=   1.0078250   1.0078250   1.0078250  12.0000000   1.0078250   1.0078250   1.0078250  12.0000000   1.0078250   1.0078250
 NucSpn=           1           1           1           0           1           1           1           0           1           1
 AtZEff=   0.0000000   0.0000000   0.0000000   0.0000000   0.0000000   0.0000000   0.0000000   0.0000000   0.0000000   0.0000000
 NQMom=    0.0000000   0.0000000   0.0000000   0.0000000   0.0000000   0.0000000   0.0000000   0.0000000   0.0000000   0.0000000
 NMagM=    2.7928460   2.7928460   2.7928460   0.0000000   2.7928460   2.7928460   2.7928460   0.0000000   2.7928460   2.7928460
 AtZNuc=   1.0000000   1.0000000   1.0000000   6.0000000   1.0000000   1.0000000   1.0000000   6.0000000   1.0000000   1.0000000

  Atom        31          32          33          34          35          36          37          38          39          40
 IAtWgt=           1          12          12          12          12          12           1           1           1           1
 AtmWgt=   1.0078250  12.0000000  12.0000000  12.0000000  12.0000000  12.0000000   1.0078250   1.0078250   1.0078250   1.0078250
 NucSpn=           1           0           0           0           0           0           1           1           1           1
 AtZEff=   0.0000000   0.0000000   0.0000000   0.0000000   0.0000000   0.0000000   0.0000000   0.0000000   0.0000000   0.0000000
 NQMom=    0.0000000   0.0000000   0.0000000   0.0000000   0.0000000   0.0000000   0.0000000   0.0000000   0.0000000   0.0000000
 NMagM=    2.7928460   0.0000000   0.0000000   0.0000000   0.0000000   0.0000000   2.7928460   2.7928460   2.7928460   2.7928460
 AtZNuc=   1.0000000   6.0000000   6.0000000   6.0000000   6.0000000   6.0000000   1.0000000   1.0000000   1.0000000   1.0000000

  Atom        41          42          43          44          45          46          47          48          49          50
 IAtWgt=           1          16          16          16          16          16          12           1           1          16
 AtmWgt=   1.0078250  15.9949146  15.9949146  15.9949146  15.9949146  15.9949146  12.0000000   1.0078250   1.0078250  15.9949146
 NucSpn=           1           0           0           0           0           0           0           1           1           0
 AtZEff=   0.0000000   0.0000000   0.0000000   0.0000000   0.0000000   0.0000000   0.0000000   0.0000000   0.0000000   0.0000000
 NQMom=    0.0000000   0.0000000   0.0000000   0.0000000   0.0000000   0.0000000   0.0000000   0.0000000   0.0000000   0.0000000
 NMagM=    2.7928460   0.0000000   0.0000000   0.0000000   0.0000000   0.0000000   0.0000000   2.7928460   2.7928460   0.0000000
 AtZNuc=   1.0000000   8.0000000   8.0000000   8.0000000   8.0000000   8.0000000   6.0000000   1.0000000   1.0000000   8.0000000

  Atom        51          52          53          54          55          56          57          58          59          60
 IAtWgt=          32          16          16          12          12          12          12           1          12           1
 AtmWgt=  31.9720718  15.9949146  15.9949146  12.0000000  12.0000000  12.0000000  12.0000000   1.0078250  12.0000000   1.0078250
 NucSpn=           0           0           0           0           0           0           0           1           0           1
 AtZEff=   0.0000000   0.0000000   0.0000000   0.0000000   0.0000000   0.0000000   0.0000000   0.0000000   0.0000000   0.0000000
 NQMom=    0.0000000   0.0000000   0.0000000   0.0000000   0.0000000   0.0000000   0.0000000   0.0000000   0.0000000   0.0000000
 NMagM=    0.0000000   0.0000000   0.0000000   0.0000000   0.0000000   0.0000000   0.0000000   2.7928460   0.0000000   2.7928460
 AtZNuc=  16.0000000   8.0000000   8.0000000   6.0000000   6.0000000   6.0000000   6.0000000   1.0000000   6.0000000   1.0000000

  Atom        61          62          63          64          65          66          67          68          69          70
 IAtWgt=          12           1          12           1           1           1          12           1           1           1
 AtmWgt=  12.0000000   1.0078250  12.0000000   1.0078250   1.0078250   1.0078250  12.0000000   1.0078250   1.0078250   1.0078250
 NucSpn=           0           1           0           1           1           1           0           1           1           1
 AtZEff=   0.0000000   0.0000000   0.0000000   0.0000000   0.0000000   0.0000000   0.0000000   0.0000000   0.0000000   0.0000000
 NQMom=    0.0000000   0.0000000   0.0000000   0.0000000   0.0000000   0.0000000   0.0000000   0.0000000   0.0000000   0.0000000
 NMagM=    0.0000000   2.7928460   0.0000000   2.7928460   2.7928460   2.7928460   0.0000000   2.7928460   2.7928460   2.7928460
 AtZNuc=   6.0000000   1.0000000   6.0000000   1.0000000   1.0000000   1.0000000   6.0000000   1.0000000   1.0000000   1.0000000

  Atom        71          72          73          74          75          76          77          78          79          80
 IAtWgt=          12           1           1           1          12           1           1           1          12           1
 AtmWgt=  12.0000000   1.0078250   1.0078250   1.0078250  12.0000000   1.0078250   1.0078250   1.0078250  12.0000000   1.0078250
 NucSpn=           0           1           1           1           0           1           1           1           0           1
 AtZEff=   0.0000000   0.0000000   0.0000000   0.0000000   0.0000000   0.0000000   0.0000000   0.0000000   0.0000000   0.0000000
 NQMom=    0.0000000   0.0000000   0.0000000   0.0000000   0.0000000   0.0000000   0.0000000   0.0000000   0.0000000   0.0000000
 NMagM=    0.0000000   2.7928460   2.7928460   2.7928460   0.0000000   2.7928460   2.7928460   2.7928460   0.0000000   2.7928460
 AtZNuc=   6.0000000   1.0000000   1.0000000   1.0000000   6.0000000   1.0000000   1.0000000   1.0000000   6.0000000   1.0000000

  Atom        81          82          83          84          85          86          87          88          89          90
 IAtWgt=           1           1          23          16          12           1           1           1          12           1
 AtmWgt=   1.0078250   1.0078250  22.9897697  15.9949146  12.0000000   1.0078250   1.0078250   1.0078250  12.0000000   1.0078250
 NucSpn=           1           1           3           0           0           1           1           1           0           1
 AtZEff=   0.0000000   0.0000000   0.0000000   0.0000000   0.0000000   0.0000000   0.0000000   0.0000000   0.0000000   0.0000000
 NQMom=    0.0000000   0.0000000  10.4000000   0.0000000   0.0000000   0.0000000   0.0000000   0.0000000   0.0000000   0.0000000
 NMagM=    2.7928460   2.7928460   2.2175200   0.0000000   0.0000000   2.7928460   2.7928460   2.7928460   0.0000000   2.7928460
 AtZNuc=   1.0000000   1.0000000  11.0000000   8.0000000   6.0000000   1.0000000   1.0000000   1.0000000   6.0000000   1.0000000

  Atom        91          92          93          94          95          96          97          98          99         100
 IAtWgt=           1           1          12          19          19          19          12          19          19          19
 AtmWgt=   1.0078250   1.0078250  12.0000000  18.9984033  18.9984033  18.9984033  12.0000000  18.9984033  18.9984033  18.9984033
 NucSpn=           1           1           0           1           1           1           0           1           1           1
 AtZEff=   0.0000000   0.0000000   0.0000000   0.0000000   0.0000000   0.0000000   0.0000000   0.0000000   0.0000000   0.0000000
 NQMom=    0.0000000   0.0000000   0.0000000   0.0000000   0.0000000   0.0000000   0.0000000   0.0000000   0.0000000   0.0000000
 NMagM=    2.7928460   2.7928460   0.0000000   2.6288670   2.6288670   2.6288670   0.0000000   2.6288670   2.6288670   2.6288670
 AtZNuc=   1.0000000   1.0000000   6.0000000   9.0000000   9.0000000   9.0000000   6.0000000   9.0000000   9.0000000   9.0000000
 Leave Link  101 at Thu Jun  6 22:38:24 2019, MaxMem=  6442450944 cpu:              19.0 elap:               0.7
 (Enter /home/ekwan/sw/g16/l103.exe)

 GradGradGradGradGradGradGradGradGradGradGradGradGradGradGradGradGradGrad
 Berny optimization.
 Initialization pass.
                           ----------------------------
                           !    Initial Parameters    !
                           ! (Angstroms and Degrees)  !
 --------------------------                            --------------------------
 ! Name  Definition              Value          Derivative Info.                !
 --------------------------------------------------------------------------------
 ! R1    R(1,2)                  1.5285         calculate D2E/DX2 analytically  !
 ! R2    R(1,5)                  1.5265         calculate D2E/DX2 analytically  !
 ! R3    R(1,8)                  1.1062         calculate D2E/DX2 analytically  !
 ! R4    R(1,14)                 1.4158         calculate D2E/DX2 analytically  !
 ! R5    R(2,3)                  1.5307         calculate D2E/DX2 analytically  !
 ! R6    R(2,7)                  1.1051         calculate D2E/DX2 analytically  !
 ! R7    R(2,13)                 1.4105         calculate D2E/DX2 analytically  !
 ! R8    R(3,6)                  1.1036         calculate D2E/DX2 analytically  !
 ! R9    R(3,11)                 1.4169         calculate D2E/DX2 analytically  !
 ! R10   R(3,12)                 1.3961         calculate D2E/DX2 analytically  !
 ! R11   R(4,5)                  1.5301         calculate D2E/DX2 analytically  !
 ! R12   R(4,9)                  1.1045         calculate D2E/DX2 analytically  !
 ! R13   R(4,11)                 1.4414         calculate D2E/DX2 analytically  !
 ! R14   R(4,16)                 1.5337         calculate D2E/DX2 analytically  !
 ! R15   R(5,10)                 1.1042         calculate D2E/DX2 analytically  !
 ! R16   R(5,15)                 1.4168         calculate D2E/DX2 analytically  !
 ! R17   R(10,37)                2.0526         calculate D2E/DX2 analytically  !
 ! R18   R(12,79)                1.4197         calculate D2E/DX2 analytically  !
 ! R19   R(13,20)                1.4187         calculate D2E/DX2 analytically  !
 ! R20   R(14,24)                1.4214         calculate D2E/DX2 analytically  !
 ! R21   R(15,28)                1.4203         calculate D2E/DX2 analytically  !
 ! R22   R(16,17)                1.1149         calculate D2E/DX2 analytically  !
 ! R23   R(16,18)                1.1205         calculate D2E/DX2 analytically  !
 ! R24   R(16,19)                1.3747         calculate D2E/DX2 analytically  !
 ! R25   R(18,91)                2.379          calculate D2E/DX2 analytically  !
 ! R26   R(19,37)                2.1687         calculate D2E/DX2 analytically  !
 ! R27   R(19,38)                2.1591         calculate D2E/DX2 analytically  !
 ! R28   R(19,91)                2.2262         calculate D2E/DX2 analytically  !
 ! R29   R(20,21)                1.1049         calculate D2E/DX2 analytically  !
 ! R30   R(20,22)                1.0999         calculate D2E/DX2 analytically  !
 ! R31   R(20,23)                1.0973         calculate D2E/DX2 analytically  !
 ! R32   R(24,25)                1.0996         calculate D2E/DX2 analytically  !
 ! R33   R(24,26)                1.1014         calculate D2E/DX2 analytically  !
 ! R34   R(24,27)                1.0962         calculate D2E/DX2 analytically  !
 ! R35   R(28,29)                1.1068         calculate D2E/DX2 analytically  !
 ! R36   R(28,30)                1.1018         calculate D2E/DX2 analytically  !
 ! R37   R(28,31)                1.0979         calculate D2E/DX2 analytically  !
 ! R38   R(32,33)                1.5284         calculate D2E/DX2 analytically  !
 ! R39   R(32,36)                1.5297         calculate D2E/DX2 analytically  !
 ! R40   R(32,39)                1.103          calculate D2E/DX2 analytically  !
 ! R41   R(32,45)                1.4143         calculate D2E/DX2 analytically  !
 ! R42   R(33,34)                1.5032         calculate D2E/DX2 analytically  !
 ! R43   R(33,38)                1.1067         calculate D2E/DX2 analytically  !
 ! R44   R(33,44)                1.408          calculate D2E/DX2 analytically  !
 ! R45   R(34,37)                1.08           calculate D2E/DX2 analytically  !
 ! R46   R(34,42)                1.284          calculate D2E/DX2 analytically  !
 ! R47   R(34,53)                2.1226         calculate D2E/DX2 analytically  !
 ! R48   R(35,36)                1.5243         calculate D2E/DX2 analytically  !
 ! R49   R(35,40)                1.1002         calculate D2E/DX2 analytically  !
 ! R50   R(35,42)                1.4614         calculate D2E/DX2 analytically  !
 ! R51   R(35,47)                1.5118         calculate D2E/DX2 analytically  !
 ! R52   R(36,41)                1.1026         calculate D2E/DX2 analytically  !
 ! R53   R(36,46)                1.4112         calculate D2E/DX2 analytically  !
 ! R54   R(37,52)                2.1577         calculate D2E/DX2 analytically  !
 ! R55   R(37,83)                2.2933         calculate D2E/DX2 analytically  !
 ! R56   R(43,51)                1.467          calculate D2E/DX2 analytically  !
 ! R57   R(44,63)                1.4286         calculate D2E/DX2 analytically  !
 ! R58   R(45,67)                1.4217         calculate D2E/DX2 analytically  !
 ! R59   R(46,71)                1.423          calculate D2E/DX2 analytically  !
 ! R60   R(47,48)                1.105          calculate D2E/DX2 analytically  !
 ! R61   R(47,49)                1.1062         calculate D2E/DX2 analytically  !
 ! R62   R(47,50)                1.4078         calculate D2E/DX2 analytically  !
 ! R63   R(50,75)                1.4159         calculate D2E/DX2 analytically  !
 ! R64   R(51,52)                1.4906         calculate D2E/DX2 analytically  !
 ! R65   R(51,53)                1.5064         calculate D2E/DX2 analytically  !
 ! R66   R(51,54)                1.7928         calculate D2E/DX2 analytically  !
 ! R67   R(54,55)                1.3851         calculate D2E/DX2 analytically  !
 ! R68   R(54,56)                1.3928         calculate D2E/DX2 analytically  !
 ! R69   R(55,57)                1.394          calculate D2E/DX2 analytically  !
 ! R70   R(55,58)                1.0909         calculate D2E/DX2 analytically  !
 ! R71   R(56,59)                1.3851         calculate D2E/DX2 analytically  !
 ! R72   R(56,60)                1.0923         calculate D2E/DX2 analytically  !
 ! R73   R(57,61)                1.3875         calculate D2E/DX2 analytically  !
 ! R74   R(57,93)                1.5039         calculate D2E/DX2 analytically  !
 ! R75   R(59,61)                1.393          calculate D2E/DX2 analytically  !
 ! R76   R(59,97)                1.5033         calculate D2E/DX2 analytically  !
 ! R77   R(61,62)                1.0914         calculate D2E/DX2 analytically  !
 ! R78   R(63,64)                1.1            calculate D2E/DX2 analytically  !
 ! R79   R(63,65)                1.0987         calculate D2E/DX2 analytically  !
 ! R80   R(63,66)                1.0962         calculate D2E/DX2 analytically  !
 ! R81   R(67,68)                1.0997         calculate D2E/DX2 analytically  !
 ! R82   R(67,69)                1.1036         calculate D2E/DX2 analytically  !
 ! R83   R(67,70)                1.0961         calculate D2E/DX2 analytically  !
 ! R84   R(71,72)                1.1019         calculate D2E/DX2 analytically  !
 ! R85   R(71,73)                1.103          calculate D2E/DX2 analytically  !
 ! R86   R(71,74)                1.0958         calculate D2E/DX2 analytically  !
 ! R87   R(75,76)                1.0958         calculate D2E/DX2 analytically  !
 ! R88   R(75,77)                1.104          calculate D2E/DX2 analytically  !
 ! R89   R(75,78)                1.1035         calculate D2E/DX2 analytically  !
 ! R90   R(79,80)                1.0954         calculate D2E/DX2 analytically  !
 ! R91   R(79,81)                1.1014         calculate D2E/DX2 analytically  !
 ! R92   R(79,82)                1.1034         calculate D2E/DX2 analytically  !
 ! R93   R(83,84)                2.3101         calculate D2E/DX2 analytically  !
 ! R94   R(84,85)                1.4153         calculate D2E/DX2 analytically  !
 ! R95   R(84,89)                1.4231         calculate D2E/DX2 analytically  !
 ! R96   R(85,86)                1.1039         calculate D2E/DX2 analytically  !
 ! R97   R(85,87)                1.096          calculate D2E/DX2 analytically  !
 ! R98   R(85,88)                1.1027         calculate D2E/DX2 analytically  !
 ! R99   R(89,90)                1.1033         calculate D2E/DX2 analytically  !
 ! R100  R(89,91)                1.0996         calculate D2E/DX2 analytically  !
 ! R101  R(89,92)                1.1041         calculate D2E/DX2 analytically  !
 ! R102  R(93,94)                1.3521         calculate D2E/DX2 analytically  !
 ! R103  R(93,95)                1.3476         calculate D2E/DX2 analytically  !
 ! R104  R(93,96)                1.3465         calculate D2E/DX2 analytically  !
 ! R105  R(97,98)                1.3476         calculate D2E/DX2 analytically  !
 ! R106  R(97,99)                1.3523         calculate D2E/DX2 analytically  !
 ! R107  R(97,100)               1.3496         calculate D2E/DX2 analytically  !
 ! A1    A(2,1,5)              108.9854         calculate D2E/DX2 analytically  !
 ! A2    A(2,1,8)              108.7953         calculate D2E/DX2 analytically  !
 ! A3    A(2,1,14)             107.4749         calculate D2E/DX2 analytically  !
 ! A4    A(5,1,8)              109.495          calculate D2E/DX2 analytically  !
 ! A5    A(5,1,14)             112.0971         calculate D2E/DX2 analytically  !
 ! A6    A(8,1,14)             109.9168         calculate D2E/DX2 analytically  !
 ! A7    A(1,2,3)              110.1418         calculate D2E/DX2 analytically  !
 ! A8    A(1,2,7)              108.7375         calculate D2E/DX2 analytically  !
 ! A9    A(1,2,13)             112.093          calculate D2E/DX2 analytically  !
 ! A10   A(3,2,7)              106.9168         calculate D2E/DX2 analytically  !
 ! A11   A(3,2,13)             108.199          calculate D2E/DX2 analytically  !
 ! A12   A(7,2,13)             110.6238         calculate D2E/DX2 analytically  !
 ! A13   A(2,3,6)              110.4771         calculate D2E/DX2 analytically  !
 ! A14   A(2,3,11)             110.6258         calculate D2E/DX2 analytically  !
 ! A15   A(2,3,12)             108.0653         calculate D2E/DX2 analytically  !
 ! A16   A(6,3,11)             105.5193         calculate D2E/DX2 analytically  !
 ! A17   A(6,3,12)             110.7402         calculate D2E/DX2 analytically  !
 ! A18   A(11,3,12)            111.4309         calculate D2E/DX2 analytically  !
 ! A19   A(5,4,9)              108.629          calculate D2E/DX2 analytically  !
 ! A20   A(5,4,11)             108.323          calculate D2E/DX2 analytically  !
 ! A21   A(5,4,16)             113.2579         calculate D2E/DX2 analytically  !
 ! A22   A(9,4,11)             109.0735         calculate D2E/DX2 analytically  !
 ! A23   A(9,4,16)             109.9837         calculate D2E/DX2 analytically  !
 ! A24   A(11,4,16)            107.4894         calculate D2E/DX2 analytically  !
 ! A25   A(1,5,4)              110.7654         calculate D2E/DX2 analytically  !
 ! A26   A(1,5,10)             107.4596         calculate D2E/DX2 analytically  !
 ! A27   A(1,5,15)             110.1792         calculate D2E/DX2 analytically  !
 ! A28   A(4,5,10)             109.0966         calculate D2E/DX2 analytically  !
 ! A29   A(4,5,15)             109.6913         calculate D2E/DX2 analytically  !
 ! A30   A(10,5,15)            109.6082         calculate D2E/DX2 analytically  !
 ! A31   A(5,10,37)            137.5851         calculate D2E/DX2 analytically  !
 ! A32   A(3,11,4)             113.751          calculate D2E/DX2 analytically  !
 ! A33   A(3,12,79)            112.8042         calculate D2E/DX2 analytically  !
 ! A34   A(2,13,20)            114.0086         calculate D2E/DX2 analytically  !
 ! A35   A(1,14,24)            115.048          calculate D2E/DX2 analytically  !
 ! A36   A(5,15,28)            112.0182         calculate D2E/DX2 analytically  !
 ! A37   A(4,16,17)            105.4187         calculate D2E/DX2 analytically  !
 ! A38   A(4,16,18)            105.5294         calculate D2E/DX2 analytically  !
 ! A39   A(4,16,19)            113.5128         calculate D2E/DX2 analytically  !
 ! A40   A(17,16,18)           105.4887         calculate D2E/DX2 analytically  !
 ! A41   A(17,16,19)           113.922          calculate D2E/DX2 analytically  !
 ! A42   A(18,16,19)           112.2127         calculate D2E/DX2 analytically  !
 ! A43   A(16,18,91)            95.6102         calculate D2E/DX2 analytically  !
 ! A44   A(16,19,37)           120.5868         calculate D2E/DX2 analytically  !
 ! A45   A(16,19,38)           160.4722         calculate D2E/DX2 analytically  !
 ! A46   A(16,19,91)            95.5379         calculate D2E/DX2 analytically  !
 ! A47   A(37,19,38)            76.9094         calculate D2E/DX2 analytically  !
 ! A48   A(37,19,91)           128.0711         calculate D2E/DX2 analytically  !
 ! A49   A(38,19,91)            77.3711         calculate D2E/DX2 analytically  !
 ! A50   A(13,20,21)           110.7387         calculate D2E/DX2 analytically  !
 ! A51   A(13,20,22)           111.3647         calculate D2E/DX2 analytically  !
 ! A52   A(13,20,23)           107.0596         calculate D2E/DX2 analytically  !
 ! A53   A(21,20,22)           109.1742         calculate D2E/DX2 analytically  !
 ! A54   A(21,20,23)           108.6368         calculate D2E/DX2 analytically  !
 ! A55   A(22,20,23)           109.8098         calculate D2E/DX2 analytically  !
 ! A56   A(14,24,25)           111.6152         calculate D2E/DX2 analytically  !
 ! A57   A(14,24,26)           110.6334         calculate D2E/DX2 analytically  !
 ! A58   A(14,24,27)           107.4641         calculate D2E/DX2 analytically  !
 ! A59   A(25,24,26)           108.5125         calculate D2E/DX2 analytically  !
 ! A60   A(25,24,27)           109.2396         calculate D2E/DX2 analytically  !
 ! A61   A(26,24,27)           109.3446         calculate D2E/DX2 analytically  !
 ! A62   A(15,28,29)           110.3207         calculate D2E/DX2 analytically  !
 ! A63   A(15,28,30)           110.993          calculate D2E/DX2 analytically  !
 ! A64   A(15,28,31)           107.6438         calculate D2E/DX2 analytically  !
 ! A65   A(29,28,30)           108.301          calculate D2E/DX2 analytically  !
 ! A66   A(29,28,31)           109.3655         calculate D2E/DX2 analytically  !
 ! A67   A(30,28,31)           110.2095         calculate D2E/DX2 analytically  !
 ! A68   A(33,32,36)           107.2125         calculate D2E/DX2 analytically  !
 ! A69   A(33,32,39)           110.0447         calculate D2E/DX2 analytically  !
 ! A70   A(33,32,45)           108.7677         calculate D2E/DX2 analytically  !
 ! A71   A(36,32,39)           110.9958         calculate D2E/DX2 analytically  !
 ! A72   A(36,32,45)           108.4389         calculate D2E/DX2 analytically  !
 ! A73   A(39,32,45)           111.2617         calculate D2E/DX2 analytically  !
 ! A74   A(32,33,34)           111.4064         calculate D2E/DX2 analytically  !
 ! A75   A(32,33,38)           108.9104         calculate D2E/DX2 analytically  !
 ! A76   A(32,33,44)           116.5498         calculate D2E/DX2 analytically  !
 ! A77   A(34,33,38)           103.283          calculate D2E/DX2 analytically  !
 ! A78   A(34,33,44)           106.6928         calculate D2E/DX2 analytically  !
 ! A79   A(38,33,44)           109.1601         calculate D2E/DX2 analytically  !
 ! A80   A(33,34,37)           120.9894         calculate D2E/DX2 analytically  !
 ! A81   A(33,34,42)           123.0002         calculate D2E/DX2 analytically  !
 ! A82   A(33,34,53)            94.3345         calculate D2E/DX2 analytically  !
 ! A83   A(37,34,42)           114.8053         calculate D2E/DX2 analytically  !
 ! A84   A(37,34,53)            88.1474         calculate D2E/DX2 analytically  !
 ! A85   A(42,34,53)            98.2525         calculate D2E/DX2 analytically  !
 ! A86   A(36,35,40)           110.137          calculate D2E/DX2 analytically  !
 ! A87   A(36,35,42)           110.6512         calculate D2E/DX2 analytically  !
 ! A88   A(36,35,47)           113.2175         calculate D2E/DX2 analytically  !
 ! A89   A(40,35,42)           105.1283         calculate D2E/DX2 analytically  !
 ! A90   A(40,35,47)           110.625          calculate D2E/DX2 analytically  !
 ! A91   A(42,35,47)           106.7266         calculate D2E/DX2 analytically  !
 ! A92   A(32,36,35)           111.8752         calculate D2E/DX2 analytically  !
 ! A93   A(32,36,41)           108.1035         calculate D2E/DX2 analytically  !
 ! A94   A(32,36,46)           110.5771         calculate D2E/DX2 analytically  !
 ! A95   A(35,36,41)           108.6206         calculate D2E/DX2 analytically  !
 ! A96   A(35,36,46)           107.0543         calculate D2E/DX2 analytically  !
 ! A97   A(41,36,46)           110.6083         calculate D2E/DX2 analytically  !
 ! A98   A(10,37,19)            79.7403         calculate D2E/DX2 analytically  !
 ! A99   A(10,37,34)           110.3038         calculate D2E/DX2 analytically  !
 ! A100  A(10,37,52)           110.9074         calculate D2E/DX2 analytically  !
 ! A101  A(10,37,83)           112.6797         calculate D2E/DX2 analytically  !
 ! A102  A(19,37,34)            89.0612         calculate D2E/DX2 analytically  !
 ! A103  A(19,37,52)           127.1014         calculate D2E/DX2 analytically  !
 ! A104  A(19,37,83)            63.517          calculate D2E/DX2 analytically  !
 ! A105  A(34,37,52)           128.7874         calculate D2E/DX2 analytically  !
 ! A106  A(34,37,83)           122.3445         calculate D2E/DX2 analytically  !
 ! A107  A(52,37,83)            64.8098         calculate D2E/DX2 analytically  !
 ! A108  A(19,38,33)           105.7556         calculate D2E/DX2 analytically  !
 ! A109  A(34,42,35)           120.2009         calculate D2E/DX2 analytically  !
 ! A110  A(33,44,63)           114.5442         calculate D2E/DX2 analytically  !
 ! A111  A(32,45,67)           113.7921         calculate D2E/DX2 analytically  !
 ! A112  A(36,46,71)           113.1775         calculate D2E/DX2 analytically  !
 ! A113  A(35,47,48)           108.3583         calculate D2E/DX2 analytically  !
 ! A114  A(35,47,49)           109.4072         calculate D2E/DX2 analytically  !
 ! A115  A(35,47,50)           108.1948         calculate D2E/DX2 analytically  !
 ! A116  A(48,47,49)           108.4987         calculate D2E/DX2 analytically  !
 ! A117  A(48,47,50)           111.3013         calculate D2E/DX2 analytically  !
 ! A118  A(49,47,50)           111.0295         calculate D2E/DX2 analytically  !
 ! A119  A(47,50,75)           111.9778         calculate D2E/DX2 analytically  !
 ! A120  A(43,51,52)           114.9859         calculate D2E/DX2 analytically  !
 ! A121  A(43,51,53)           114.1173         calculate D2E/DX2 analytically  !
 ! A122  A(43,51,54)           106.8772         calculate D2E/DX2 analytically  !
 ! A123  A(52,51,53)           111.3584         calculate D2E/DX2 analytically  !
 ! A124  A(52,51,54)           105.2647         calculate D2E/DX2 analytically  !
 ! A125  A(53,51,54)           102.9682         calculate D2E/DX2 analytically  !
 ! A126  A(37,52,51)            93.3081         calculate D2E/DX2 analytically  !
 ! A127  A(34,53,51)           112.865          calculate D2E/DX2 analytically  !
 ! A128  A(51,54,55)           119.9002         calculate D2E/DX2 analytically  !
 ! A129  A(51,54,56)           118.4325         calculate D2E/DX2 analytically  !
 ! A130  A(55,54,56)           121.6596         calculate D2E/DX2 analytically  !
 ! A131  A(54,55,57)           118.4919         calculate D2E/DX2 analytically  !
 ! A132  A(54,55,58)           120.156          calculate D2E/DX2 analytically  !
 ! A133  A(57,55,58)           121.351          calculate D2E/DX2 analytically  !
 ! A134  A(54,56,59)           118.6452         calculate D2E/DX2 analytically  !
 ! A135  A(54,56,60)           121.0738         calculate D2E/DX2 analytically  !
 ! A136  A(59,56,60)           120.2739         calculate D2E/DX2 analytically  !
 ! A137  A(55,57,61)           121.0774         calculate D2E/DX2 analytically  !
 ! A138  A(55,57,93)           119.452          calculate D2E/DX2 analytically  !
 ! A139  A(61,57,93)           119.3326         calculate D2E/DX2 analytically  !
 ! A140  A(56,59,61)           121.0366         calculate D2E/DX2 analytically  !
 ! A141  A(56,59,97)           120.8745         calculate D2E/DX2 analytically  !
 ! A142  A(61,59,97)           118.0724         calculate D2E/DX2 analytically  !
 ! A143  A(57,61,59)           119.0679         calculate D2E/DX2 analytically  !
 ! A144  A(57,61,62)           120.4787         calculate D2E/DX2 analytically  !
 ! A145  A(59,61,62)           120.4522         calculate D2E/DX2 analytically  !
 ! A146  A(44,63,64)           110.5132         calculate D2E/DX2 analytically  !
 ! A147  A(44,63,65)           110.7954         calculate D2E/DX2 analytically  !
 ! A148  A(44,63,66)           106.6584         calculate D2E/DX2 analytically  !
 ! A149  A(64,63,65)           109.0493         calculate D2E/DX2 analytically  !
 ! A150  A(64,63,66)           109.8728         calculate D2E/DX2 analytically  !
 ! A151  A(65,63,66)           109.9298         calculate D2E/DX2 analytically  !
 ! A152  A(45,67,68)           111.0922         calculate D2E/DX2 analytically  !
 ! A153  A(45,67,69)           110.7622         calculate D2E/DX2 analytically  !
 ! A154  A(45,67,70)           106.9263         calculate D2E/DX2 analytically  !
 ! A155  A(68,67,69)           109.1507         calculate D2E/DX2 analytically  !
 ! A156  A(68,67,70)           109.7353         calculate D2E/DX2 analytically  !
 ! A157  A(69,67,70)           109.1328         calculate D2E/DX2 analytically  !
 ! A158  A(46,71,72)           110.5193         calculate D2E/DX2 analytically  !
 ! A159  A(46,71,73)           110.5614         calculate D2E/DX2 analytically  !
 ! A160  A(46,71,74)           107.1148         calculate D2E/DX2 analytically  !
 ! A161  A(72,71,73)           109.3409         calculate D2E/DX2 analytically  !
 ! A162  A(72,71,74)           109.6416         calculate D2E/DX2 analytically  !
 ! A163  A(73,71,74)           109.6325         calculate D2E/DX2 analytically  !
 ! A164  A(50,75,76)           107.4175         calculate D2E/DX2 analytically  !
 ! A165  A(50,75,77)           110.8057         calculate D2E/DX2 analytically  !
 ! A166  A(50,75,78)           110.9379         calculate D2E/DX2 analytically  !
 ! A167  A(76,75,77)           109.3239         calculate D2E/DX2 analytically  !
 ! A168  A(76,75,78)           109.4643         calculate D2E/DX2 analytically  !
 ! A169  A(77,75,78)           108.8633         calculate D2E/DX2 analytically  !
 ! A170  A(12,79,80)           107.2052         calculate D2E/DX2 analytically  !
 ! A171  A(12,79,81)           111.1339         calculate D2E/DX2 analytically  !
 ! A172  A(12,79,82)           110.5764         calculate D2E/DX2 analytically  !
 ! A173  A(80,79,81)           109.5895         calculate D2E/DX2 analytically  !
 ! A174  A(80,79,82)           109.3955         calculate D2E/DX2 analytically  !
 ! A175  A(81,79,82)           108.9125         calculate D2E/DX2 analytically  !
 ! A176  A(37,83,84)           143.3654         calculate D2E/DX2 analytically  !
 ! A177  A(83,84,85)           134.6236         calculate D2E/DX2 analytically  !
 ! A178  A(83,84,89)           112.9495         calculate D2E/DX2 analytically  !
 ! A179  A(85,84,89)           112.1947         calculate D2E/DX2 analytically  !
 ! A180  A(84,85,86)           110.5112         calculate D2E/DX2 analytically  !
 ! A181  A(84,85,87)           107.9563         calculate D2E/DX2 analytically  !
 ! A182  A(84,85,88)           110.7562         calculate D2E/DX2 analytically  !
 ! A183  A(86,85,87)           109.407          calculate D2E/DX2 analytically  !
 ! A184  A(86,85,88)           108.7791         calculate D2E/DX2 analytically  !
 ! A185  A(87,85,88)           109.4111         calculate D2E/DX2 analytically  !
 ! A186  A(84,89,90)           110.2579         calculate D2E/DX2 analytically  !
 ! A187  A(84,89,91)           106.46           calculate D2E/DX2 analytically  !
 ! A188  A(84,89,92)           110.1194         calculate D2E/DX2 analytically  !
 ! A189  A(90,89,91)           110.5933         calculate D2E/DX2 analytically  !
 ! A190  A(90,89,92)           108.6795         calculate D2E/DX2 analytically  !
 ! A191  A(91,89,92)           110.7253         calculate D2E/DX2 analytically  !
 ! A192  A(18,91,19)            53.4652         calculate D2E/DX2 analytically  !
 ! A193  A(18,91,89)           109.3316         calculate D2E/DX2 analytically  !
 ! A194  A(19,91,89)           146.9603         calculate D2E/DX2 analytically  !
 ! A195  A(57,93,94)           110.7394         calculate D2E/DX2 analytically  !
 ! A196  A(57,93,95)           111.754          calculate D2E/DX2 analytically  !
 ! A197  A(57,93,96)           111.7791         calculate D2E/DX2 analytically  !
 ! A198  A(94,93,95)           107.0834         calculate D2E/DX2 analytically  !
 ! A199  A(94,93,96)           107.1936         calculate D2E/DX2 analytically  !
 ! A200  A(95,93,96)           108.0584         calculate D2E/DX2 analytically  !
 ! A201  A(59,97,98)           112.6203         calculate D2E/DX2 analytically  !
 ! A202  A(59,97,99)           110.9321         calculate D2E/DX2 analytically  !
 ! A203  A(59,97,100)          110.9224         calculate D2E/DX2 analytically  !
 ! A204  A(98,97,99)           107.1907         calculate D2E/DX2 analytically  !
 ! A205  A(98,97,100)          108.4694         calculate D2E/DX2 analytically  !
 ! A206  A(99,97,100)          106.4362         calculate D2E/DX2 analytically  !
 ! D1    D(5,1,2,3)            -53.5871         calculate D2E/DX2 analytically  !
 ! D2    D(5,1,2,7)             63.2656         calculate D2E/DX2 analytically  !
 ! D3    D(5,1,2,13)          -174.1114         calculate D2E/DX2 analytically  !
 ! D4    D(8,1,2,3)             65.7464         calculate D2E/DX2 analytically  !
 ! D5    D(8,1,2,7)           -177.4009         calculate D2E/DX2 analytically  !
 ! D6    D(8,1,2,13)           -54.778          calculate D2E/DX2 analytically  !
 ! D7    D(14,1,2,3)          -175.2806         calculate D2E/DX2 analytically  !
 ! D8    D(14,1,2,7)           -58.4279         calculate D2E/DX2 analytically  !
 ! D9    D(14,1,2,13)           64.195          calculate D2E/DX2 analytically  !
 ! D10   D(2,1,5,4)             55.6686         calculate D2E/DX2 analytically  !
 ! D11   D(2,1,5,10)           -63.4125         calculate D2E/DX2 analytically  !
 ! D12   D(2,1,5,15)           177.2212         calculate D2E/DX2 analytically  !
 ! D13   D(8,1,5,4)            -63.2287         calculate D2E/DX2 analytically  !
 ! D14   D(8,1,5,10)           177.6902         calculate D2E/DX2 analytically  !
 ! D15   D(8,1,5,15)            58.3238         calculate D2E/DX2 analytically  !
 ! D16   D(14,1,5,4)           174.5121         calculate D2E/DX2 analytically  !
 ! D17   D(14,1,5,10)           55.431          calculate D2E/DX2 analytically  !
 ! D18   D(14,1,5,15)          -63.9354         calculate D2E/DX2 analytically  !
 ! D19   D(2,1,14,24)         -160.5532         calculate D2E/DX2 analytically  !
 ! D20   D(5,1,14,24)           79.7163         calculate D2E/DX2 analytically  !
 ! D21   D(8,1,14,24)          -42.3024         calculate D2E/DX2 analytically  !
 ! D22   D(1,2,3,6)            172.2507         calculate D2E/DX2 analytically  !
 ! D23   D(1,2,3,11)            55.781          calculate D2E/DX2 analytically  !
 ! D24   D(1,2,3,12)           -66.4557         calculate D2E/DX2 analytically  !
 ! D25   D(7,2,3,6)             54.2692         calculate D2E/DX2 analytically  !
 ! D26   D(7,2,3,11)           -62.2006         calculate D2E/DX2 analytically  !
 ! D27   D(7,2,3,12)           175.5628         calculate D2E/DX2 analytically  !
 ! D28   D(13,2,3,6)           -64.9097         calculate D2E/DX2 analytically  !
 ! D29   D(13,2,3,11)          178.6205         calculate D2E/DX2 analytically  !
 ! D30   D(13,2,3,12)           56.3839         calculate D2E/DX2 analytically  !
 ! D31   D(1,2,13,20)          -94.9973         calculate D2E/DX2 analytically  !
 ! D32   D(3,2,13,20)          143.358          calculate D2E/DX2 analytically  !
 ! D33   D(7,2,13,20)           26.5495         calculate D2E/DX2 analytically  !
 ! D34   D(2,3,11,4)           -60.9011         calculate D2E/DX2 analytically  !
 ! D35   D(6,3,11,4)           179.5969         calculate D2E/DX2 analytically  !
 ! D36   D(12,3,11,4)           59.3433         calculate D2E/DX2 analytically  !
 ! D37   D(2,3,12,79)         -176.8711         calculate D2E/DX2 analytically  !
 ! D38   D(6,3,12,79)          -55.7408         calculate D2E/DX2 analytically  !
 ! D39   D(11,3,12,79)          61.3879         calculate D2E/DX2 analytically  !
 ! D40   D(9,4,5,1)             60.3681         calculate D2E/DX2 analytically  !
 ! D41   D(9,4,5,10)           178.4568         calculate D2E/DX2 analytically  !
 ! D42   D(9,4,5,15)           -61.471          calculate D2E/DX2 analytically  !
 ! D43   D(11,4,5,1)           -57.9849         calculate D2E/DX2 analytically  !
 ! D44   D(11,4,5,10)           60.1039         calculate D2E/DX2 analytically  !
 ! D45   D(11,4,5,15)         -179.8239         calculate D2E/DX2 analytically  !
 ! D46   D(16,4,5,1)          -177.1229         calculate D2E/DX2 analytically  !
 ! D47   D(16,4,5,10)          -59.0342         calculate D2E/DX2 analytically  !
 ! D48   D(16,4,5,15)           61.0381         calculate D2E/DX2 analytically  !
 ! D49   D(5,4,11,3)            61.3363         calculate D2E/DX2 analytically  !
 ! D50   D(9,4,11,3)           -56.7337         calculate D2E/DX2 analytically  !
 ! D51   D(16,4,11,3)         -175.9482         calculate D2E/DX2 analytically  !
 ! D52   D(5,4,16,17)          -63.6452         calculate D2E/DX2 analytically  !
 ! D53   D(5,4,16,18)         -175.0007         calculate D2E/DX2 analytically  !
 ! D54   D(5,4,16,19)           61.7148         calculate D2E/DX2 analytically  !
 ! D55   D(9,4,16,17)           58.1081         calculate D2E/DX2 analytically  !
 ! D56   D(9,4,16,18)          -53.2473         calculate D2E/DX2 analytically  !
 ! D57   D(9,4,16,19)         -176.5318         calculate D2E/DX2 analytically  !
 ! D58   D(11,4,16,17)         176.7383         calculate D2E/DX2 analytically  !
 ! D59   D(11,4,16,18)          65.3829         calculate D2E/DX2 analytically  !
 ! D60   D(11,4,16,19)         -57.9016         calculate D2E/DX2 analytically  !
 ! D61   D(1,5,10,37)          112.8591         calculate D2E/DX2 analytically  !
 ! D62   D(4,5,10,37)           -7.2866         calculate D2E/DX2 analytically  !
 ! D63   D(15,5,10,37)        -127.4101         calculate D2E/DX2 analytically  !
 ! D64   D(1,5,15,28)          130.1958         calculate D2E/DX2 analytically  !
 ! D65   D(4,5,15,28)         -107.6151         calculate D2E/DX2 analytically  !
 ! D66   D(10,5,15,28)          12.1448         calculate D2E/DX2 analytically  !
 ! D67   D(5,10,37,19)          47.0759         calculate D2E/DX2 analytically  !
 ! D68   D(5,10,37,34)         132.2158         calculate D2E/DX2 analytically  !
 ! D69   D(5,10,37,52)         -78.875          calculate D2E/DX2 analytically  !
 ! D70   D(5,10,37,83)          -8.3969         calculate D2E/DX2 analytically  !
 ! D71   D(3,12,79,80)         173.2502         calculate D2E/DX2 analytically  !
 ! D72   D(3,12,79,81)         -67.0148         calculate D2E/DX2 analytically  !
 ! D73   D(3,12,79,82)          54.0687         calculate D2E/DX2 analytically  !
 ! D74   D(2,13,20,21)         -58.9286         calculate D2E/DX2 analytically  !
 ! D75   D(2,13,20,22)          62.7552         calculate D2E/DX2 analytically  !
 ! D76   D(2,13,20,23)        -177.1987         calculate D2E/DX2 analytically  !
 ! D77   D(1,14,24,25)         -89.7224         calculate D2E/DX2 analytically  !
 ! D78   D(1,14,24,26)          31.2174         calculate D2E/DX2 analytically  !
 ! D79   D(1,14,24,27)         150.5266         calculate D2E/DX2 analytically  !
 ! D80   D(5,15,28,29)         -66.4173         calculate D2E/DX2 analytically  !
 ! D81   D(5,15,28,30)          53.6328         calculate D2E/DX2 analytically  !
 ! D82   D(5,15,28,31)         174.3183         calculate D2E/DX2 analytically  !
 ! D83   D(4,16,18,91)        -140.6608         calculate D2E/DX2 analytically  !
 ! D84   D(17,16,18,91)        108.0333         calculate D2E/DX2 analytically  !
 ! D85   D(19,16,18,91)        -16.5542         calculate D2E/DX2 analytically  !
 ! D86   D(4,16,19,37)          -3.7192         calculate D2E/DX2 analytically  !
 ! D87   D(4,16,19,38)        -155.3023         calculate D2E/DX2 analytically  !
 ! D88   D(4,16,19,91)         137.2652         calculate D2E/DX2 analytically  !
 ! D89   D(17,16,19,37)        116.9575         calculate D2E/DX2 analytically  !
 ! D90   D(17,16,19,38)        -34.6256         calculate D2E/DX2 analytically  !
 ! D91   D(17,16,19,91)       -102.0581         calculate D2E/DX2 analytically  !
 ! D92   D(18,16,19,37)       -123.2601         calculate D2E/DX2 analytically  !
 ! D93   D(18,16,19,38)         85.1568         calculate D2E/DX2 analytically  !
 ! D94   D(18,16,19,91)         17.7243         calculate D2E/DX2 analytically  !
 ! D95   D(16,18,91,19)         11.6956         calculate D2E/DX2 analytically  !
 ! D96   D(16,18,91,89)        159.4455         calculate D2E/DX2 analytically  !
 ! D97   D(16,19,37,10)        -34.3468         calculate D2E/DX2 analytically  !
 ! D98   D(16,19,37,34)       -145.18           calculate D2E/DX2 analytically  !
 ! D99   D(16,19,37,52)         74.1834         calculate D2E/DX2 analytically  !
 ! D100  D(16,19,37,83)         87.521          calculate D2E/DX2 analytically  !
 ! D101  D(38,19,37,10)        136.2539         calculate D2E/DX2 analytically  !
 ! D102  D(38,19,37,34)         25.4206         calculate D2E/DX2 analytically  !
 ! D103  D(38,19,37,52)       -115.2159         calculate D2E/DX2 analytically  !
 ! D104  D(38,19,37,83)       -101.8784         calculate D2E/DX2 analytically  !
 ! D105  D(91,19,37,10)       -161.6035         calculate D2E/DX2 analytically  !
 ! D106  D(91,19,37,34)         87.5632         calculate D2E/DX2 analytically  !
 ! D107  D(91,19,37,52)        -53.0733         calculate D2E/DX2 analytically  !
 ! D108  D(91,19,37,83)        -39.7358         calculate D2E/DX2 analytically  !
 ! D109  D(16,19,38,33)        168.7428         calculate D2E/DX2 analytically  !
 ! D110  D(37,19,38,33)         13.6152         calculate D2E/DX2 analytically  !
 ! D111  D(91,19,38,33)       -120.8831         calculate D2E/DX2 analytically  !
 ! D112  D(16,19,91,18)         -9.5099         calculate D2E/DX2 analytically  !
 ! D113  D(16,19,91,89)        -76.9586         calculate D2E/DX2 analytically  !
 ! D114  D(37,19,91,18)        126.9867         calculate D2E/DX2 analytically  !
 ! D115  D(37,19,91,89)         59.538          calculate D2E/DX2 analytically  !
 ! D116  D(38,19,91,18)       -171.0693         calculate D2E/DX2 analytically  !
 ! D117  D(38,19,91,89)        121.482          calculate D2E/DX2 analytically  !
 ! D118  D(36,32,33,34)        -47.8411         calculate D2E/DX2 analytically  !
 ! D119  D(36,32,33,38)         65.4352         calculate D2E/DX2 analytically  !
 ! D120  D(36,32,33,44)       -170.5776         calculate D2E/DX2 analytically  !
 ! D121  D(39,32,33,34)         72.977          calculate D2E/DX2 analytically  !
 ! D122  D(39,32,33,38)       -173.7467         calculate D2E/DX2 analytically  !
 ! D123  D(39,32,33,44)        -49.7595         calculate D2E/DX2 analytically  !
 ! D124  D(45,32,33,34)       -164.905          calculate D2E/DX2 analytically  !
 ! D125  D(45,32,33,38)        -51.6288         calculate D2E/DX2 analytically  !
 ! D126  D(45,32,33,44)         72.3585         calculate D2E/DX2 analytically  !
 ! D127  D(33,32,36,35)         58.939          calculate D2E/DX2 analytically  !
 ! D128  D(33,32,36,41)        -60.6155         calculate D2E/DX2 analytically  !
 ! D129  D(33,32,36,46)        178.1678         calculate D2E/DX2 analytically  !
 ! D130  D(39,32,36,35)        -61.2752         calculate D2E/DX2 analytically  !
 ! D131  D(39,32,36,41)        179.1703         calculate D2E/DX2 analytically  !
 ! D132  D(39,32,36,46)         57.9537         calculate D2E/DX2 analytically  !
 ! D133  D(45,32,36,35)        176.2185         calculate D2E/DX2 analytically  !
 ! D134  D(45,32,36,41)         56.6641         calculate D2E/DX2 analytically  !
 ! D135  D(45,32,36,46)        -64.5526         calculate D2E/DX2 analytically  !
 ! D136  D(33,32,45,67)       -143.1588         calculate D2E/DX2 analytically  !
 ! D137  D(36,32,45,67)        100.5623         calculate D2E/DX2 analytically  !
 ! D138  D(39,32,45,67)        -21.7822         calculate D2E/DX2 analytically  !
 ! D139  D(32,33,34,37)       -156.8599         calculate D2E/DX2 analytically  !
 ! D140  D(32,33,34,42)         36.3412         calculate D2E/DX2 analytically  !
 ! D141  D(32,33,34,53)        -66.4185         calculate D2E/DX2 analytically  !
 ! D142  D(38,33,34,37)         86.3822         calculate D2E/DX2 analytically  !
 ! D143  D(38,33,34,42)        -80.4167         calculate D2E/DX2 analytically  !
 ! D144  D(38,33,34,53)        176.8237         calculate D2E/DX2 analytically  !
 ! D145  D(44,33,34,37)        -28.6331         calculate D2E/DX2 analytically  !
 ! D146  D(44,33,34,42)        164.568          calculate D2E/DX2 analytically  !
 ! D147  D(44,33,34,53)         61.8083         calculate D2E/DX2 analytically  !
 ! D148  D(32,33,38,19)       -156.0638         calculate D2E/DX2 analytically  !
 ! D149  D(34,33,38,19)        -37.5556         calculate D2E/DX2 analytically  !
 ! D150  D(44,33,38,19)         75.6773         calculate D2E/DX2 analytically  !
 ! D151  D(32,33,44,63)        -65.2116         calculate D2E/DX2 analytically  !
 ! D152  D(34,33,44,63)        169.6329         calculate D2E/DX2 analytically  !
 ! D153  D(38,33,44,63)         58.6475         calculate D2E/DX2 analytically  !
 ! D154  D(33,34,37,10)       -142.2924         calculate D2E/DX2 analytically  !
 ! D155  D(33,34,37,19)        -63.5954         calculate D2E/DX2 analytically  !
 ! D156  D(33,34,37,52)         75.9414         calculate D2E/DX2 analytically  !
 ! D157  D(33,34,37,83)         -6.1617         calculate D2E/DX2 analytically  !
 ! D158  D(42,34,37,10)         25.5271         calculate D2E/DX2 analytically  !
 ! D159  D(42,34,37,19)        104.224          calculate D2E/DX2 analytically  !
 ! D160  D(42,34,37,52)       -116.2392         calculate D2E/DX2 analytically  !
 ! D161  D(42,34,37,83)        161.6578         calculate D2E/DX2 analytically  !
 ! D162  D(53,34,37,10)        123.7635         calculate D2E/DX2 analytically  !
 ! D163  D(53,34,37,19)       -157.5395         calculate D2E/DX2 analytically  !
 ! D164  D(53,34,37,52)        -18.0027         calculate D2E/DX2 analytically  !
 ! D165  D(53,34,37,83)       -100.1058         calculate D2E/DX2 analytically  !
 ! D166  D(33,34,42,35)        -30.8316         calculate D2E/DX2 analytically  !
 ! D167  D(37,34,42,35)        161.6233         calculate D2E/DX2 analytically  !
 ! D168  D(53,34,42,35)         69.8442         calculate D2E/DX2 analytically  !
 ! D169  D(33,34,53,51)       -116.5092         calculate D2E/DX2 analytically  !
 ! D170  D(37,34,53,51)          4.433          calculate D2E/DX2 analytically  !
 ! D171  D(42,34,53,51)        119.2333         calculate D2E/DX2 analytically  !
 ! D172  D(40,35,36,32)         63.2333         calculate D2E/DX2 analytically  !
 ! D173  D(40,35,36,41)       -177.5169         calculate D2E/DX2 analytically  !
 ! D174  D(40,35,36,46)        -58.0536         calculate D2E/DX2 analytically  !
 ! D175  D(42,35,36,32)        -52.5687         calculate D2E/DX2 analytically  !
 ! D176  D(42,35,36,41)         66.6812         calculate D2E/DX2 analytically  !
 ! D177  D(42,35,36,46)       -173.8555         calculate D2E/DX2 analytically  !
 ! D178  D(47,35,36,32)       -172.3272         calculate D2E/DX2 analytically  !
 ! D179  D(47,35,36,41)        -53.0773         calculate D2E/DX2 analytically  !
 ! D180  D(47,35,36,46)         66.386          calculate D2E/DX2 analytically  !
 ! D181  D(36,35,42,34)         37.4507         calculate D2E/DX2 analytically  !
 ! D182  D(40,35,42,34)        -81.4313         calculate D2E/DX2 analytically  !
 ! D183  D(47,35,42,34)        161.0355         calculate D2E/DX2 analytically  !
 ! D184  D(36,35,47,48)        -67.3724         calculate D2E/DX2 analytically  !
 ! D185  D(36,35,47,49)        174.5059         calculate D2E/DX2 analytically  !
 ! D186  D(36,35,47,50)         53.4226         calculate D2E/DX2 analytically  !
 ! D187  D(40,35,47,48)         56.8014         calculate D2E/DX2 analytically  !
 ! D188  D(40,35,47,49)        -61.3202         calculate D2E/DX2 analytically  !
 ! D189  D(40,35,47,50)        177.5965         calculate D2E/DX2 analytically  !
 ! D190  D(42,35,47,48)        170.6476         calculate D2E/DX2 analytically  !
 ! D191  D(42,35,47,49)         52.526          calculate D2E/DX2 analytically  !
 ! D192  D(42,35,47,50)        -68.5573         calculate D2E/DX2 analytically  !
 ! D193  D(32,36,46,71)        115.3973         calculate D2E/DX2 analytically  !
 ! D194  D(35,36,46,71)       -122.4993         calculate D2E/DX2 analytically  !
 ! D195  D(41,36,46,71)         -4.3235         calculate D2E/DX2 analytically  !
 ! D196  D(10,37,52,51)       -112.6246         calculate D2E/DX2 analytically  !
 ! D197  D(19,37,52,51)        154.5168         calculate D2E/DX2 analytically  !
 ! D198  D(34,37,52,51)         28.9622         calculate D2E/DX2 analytically  !
 ! D199  D(83,37,52,51)        141.3268         calculate D2E/DX2 analytically  !
 ! D200  D(10,37,83,84)        102.789          calculate D2E/DX2 analytically  !
 ! D201  D(19,37,83,84)         37.8679         calculate D2E/DX2 analytically  !
 ! D202  D(34,37,83,84)        -32.4278         calculate D2E/DX2 analytically  !
 ! D203  D(52,37,83,84)       -153.8636         calculate D2E/DX2 analytically  !
 ! D204  D(33,44,63,64)        -38.5565         calculate D2E/DX2 analytically  !
 ! D205  D(33,44,63,65)         82.4312         calculate D2E/DX2 analytically  !
 ! D206  D(33,44,63,66)       -157.9497         calculate D2E/DX2 analytically  !
 ! D207  D(32,45,67,68)        -58.2912         calculate D2E/DX2 analytically  !
 ! D208  D(32,45,67,69)         63.1926         calculate D2E/DX2 analytically  !
 ! D209  D(32,45,67,70)       -178.0066         calculate D2E/DX2 analytically  !
 ! D210  D(36,46,71,72)        -62.0786         calculate D2E/DX2 analytically  !
 ! D211  D(36,46,71,73)         59.1246         calculate D2E/DX2 analytically  !
 ! D212  D(36,46,71,74)        178.5294         calculate D2E/DX2 analytically  !
 ! D213  D(35,47,50,75)        177.6537         calculate D2E/DX2 analytically  !
 ! D214  D(48,47,50,75)        -63.3993         calculate D2E/DX2 analytically  !
 ! D215  D(49,47,50,75)         57.5815         calculate D2E/DX2 analytically  !
 ! D216  D(47,50,75,76)       -179.3544         calculate D2E/DX2 analytically  !
 ! D217  D(47,50,75,77)        -60.0001         calculate D2E/DX2 analytically  !
 ! D218  D(47,50,75,78)         61.0445         calculate D2E/DX2 analytically  !
 ! D219  D(43,51,52,37)       -149.2049         calculate D2E/DX2 analytically  !
 ! D220  D(53,51,52,37)        -17.4246         calculate D2E/DX2 analytically  !
 ! D221  D(54,51,52,37)         93.4604         calculate D2E/DX2 analytically  !
 ! D222  D(43,51,53,34)        146.159          calculate D2E/DX2 analytically  !
 ! D223  D(52,51,53,34)         13.9381         calculate D2E/DX2 analytically  !
 ! D224  D(54,51,53,34)        -98.4047         calculate D2E/DX2 analytically  !
 ! D225  D(43,51,54,55)        -21.6057         calculate D2E/DX2 analytically  !
 ! D226  D(43,51,54,56)        159.3869         calculate D2E/DX2 analytically  !
 ! D227  D(52,51,54,55)        101.1015         calculate D2E/DX2 analytically  !
 ! D228  D(52,51,54,56)        -77.9059         calculate D2E/DX2 analytically  !
 ! D229  D(53,51,54,55)       -142.139          calculate D2E/DX2 analytically  !
 ! D230  D(53,51,54,56)         38.8536         calculate D2E/DX2 analytically  !
 ! D231  D(51,54,55,57)       -178.6823         calculate D2E/DX2 analytically  !
 ! D232  D(51,54,55,58)          1.69           calculate D2E/DX2 analytically  !
 ! D233  D(56,54,55,57)          0.2922         calculate D2E/DX2 analytically  !
 ! D234  D(56,54,55,58)       -179.3355         calculate D2E/DX2 analytically  !
 ! D235  D(51,54,56,59)        179.9401         calculate D2E/DX2 analytically  !
 ! D236  D(51,54,56,60)         -1.0254         calculate D2E/DX2 analytically  !
 ! D237  D(55,54,56,59)          0.951          calculate D2E/DX2 analytically  !
 ! D238  D(55,54,56,60)        179.9855         calculate D2E/DX2 analytically  !
 ! D239  D(54,55,57,61)         -1.3866         calculate D2E/DX2 analytically  !
 ! D240  D(54,55,57,93)        174.3147         calculate D2E/DX2 analytically  !
 ! D241  D(58,55,57,61)        178.2365         calculate D2E/DX2 analytically  !
 ! D242  D(58,55,57,93)         -6.0622         calculate D2E/DX2 analytically  !
 ! D243  D(54,56,59,61)         -1.1392         calculate D2E/DX2 analytically  !
 ! D244  D(54,56,59,97)        177.3516         calculate D2E/DX2 analytically  !
 ! D245  D(60,56,59,61)        179.8183         calculate D2E/DX2 analytically  !
 ! D246  D(60,56,59,97)         -1.6909         calculate D2E/DX2 analytically  !
 ! D247  D(55,57,61,59)          1.2064         calculate D2E/DX2 analytically  !
 ! D248  D(55,57,61,62)       -179.1709         calculate D2E/DX2 analytically  !
 ! D249  D(93,57,61,59)       -174.4999         calculate D2E/DX2 analytically  !
 ! D250  D(93,57,61,62)          5.1228         calculate D2E/DX2 analytically  !
 ! D251  D(55,57,93,94)        -88.1499         calculate D2E/DX2 analytically  !
 ! D252  D(55,57,93,95)        152.5554         calculate D2E/DX2 analytically  !
 ! D253  D(55,57,93,96)         31.3005         calculate D2E/DX2 analytically  !
 ! D254  D(61,57,93,94)         87.6271         calculate D2E/DX2 analytically  !
 ! D255  D(61,57,93,95)        -31.6677         calculate D2E/DX2 analytically  !
 ! D256  D(61,57,93,96)       -152.9226         calculate D2E/DX2 analytically  !
 ! D257  D(56,59,61,57)          0.0833         calculate D2E/DX2 analytically  !
 ! D258  D(56,59,61,62)       -179.5395         calculate D2E/DX2 analytically  !
 ! D259  D(97,59,61,57)       -178.4487         calculate D2E/DX2 analytically  !
 ! D260  D(97,59,61,62)          1.9285         calculate D2E/DX2 analytically  !
 ! D261  D(56,59,97,98)          7.195          calculate D2E/DX2 analytically  !
 ! D262  D(56,59,97,99)       -112.9498         calculate D2E/DX2 analytically  !
 ! D263  D(56,59,97,100)       128.9795         calculate D2E/DX2 analytically  !
 ! D264  D(61,59,97,98)       -174.2705         calculate D2E/DX2 analytically  !
 ! D265  D(61,59,97,99)         65.5846         calculate D2E/DX2 analytically  !
 ! D266  D(61,59,97,100)       -52.4861         calculate D2E/DX2 analytically  !
 ! D267  D(37,83,84,85)        154.083          calculate D2E/DX2 analytically  !
 ! D268  D(37,83,84,89)        -19.7849         calculate D2E/DX2 analytically  !
 ! D269  D(83,84,85,86)       -112.8777         calculate D2E/DX2 analytically  !
 ! D270  D(83,84,85,87)          6.7375         calculate D2E/DX2 analytically  !
 ! D271  D(83,84,85,88)        126.5018         calculate D2E/DX2 analytically  !
 ! D272  D(89,84,85,86)         61.0238         calculate D2E/DX2 analytically  !
 ! D273  D(89,84,85,87)       -179.361          calculate D2E/DX2 analytically  !
 ! D274  D(89,84,85,88)        -59.5967         calculate D2E/DX2 analytically  !
 ! D275  D(83,84,89,90)       -120.7257         calculate D2E/DX2 analytically  !
 ! D276  D(83,84,89,91)         -0.7263         calculate D2E/DX2 analytically  !
 ! D277  D(83,84,89,92)        119.3549         calculate D2E/DX2 analytically  !
 ! D278  D(85,84,89,90)         63.9843         calculate D2E/DX2 analytically  !
 ! D279  D(85,84,89,91)       -176.0163         calculate D2E/DX2 analytically  !
 ! D280  D(85,84,89,92)        -55.9351         calculate D2E/DX2 analytically  !
 ! D281  D(84,89,91,18)        -70.9397         calculate D2E/DX2 analytically  !
 ! D282  D(84,89,91,19)        -19.0897         calculate D2E/DX2 analytically  !
 ! D283  D(90,89,91,18)         48.8424         calculate D2E/DX2 analytically  !
 ! D284  D(90,89,91,19)        100.6924         calculate D2E/DX2 analytically  !
 ! D285  D(92,89,91,18)        169.3717         calculate D2E/DX2 analytically  !
 ! D286  D(92,89,91,19)       -138.7783         calculate D2E/DX2 analytically  !
 --------------------------------------------------------------------------------
 Trust Radius=5.00D-02 FncErr=1.00D-07 GrdErr=1.00D-06 EigMax=2.50D+02 EigMin=1.00D-04
 Number of steps in this run=    600 maximum allowed number of steps=    600.
 Search for a saddle point of order  1.
 GradGradGradGradGradGradGradGradGradGradGradGradGradGradGradGradGradGrad

 Leave Link  103 at Thu Jun  6 22:38:25 2019, MaxMem=  6442450944 cpu:               5.2 elap:               0.2
 (Enter /home/ekwan/sw/g16/l202.exe)
 Stoichiometry    C30H47F6NaO15S
 Framework group  C1[X(C30H47F6NaO15S)]
 Deg. of freedom   294
 Full point group                 C1      NOp   1
 Largest Abelian subgroup         C1      NOp   1
 Largest concise Abelian subgroup C1      NOp   1
                         Standard orientation:                         
 ---------------------------------------------------------------------
 Center     Atomic      Atomic             Coordinates (Angstroms)
 Number     Number       Type             X           Y           Z
 ---------------------------------------------------------------------
      1          6           0       -1.498175    1.633826    2.420144
      2          6           0       -1.901910    2.238955    1.075867
      3          6           0       -1.012107    3.441257    0.750519
      4          6           0        0.802693    2.582138    2.053775
      5          6           0       -0.002886    1.327615    2.397869
      6          1           0       -1.204239    3.797127   -0.276325
      7          1           0       -1.730852    1.488376    0.282964
      8          1           0       -1.712957    2.367175    3.220021
      9          1           0        0.605170    3.350138    2.822535
     10          1           0        0.167340    0.563960    1.618646
     11          8           0        0.355325    3.070987    0.773780
     12          8           0       -1.284479    4.445840    1.681019
     13          8           0       -3.244769    2.670397    1.070200
     14          8           0       -2.277804    0.467791    2.612819
     15          8           0        0.411666    0.824142    3.655601
     16          6           0        2.310588    2.323181    1.946881
     17          1           0        2.629930    2.006009    2.966926
     18          1           0        2.777148    3.329288    1.786579
     19          8           0        2.644982    1.431371    0.955620
     20          6           0       -4.155490    1.715998    0.548317
     21          1           0       -3.891691    1.451252   -0.491416
     22          1           0       -4.172942    0.802304    1.160431
     23          1           0       -5.148073    2.183739    0.549999
     24          6           0       -2.363767    0.016852    3.958021
     25          1           0       -1.554644   -0.686619    4.201890
     26          1           0       -2.310525    0.866784    4.656417
     27          1           0       -3.329395   -0.488838    4.074412
     28          6           0        1.166603   -0.372125    3.527717
     29          1           0        0.529079   -1.189292    3.139424
     30          1           0        2.011674   -0.233379    2.834428
     31          1           0        1.535414   -0.641220    4.526196
     32          6           0        3.488207   -1.814419   -1.377528
     33          6           0        3.057171   -0.413353   -0.944658
     34          6           0        1.725925   -0.439914   -0.247121
     35          6           0        1.843709   -2.755059    0.299292
     36          6           0        3.292065   -2.739967   -0.175483
     37          1           0        1.102955    0.441277   -0.204184
     38          1           0        3.748427   -0.051965   -0.159587
     39          1           0        2.881808   -2.148069   -2.236296
     40          1           0        1.191075   -3.159700   -0.488542
     41          1           0        3.928319   -2.373045    0.646866
     42          8           0        1.363145   -1.394564    0.531217
     43          8           0       -0.532707    0.068843   -3.879764
     44          8           0        2.962554    0.557707   -1.959771
     45          8           0        4.864712   -1.787307   -1.701332
     46          8           0        3.631352   -4.067984   -0.511449
     47          6           0        1.648575   -3.511938    1.593304
     48          1           0        1.843169   -4.582873    1.402844
     49          1           0        0.600886   -3.400076    1.930156
     50          8           0        2.544081   -2.991060    2.546571
     51         16           0       -0.352847   -0.000902   -2.425479
     52          8           0       -0.118092    1.310332   -1.756472
     53          8           0        0.649653   -1.032355   -1.978032
     54          6           0       -1.892352   -0.611963   -1.739324
     55          6           0       -3.066814   -0.492291   -2.463767
     56          6           0       -1.872212   -1.181120   -0.468265
     57          6           0       -4.251445   -0.952114   -1.890641
     58          1           0       -3.052622   -0.052247   -3.461829
     59          6           0       -3.059341   -1.653508    0.066624
     60          1           0       -0.940371   -1.270937    0.094548
     61          6           0       -4.257418   -1.543808   -0.635617
     62          1           0       -5.188530   -1.912541   -0.201896
     63          6           0        4.205409    0.889705   -2.581142
     64          1           0        5.013813    0.917340   -1.835674
     65          1           0        4.460277    0.157343   -3.359530
     66          1           0        4.077573    1.882006   -3.029171
     67          6           0        5.211329   -2.617114   -2.802433
     68          1           0        4.933817   -3.664028   -2.611796
     69          1           0        4.712277   -2.272417   -3.724405
     70          1           0        6.297128   -2.539557   -2.931125
     71          6           0        4.753728   -4.559481    0.212209
     72          1           0        5.651417   -3.962152   -0.014867
     73          1           0        4.558938   -4.528078    1.297415
     74          1           0        4.911947   -5.596778   -0.103578
     75          6           0        2.391515   -3.610161    3.810729
     76          1           0        3.110802   -3.143830    4.493275
     77          1           0        1.369143   -3.460872    4.199649
     78          1           0        2.594251   -4.693001    3.746566
     79          6           0       -0.560485    5.640689    1.428575
     80          1           0       -0.929859    6.397476    2.129052
     81          1           0        0.519643    5.490622    1.582842
     82          1           0       -0.729516    5.985314    0.394144
     83         11           0        1.809963    2.482421   -0.974386
     84          8           0        3.673664    3.823206   -1.229908
     85          6           0        4.032031    4.869685   -2.112814
     86          1           0        4.860257    4.554038   -2.770780
     87          1           0        3.154461    5.112446   -2.722934
     88          1           0        4.346552    5.764717   -1.550733
     89          6           0        4.750429    3.444550   -0.379893
     90          1           0        5.026831    4.282258    0.282715
     91          1           0        4.395561    2.586463    0.209019
     92          1           0        5.631497    3.166122   -0.984185
     93          6           0       -5.556183   -0.717561   -2.600762
     94          9           0       -6.084737    0.476277   -2.249287
     95          9           0       -6.468668   -1.660408   -2.293370
     96          9           0       -5.401992   -0.706286   -3.938367
     97          6           0       -3.085434   -2.330139    1.408764
[...]
 0035898,-0.00006526,-0.00101611,0.00083157,0.00188042,-0.00026422,-0.0
 0074792,0.00056018,0.00353969,-0.00193836,0.00266334,0.00010214,0.0008
 2402,0.00105562,0.00010290,-0.00010560,-0.00013923,-0.01371326,-0.0382
 9612,0.00492672,0.00051187,-0.00060234,-0.00066573,-0.00256137,0.00057
 951,0.00012057,0.00060363,-0.00085847,-0.00057449,0.00013317,0.0000365
 9,-0.00008579,-0.00001992,-0.00000302,-0.00000275,-0.00002120,0.000007
 01,0.00001877,-0.00000626,-0.00001107,0.00000846,0.00002013,-0.0000658
 6,-0.00007366,-0.00000057,0.00001455,0.00000233,0.00000280,0.00000029,
 0.00000707,-0.00000949,0.00000596,0.00001038,0.00005777,-0.00003679,0.
 00004619,-0.00000305,0.00000371,-0.00000681,-0.00000097,-0.00001007,-0
 .00001111,-0.00001909,0.00001600,0.00000256,0.00002059,-0.00010061,0.0
 0011149,0.00000927,0.00000733,-0.00000938,-0.00000246,-0.00003119,-0.0
 0000153,-0.00002941,0.00004224,0.00000079,0.00010254,0.00018804,-0.000
 05173,-0.00000481,-0.00003825,-0.00000977,-0.00002655,-0.00000791,0.00
 000644,-0.00000978,-0.00001858,0.00002525,0.00021431,0.00016317,-0.000
 03398,-0.00005639,-0.00003952,0.00001146,0.00002281,0.00003728,-0.0000
 3156,-0.00000893,0.00000084,0.00000711,0.00000118,0.00000178,-0.000001
 37,-0.00000377,-0.00000831,-0.00000105,0.00002604,-0.00000248,0.000011
 31,-0.00000338,-0.00000943,-0.00000180,0.00004538,0.00001615,-0.000005
 74,-0.00001075,-0.00000175,0.00001223,-0.00228652,-0.00005463,-0.00104
 281,0.00067621,-0.00040572,0.00015127,0.00079097,0.00033711,0.00016904
 ,0.00049688,-0.00003954,0.00074825,-0.04206906,-0.26116097,0.01022925,
 -0.03966305,-0.01928668,-0.02031888,0.07210734,0.37926668,0.00025506,0
 .00040753,-0.00022613,0.00001289,-0.00010192,-0.00027926,-0.00001793,-
 0.00005632,0.00000437,-0.00006227,0.00007395,-0.00008072,-0.00001769,-
 0.00003301,-0.00015082,-0.00000723,-0.00002532,0.00001487,-0.00001192,
 -0.00001948,0.00003119,-0.00005305,-0.00007719,0.00002494,-0.00000255,
 0.00000510,0.00001244,-0.00001422,0.00003498,-0.00001747,0.00003992,0.
 00000630,0.00010615,0.00001660,0.00005501,0.00005098,0.00001807,0.0000
 9636,0.00021160,-0.00019366,-0.00065790,0.00022584,-0.00002438,-0.0001
 5362,0.00012176,0.00004739,-0.00006349,-0.00008418,0.00001107,0.000007
 38,0.00003082,-0.00001304,0.00001711,0.00001868,0.00000934,0.00010116,
 0.00017069,0.00001253,0.00003169,-0.00028060,-0.00000047,-0.00013275,0
 .00010484,-0.00001430,0.00010306,-0.00014021,-0.00001892,0.00002572,0.
 00005003,0.00018249,0.00025639,-0.00003901,0.00007687,0.00000942,0.000
 12900,-0.00005927,-0.00013420,0.00002099,-0.00014380,0.00008299,0.0002
 9133,0.00007828,0.00022843,0.00007657,0.00003232,-0.00010163,-0.000013
 74,-0.00004487,-0.00003676,-0.00002924,-0.00001715,-0.00002121,-0.0000
 1119,-0.00005728,0.00002648,-0.00001273,0.00001252,0.00000956,0.000029
 39,-0.00038114,-0.00011804,-0.00054592,-0.00009606,0.00014772,-0.00009
 587,-0.00001335,0.00000304,0.00000367,-0.00002491,-0.00000356,-0.00000
 436,0.00002027,-0.00000843,-0.00002799,-0.00000840,0.00001311,0.000017
 90,-0.00000807,0.00001456,0.00000024,0.00001316,0.00000126,-0.00000302
 ,0.00018440,-0.00017746,0.00022076,0.00055371,0.00026469,-0.00057521,0
 .00008968,0.00001458,0.00000144,0.00004819,-0.00002117,0.00000364,0.00
 004005,-0.00004833,0.00002920,0.00017811,0.00001259,-0.00009430,-0.000
 02977,0.00000630,0.00002121,0.00003717,-0.00005201,0.00002747,-0.00008
 618,-0.00001248,0.00007592,-0.00206335,-0.00072243,0.00041020,0.000533
 33,0.00057472,0.00011237,0.00094045,-0.00012734,0.00020919,0.00017487,
 -0.00085581,-0.00185584,0.00082406,0.00066207,-0.00056725,-0.00271003,
 0.00076605,-0.00044066,0.00021019,-0.00084899,0.00035747,-0.00001908,0
 .00004647,0.00011626,0.00895175,0.03235086,0.00324428,-0.00001167,0.00
 065131,0.00014723,0.00091311,0.00002140,-0.00052143,-0.00004499,0.0000
 5643,0.00013749,-0.00004941,-0.00002104,0.00002760,0.00001108,0.000000
 95,0.00000231,0.00000570,0.00000012,-0.00000443,0.00000046,0.00000266,
 -0.00000424,-0.00000987,0.00001102,0.00000769,-0.00000185,-0.00000156,
 -0.00000373,-0.00000097,-0.00000382,0.00000274,0.00000571,-0.00000051,
 -0.00000206,-0.00002548,0.00001231,-0.00003081,0.00000277,0.00000052,0
 .00000245,0.00000543,-0.00000131,0.00000839,0.00000254,-0.00000203,0.0
 0000058,0.00006638,-0.00000179,-0.00004907,-0.00000833,-0.00000240,0.0
 0000431,-0.00001992,0.00000606,0.00001334,-0.00000659,0.00000373,0.000
 00529,-0.00000909,-0.00000535,0.00000060,0.00000028,0.00000679,0.00000
 100,0.00000308,0.00000073,-0.00000224,0.00000184,-0.00000214,0.0000031
 6,-0.00008910,-0.00008409,-0.00005917,0.00001995,0.00001015,0.00001505
 ,-0.00000681,-0.00000862,0.00000109,0.00000003,-0.00000046,-0.00000090
 ,0.00000131,-0.00000320,0.00000063,0.00000206,0.00000352,0.00000225,-0
 .00001392,0.00000222,-0.00001414,0.00000310,0.00000553,0.00000212,-0.0
 0000693,-0.00000508,-0.00000194,0.00000165,-0.00000077,0.00000001,0.00
 127981,-0.00030010,0.00059741,-0.00039270,0.00032022,-0.00006121,-0.00
 042530,-0.00007381,-0.00011308,-0.00027875,0.00007137,-0.00036366,-0.0
 0028420,0.00669205,-0.07476570,-0.02257632,-0.02866421,0.00203290,0.00
 683177,0.03385647,0.07446994,0.00004232,-0.00010885,-0.00010989,-0.000
 39601,0.00020956,0.00014634,-0.00010614,0.00009680,0.00001509,0.000049
 51,0.00003618,-0.00006256,-0.00007092,0.00023946,0.00009166,0.00000592
 ,-0.00000086,0.00000068,0.00000081,0.00001225,-0.00004763,-0.00003424,
 -0.00006813,-0.00000630,-0.00000806,-0.00003783,-0.00000612,0.00008444
 ,0.00000612,-0.00004693,0.00009708,-0.00010158,0.00000795,0.00004012,-
 0.00009424,-0.00003915,0.00058481,0.00024717,-0.00009092,-0.00036731,-
 0.00102912,-0.00053900,0.00015980,-0.00033047,-0.00007423,-0.00003716,
 0.00010401,0.00011596,0.00001264,-0.00000041,-0.00002774,-0.00001113,-
 0.00005721,-0.00001119,-0.00006928,-0.00022999,-0.00014796,-0.00025286
 ,-0.00078284,0.00044588,0.00002784,0.00020338,-0.00016040,-0.00013435,
 -0.00031473,0.00013212,0.00002082,0.00004626,-0.00006540,-0.00113594,-
 0.00055715,-0.00001339,0.00041595,0.00022746,0.00025144,0.00015777,-0.
 00006845,0.00010465,-0.00055173,-0.00142471,-0.00211978,0.00010619,0.0
 0055579,0.00019243,0.00001651,-0.00016456,0.00004533,-0.00003207,-0.00
 005553,-0.00004264,-0.00006125,-0.00006387,-0.00005579,0.00007200,0.00
 000086,-0.00005767,0.,0.00005400,-0.00005228,0.00039959,0.00049776,-0.
 00000137,0.00010092,-0.00006181,-0.00010424,0.00012356,-0.00009818,-0.
 00000574,0.00000870,0.00002322,-0.00001359,-0.00000687,0.00000719,0.00
 003594,0.00000367,-0.00000739,-0.00000962,0.00003006,-0.00001794,-0.00
 003731,-0.00001241,0.00000649,0.00000071,-0.00029869,-0.00023295,0.000
 17049,-0.00032443,-0.00017924,0.00054441,-0.00013106,-0.00008614,0.000
 08444,-0.00014379,0.00001996,0.00009363,-0.00014708,0.00009121,0.00001
 155,0.00072042,0.00008711,-0.00003701,-0.00012694,0.00002511,0.0000321
 4,0.00015386,-0.00025204,0.00023244,-0.00037078,0.00000889,-0.00028571
 ,0.00129707,0.00069297,-0.00056363,-0.00034033,-0.00052098,-0.00005526
 ,-0.00054403,-0.00006106,0.00011568,-0.00008341,-0.00084680,-0.0003259
 8,0.00039121,-0.00002283,0.00041145,0.00090735,-0.00059081,0.00178467,
 0.00061447,-0.00130653,0.00067689,0.00008564,0.00016048,0.00001247,-0.
 00700037,0.00833569,0.01668707,0.00041992,0.00081706,-0.00028602,-0.00
 225718,-0.00083785,-0.00108835,0.00103823,0.00092811,0.00111940,0.0000
 9604,0.00003519,-0.00004936,-0.00001189,0.00000160,-0.00000283,-0.0000
 1393,0.00000456,0.00000735,-0.00000648,-0.00001086,0.00000933,0.000022
 97,-0.00003942,-0.00006263,0.00000632,0.00000313,0.00000231,0.00000483
 ,0.00000358,0.00000813,-0.00001341,0.00000309,0.00000801,0.00009923,-0
 .00004024,0.00004598,-0.00001768,-0.00000542,-0.00000086,0.00000946,-0
 .00000702,-0.00000463,-0.00000733,0.00001291,-0.00000080,0.00005681,-0
 .00012486,0.00017181,-0.00002481,-0.00000058,-0.00002624,-0.00000040,0
 .00001946,0.00001320,-0.00000162,0.00003646,-0.00000763,0.00000104,0.0
 0002107,-0.00000399,-0.00000035,-0.00000945,-0.00000342,0.00000405,0.0
 0000291,0.00000257,-0.00000267,-0.00000118,0.00000260,0.00006466,0.000
 13144,0.00000701,-0.00001517,-0.00003562,0.00000488,0.00000778,0.00002
 622,-0.00001599,-0.00000163,-0.00000102,0.00000242,0.00000073,0.000001
 29,0.00000249,-0.00000392,-0.00000650,-0.00000162,0.00000526,0.0000072
 0,0.00000460,-0.00000232,-0.00000854,-0.00000107,0.00002355,0.00001239
 ,-0.00000160,-0.00000122,-0.00000046,0.00000349,-0.00122567,0.00013004
 ,-0.00006834,0.00037422,-0.00028384,-0.00003612,0.00039831,0.00011378,
 -0.00001069,0.00026250,-0.00005192,0.00022446,-0.15817260,0.04381840,0
 .09317107,-0.07530609,0.02144683,0.01435731,0.00844880,0.02215257,0.00
 771374,0.23180920,0.00048120,0.00093802,-0.00075577,0.00019726,-0.0000
 2375,-0.00009783,0.00024075,0.00022364,0.00000316,-0.00011047,0.000164
 24,0.00001049,0.00012693,-0.00030412,0.00003874,-0.00002449,-0.0000577
 0,0.00001967,0.00002876,0.00003053,-0.00002647,-0.00018178,-0.00023576
 ,0.00002309,0.00000701,-0.00000492,-0.00000393,0.00002271,0.00000442,0
 .00002322,-0.00017375,-0.00006723,0.00000433,-0.00010219,-0.00023840,0
 .00001648,-0.00051451,-0.00060945,0.00003257,-0.00230247,-0.00192338,-
 0.00022829,-0.00037824,0.00022676,-0.00004576,0.00010882,-0.00010132,-
 0.00002696,-0.00000853,0.00000934,-0.00000374,-0.00004874,-0.00000462,
 0.00001791,-0.00010576,0.00009072,0.00008916,0.00023691,0.00107488,-0.
 00039226,-0.00000826,-0.00017720,0.00018290,-0.00020131,0.00019628,0.0
 0006681,0.00005421,-0.00019891,0.00012082,0.00130205,-0.00080098,-0.00
 066074,-0.00029074,0.00013069,-0.00012724,-0.00061887,-0.00027814,-0.0
 0001620,-0.00174339,-0.00101078,-0.00040793,0.00011249,-0.00038092,-0.
 00004949,0.00001353,0.00005554,-0.00001468,-0.00000801,0.00002832,0.00
 002288,-0.00000161,0.00004223,-0.00001230,0.00000540,-0.00003234,0.000
 01068,0.00000844,-0.00001179,-0.00000837,0.00000461,-0.00018959,0.0001
 1262,0.00001519,-0.00016346,0.00003004,-0.00002038,0.00001557,0.000005
 52,0.00002913,-0.00001453,-0.00002254,0.00000181,-0.00001068,-0.000005
 62,0.00000069,-0.00000177,0.00000065,-0.00001319,-0.00000225,0.0000271
 7,0.00000714,-0.00000119,0.00000120,-0.00000599,0.00023878,-0.00010389
 ,-0.00007963,0.00004067,0.00007706,-0.00001575,0.00003012,0.00000108,0
 .00001192,0.00002535,-0.00000842,0.00002438,0.00002711,-0.00000436,-0.
 00024007,-0.00004848,-0.00001502,0.00001693,0.00000963,-0.00001199,-0.
 00001693,0.00002363,-0.00005532,0.00014012,0.00006650,0.00008060,0.000
 43036,-0.00019277,-0.00019814,-0.00014312,0.00005845,0.00008371,-0.000
 17818,0.00013712,-0.00004227,0.00063176,-0.00078082,0.00034392,-0.0005
 7784,-0.00020174,0.00021789,0.00027295,0.00056148,-0.00092011,-0.00004
 755,0.00010803,-0.00062020,-0.00003114,0.00003812,-0.00001230,-0.00291
 824,0.00978777,0.00569726,-0.00011848,0.00021486,0.00019703,0.00035509
 ,-0.00035077,0.00101320,-0.00016321,-0.00026899,-0.00001693,0.00000776
 ,-0.00000221,-0.00001018,-0.00000115,-0.00000204,-0.00000019,-0.000001
 79,0.00000105,0.00000393,0.00000055,0.00000028,-0.00000163,-0.00000226
 ,-0.00000655,-0.00000048,-0.00000260,0.00000377,0.00000008,-0.00000094
 ,-0.00000132,-0.00000085,0.00000204,0.00000065,0.00000033,-0.00002010,
 0.00000334,-0.00000218,0.00000614,0.00000331,-0.00000223,-0.00000457,-
 0.00000062,-0.00000208,-0.00000326,0.00000026,0.00000128,-0.00002277,0
 .00001566,-0.00002518,0.00001578,0.00000180,0.00000765,0.00000083,-0.0
 0002133,-0.00000616,-0.00000858,0.00000008,0.00000370,0.00006651,0.000
 11716,-0.00002898,-0.00000382,-0.00002035,-0.00000497,-0.00001956,-0.0
 0000824,0.00000266,-0.00000599,-0.00001409,0.00001670,0.00006060,-0.00
 000528,-0.00004776,-0.00001861,-0.00000178,0.00000695,0.00000677,0.000
 00591,-0.00000853,-0.00000380,0.00000071,0.00000243,0.00000054,-0.0000
 0033,-0.00000176,0.00000032,-0.00000065,0.00000049,0.00000828,-0.00000
 377,0.00000123,0.00000015,0.00000020,-0.00000011,0.00001158,0.00000124
 ,-0.00000279,-0.00000476,-0.00000099,0.00000496,-0.00022367,-0.0001283
 0,-0.00027950,0.00003931,0.00004794,0.00006673,0.00009010,0.00006595,0
 .00004173,0.00003689,0.00002156,0.00010167,0.04502043,-0.09309044,-0.0
 4492937,0.01799925,0.00669973,0.00011853,0.03396332,-0.05789099,-0.044
 39902,-0.09048465,0.13829862,0.00065611,0.00097973,-0.00046147,-0.0000
 2205,-0.00018821,-0.00046043,0.00010865,-0.00006274,0.00000599,-0.0001
 5830,0.00016103,-0.00010062,0.00006750,-0.00024964,-0.00026615,-0.0000
 2728,-0.00006385,0.00003161,0.00000896,-0.00002919,0.00005358,-0.00013
 455,-0.00013702,0.00007694,0.00000293,0.00002247,0.00002073,-0.0000496
 1,0.00003960,0.00001103,-0.00001794,0.00003088,0.00016241,-0.00002226,
 0.00003228,0.00010091,-0.00002030,0.00012039,0.00038111,-0.00079818,-0
 .00055769,0.00067801,-0.00037071,0.00003630,0.00023366,0.00012592,-0.0
 0017662,-0.00017746,0.00000839,0.00001292,0.00005519,-0.00003408,0.000
 04631,0.00003830,0.00000349,0.00027548,0.00034047,0.00004484,0.0001954
 2,-0.00052715,-0.00002434,-0.00020412,0.00019270,0.00010473,0.00023422
 ,-0.00051775,-0.00002091,0.00002352,0.00007356,0.00277695,-0.00049954,
 -0.00280348,-0.00024341,0.00018216,0.00010922,-0.00111557,-0.00060733,
 0.00020628,-0.00326914,-0.00193032,-0.00042127,0.00011307,-0.00021058,
 -0.00001683,0.00003427,0.00000309,-0.00005293,-0.00004796,0.00000047,-
 0.00000305,0.00001397,0.00002794,0.00000881,-0.00010572,0.00002933,0.0
 0001540,0.00001961,-0.00000977,0.00005993,-0.00070535,-0.00045290,-0.0
 0072596,-0.00017097,0.00021387,-0.00006225,-0.00007965,0.00005388,0.00
 000476,-0.00003222,-0.00001846,-0.00001561,0.00003282,-0.00001942,-0.0
 0005713,-0.00001281,0.00002219,0.00002798,-0.00002734,0.00003150,0.000
 02151,0.00002287,-0.00000208,-0.00000389,0.00040214,-0.00007571,0.0001
 9766,0.00086985,0.00030793,-0.00109392,0.00018295,0.00006453,-0.000035
 10,0.00013182,-0.00003424,-0.00004256,0.00012181,-0.00010158,0.0000286
 3,-0.00012789,-0.00002391,-0.00012687,0.00002010,-0.00000193,0.0000148
 2,-0.00001200,0.00002693,-0.00003820,0.00008377,0.00000181,0.00023375,
 -0.00363073,-0.00097794,0.00090639,0.00099745,0.00113273,0.00025435,0.
 00153954,-0.00015653,0.00020930,0.00091389,0.00253355,-0.00089687,0.00
 075371,0.00055638,-0.00087058,-0.00387550,-0.00000027,-0.00510796,-0.0
 0005706,0.00026342,0.00035888,-0.00003359,-0.00013972,0.00004194,0.038
 26491,-0.01333750,-0.03039718,-0.00007997,-0.00079026,-0.00012993,0.00
 166147,0.00074076,0.00026676,0.00003524,-0.00051768,-0.00065415,-0.000
 10910,-0.00004464,0.00005925,0.00002082,0.00000005,0.00000373,0.000014
 34,-0.00000179,-0.00000889,0.00000374,0.00000860,-0.00001048,-0.000023
 38,0.00003307,0.00004090,-0.00000515,-0.00000343,-0.00000540,-0.000003
 60,-0.00000614,-0.00000092,0.00001353,-0.00000239,-0.00000663,-0.00007
 988,0.00003360,-0.00005933,0.00001243,0.00000371,0.00000270,0.00000166
 ,0.00000108,0.00001183,0.00000643,-0.00000863,0.00000187,0.00004901,0.
 00005285,-0.00013370,0.00000787,-0.00000190,0.00001768,-0.00002369,-0.
 00001115,0.00000780,-0.00001181,-0.00000917,0.00001169,0.00000965,0.00
 002136,-0.00000706,-0.00000102,0.00000705,0.00000085,-0.00000271,-0.00
 000223,-0.00000366,0.00000133,-0.00000776,0.00000982,-0.00014083,-0.00
 018001,-0.00010467,0.00002852,0.00002814,0.00002137,-0.00001071,-0.000
 02091,0.00000565,-0.00000029,0.00000006,-0.00000146,0.00000159,-0.0000
 0508,-0.00000056,0.00000464,0.00000737,0.00000377,-0.00001948,-0.00000
 080,-0.00002156,0.00000557,0.00001136,0.00000331,-0.00001556,-0.000011
 91,-0.00000306,0.00000142,-0.00000119,0.00000037,0.00230168,-0.0004836
 0,0.00088351,-0.00070769,0.00056337,-0.00006771,-0.00077290,-0.0001674
 7,-0.00015580,-0.00047233,0.00010870,-0.00062289,0.08628307,-0.0409944
 7,-0.17054949,0.00113019,0.00262779,0.02080678,0.01014336,-0.03408586,
 -0.00248977,-0.13243705,0.08571606,0.19300437\\0.00000155,0.00000339,-
 0.00000022,0.00000268,0.00000258,-0.00000036,0.00000306,0.00000128,-0.
 00000034,0.00000184,-0.00000032,-0.00000044,0.00000096,0.00000071,-0.0
 0000032,0.00000421,0.00000182,-0.00000063,0.00000127,0.00000337,0.0000
 0007,0.00000186,0.00000248,-0.00000067,0.00000283,0.00000015,-0.000000
 02,-0.00000023,0.00000088,-0.00000029,0.00000259,0.00000084,0.00000087
 ,0.00000450,0.00000266,-0.00000032,0.00000221,0.00000387,-0.00000169,-
 0.00000001,0.00000220,-0.00000141,0.00000013,0.00000041,0.00000005,0.0
 0000248,-0.00000157,0.00000026,0.00000134,-0.00000217,0.00000019,0.000
 00310,-0.00000196,0.00000078,0.00000085,-0.00000235,0.00000076,0.00000
 207,0.00000553,-0.00000044,0.00000132,0.00000435,-0.00000178,0.0000006
 0,0.00000455,-0.00000084,0.00000198,0.00000603,-0.00000159,-0.00000107
 ,0.00000346,-0.00000011,-0.00000140,0.00000249,-0.00000036,0.00000010,
 0.00000326,-0.00000069,-0.00000129,0.00000456,-0.00000090,-0.00000143,
 -0.00000099,0.00000044,-0.00000158,0.00000022,0.00000007,-0.00000091,-
 0.00000037,-0.00000019,-0.00000171,-0.00000071,-0.00000011,-0.00000148
 ,-0.00000272,0.00000016,-0.00000074,-0.00000257,0.00000065,-0.00000025
 ,-0.00000139,0.00000005,-0.00000295,-0.00000088,0.00000026,-0.00000325
 ,-0.00000309,0.00000093,0.00000123,-0.00000065,-0.00000032,0.00000006,
 -0.00000324,0.00000017,-0.00000212,-0.00000249,0.00000031,-0.00000340,
 -0.00000065,0.00000018,-0.00000280,-0.00000334,0.00000081,-0.00000160,
 -0.00000069,0.00000030,0.00000110,0.00000128,-0.00000049,0.00000105,-0
 .00000313,0.00000075,-0.00000152,-0.00000431,0.00000134,-0.00000399,-0
 .00000332,0.00000096,-0.00000426,-0.00000101,0.00000011,-0.00000523,-0
 .00000128,0.00000033,-0.00000437,0.00000015,0.00000012,-0.00000367,-0.
 00000170,0.00000046,0.00000036,0.00000054,0.00000009,0.00000278,0.0000
 0112,0.00000025,-0.00000099,0.00000035,-0.00000018,-0.00000034,0.00000
 235,0.00000014,0.00000054,0.00000430,-0.00000098,-0.00000063,0.0000026
 1,-0.00000142,-0.00000094,0.00000586,-0.00000107,0.00000048,0.00000375
 ,-0.00000066,-0.00000204,0.00000363,-0.00000075,-0.00000176,0.00000170
 ,-0.00000002,-0.00000219,0.00000453,-0.00000065,-0.00000173,0.00000636
 ,-0.00000134,0.00000141,-0.00000373,0.00000072,0.00000108,-0.00000463,
 0.00000077,0.00000079,-0.00000431,0.00000077,0.00000279,-0.00000425,0.
 00000081,-0.00000182,-0.00000514,0.00000086,-0.00000348,-0.00000479,0.
 00000092,-0.00000185,-0.00000439,0.00000064,-0.00000232,-0.00000610,0.
 00000131,-0.00000559,-0.00000459,0.00000101,-0.00000382,-0.00000500,0.
 00000104,-0.00000519,-0.00000413,0.00000098,-0.00000600,-0.00000461,0.
 00000102,-0.00000425,-0.00000188,0.00000048,-0.00000431,-0.00000245,0.
 00000061,-0.00000491,-0.00000067,0.00000022,-0.00000580,-0.00000213,0.
 00000059,0.00000508,0.00000151,-0.00000040,0.00000630,0.00000169,-0.00
 000068,0.00000590,0.00000008,-0.00000014,0.00000620,0.00000143,-0.0000
 0023,0.00000178,-0.00000160,0.00000062,0.00000452,-0.00000383,-0.00000
 141,0.00000552,-0.00000436,0.00000064,0.00000557,-0.00000447,0.0000007
 8,0.00000570,-0.00000280,0.00000008,0.00000634,-0.00000341,0.00000088,
 0.00000413,-0.00000384,0.00000076,0.00000418,-0.00000474,0.00000088,0.
 00000261,-0.00000456,0.00000077,0.00000364,-0.00000527,0.00000094,-0.0
 0000002,0.00000583,-0.00000110,0.00000123,0.00000771,-0.00000054,-0.00
 000150,0.00000784,-0.00000132,-0.00000023,0.00000618,-0.00000161,-0.00
 000340,0.00000394,-0.00000105,-0.00000318,0.00000291,0.00000047,-0.000
 00404,0.00000432,-0.00000066,-0.00000229,0.00000553,-0.00000067\\\@


 WE'RE IN THE POSITION OF A VISITOR FROM ANOTHER
 DIMENSION WHO COMES TO EARTH AND SEES A CHESS MATCH.
 ASSUMING HE KNOWS IT'S A GAME, HE'S GOT TWO PROBLEMS:
 FIRST, FIGURE OUT THE RULES, AND SECOND, FIGURE OUT HOW TO WIN.
 NINETY PERCENT OF SCIENCE (INCLUDING VIRTUALLY ALL OF CHEMISRY)
 IS IN THAT SECOND CATEGORY.  THEY'RE TRYING TO APPLY
 THE LAWS THAT ARE ALREADY KNOWN.

                     -- SHELDON GLASHOW, 1979
 Job cpu time:       7 days  1 hours 43 minutes  3.2 seconds.
 Elapsed time:       0 days  5 hours 39 minutes 25.4 seconds.
 File lengths (MBytes):  RWF=   9679 Int=      0 D2E=      0 Chk=     84 Scr=      1
 Normal termination of Gaussian 16 at Fri Jun  7 09:50:11 2019.
