 Entering Gaussian System, Link 0=g16
 Input=clay_new-glu_gluC6-bisCF3-sm-tpsstpss_d3bj-631gd-pcm_thf.gjf
 Output=clay_new-glu_gluC6-bisCF3-sm-tpsstpss_d3bj-631gd-pcm_thf.out
 Initial command:
 /home/ekwan/sw/g16/l1.exe "/scratch/users/ekwan/clay_new-glu_gluC6-bisCF3-sm-tpsstpss_d3bj-631gd-pcm_thf/Gau-35241.inp" -scrdir="/scratch/users/ekwan/clay_new-glu_gluC6-bisCF3-sm-tpsstpss_d3bj-631gd-pcm_thf/"
 Entering Link 1 = /home/ekwan/sw/g16/l1.exe PID=     35242.
  
 Copyright (c) 1988,1990,1992,1993,1995,1998,2003,2009,2016,
            Gaussian, Inc.  All Rights Reserved.
  
 This is part of the Gaussian(R) 16 program.  It is based on
 the Gaussian(R) 09 system (copyright 2009, Gaussian, Inc.),
 the Gaussian(R) 03 system (copyright 2003, Gaussian, Inc.),
 the Gaussian(R) 98 system (copyright 1998, Gaussian, Inc.),
 the Gaussian(R) 94 system (copyright 1995, Gaussian, Inc.),
 the Gaussian 92(TM) system (copyright 1992, Gaussian, Inc.),
 the Gaussian 90(TM) system (copyright 1990, Gaussian, Inc.),
 the Gaussian 88(TM) system (copyright 1988, Gaussian, Inc.),
 the Gaussian 86(TM) system (copyright 1986, Carnegie Mellon
 University), and the Gaussian 82(TM) system (copyright 1983,
 Carnegie Mellon University). Gaussian is a federally registered
 trademark of Gaussian, Inc.
  
 This software contains proprietary and confidential information,
 including trade secrets, belonging to Gaussian, Inc.
  
 This software is provided under written license and may be
 used, copied, transmitted, or stored only in accord with that
 written license.
  
 The following legend is applicable only to US Government
 contracts under FAR:
  
                    RESTRICTED RIGHTS LEGEND
  
 Use, reproduction and disclosure by the US Government is
 subject to restrictions as set forth in subparagraphs (a)
 and (c) of the Commercial Computer Software - Restricted
 Rights clause in FAR 52.227-19.
  
 Gaussian, Inc.
 340 Quinnipiac St., Bldg. 40, Wallingford CT 06492
  
  
 ---------------------------------------------------------------
 Warning -- This program may not be used in any manner that
 competes with the business of Gaussian, Inc. or will provide
 assistance to any competitor of Gaussian, Inc.  The licensee
 of this program is prohibited from giving any competitor of
 Gaussian, Inc. access to this program.  By using this program,
 the user acknowledges that Gaussian, Inc. is engaged in the
 business of creating and licensing software in the field of
 computational chemistry and represents and warrants to the
 licensee that it is not a competitor of Gaussian, Inc. and that
 it will not use this program in any manner prohibited above.
 ---------------------------------------------------------------
  

 Cite this work as:
 Gaussian 16, Revision A.03,
 M. J. Frisch, G. W. Trucks, H. B. Schlegel, G. E. Scuseria, 
 M. A. Robb, J. R. Cheeseman, G. Scalmani, V. Barone, 
 G. A. Petersson, H. Nakatsuji, X. Li, M. Caricato, A. V. Marenich, 
 J. Bloino, B. G. Janesko, R. Gomperts, B. Mennucci, H. P. Hratchian, 
 J. V. Ortiz, A. F. Izmaylov, J. L. Sonnenberg, D. Williams-Young, 
 F. Ding, F. Lipparini, F. Egidi, J. Goings, B. Peng, A. Petrone, 
 T. Henderson, D. Ranasinghe, V. G. Zakrzewski, J. Gao, N. Rega, 
 G. Zheng, W. Liang, M. Hada, M. Ehara, K. Toyota, R. Fukuda, 
 J. Hasegawa, M. Ishida, T. Nakajima, Y. Honda, O. Kitao, H. Nakai, 
 T. Vreven, K. Throssell, J. A. Montgomery, Jr., J. E. Peralta, 
 F. Ogliaro, M. J. Bearpark, J. J. Heyd, E. N. Brothers, K. N. Kudin, 
 V. N. Staroverov, T. A. Keith, R. Kobayashi, J. Normand, 
 K. Raghavachari, A. P. Rendell, J. C. Burant, S. S. Iyengar, 
 J. Tomasi, M. Cossi, J. M. Millam, M. Klene, C. Adamo, R. Cammi, 
 J. W. Ochterski, R. L. Martin, K. Morokuma, O. Farkas, 
 J. B. Foresman, and D. J. Fox, Gaussian, Inc., Wallingford CT, 2016.
 
 ******************************************
 Gaussian 16:  AS64L-G16RevA.03 25-Dec-2016
                10-Jun-2019 
 ******************************************
 %nprocshared=64
 Will use up to   64 processors via shared memory.
 %mem=96GB
 ----------------------------------------------------------------------
 #p opt freq=noraman tpsstpss/6-31g(d) scrf=(solvent=tetrahydrofuran,pc
 m) pop=none empiricaldispersion=gd3bj
 ----------------------------------------------------------------------
 1/18=20,19=15,26=3,38=1/1,3;
 2/9=110,12=2,17=6,18=5,40=1/2;
 3/5=1,6=6,7=1,11=2,25=1,30=1,70=2201,71=1,72=20,74=2523,124=41/1,2,3;
 4//1;
 5/5=2,38=5,53=20/2;
 7//1,2,3,16;
 1/18=20,19=15,26=3/3(2);
 2/9=110/2;
 99//99;
 2/9=110/2;
 3/5=1,6=6,7=1,11=2,25=1,30=1,70=2205,71=1,72=20,74=2523,124=41/1,2,3;
 4/5=5,16=3,69=1/1;
 5/5=2,38=5,53=20/2;
 7//1,2,3,16;
 1/18=20,19=15,26=3/3(-5);
 2/9=110/2;
 99/9=1/99;
 Leave Link    1 at Mon Jun 10 05:35:13 2019, MaxMem= 12884901888 cpu:              21.4 elap:               0.4
 (Enter /home/ekwan/sw/g16/l101.exe)
 -----
 title
 -----
 Symbolic Z-matrix:
 Charge =  0 Multiplicity = 1
 C                     3.40955   0.40039   0.57003 
 C                     3.32339  -0.53144  -0.64736 
 C                     1.85594  -0.8702   -0.98259 
 C                     1.03007   1.12733   0.061 
 C                     2.45218   1.58611   0.40774 
 H                     1.75098  -1.42788  -1.91592 
 H                     3.72672   0.00058  -1.52708 
 H                     3.13326  -0.161     1.47597 
 H                     0.61342   0.55703   0.90497 
 H                     2.81694   2.23816  -0.39864 
 O                     1.04733   0.26323  -1.11518 
 O                     1.39731  -1.73315   0.12209 
 O                     4.09703  -1.69107  -0.36936 
 O                     4.72817   0.94069   0.70096 
 O                     2.36179   2.31344   1.63819 
 C                     0.09558   2.30371  -0.23276 
 H                    -0.10359   2.80758   0.71886 
 H                    -0.85141   1.92371  -0.64499 
 O                     0.64968   3.30224  -1.08902 
 S                     0.09092  -2.69994  -0.18435 
 O                     0.07203  -3.64111   0.94237 
 O                     0.14953  -3.15439  -1.58597 
 C                    -1.28899  -1.56762  -0.01389 
 C                    -1.75324  -1.25928   1.26754 
 C                    -1.83479  -0.99266  -1.16475 
 C                    -2.80264  -0.33965   1.39075 
 H                    -1.31016  -1.72427   2.14357 
 C                    -2.88215  -0.0779   -1.0156 
 H                    -1.45053  -1.25229  -2.14585 
 C                    -3.36871   0.25343   0.25624 
 H                    -4.17921   0.969     0.36184 
 C                     4.31898  -2.52508  -1.51535 
 H                     3.39979  -3.04586  -1.82385 
 H                     4.70723  -1.93726  -2.3621 
 H                     5.06356  -3.26597  -1.21071 
 C                     5.56751   0.20555   1.60368 
 H                     6.51486   0.75285   1.64697 
 H                     5.12098   0.16973   2.61028 
 H                     5.74029  -0.81659   1.24411 
 C                     3.06418   3.56518   1.60208 
 H                     2.90637   4.02977   2.58102 
 H                     4.13756   3.40616   1.43309 
 H                     2.65609   4.21673   0.81443 
 C                     0.63351   2.94361  -2.47921 
 H                     0.8851    3.85544  -3.03077 
 H                    -0.36681   2.59486  -2.77885 
 H                     1.36696   2.15842  -2.7074 
 C                    -3.36222  -0.02636   2.75728 
 F                    -2.41534  -0.14673   3.72535 
 F                    -4.3795   -0.87143   3.08411 
 F                    -3.85896   1.23827   2.81636 
 C                    -3.44562   0.62264  -2.22651 
 F                    -2.88556   1.86216  -2.383 
 F                    -4.78669   0.81287  -2.11899 
 F                    -3.21075  -0.06797  -3.37072 
 
 ITRead=  0  0  0  0  0  0  0  0  0  0  0  0  0  0  0  0  0  0  0  0
 ITRead=  0  0  0  0  0  0  0  0  0  0  0  0  0  0  0  0  0  0  0  0
 ITRead=  0  0  0  0  0  0  0  0  0  0  0  0  0  0  0
 MicOpt= -1 -1 -1 -1 -1 -1 -1 -1 -1 -1 -1 -1 -1 -1 -1 -1 -1 -1 -1 -1
 MicOpt= -1 -1 -1 -1 -1 -1 -1 -1 -1 -1 -1 -1 -1 -1 -1 -1 -1 -1 -1 -1
 MicOpt= -1 -1 -1 -1 -1 -1 -1 -1 -1 -1 -1 -1 -1 -1 -1
 NAtoms=     55 NQM=       55 NQMF=       0 NMMI=      0 NMMIF=      0
                NMic=       0 NMicF=      0.
                    Isotopes and Nuclear Properties:
 (Nuclear quadrupole moments (NQMom) in fm**2, nuclear magnetic moments (NMagM)
  in nuclear magnetons)

  Atom         1           2           3           4           5           6           7           8           9          10
 IAtWgt=          12          12          12          12          12           1           1           1           1           1
 AtmWgt=  12.0000000  12.0000000  12.0000000  12.0000000  12.0000000   1.0078250   1.0078250   1.0078250   1.0078250   1.0078250
 NucSpn=           0           0           0           0           0           1           1           1           1           1
 AtZEff=   0.0000000   0.0000000   0.0000000   0.0000000   0.0000000   0.0000000   0.0000000   0.0000000   0.0000000   0.0000000
 NQMom=    0.0000000   0.0000000   0.0000000   0.0000000   0.0000000   0.0000000   0.0000000   0.0000000   0.0000000   0.0000000
 NMagM=    0.0000000   0.0000000   0.0000000   0.0000000   0.0000000   2.7928460   2.7928460   2.7928460   2.7928460   2.7928460
 AtZNuc=   6.0000000   6.0000000   6.0000000   6.0000000   6.0000000   1.0000000   1.0000000   1.0000000   1.0000000   1.0000000

  Atom        11          12          13          14          15          16          17          18          19          20
 IAtWgt=          16          16          16          16          16          12           1           1          16          32
 AtmWgt=  15.9949146  15.9949146  15.9949146  15.9949146  15.9949146  12.0000000   1.0078250   1.0078250  15.9949146  31.9720718
 NucSpn=           0           0           0           0           0           0           1           1           0           0
 AtZEff=   0.0000000   0.0000000   0.0000000   0.0000000   0.0000000   0.0000000   0.0000000   0.0000000   0.0000000   0.0000000
 NQMom=    0.0000000   0.0000000   0.0000000   0.0000000   0.0000000   0.0000000   0.0000000   0.0000000   0.0000000   0.0000000
 NMagM=    0.0000000   0.0000000   0.0000000   0.0000000   0.0000000   0.0000000   2.7928460   2.7928460   0.0000000   0.0000000
 AtZNuc=   8.0000000   8.0000000   8.0000000   8.0000000   8.0000000   6.0000000   1.0000000   1.0000000   8.0000000  16.0000000

  Atom        21          22          23          24          25          26          27          28          29          30
 IAtWgt=          16          16          12          12          12          12           1          12           1          12
 AtmWgt=  15.9949146  15.9949146  12.0000000  12.0000000  12.0000000  12.0000000   1.0078250  12.0000000   1.0078250  12.0000000
 NucSpn=           0           0           0           0           0           0           1           0           1           0
 AtZEff=   0.0000000   0.0000000   0.0000000   0.0000000   0.0000000   0.0000000   0.0000000   0.0000000   0.0000000   0.0000000
 NQMom=    0.0000000   0.0000000   0.0000000   0.0000000   0.0000000   0.0000000   0.0000000   0.0000000   0.0000000   0.0000000
 NMagM=    0.0000000   0.0000000   0.0000000   0.0000000   0.0000000   0.0000000   2.7928460   0.0000000   2.7928460   0.0000000
 AtZNuc=   8.0000000   8.0000000   6.0000000   6.0000000   6.0000000   6.0000000   1.0000000   6.0000000   1.0000000   6.0000000

  Atom        31          32          33          34          35          36          37          38          39          40
 IAtWgt=           1          12           1           1           1          12           1           1           1          12
 AtmWgt=   1.0078250  12.0000000   1.0078250   1.0078250   1.0078250  12.0000000   1.0078250   1.0078250   1.0078250  12.0000000
 NucSpn=           1           0           1           1           1           0           1           1           1           0
 AtZEff=   0.0000000   0.0000000   0.0000000   0.0000000   0.0000000   0.0000000   0.0000000   0.0000000   0.0000000   0.0000000
 NQMom=    0.0000000   0.0000000   0.0000000   0.0000000   0.0000000   0.0000000   0.0000000   0.0000000   0.0000000   0.0000000
 NMagM=    2.7928460   0.0000000   2.7928460   2.7928460   2.7928460   0.0000000   2.7928460   2.7928460   2.7928460   0.0000000
 AtZNuc=   1.0000000   6.0000000   1.0000000   1.0000000   1.0000000   6.0000000   1.0000000   1.0000000   1.0000000   6.0000000

  Atom        41          42          43          44          45          46          47          48          49          50
 IAtWgt=           1           1           1          12           1           1           1          12          19          19
 AtmWgt=   1.0078250   1.0078250   1.0078250  12.0000000   1.0078250   1.0078250   1.0078250  12.0000000  18.9984033  18.9984033
 NucSpn=           1           1           1           0           1           1           1           0           1           1
 AtZEff=   0.0000000   0.0000000   0.0000000   0.0000000   0.0000000   0.0000000   0.0000000   0.0000000   0.0000000   0.0000000
 NQMom=    0.0000000   0.0000000   0.0000000   0.0000000   0.0000000   0.0000000   0.0000000   0.0000000   0.0000000   0.0000000
 NMagM=    2.7928460   2.7928460   2.7928460   0.0000000   2.7928460   2.7928460   2.7928460   0.0000000   2.6288670   2.6288670
 AtZNuc=   1.0000000   1.0000000   1.0000000   6.0000000   1.0000000   1.0000000   1.0000000   6.0000000   9.0000000   9.0000000

  Atom        51          52          53          54          55
 IAtWgt=          19          12          19          19          19
 AtmWgt=  18.9984033  12.0000000  18.9984033  18.9984033  18.9984033
 NucSpn=           1           0           1           1           1
 AtZEff=   0.0000000   0.0000000   0.0000000   0.0000000   0.0000000
 NQMom=    0.0000000   0.0000000   0.0000000   0.0000000   0.0000000
 NMagM=    2.6288670   0.0000000   2.6288670   2.6288670   2.6288670
 AtZNuc=   9.0000000   6.0000000   9.0000000   9.0000000   9.0000000
 Leave Link  101 at Mon Jun 10 05:35:14 2019, MaxMem= 12884901888 cpu:              37.7 elap:               0.7
 (Enter /home/ekwan/sw/g16/l103.exe)

 GradGradGradGradGradGradGradGradGradGradGradGradGradGradGradGradGradGrad
 Berny optimization.
 Initialization pass.
                           ----------------------------
                           !    Initial Parameters    !
                           ! (Angstroms and Degrees)  !
 --------------------------                            --------------------------
 ! Name  Definition              Value          Derivative Info.                !
 --------------------------------------------------------------------------------
 ! R1    R(1,2)                  1.5355         estimate D2E/DX2                !
 ! R2    R(1,5)                  1.5326         estimate D2E/DX2                !
 ! R3    R(1,8)                  1.101          estimate D2E/DX2                !
 ! R4    R(1,14)                 1.431          estimate D2E/DX2                !
 ! R5    R(2,3)                  1.5429         estimate D2E/DX2                !
 ! R6    R(2,7)                  1.1044         estimate D2E/DX2                !
 ! R7    R(2,13)                 1.4215         estimate D2E/DX2                !
 ! R8    R(3,6)                  1.0923         estimate D2E/DX2                !
 ! R9    R(3,11)                 1.3986         estimate D2E/DX2                !
 ! R10   R(3,12)                 1.4749         estimate D2E/DX2                !
 ! R11   R(4,5)                  1.534          estimate D2E/DX2                !
 ! R12   R(4,9)                  1.1005         estimate D2E/DX2                !
 ! R13   R(4,11)                 1.4596         estimate D2E/DX2                !
 ! R14   R(4,16)                 1.5308         estimate D2E/DX2                !
 ! R15   R(5,10)                 1.0993         estimate D2E/DX2                !
 ! R16   R(5,15)                 1.4322         estimate D2E/DX2                !
 ! R17   R(12,20)                1.6539         estimate D2E/DX2                !
 ! R18   R(13,32)                1.4346         estimate D2E/DX2                !
 ! R19   R(14,36)                1.4352         estimate D2E/DX2                !
 ! R20   R(15,40)                1.4358         estimate D2E/DX2                !
 ! R21   R(16,17)                1.095          estimate D2E/DX2                !
 ! R22   R(16,18)                1.1005         estimate D2E/DX2                !
 ! R23   R(16,19)                1.4273         estimate D2E/DX2                !
 ! R24   R(19,44)                1.4358         estimate D2E/DX2                !
 ! R25   R(20,21)                1.4682         estimate D2E/DX2                !
 ! R26   R(20,22)                1.4746         estimate D2E/DX2                !
 ! R27   R(20,23)                1.7931         estimate D2E/DX2                !
 ! R28   R(23,24)                1.3974         estimate D2E/DX2                !
 ! R29   R(23,25)                1.3975         estimate D2E/DX2                !
 ! R30   R(24,26)                1.4008         estimate D2E/DX2                !
 ! R31   R(24,27)                1.0863         estimate D2E/DX2                !
 ! R32   R(25,28)                1.3986         estimate D2E/DX2                !
 ! R33   R(25,29)                1.0852         estimate D2E/DX2                !
 ! R34   R(26,30)                1.3997         estimate D2E/DX2                !
 ! R35   R(26,48)                1.5095         estimate D2E/DX2                !
 ! R36   R(28,30)                1.4015         estimate D2E/DX2                !
 ! R37   R(28,52)                1.5082         estimate D2E/DX2                !
 ! R38   R(30,31)                1.0863         estimate D2E/DX2                !
 ! R39   R(32,33)                1.1006         estimate D2E/DX2                !
 ! R40   R(32,34)                1.1015         estimate D2E/DX2                !
 ! R41   R(32,35)                1.0937         estimate D2E/DX2                !
 ! R42   R(36,37)                1.0949         estimate D2E/DX2                !
 ! R43   R(36,38)                1.1018         estimate D2E/DX2                !
 ! R44   R(36,39)                1.0972         estimate D2E/DX2                !
 ! R45   R(40,41)                1.095          estimate D2E/DX2                !
 ! R46   R(40,42)                1.0982         estimate D2E/DX2                !
 ! R47   R(40,43)                1.1007         estimate D2E/DX2                !
 ! R48   R(44,45)                1.095          estimate D2E/DX2                !
 ! R49   R(44,46)                1.1009         estimate D2E/DX2                !
 ! R50   R(44,47)                1.0984         estimate D2E/DX2                !
 ! R51   R(48,49)                1.3595         estimate D2E/DX2                !
 ! R52   R(48,50)                1.3623         estimate D2E/DX2                !
 ! R53   R(48,51)                1.36           estimate D2E/DX2                !
 ! R54   R(52,53)                1.3692         estimate D2E/DX2                !
 ! R55   R(52,54)                1.3587         estimate D2E/DX2                !
 ! R56   R(52,55)                1.357          estimate D2E/DX2                !
 ! A1    A(2,1,5)              110.5178         estimate D2E/DX2                !
 ! A2    A(2,1,8)              109.1992         estimate D2E/DX2                !
 ! A3    A(2,1,14)             110.6938         estimate D2E/DX2                !
 ! A4    A(5,1,8)              108.957          estimate D2E/DX2                !
 ! A5    A(5,1,14)             107.0488         estimate D2E/DX2                !
 ! A6    A(8,1,14)             110.3931         estimate D2E/DX2                !
 ! A7    A(1,2,3)              111.0308         estimate D2E/DX2                !
 ! A8    A(1,2,7)              108.5845         estimate D2E/DX2                !
 ! A9    A(1,2,13)             108.0275         estimate D2E/DX2                !
 ! A10   A(3,2,7)              106.2633         estimate D2E/DX2                !
 ! A11   A(3,2,13)             112.3973         estimate D2E/DX2                !
 ! A12   A(7,2,13)             110.4891         estimate D2E/DX2                !
 ! A13   A(2,3,6)              112.9012         estimate D2E/DX2                !
 ! A14   A(2,3,11)             113.1134         estimate D2E/DX2                !
 ! A15   A(2,3,12)             105.1576         estimate D2E/DX2                !
 ! A16   A(6,3,11)             106.0928         estimate D2E/DX2                !
 ! A17   A(6,3,12)             108.1417         estimate D2E/DX2                !
 ! A18   A(11,3,12)            111.4311         estimate D2E/DX2                !
 ! A19   A(5,4,9)              109.4287         estimate D2E/DX2                !
 ! A20   A(5,4,11)             110.3803         estimate D2E/DX2                !
 ! A21   A(5,4,16)             112.3007         estimate D2E/DX2                !
 ! A22   A(9,4,11)             108.4014         estimate D2E/DX2                !
 ! A23   A(9,4,16)             108.3169         estimate D2E/DX2                !
 ! A24   A(11,4,16)            107.9101         estimate D2E/DX2                !
 ! A25   A(1,5,4)              111.8181         estimate D2E/DX2                !
 ! A26   A(1,5,10)             109.2266         estimate D2E/DX2                !
 ! A27   A(1,5,15)             109.959          estimate D2E/DX2                !
 ! A28   A(4,5,10)             108.6151         estimate D2E/DX2                !
 ! A29   A(4,5,15)             106.7128         estimate D2E/DX2                !
 ! A30   A(10,5,15)            110.4826         estimate D2E/DX2                !
 ! A31   A(3,11,4)             114.2181         estimate D2E/DX2                !
 ! A32   A(3,12,20)            116.6712         estimate D2E/DX2                !
 ! A33   A(2,13,32)            113.7176         estimate D2E/DX2                !
 ! A34   A(1,14,36)            113.7682         estimate D2E/DX2                !
 ! A35   A(5,15,40)            112.9709         estimate D2E/DX2                !
 ! A36   A(4,16,17)            107.3293         estimate D2E/DX2                !
 ! A37   A(4,16,18)            109.3794         estimate D2E/DX2                !
 ! A38   A(4,16,19)            114.5658         estimate D2E/DX2                !
 ! A39   A(17,16,18)           109.1409         estimate D2E/DX2                !
 ! A40   A(17,16,19)           105.6668         estimate D2E/DX2                !
 ! A41   A(18,16,19)           110.5421         estimate D2E/DX2                !
 ! A42   A(16,19,44)           113.6871         estimate D2E/DX2                !
 ! A43   A(12,20,21)           104.0455         estimate D2E/DX2                !
 ! A44   A(12,20,22)           108.9578         estimate D2E/DX2                !
 ! A45   A(12,20,23)           102.7748         estimate D2E/DX2                !
 ! A46   A(21,20,22)           122.1661         estimate D2E/DX2                !
 ! A47   A(21,20,23)           108.7804         estimate D2E/DX2                !
 ! A48   A(22,20,23)           108.3944         estimate D2E/DX2                !
 ! A49   A(20,23,24)           118.828          estimate D2E/DX2                !
 ! A50   A(20,23,25)           118.8205         estimate D2E/DX2                !
 ! A51   A(24,23,25)           122.3206         estimate D2E/DX2                !
 ! A52   A(23,24,26)           118.3213         estimate D2E/DX2                !
 ! A53   A(23,24,27)           120.6358         estimate D2E/DX2                !
 ! A54   A(26,24,27)           121.0428         estimate D2E/DX2                !
 ! A55   A(23,25,28)           118.2783         estimate D2E/DX2                !
 ! A56   A(23,25,29)           120.5184         estimate D2E/DX2                !
 ! A57   A(28,25,29)           121.2033         estimate D2E/DX2                !
 ! A58   A(24,26,30)           120.6538         estimate D2E/DX2                !
 ! A59   A(24,26,48)           119.5767         estimate D2E/DX2                !
 ! A60   A(30,26,48)           119.728          estimate D2E/DX2                !
 ! A61   A(25,28,30)           120.7576         estimate D2E/DX2                !
 ! A62   A(25,28,52)           119.8663         estimate D2E/DX2                !
 ! A63   A(30,28,52)           119.2829         estimate D2E/DX2                !
 ! A64   A(26,30,28)           119.6682         estimate D2E/DX2                !
 ! A65   A(26,30,31)           120.1346         estimate D2E/DX2                !
 ! A66   A(28,30,31)           120.1969         estimate D2E/DX2                !
 ! A67   A(13,32,33)           111.7023         estimate D2E/DX2                !
 ! A68   A(13,32,34)           111.0002         estimate D2E/DX2                !
 ! A69   A(13,32,35)           106.0594         estimate D2E/DX2                !
 ! A70   A(33,32,34)           109.3554         estimate D2E/DX2                !
 ! A71   A(33,32,35)           109.0334         estimate D2E/DX2                !
 ! A72   A(34,32,35)           109.6144         estimate D2E/DX2                !
 ! A73   A(14,36,37)           105.9518         estimate D2E/DX2                !
 ! A74   A(14,36,38)           110.7496         estimate D2E/DX2                !
 ! A75   A(14,36,39)           111.2923         estimate D2E/DX2                !
 ! A76   A(37,36,38)           109.3161         estimate D2E/DX2                !
 ! A77   A(37,36,39)           110.0201         estimate D2E/DX2                !
 ! A78   A(38,36,39)           109.4475         estimate D2E/DX2                !
 ! A79   A(15,40,41)           106.0756         estimate D2E/DX2                !
 ! A80   A(15,40,42)           110.8408         estimate D2E/DX2                !
 ! A81   A(15,40,43)           110.6524         estimate D2E/DX2                !
 ! A82   A(41,40,42)           109.8694         estimate D2E/DX2                !
 ! A83   A(41,40,43)           109.5825         estimate D2E/DX2                !
 ! A84   A(42,40,43)           109.7548         estimate D2E/DX2                !
 ! A85   A(19,44,45)           106.0892         estimate D2E/DX2                !
 ! A86   A(19,44,46)           110.6638         estimate D2E/DX2                !
 ! A87   A(19,44,47)           111.8496         estimate D2E/DX2                !
 ! A88   A(45,44,46)           109.6012         estimate D2E/DX2                !
 ! A89   A(45,44,47)           109.7063         estimate D2E/DX2                !
 ! A90   A(46,44,47)           108.8885         estimate D2E/DX2                !
 ! A91   A(26,48,49)           111.5961         estimate D2E/DX2                !
 ! A92   A(26,48,50)           111.423          estimate D2E/DX2                !
 ! A93   A(26,48,51)           111.5748         estimate D2E/DX2                !
 ! A94   A(49,48,50)           107.1181         estimate D2E/DX2                !
 ! A95   A(49,48,51)           107.8066         estimate D2E/DX2                !
 ! A96   A(50,48,51)           107.0775         estimate D2E/DX2                !
 ! A97   A(28,52,53)           111.0666         estimate D2E/DX2                !
 ! A98   A(28,52,54)           111.731          estimate D2E/DX2                !
 ! A99   A(28,52,55)           112.0835         estimate D2E/DX2                !
 ! A100  A(53,52,54)           106.6202         estimate D2E/DX2                !
 ! A101  A(53,52,55)           107.0722         estimate D2E/DX2                !
 ! A102  A(54,52,55)           107.9879         estimate D2E/DX2                !
 ! D1    D(5,1,2,3)            -49.0398         estimate D2E/DX2                !
 ! D2    D(5,1,2,7)             67.4361         estimate D2E/DX2                !
 ! D3    D(5,1,2,13)          -172.7107         estimate D2E/DX2                !
 ! D4    D(8,1,2,3)             70.8021         estimate D2E/DX2                !
 ! D5    D(8,1,2,7)           -172.722          estimate D2E/DX2                !
 ! D6    D(8,1,2,13)           -52.8689         estimate D2E/DX2                !
 ! D7    D(14,1,2,3)          -167.4644         estimate D2E/DX2                !
 ! D8    D(14,1,2,7)           -50.9885         estimate D2E/DX2                !
 ! D9    D(14,1,2,13)           68.8646         estimate D2E/DX2                !
 ! D10   D(2,1,5,4)             51.3537         estimate D2E/DX2                !
 ! D11   D(2,1,5,10)           -68.896          estimate D2E/DX2                !
 ! D12   D(2,1,5,15)           169.7094         estimate D2E/DX2                !
 ! D13   D(8,1,5,4)            -68.6338         estimate D2E/DX2                !
 ! D14   D(8,1,5,10)           171.1165         estimate D2E/DX2                !
 ! D15   D(8,1,5,15)            49.7219         estimate D2E/DX2                !
 ! D16   D(14,1,5,4)           171.9787         estimate D2E/DX2                !
 ! D17   D(14,1,5,10)           51.729          estimate D2E/DX2                !
 ! D18   D(14,1,5,15)          -69.6655         estimate D2E/DX2                !
 ! D19   D(2,1,14,36)          -95.2425         estimate D2E/DX2                !
 ! D20   D(5,1,14,36)          144.2445         estimate D2E/DX2                !
 ! D21   D(8,1,14,36)           25.7865         estimate D2E/DX2                !
 ! D22   D(1,2,3,6)            172.7882         estimate D2E/DX2                !
 ! D23   D(1,2,3,11)            52.2922         estimate D2E/DX2                !
 ! D24   D(1,2,3,12)           -69.5253         estimate D2E/DX2                !
 ! D25   D(7,2,3,6)             54.8938         estimate D2E/DX2                !
 ! D26   D(7,2,3,11)           -65.6022         estimate D2E/DX2                !
 ! D27   D(7,2,3,12)           172.5803         estimate D2E/DX2                !
 ! D28   D(13,2,3,6)           -66.0765         estimate D2E/DX2                !
 ! D29   D(13,2,3,11)          173.4275         estimate D2E/DX2                !
 ! D30   D(13,2,3,12)           51.61           estimate D2E/DX2                !
 ! D31   D(1,2,13,32)         -168.4467         estimate D2E/DX2                !
 ! D32   D(3,2,13,32)           68.7122         estimate D2E/DX2                !
 ! D33   D(7,2,13,32)          -49.8004         estimate D2E/DX2                !
 ! D34   D(2,3,11,4)           -57.1613         estimate D2E/DX2                !
 ! D35   D(6,3,11,4)           178.5407         estimate D2E/DX2                !
 ! D36   D(12,3,11,4)           61.0644         estimate D2E/DX2                !
 ! D37   D(2,3,12,20)         -158.5036         estimate D2E/DX2                !
 ! D38   D(6,3,12,20)          -37.6383         estimate D2E/DX2                !
 ! D39   D(11,3,12,20)          78.5915         estimate D2E/DX2                !
 ! D40   D(9,4,5,1)             65.0537         estimate D2E/DX2                !
 ! D41   D(9,4,5,10)          -174.3397         estimate D2E/DX2                !
 ! D42   D(9,4,5,15)           -55.2184         estimate D2E/DX2                !
 ! D43   D(11,4,5,1)           -54.1636         estimate D2E/DX2                !
 ! D44   D(11,4,5,10)           66.443          estimate D2E/DX2                !
 ! D45   D(11,4,5,15)         -174.4357         estimate D2E/DX2                !
 ! D46   D(16,4,5,1)          -174.6246         estimate D2E/DX2                !
 ! D47   D(16,4,5,10)          -54.0181         estimate D2E/DX2                !
 ! D48   D(16,4,5,15)           65.1032         estimate D2E/DX2                !
 ! D49   D(5,4,11,3)            57.6143         estimate D2E/DX2                !
 ! D50   D(9,4,11,3)           -62.2245         estimate D2E/DX2                !
 ! D51   D(16,4,11,3)         -179.3276         estimate D2E/DX2                !
 ! D52   D(5,4,16,17)          -71.6221         estimate D2E/DX2                !
 ! D53   D(5,4,16,18)          170.0922         estimate D2E/DX2                !
 ! D54   D(5,4,16,19)           45.3572         estimate D2E/DX2                !
 ! D55   D(9,4,16,17)           49.3411         estimate D2E/DX2                !
 ! D56   D(9,4,16,18)          -68.9446         estimate D2E/DX2                !
 ! D57   D(9,4,16,19)          166.3204         estimate D2E/DX2                !
 ! D58   D(11,4,16,17)         166.499          estimate D2E/DX2                !
 ! D59   D(11,4,16,18)          48.2133         estimate D2E/DX2                !
 ! D60   D(11,4,16,19)         -76.5217         estimate D2E/DX2                !
 ! D61   D(1,5,15,40)          105.9874         estimate D2E/DX2                !
 ! D62   D(4,5,15,40)         -132.5533         estimate D2E/DX2                !
 ! D63   D(10,5,15,40)         -14.6528         estimate D2E/DX2                !
 ! D64   D(3,12,20,21)         167.0695         estimate D2E/DX2                !
 ! D65   D(3,12,20,22)          35.2957         estimate D2E/DX2                !
 ! D66   D(3,12,20,23)         -79.5392         estimate D2E/DX2                !
 ! D67   D(2,13,32,33)         -71.3453         estimate D2E/DX2                !
 ! D68   D(2,13,32,34)          50.9896         estimate D2E/DX2                !
 ! D69   D(2,13,32,35)         169.9809         estimate D2E/DX2                !
 ! D70   D(1,14,36,37)        -177.1127         estimate D2E/DX2                !
 ! D71   D(1,14,36,38)         -58.6765         estimate D2E/DX2                !
 ! D72   D(1,14,36,39)          63.3135         estimate D2E/DX2                !
 ! D73   D(5,15,40,41)         178.9542         estimate D2E/DX2                !
 ! D74   D(5,15,40,42)         -61.8252         estimate D2E/DX2                !
 ! D75   D(5,15,40,43)          60.1789         estimate D2E/DX2                !
 ! D76   D(4,16,19,44)          78.4827         estimate D2E/DX2                !
 ! D77   D(17,16,19,44)       -163.5902         estimate D2E/DX2                !
 ! D78   D(18,16,19,44)        -45.6361         estimate D2E/DX2                !
 ! D79   D(16,19,44,45)        168.6316         estimate D2E/DX2                !
 ! D80   D(16,19,44,46)         49.8199         estimate D2E/DX2                !
 ! D81   D(16,19,44,47)        -71.7804         estimate D2E/DX2                !
 ! D82   D(12,20,23,24)        -80.359          estimate D2E/DX2                !
 ! D83   D(12,20,23,25)         97.6669         estimate D2E/DX2                !
 ! D84   D(21,20,23,24)         29.5146         estimate D2E/DX2                !
 ! D85   D(21,20,23,25)       -152.4595         estimate D2E/DX2                !
 ! D86   D(22,20,23,24)        164.3984         estimate D2E/DX2                !
 ! D87   D(22,20,23,25)        -17.5756         estimate D2E/DX2                !
 ! D88   D(20,23,24,26)        177.9212         estimate D2E/DX2                !
 ! D89   D(20,23,24,27)         -2.1793         estimate D2E/DX2                !
 ! D90   D(25,23,24,26)         -0.0322         estimate D2E/DX2                !
 ! D91   D(25,23,24,27)        179.8674         estimate D2E/DX2                !
 ! D92   D(20,23,25,28)       -177.9558         estimate D2E/DX2                !
 ! D93   D(20,23,25,29)          1.9582         estimate D2E/DX2                !
 ! D94   D(24,23,25,28)         -0.0023         estimate D2E/DX2                !
 ! D95   D(24,23,25,29)        179.9117         estimate D2E/DX2                !
 ! D96   D(23,24,26,30)         -0.0209         estimate D2E/DX2                !
 ! D97   D(23,24,26,48)        177.6305         estimate D2E/DX2                !
 ! D98   D(27,24,26,30)       -179.92           estimate D2E/DX2                !
 ! D99   D(27,24,26,48)         -2.2687         estimate D2E/DX2                !
 ! D100  D(23,25,28,30)          0.0905         estimate D2E/DX2                !
 ! D101  D(23,25,28,52)        176.5548         estimate D2E/DX2                !
 ! D102  D(29,25,28,30)       -179.8229         estimate D2E/DX2                !
 ! D103  D(29,25,28,52)         -3.3585         estimate D2E/DX2                !
 ! D104  D(24,26,30,28)          0.1072         estimate D2E/DX2                !
 ! D105  D(24,26,30,31)       -179.7199         estimate D2E/DX2                !
 ! D106  D(48,26,30,28)       -177.5406         estimate D2E/DX2                !
 ! D107  D(48,26,30,31)          2.6323         estimate D2E/DX2                !
 ! D108  D(24,26,48,49)         30.1906         estimate D2E/DX2                !
 ! D109  D(24,26,48,50)        -89.5039         estimate D2E/DX2                !
 ! D110  D(24,26,48,51)        150.8676         estimate D2E/DX2                !
 ! D111  D(30,26,48,49)       -152.1361         estimate D2E/DX2                !
 ! D112  D(30,26,48,50)         88.1695         estimate D2E/DX2                !
 ! D113  D(30,26,48,51)        -31.459          estimate D2E/DX2                !
 ! D114  D(25,28,30,26)         -0.143          estimate D2E/DX2                !
 ! D115  D(25,28,30,31)        179.684          estimate D2E/DX2                !
 ! D116  D(52,28,30,26)       -176.6277         estimate D2E/DX2                !
 ! D117  D(52,28,30,31)          3.1993         estimate D2E/DX2                !
 ! D118  D(25,28,52,53)        -96.7145         estimate D2E/DX2                !
 ! D119  D(25,28,52,54)        144.3717         estimate D2E/DX2                !
 ! D120  D(25,28,52,55)         23.0077         estimate D2E/DX2                !
 ! D121  D(30,28,52,53)         79.8021         estimate D2E/DX2                !
 ! D122  D(30,28,52,54)        -39.1117         estimate D2E/DX2                !
 ! D123  D(30,28,52,55)       -160.4757         estimate D2E/DX2                !
 --------------------------------------------------------------------------------
 Trust Radius=3.00D-01 FncErr=1.00D-07 GrdErr=1.00D-06 EigMax=2.50D+02 EigMin=1.00D-04
 Number of steps in this run=    291 maximum allowed number of steps=    330.
 GradGradGradGradGradGradGradGradGradGradGradGradGradGradGradGradGradGrad

 Leave Link  103 at Mon Jun 10 05:35:14 2019, MaxMem= 12884901888 cpu:               5.3 elap:               0.1
 (Enter /home/ekwan/sw/g16/l202.exe)
 Stoichiometry    C18H22F6O8S
 Framework group  C1[X(C18H22F6O8S)]
 Deg. of freedom   159
 Full point group                 C1      NOp   1
 Largest Abelian subgroup         C1      NOp   1
 Largest concise Abelian subgroup C1      NOp   1
                         Standard orientation:                         
 ---------------------------------------------------------------------
 Center     Atomic      Atomic             Coordinates (Angstroms)
 Number     Number       Type             X           Y           Z
 ---------------------------------------------------------------------
      1          6           0        3.409551    0.400388    0.570029
      2          6           0        3.323387   -0.531444   -0.647362
      3          6           0        1.855941   -0.870196   -0.982591
      4          6           0        1.030074    1.127326    0.061000
      5          6           0        2.452180    1.586112    0.407736
      6          1           0        1.750975   -1.427882   -1.915917
      7          1           0        3.726720    0.000583   -1.527078
      8          1           0        3.133262   -0.160995    1.475966
      9          1           0        0.613418    0.557025    0.904971
     10          1           0        2.816941    2.238158   -0.398636
     11          8           0        1.047331    0.263231   -1.115182
     12          8           0        1.397310   -1.733152    0.122092
     13          8           0        4.097034   -1.691070   -0.369356
     14          8           0        4.728166    0.940688    0.700961
     15          8           0        2.361793    2.313441    1.638189
     16          6           0        0.095582    2.303713   -0.232758
     17          1           0       -0.103587    2.807579    0.718861
     18          1           0       -0.851413    1.923708   -0.644992
     19          8           0        0.649675    3.302236   -1.089022
     20         16           0        0.090916   -2.699937   -0.184349
     21          8           0        0.072029   -3.641109    0.942372
     22          8           0        0.149529   -3.154387   -1.585967
     23          6           0       -1.288987   -1.567617   -0.013885
     24          6           0       -1.753239   -1.259282    1.267542
     25          6           0       -1.834786   -0.992656   -1.164753
     26          6           0       -2.802643   -0.339651    1.390747
     27          1           0       -1.310163   -1.724269    2.143569
     28          6           0       -2.882151   -0.077895   -1.015601
     29          1           0       -1.450534   -1.252288   -2.145854
     30          6           0       -3.368711    0.253425    0.256241
     31          1           0       -4.179214    0.969002    0.361844
     32          6           0        4.318983   -2.525075   -1.515354
     33          1           0        3.399791   -3.045860   -1.823853
     34          1           0        4.707228   -1.937260   -2.362096
     35          1           0        5.063564   -3.265971   -1.210705
     36          6           0        5.567505    0.205547    1.603684
     37          1           0        6.514857    0.752849    1.646973
     38          1           0        5.120981    0.169732    2.610280
     39          1           0        5.740286   -0.816590    1.244105
     40          6           0        3.064179    3.565184    1.602083
     41          1           0        2.906365    4.029774    2.581015
     42          1           0        4.137559    3.406156    1.433090
     43          1           0        2.656089    4.216735    0.814429
     44          6           0        0.633506    2.943605   -2.479209
     45          1           0        0.885103    3.855443   -3.030774
     46          1           0       -0.366808    2.594856   -2.778850
     47          1           0        1.366958    2.158424   -2.707395
     48          6           0       -3.362216   -0.026358    2.757283
     49          9           0       -2.415336   -0.146730    3.725350
     50          9           0       -4.379498   -0.871433    3.084112
     51          9           0       -3.858963    1.238272    2.816359
     52          6           0       -3.445624    0.622636   -2.226511
     53          9           0       -2.885561    1.862159   -2.382997
     54          9           0       -4.786686    0.812870   -2.118990
     55          9           0       -3.210751   -0.067972   -3.370721
 ---------------------------------------------------------------------
 Rotational constants (GHZ):           0.1496408           0.0840076           0.0824795
 Leave Link  202 at Mon Jun 10 05:35:15 2019, MaxMem= 12884901888 cpu:              11.0 elap:               0.2
 (Enter /home/ekwan/sw/g16/l301.exe)
 Standard basis: 6-31G(d) (6D, 7F)
 Ernie: Thresh=  0.10000D-02 Tol=  0.10000D-05 Strict=F.
 There are   543 symmetry adapted cartesian basis functions of A   symmetry.
 There are   543 symmetry adapted basis functions of A   symmetry.
   543 basis functions,  1036 primitive gaussians,   543 cartesian basis functions
   132 alpha electrons      132 beta electrons
       nuclear repulsion energy      4323.2825424136 Hartrees.
 IExCor= 2523 DFT=T Ex=TPSS Corr=TPSS ExCW=0 ScaHFX=  0.000000
 ScaDFX=  1.000000  1.000000  1.000000  1.000000 ScalE2=  1.000000  1.000000
 IRadAn=      5 IRanWt=     -1 IRanGd=            0 ICorTp=0 IEmpDi=141
 NAtoms=   55 NActive=   55 NUniq=   55 SFac= 1.00D+00 NAtFMM=   60 NAOKFM=F Big=F
 Integral buffers will be    131072 words long.
 Raffenetti 2 integral format.
 Two-electron integral symmetry is turned on.
 R6Disp:  Grimme-D3(BJ) Dispersion energy=       -0.0929476157 Hartrees.
 Nuclear repulsion after empirical dispersion term =     4323.1895947979 Hartrees.
 ------------------------------------------------------------------------------
 Polarizable Continuum Model (PCM)
 =================================
 Model                : PCM.
 Atomic radii         : UFF (Universal Force Field).
 Polarization charges : Total charges.
 Charge compensation  : None.
 Solution method      : On-the-fly selection.
 Cavity type          : Scaled VdW (van der Waals Surface) (Alpha=1.100).
 Cavity algorithm     : GePol (No added spheres)
                        Default sphere list used, NSphG=   55.
                        Lebedev-Laikov grids with approx.  5.0 points / Ang**2.
                        Smoothing algorithm: York/Karplus (Gamma=1.0000).
                        Polarization charges: spherical gaussians, with
                                              point-specific exponents (IZeta= 3).
                        Self-potential: point-specific (ISelfS= 7).
                        Self-field    : sphere-specific E.n sum rule (ISelfD= 2).
 1st derivatives      : Analytical E(r).r(x)/FMM algorithm (CHGder, D1EAlg=3).
                        Cavity 1st derivative terms included.
 Solvent              : TetraHydroFuran, Eps=   7.425700 Eps(inf)=   1.974025
 ------------------------------------------------------------------------------
 GePol: Number of generator spheres                  =      55
 GePol: Total number of spheres                      =      55
 GePol: Number of exposed spheres                    =      55 (100.00%)
 GePol: Number of points                             =    3913
 GePol: Average weight of points                     =       0.13
 GePol: Minimum weight of points                     =   0.10D-11
 GePol: Maximum weight of points                     =    0.20577
 GePol: Number of points with low weight             =     232
 GePol: Fraction of low-weight points (<1% of avg)   =       5.93%
 GePol: Cavity surface area                          =    498.352 Ang**2
 GePol: Cavity volume                                =    580.650 Ang**3
 Leave Link  301 at Mon Jun 10 05:35:15 2019, MaxMem= 12884901888 cpu:              15.6 elap:               0.3
 (Enter /home/ekwan/sw/g16/l302.exe)
 NPDir=0 NMtPBC=     1 NCelOv=     1 NCel=       1 NClECP=     1 NCelD=      1
         NCelK=      1 NCelE2=     1 NClLst=     1 CellRange=     0.0.
 One-electron integrals computed using PRISM.
 One-electron integral symmetry used in STVInt
 NBasis=   543 RedAO= T EigKep=  4.35D-04  NBF=   543
 NBsUse=   543 1.00D-06 EigRej= -1.00D+00 NBFU=   543
 Precomputing XC quadrature grid using
 IXCGrd= 4 IRadAn=           5 IRanWt=          -1 IRanGd=           0 AccXCQ= 0.00D+00.
 Generated NRdTot=       0 NPtTot=           0 NUsed=           0 NTot=          32
 NSgBfM=   533   532   532   532   533 MxSgAt=    55 MxSgA2=    55.
 Leave Link  302 at Mon Jun 10 05:35:22 2019, MaxMem= 12884901888 cpu:             439.9 elap:               7.3
 (Enter /home/ekwan/sw/g16/l303.exe)
 DipDrv:  MaxL=1.
 Leave Link  303 at Mon Jun 10 05:35:23 2019, MaxMem= 12884901888 cpu:              23.6 elap:               0.4
 (Enter /home/ekwan/sw/g16/l401.exe)
 ExpMin= 1.17D-01 ExpMax= 2.19D+04 ExpMxC= 3.30D+03 IAcc=3 IRadAn=         5 AccDes= 0.00D+00
 Harris functional with IExCor= 1009 and IRadAn=       5 diagonalized for initial guess.
 HarFok:  IExCor= 1009 AccDes= 0.00D+00 IRadAn=         5 IDoV= 1 UseB2=F ITyADJ=14
 ICtDFT=  3500011 ScaDFX=  1.000000  1.000000  1.000000  1.000000
 FoFCou: FMM=F IPFlag=           0 FMFlag=      100000 FMFlg1=           0
         NFxFlg=           0 DoJE=T BraDBF=F KetDBF=T FulRan=T
         wScrn=  0.000000 ICntrl=       500 IOpCl=  0 I1Cent=   200000004 NGrid=           0
         NMat0=    1 NMatS0=      1 NMatT0=    0 NMatD0=    1 NMtDS0=    0 NMtDT0=    0
 Petite list used in FoFCou.
 Harris En= -2296.23825995865    
 JPrj=0 DoOrth=F DoCkMO=F.
 Leave Link  401 at Mon Jun 10 05:35:27 2019, MaxMem= 12884901888 cpu:             243.6 elap:               3.9
 (Enter /home/ekwan/sw/g16/l502.exe)
 Integral symmetry usage will be decided dynamically.
 Closed shell SCF:
 Using DIIS extrapolation, IDIIS=  1040.
 NGot= 12884901888 LenX= 12884271583 LenY= 12883976191
 Requested convergence on RMS density matrix=1.00D-08 within 128 cycles.
 Requested convergence on MAX density matrix=1.00D-06.
 Requested convergence on             energy=1.00D-06.
 No special actions if energy rises.
 Fock matrices will be formed incrementally for  20 cycles.

 Cycle   1  Pass 1  IDiag  1:
 FoFJK:  IHMeth= 1 ICntrl=     500 DoSepK=F KAlg= 0 I1Cent=           0 FoldK=F
 IRaf= 700000000 NMat=       1 IRICut=       1 DoRegI=T DoRafI=F ISym2E= 0 IDoP0=0 IntGTp=1.
 FoFCou: FMM=F IPFlag=           0 FMFlag=      100000 FMFlg1=           0
         NFxFlg=           0 DoJE=T BraDBF=F KetDBF=F FulRan=T
         wScrn=  0.000000 ICntrl=       500 IOpCl=  0 I1Cent=           0 NGrid=           0
         NMat0=    1 NMatS0=      1 NMatT0=    0 NMatD0=    1 NMtDS0=    0 NMtDT0=    0
 Symmetry not used in FoFCou.
 Inv3:  Mode=1 IEnd=    45934707.
 Iteration    1 A*A^-1 deviation from unit magnitude is 4.22D-15 for   3905.
 Iteration    1 A*A^-1 deviation from orthogonality  is 3.77D-15 for   3909   2700.
 Iteration    1 A^-1*A deviation from unit magnitude is 5.55D-15 for   3905.
 Iteration    1 A^-1*A deviation from orthogonality  is 4.74D-15 for   3898   2702.
 E= -2297.80929791037    
 DIIS: error= 1.95D-02 at cycle   1 NSaved=   1.
 NSaved= 1 IEnMin= 1 EnMin= -2297.80929791037     IErMin= 1 ErrMin= 1.95D-02
 ErrMax= 1.95D-02  0.00D+00 EMaxC= 1.00D-01 BMatC= 7.73D-01 BMatP= 7.73D-01
 IDIUse=3 WtCom= 8.05D-01 WtEn= 1.95D-01
 Coeff-Com:  0.100D+01
 Coeff-En:   0.100D+01
 Coeff:      0.100D+01
 Gap=     0.094 Goal=   None    Shift=    0.000
 GapD=    0.094 DampG=0.500 DampE=0.500 DampFc=0.2500 IDamp=-1.
 Damping current iteration by 2.50D-01
 RMSDP=4.36D-03 MaxDP=6.30D-01              OVMax= 2.30D-01

 Cycle   2  Pass 1  IDiag  1:
 RMSU=  1.09D-03    CP:  1.00D+00
 E= -2298.01739123139     Delta-E=       -0.208093321026 Rises=F Damp=T
 DIIS: error= 1.56D-02 at cycle   2 NSaved=   2.
 NSaved= 2 IEnMin= 2 EnMin= -2298.01739123139     IErMin= 2 ErrMin= 1.56D-02
 ErrMax= 1.56D-02  0.00D+00 EMaxC= 1.00D-01 BMatC= 1.45D-01 BMatP= 7.73D-01
 IDIUse=3 WtCom= 8.44D-01 WtEn= 1.56D-01
 Coeff-Com: -0.404D+00 0.140D+01
 Coeff-En:   0.000D+00 0.100D+01
 Coeff:     -0.341D+00 0.134D+01
 Gap=     0.128 Goal=   None    Shift=    0.000
 RMSDP=1.14D-03 MaxDP=5.43D-02 DE=-2.08D-01 OVMax= 2.00D-01

 Cycle   3  Pass 1  IDiag  1:
 RMSU=  1.13D-03    CP:  9.98D-01  1.13D+00
 E= -2298.31075145003     Delta-E=       -0.293360218634 Rises=F Damp=F
 DIIS: error= 1.25D-02 at cycle   3 NSaved=   3.
 NSaved= 3 IEnMin= 3 EnMin= -2298.31075145003     IErMin= 3 ErrMin= 1.25D-02
 ErrMax= 1.25D-02  0.00D+00 EMaxC= 1.00D-01 BMatC= 1.24D-01 BMatP= 1.45D-01
 IDIUse=3 WtCom= 8.75D-01 WtEn= 1.25D-01
 Coeff-Com: -0.306D+00 0.843D+00 0.463D+00
 Coeff-En:   0.000D+00 0.000D+00 0.100D+01
 Coeff:     -0.268D+00 0.737D+00 0.530D+00
 Gap=     0.108 Goal=   None    Shift=    0.000
 RMSDP=1.10D-03 MaxDP=7.72D-02 DE=-2.93D-01 OVMax= 9.71D-02

 Cycle   4  Pass 1  IDiag  1:
 RMSU=  5.71D-04    CP:  1.00D+00  1.38D+00  2.10D-01
 E= -2298.37215544428     Delta-E=       -0.061403994253 Rises=F Damp=F
 DIIS: error= 6.71D-03 at cycle   4 NSaved=   4.
 NSaved= 4 IEnMin= 4 EnMin= -2298.37215544428     IErMin= 4 ErrMin= 6.71D-03
 ErrMax= 6.71D-03  0.00D+00 EMaxC= 1.00D-01 BMatC= 5.84D-02 BMatP= 1.24D-01
 IDIUse=3 WtCom= 9.33D-01 WtEn= 6.71D-02
 Coeff-Com: -0.926D-01 0.209D+00 0.397D+00 0.487D+00
 Coeff-En:   0.000D+00 0.000D+00 0.351D+00 0.649D+00
 Coeff:     -0.864D-01 0.195D+00 0.394D+00 0.497D+00
 Gap=     0.109 Goal=   None    Shift=    0.000
 RMSDP=4.87D-04 MaxDP=3.67D-02 DE=-6.14D-02 OVMax= 5.12D-02

 Cycle   5  Pass 1  IDiag  1:
 RMSU=  1.89D-04    CP:  1.00D+00  1.28D+00  4.88D-01  4.72D-01
 E= -2298.41754843792     Delta-E=       -0.045392993641 Rises=F Damp=F
 DIIS: error= 2.37D-03 at cycle   5 NSaved=   5.
 NSaved= 5 IEnMin= 5 EnMin= -2298.41754843792     IErMin= 5 ErrMin= 2.37D-03
 ErrMax= 2.37D-03  0.00D+00 EMaxC= 1.00D-01 BMatC= 4.09D-03 BMatP= 5.84D-02
 IDIUse=3 WtCom= 9.76D-01 WtEn= 2.37D-02
 Coeff-Com: -0.302D-01 0.586D-01 0.204D+00 0.315D+00 0.452D+00
 Coeff-En:   0.000D+00 0.000D+00 0.000D+00 0.199D-01 0.980D+00
 Coeff:     -0.294D-01 0.572D-01 0.199D+00 0.308D+00 0.465D+00
 Gap=     0.108 Goal=   None    Shift=    0.000
 RMSDP=1.37D-04 MaxDP=9.97D-03 DE=-4.54D-02 OVMax= 1.81D-02

 Cycle   6  Pass 1  IDiag  1:
 RMSU=  6.68D-05    CP:  1.00D+00  1.30D+00  4.93D-01  5.50D-01  4.28D-01
 E= -2298.42101300228     Delta-E=       -0.003464564356 Rises=F Damp=F
 DIIS: error= 6.62D-04 at cycle   6 NSaved=   6.
 NSaved= 6 IEnMin= 6 EnMin= -2298.42101300228     IErMin= 6 ErrMin= 6.62D-04
 ErrMax= 6.62D-04  0.00D+00 EMaxC= 1.00D-01 BMatC= 2.66D-04 BMatP= 4.09D-03
 IDIUse=3 WtCom= 9.93D-01 WtEn= 6.62D-03
 Coeff-Com: -0.911D-02 0.153D-01 0.692D-01 0.114D+00 0.259D+00 0.552D+00
 Coeff-En:   0.000D+00 0.000D+00 0.000D+00 0.000D+00 0.207D-01 0.979D+00
 Coeff:     -0.905D-02 0.152D-01 0.688D-01 0.113D+00 0.257D+00 0.555D+00
 Gap=     0.108 Goal=   None    Shift=    0.000
 RMSDP=4.04D-05 MaxDP=2.06D-03 DE=-3.46D-03 OVMax= 4.73D-03

 Cycle   7  Pass 1  IDiag  1:
 RMSU=  1.91D-05    CP:  1.00D+00  1.30D+00  4.95D-01  5.50D-01  5.22D-01
                    CP:  5.41D-01
 E= -2298.42123279382     Delta-E=       -0.000219791545 Rises=F Damp=F
 DIIS: error= 1.28D-04 at cycle   7 NSaved=   7.
 NSaved= 7 IEnMin= 7 EnMin= -2298.42123279382     IErMin= 7 ErrMin= 1.28D-04
 ErrMax= 1.28D-04  0.00D+00 EMaxC= 1.00D-01 BMatC= 2.97D-05 BMatP= 2.66D-04
 IDIUse=3 WtCom= 9.99D-01 WtEn= 1.28D-03
 Coeff-Com: -0.339D-02 0.481D-02 0.248D-01 0.419D-01 0.119D+00 0.337D+00
 Coeff-Com:  0.476D+00
 Coeff-En:   0.000D+00 0.000D+00 0.000D+00 0.000D+00 0.000D+00 0.348D-01
 Coeff-En:   0.965D+00
 Coeff:     -0.339D-02 0.480D-02 0.247D-01 0.419D-01 0.119D+00 0.336D+00
 Coeff:      0.477D+00
 Gap=     0.108 Goal=   None    Shift=    0.000
 RMSDP=1.24D-05 MaxDP=7.80D-04 DE=-2.20D-04 OVMax= 1.25D-03

 Cycle   8  Pass 1  IDiag  1:
 RMSU=  6.84D-06    CP:  1.00D+00  1.30D+00  4.94D-01  5.50D-01  5.17D-01
                    CP:  6.05D-01  5.13D-01
 E= -2298.42125514445     Delta-E=       -0.000022350629 Rises=F Damp=F
 DIIS: error= 6.13D-05 at cycle   8 NSaved=   8.
 NSaved= 8 IEnMin= 8 EnMin= -2298.42125514445     IErMin= 8 ErrMin= 6.13D-05
 ErrMax= 6.13D-05  0.00D+00 EMaxC= 1.00D-01 BMatC= 4.52D-06 BMatP= 2.97D-05
 IDIUse=1 WtCom= 1.00D+00 WtEn= 0.00D+00
 Coeff-Com: -0.108D-02 0.121D-02 0.625D-02 0.109D-01 0.424D-01 0.147D+00
 Coeff-Com:  0.312D+00 0.482D+00
 Coeff:     -0.108D-02 0.121D-02 0.625D-02 0.109D-01 0.424D-01 0.147D+00
 Coeff:      0.312D+00 0.482D+00
 Gap=     0.108 Goal=   None    Shift=    0.000
 RMSDP=5.32D-06 MaxDP=4.15D-04 DE=-2.24D-05 OVMax= 6.20D-04

 Cycle   9  Pass 1  IDiag  1:
 RMSU=  2.92D-06    CP:  1.00D+00  1.30D+00  4.94D-01  5.49D-01  5.18D-01
                    CP:  6.15D-01  5.84D-01  4.00D-01
 E= -2298.42125800474     Delta-E=       -0.000002860289 Rises=F Damp=F
 DIIS: error= 3.29D-05 at cycle   9 NSaved=   9.
 NSaved= 9 IEnMin= 9 EnMin= -2298.42125800474     IErMin= 9 ErrMin= 3.29D-05
 ErrMax= 3.29D-05  0.00D+00 EMaxC= 1.00D-01 BMatC= 9.93D-07 BMatP= 4.52D-06
 IDIUse=1 WtCom= 1.00D+00 WtEn= 0.00D+00
 Coeff-Com: -0.355D-03 0.335D-03 0.673D-03 0.121D-02 0.120D-01 0.529D-01
 Coeff-Com:  0.148D+00 0.349D+00 0.436D+00
 Coeff:     -0.355D-03 0.335D-03 0.673D-03 0.121D-02 0.120D-01 0.529D-01
 Coeff:      0.148D+00 0.349D+00 0.436D+00
 Gap=     0.108 Goal=   None    Shift=    0.000
 RMSDP=2.12D-06 MaxDP=1.74D-04 DE=-2.86D-06 OVMax= 2.54D-04

 Cycle  10  Pass 1  IDiag  1:
 RMSU=  8.26D-07    CP:  1.00D+00  1.30D+00  4.94D-01  5.49D-01  5.20D-01
                    CP:  6.14D-01  5.82D-01  5.27D-01  4.12D-01
 E= -2298.42125877770     Delta-E=       -0.000000772956 Rises=F Damp=F
 DIIS: error= 7.11D-06 at cycle  10 NSaved=  10.
 NSaved=10 IEnMin=10 EnMin= -2298.42125877770     IErMin=10 ErrMin= 7.11D-06
 ErrMax= 7.11D-06  0.00D+00 EMaxC= 1.00D-01 BMatC= 8.03D-08 BMatP= 9.93D-07
 IDIUse=1 WtCom= 1.00D+00 WtEn= 0.00D+00
 Coeff-Com: -0.174D-03 0.187D-03-0.494D-04-0.993D-04 0.406D-02 0.214D-01
 Coeff-Com:  0.662D-01 0.182D+00 0.286D+00 0.441D+00
 Coeff:     -0.174D-03 0.187D-03-0.494D-04-0.993D-04 0.406D-02 0.214D-01
 Coeff:      0.662D-01 0.182D+00 0.286D+00 0.441D+00
 Gap=     0.108 Goal=   None    Shift=    0.000
 RMSDP=5.80D-07 MaxDP=4.74D-05 DE=-7.73D-07 OVMax= 4.72D-05

 Cycle  11  Pass 1  IDiag  1:
 RMSU=  2.51D-07    CP:  1.00D+00  1.30D+00  4.94D-01  5.49D-01  5.19D-01
                    CP:  6.13D-01  5.86D-01  5.31D-01  4.62D-01  4.10D-01
 E= -2298.42125884017     Delta-E=       -0.000000062470 Rises=F Damp=F
 DIIS: error= 1.16D-06 at cycle  11 NSaved=  11.
 NSaved=11 IEnMin=11 EnMin= -2298.42125884017     IErMin=11 ErrMin= 1.16D-06
 ErrMax= 1.16D-06  0.00D+00 EMaxC= 1.00D-01 BMatC= 3.43D-09 BMatP= 8.03D-08
 IDIUse=1 WtCom= 1.00D+00 WtEn= 0.00D+00
 Coeff-Com: -0.747D-04 0.852D-04-0.779D-04-0.128D-03 0.124D-02 0.744D-02
 Coeff-Com:  0.229D-01 0.687D-01 0.119D+00 0.244D+00 0.537D+00
 Coeff:     -0.747D-04 0.852D-04-0.779D-04-0.128D-03 0.124D-02 0.744D-02
 Coeff:      0.229D-01 0.687D-01 0.119D+00 0.244D+00 0.537D+00
 Gap=     0.108 Goal=   None    Shift=    0.000
 RMSDP=1.28D-07 MaxDP=7.15D-06 DE=-6.25D-08 OVMax= 1.04D-05

 Cycle  12  Pass 1  IDiag  1:
 RMSU=  6.81D-08    CP:  1.00D+00  1.30D+00  4.94D-01  5.49D-01  5.19D-01
                    CP:  6.13D-01  5.86D-01  5.32D-01  4.67D-01  4.63D-01
                    CP:  6.29D-01
 E= -2298.42125884300     Delta-E=       -0.000000002834 Rises=F Damp=F
 DIIS: error= 4.99D-07 at cycle  12 NSaved=  12.
 NSaved=12 IEnMin=12 EnMin= -2298.42125884300     IErMin=12 ErrMin= 4.99D-07
 ErrMax= 4.99D-07  0.00D+00 EMaxC= 1.00D-01 BMatC= 3.58D-10 BMatP= 3.43D-09
 IDIUse=1 WtCom= 1.00D+00 WtEn= 0.00D+00
 Coeff-Com: -0.353D-04 0.416D-04-0.474D-04-0.680D-04 0.424D-03 0.279D-02
 Coeff-Com:  0.826D-02 0.265D-01 0.491D-01 0.114D+00 0.317D+00 0.482D+00
 Coeff:     -0.353D-04 0.416D-04-0.474D-04-0.680D-04 0.424D-03 0.279D-02
 Coeff:      0.826D-02 0.265D-01 0.491D-01 0.114D+00 0.317D+00 0.482D+00
 Gap=     0.108 Goal=   None    Shift=    0.000
 RMSDP=4.27D-08 MaxDP=4.47D-06 DE=-2.83D-09 OVMax= 5.97D-06

 Cycle  13  Pass 1  IDiag  1:
 RMSU=  2.35D-08    CP:  1.00D+00  1.30D+00  4.94D-01  5.49D-01  5.19D-01
                    CP:  6.13D-01  5.86D-01  5.32D-01  4.69D-01  4.69D-01
                    CP:  6.49D-01  5.73D-01
 E= -2298.42125884330     Delta-E=       -0.000000000299 Rises=F Damp=F
 DIIS: error= 2.29D-07 at cycle  13 NSaved=  13.
 NSaved=13 IEnMin=13 EnMin= -2298.42125884330     IErMin=13 ErrMin= 2.29D-07
 ErrMax= 2.29D-07  0.00D+00 EMaxC= 1.00D-01 BMatC= 4.79D-11 BMatP= 3.58D-10
 IDIUse=1 WtCom= 1.00D+00 WtEn= 0.00D+00
 Coeff-Com: -0.130D-04 0.159D-04-0.192D-04-0.215D-04 0.859D-04 0.651D-03
 Coeff-Com:  0.168D-02 0.632D-02 0.133D-01 0.366D-01 0.119D+00 0.294D+00
 Coeff-Com:  0.528D+00
 Coeff:     -0.130D-04 0.159D-04-0.192D-04-0.215D-04 0.859D-04 0.651D-03
 Coeff:      0.168D-02 0.632D-02 0.133D-01 0.366D-01 0.119D+00 0.294D+00
 Coeff:      0.528D+00
 Gap=     0.108 Goal=   None    Shift=    0.000
 RMSDP=1.58D-08 MaxDP=1.04D-06 DE=-2.99D-10 OVMax= 2.10D-06

 Cycle  14  Pass 1  IDiag  1:
 RMSU=  8.84D-09    CP:  1.00D+00  1.30D+00  4.94D-01  5.49D-01  5.19D-01
                    CP:  6.13D-01  5.85D-01  5.32D-01  4.69D-01  4.71D-01
                    CP:  6.46D-01  6.14D-01  4.93D-01
 E= -2298.42125884333     Delta-E=       -0.000000000025 Rises=F Damp=F
 DIIS: error= 1.24D-07 at cycle  14 NSaved=  14.
 NSaved=14 IEnMin=14 EnMin= -2298.42125884333     IErMin=14 ErrMin= 1.24D-07
 ErrMax= 1.24D-07  0.00D+00 EMaxC= 1.00D-01 BMatC= 6.63D-12 BMatP= 4.79D-11
 IDIUse=1 WtCom= 1.00D+00 WtEn= 0.00D+00
 Coeff-Com: -0.504D-05 0.638D-05-0.708D-05-0.557D-05 0.141D-04 0.130D-03
 Coeff-Com:  0.220D-03 0.121D-02 0.329D-02 0.110D-01 0.397D-01 0.123D+00
 Coeff-Com:  0.330D+00 0.491D+00
 Coeff:     -0.504D-05 0.638D-05-0.708D-05-0.557D-05 0.141D-04 0.130D-03
 Coeff:      0.220D-03 0.121D-02 0.329D-02 0.110D-01 0.397D-01 0.123D+00
 Coeff:      0.330D+00 0.491D+00
 Gap=     0.108 Goal=   None    Shift=    0.000
 RMSDP=5.79D-09 MaxDP=3.86D-07 DE=-2.55D-11 OVMax= 9.49D-07

 Error on total polarization charges =  0.00886
 SCF Done:  E(RTPSS-TPSS) =  -2298.42125884     A.U. after   14 cycles
            NFock= 14  Conv=0.58D-08     -V/T= 2.0071
 KE= 2.282203841371D+03 PE=-1.405541169893D+04 EE= 5.151597003913D+03
 Leave Link  502 at Mon Jun 10 05:39:35 2019, MaxMem= 12884901888 cpu:           15113.2 elap:             248.3
 (Enter /home/ekwan/sw/g16/l701.exe)
 ... and contract with generalized density number  0.
 Compute integral first derivatives.
 R6Disp: Adding Grimme-D3(BJ) dispersion energy 1st derivatives to the gradient.
 D1PCM: PCM CHGder 1st derivatives, ID1Alg=3 FixD1E=F DoIter=F DoCFld=F I1PDM=0.
 GePol: Maximum number of non-zero 1st derivatives   =     221
 Leave Link  701 at Mon Jun 10 05:39:44 2019, MaxMem= 12884901888 cpu:             525.8 elap:               8.8
 (Enter /home/ekwan/sw/g16/l702.exe)
 L702 exits ... SP integral derivatives will be done elsewhere.
 Leave Link  702 at Mon Jun 10 05:39:44 2019, MaxMem= 12884901888 cpu:               5.7 elap:               0.1
 (Enter /home/ekwan/sw/g16/l703.exe)
 Integral derivatives from FoFJK, PRISM(SPDF).
 Compute integral first derivatives, UseDBF=F ICtDFT=           0.
 Calling FoFJK, ICntrl=      2527 FMM=F ISym2X=0 I1Cent= 0 IOpClX= 0 NMat=1 NMatS=1 NMatT=0.
 FoFJK:  IHMeth= 1 ICntrl=    2527 DoSepK=F KAlg= 0 I1Cent=           0 FoldK=F
 IRaf=         0 NMat=       1 IRICut=       1 DoRegI=T DoRafI=F ISym2E= 0 IDoP0=0 IntGTp=1.
 FoFCou: FMM=F IPFlag=           0 FMFlag=      100000 FMFlg1=         800
         NFxFlg=           0 DoJE=F BraDBF=F KetDBF=F FulRan=T
         wScrn=  0.000000 ICntrl=      2527 IOpCl=  0 I1Cent=           0 NGrid=           0
         NMat0=    1 NMatS0=      1 NMatT0=    0 NMatD0=    1 NMtDS0=    0 NMtDT0=    0
 Symmetry not used in FoFCou.
 Leave Link  703 at Mon Jun 10 05:40:06 2019, MaxMem= 12884901888 cpu:            1325.9 elap:              21.7
 (Enter /home/ekwan/sw/g16/l716.exe)
 Dipole        = 2.89215908D-01 8.93995028D-01-7.71081364D-01
 ***** Axes restored to original set *****
 -------------------------------------------------------------------
 Center     Atomic                   Forces (Hartrees/Bohr)
 Number     Number              X              Y              Z
 -------------------------------------------------------------------
      1        6           0.000000784    0.000000038    0.000000503
      2        6          -0.000000225   -0.000000647   -0.000001326
      3        6          -0.000000106    0.000002543   -0.000002858
      4        6           0.000001248    0.000000708    0.000000267
      5        6          -0.000000127   -0.000000843    0.000000371
      6        1          -0.000000710    0.000000027   -0.000000716
      7        1          -0.000000478   -0.000000623   -0.000000520
      8        1           0.000000110   -0.000000880   -0.000000191
      9        1           0.000000339   -0.000000827    0.000000342
     10        1           0.000000472   -0.000000037   -0.000000185
     11        8           0.000000157   -0.000002270    0.000000449
     12        8          -0.000002195   -0.000001921    0.000000419
     13        8          -0.000000800   -0.000000091   -0.000001045
     14        8          -0.000000863   -0.000000498   -0.000000972
     15        8           0.000001690   -0.000001088    0.000000412
     16        6          -0.000000406   -0.000000715    0.000000598
     17        1           0.000000519   -0.000000072    0.000000414
     18        1           0.000000673    0.000000693    0.000001285
     19        8           0.000000496    0.000001353    0.000000489
     20       16           0.000000093    0.000001519   -0.000000450
     21        8          -0.000000168   -0.000000474   -0.000000556
     22        8          -0.000000779    0.000000460   -0.000000827
     23        6          -0.000000349    0.000000397   -0.000000434
     24        6           0.000000502    0.000000147   -0.000000314
     25        6          -0.000000649    0.000000604    0.000000619
     26        6           0.000000213    0.000000442    0.000001680
     27        1           0.000000061   -0.000000277   -0.000000038
     28        6           0.000000225    0.000000516    0.000000994
     29        1          -0.000000783    0.000000852    0.000000152
     30        6          -0.000000373    0.000000821    0.000000788
     31        1           0.000000202    0.000001276    0.000001273
     32        6          -0.000000750    0.000000178   -0.000002768
     33        1          -0.000001248   -0.000000128   -0.000001263
     34        1          -0.000001009   -0.000000454   -0.000000849
     35        1          -0.000000668   -0.000000584   -0.000001645
     36        6           0.000000439   -0.000001821   -0.000000357
     37        1           0.000000673   -0.000001162   -0.000001163
     38        1           0.000000472   -0.000001397   -0.000001108
     39        1           0.000000148   -0.000001000   -0.000001208
     40        6           0.000000099   -0.000000402   -0.000000272
     41        1           0.000001267   -0.000001164    0.000000593
     42        1           0.000000959   -0.000001261    0.000000256
     43        1           0.000001106   -0.000000772    0.000000746
     44        6          -0.000000211    0.000000521    0.000000423
     45        1           0.000000073    0.000001048    0.000000786
     46        1          -0.000000262    0.000000943    0.000000782
     47        1          -0.000000346    0.000000749    0.000000295
     48        6           0.000001503   -0.000000461    0.000000453
     49        9           0.000000506   -0.000000147    0.000000689
     50        9          -0.000000263    0.000000260    0.000000852
     51        9           0.000000782    0.000000139    0.000001078
     52        6           0.000000103    0.000000796    0.000000362
     53        9          -0.000000657    0.000000944    0.000000832
     54        9          -0.000000418    0.000001582    0.000000712
     55        9          -0.000001068    0.000002458    0.000001153
 -------------------------------------------------------------------
 Cartesian Forces:  Max     0.000002858 RMS     0.000000899
 Leave Link  716 at Mon Jun 10 05:40:06 2019, MaxMem= 12884901888 cpu:               6.2 elap:               0.1
 (Enter /home/ekwan/sw/g16/l103.exe)

 GradGradGradGradGradGradGradGradGradGradGradGradGradGradGradGradGradGrad
 Berny optimization.
 FormGI is forming the generalized inverse of G from B-inverse, IUseBI=4.
 Internal  Forces:  Max     0.000002452 RMS     0.000000477
 Search for a local minimum.
 Step number   1 out of a maximum of  291
 All quantities printed in internal units (Hartrees-Bohrs-Radians)
 RMS Force = .47725D-06 SwitMx=.10000D-02 MixMth= 2
 Mixed Optimization -- En-DIIS/RFO-DIIS
 Second derivative matrix not updated -- first step.
 ITU=  0
     Eigenvalues ---    0.00358   0.00461   0.00502   0.00580   0.00640
     Eigenvalues ---    0.00658   0.00701   0.01218   0.01218   0.01226
     Eigenvalues ---    0.01234   0.01266   0.01281   0.01285   0.01330
     Eigenvalues ---    0.01408   0.01463   0.01525   0.01548   0.01907
     Eigenvalues ---    0.02079   0.02084   0.02095   0.02101   0.02115
     Eigenvalues ---    0.02120   0.02848   0.03212   0.04375   0.04535
     Eigenvalues ---    0.04627   0.04753   0.04815   0.05147   0.05176
     Eigenvalues ---    0.05686   0.05955   0.06534   0.06964   0.07038
     Eigenvalues ---    0.07176   0.07797   0.09208   0.09982   0.10011
     Eigenvalues ---    0.10048   0.10093   0.10556   0.10572   0.10597
     Eigenvalues ---    0.10601   0.10603   0.10652   0.10745   0.10770
     Eigenvalues ---    0.10867   0.10942   0.11411   0.11779   0.11960
     Eigenvalues ---    0.14089   0.14724   0.16000   0.16000   0.16000
     Eigenvalues ---    0.16000   0.16000   0.16000   0.16000   0.16000
     Eigenvalues ---    0.16000   0.16000   0.16000   0.16000   0.16000
     Eigenvalues ---    0.16000   0.16000   0.16404   0.16649   0.17368
     Eigenvalues ---    0.18556   0.19596   0.19652   0.20612   0.22159
     Eigenvalues ---    0.23476   0.23486   0.23498   0.24952   0.24979
     Eigenvalues ---    0.24985   0.25000   0.25000   0.25000   0.25000
     Eigenvalues ---    0.25000   0.25000   0.25000   0.25000   0.25000
     Eigenvalues ---    0.25000   0.25000   0.25000   0.26665   0.26778
     Eigenvalues ---    0.28149   0.28459   0.28742   0.29346   0.31397
     Eigenvalues ---    0.31536   0.33204   0.33487   0.33520   0.33571
     Eigenvalues ---    0.33580   0.33609   0.33617   0.33625   0.33625
     Eigenvalues ---    0.33760   0.33857   0.33885   0.33990   0.34236
     Eigenvalues ---    0.34240   0.34244   0.34248   0.34391   0.34548
     Eigenvalues ---    0.35159   0.35240   0.35249   0.35376   0.35822
     Eigenvalues ---    0.40168   0.40168   0.40250   0.40332   0.40675
     Eigenvalues ---    0.40843   0.41376   0.41767   0.41870   0.42070
     Eigenvalues ---    0.42241   0.44051   0.45494   0.45695   0.45828
     Eigenvalues ---    0.46004   0.51140   0.52487   0.52952   0.53050
     Eigenvalues ---    0.53201   0.53568   0.85737   0.88244
 RFO step:  Lambda= 0.00000000D+00 EMin= 3.58061158D-03
 Linear search not attempted -- first point.
 Iteration  1 RMS(Cart)=  0.00014907 RMS(Int)=  0.00000000
 Iteration  2 RMS(Cart)=  0.00000001 RMS(Int)=  0.00000000
 ITry= 1 IFail=0 DXMaxC= 7.26D-04 DCOld= 1.00D+10 DXMaxT= 3.00D-01 DXLimC= 3.00D+00 Rises=F
 Variable       Old X    -DE/DX   Delta X   Delta X   Delta X     New X
                                 (Linear)    (Quad)   (Total)
    R1        2.90168   0.00000   0.00000   0.00001   0.00001   2.90169
    R2        2.89618   0.00000   0.00000   0.00000   0.00000   2.89618
    R3        2.08059   0.00000   0.00000   0.00000   0.00000   2.08060
    R4        2.70423   0.00000   0.00000   0.00000   0.00000   2.70423
    R5        2.91565   0.00000   0.00000   0.00000   0.00000   2.91565
    R6        2.08695   0.00000   0.00000   0.00000   0.00000   2.08695
    R7        2.68617   0.00000   0.00000   0.00000   0.00000   2.68617
    R8        2.06416   0.00000   0.00000   0.00000   0.00000   2.06416
    R9        2.64297   0.00000   0.00000   0.00000   0.00000   2.64297
   R10        2.78718   0.00000   0.00000   0.00000   0.00000   2.78718
   R11        2.89880   0.00000   0.00000   0.00000   0.00000   2.89880
   R12        2.07967   0.00000   0.00000   0.00000   0.00000   2.07967
   R13        2.75820   0.00000   0.00000   0.00000   0.00000   2.75820
   R14        2.89286   0.00000   0.00000   0.00000   0.00000   2.89286
   R15        2.07737   0.00000   0.00000   0.00000   0.00000   2.07737
   R16        2.70646   0.00000   0.00000   0.00000   0.00000   2.70646
   R17        3.12534   0.00000   0.00000   0.00000   0.00000   3.12533
   R18        2.71104   0.00000   0.00000   0.00000   0.00000   2.71104
   R19        2.71216   0.00000   0.00000   0.00000   0.00000   2.71216
   R20        2.71326   0.00000   0.00000   0.00000   0.00000   2.71326
   R21        2.06934   0.00000   0.00000   0.00000   0.00000   2.06934
   R22        2.07968   0.00000   0.00000   0.00000   0.00000   2.07968
   R23        2.69725   0.00000   0.00000   0.00000   0.00000   2.69726
   R24        2.71325   0.00000   0.00000   0.00000   0.00000   2.71325
   R25        2.77453   0.00000   0.00000   0.00000   0.00000   2.77453
   R26        2.78662   0.00000   0.00000   0.00000   0.00000   2.78662
   R27        3.38854   0.00000   0.00000   0.00000   0.00000   3.38854
   R28        2.64066   0.00000   0.00000   0.00000   0.00000   2.64066
   R29        2.64087   0.00000   0.00000   0.00000   0.00000   2.64087
   R30        2.64707   0.00000   0.00000   0.00000   0.00000   2.64707
   R31        2.05273   0.00000   0.00000   0.00000   0.00000   2.05273
   R32        2.64292   0.00000   0.00000   0.00000   0.00000   2.64292
   R33        2.05069   0.00000   0.00000   0.00000   0.00000   2.05069
   R34        2.64513   0.00000   0.00000   0.00000   0.00000   2.64513
   R35        2.85261   0.00000   0.00000   0.00000   0.00000   2.85261
   R36        2.64838   0.00000   0.00000   0.00000   0.00000   2.64838
   R37        2.85001   0.00000   0.00000   0.00000   0.00000   2.85001
   R38        2.05287   0.00000   0.00000   0.00000   0.00000   2.05287
   R39        2.07982   0.00000   0.00000   0.00000   0.00000   2.07982
   R40        2.08147   0.00000   0.00000   0.00000   0.00000   2.08147
   R41        2.06676   0.00000   0.00000   0.00000   0.00000   2.06676
   R42        2.06913   0.00000   0.00000   0.00000   0.00000   2.06913
   R43        2.08205   0.00000   0.00000   0.00000   0.00000   2.08205
   R44        2.07346   0.00000   0.00000   0.00000   0.00000   2.07346
   R45        2.06928   0.00000   0.00000   0.00000   0.00000   2.06928
   R46        2.07525   0.00000   0.00000   0.00000   0.00000   2.07525
   R47        2.07995   0.00000   0.00000   0.00000   0.00000   2.07995
   R48        2.06921   0.00000   0.00000   0.00000   0.00000   2.06921
   R49        2.08045   0.00000   0.00000   0.00000   0.00000   2.08045
   R50        2.07572   0.00000   0.00000   0.00000   0.00000   2.07572
   R51        2.56907   0.00000   0.00000   0.00000   0.00000   2.56907
   R52        2.57435   0.00000   0.00000   0.00000   0.00000   2.57435
   R53        2.56998   0.00000   0.00000   0.00000   0.00000   2.56998
   R54        2.58732   0.00000   0.00000   0.00000   0.00000   2.58732
   R55        2.56766   0.00000   0.00000   0.00000   0.00000   2.56766
   R56        2.56427   0.00000   0.00000   0.00000   0.00000   2.56427
    A1        1.92890   0.00000   0.00000   0.00000   0.00000   1.92890
    A2        1.90589   0.00000   0.00000   0.00000   0.00000   1.90589
    A3        1.93197   0.00000   0.00000   0.00001   0.00001   1.93198
    A4        1.90166   0.00000   0.00000   0.00000   0.00000   1.90166
    A5        1.86835   0.00000   0.00000  -0.00001  -0.00001   1.86835
    A6        1.92672   0.00000   0.00000   0.00000   0.00000   1.92673
    A7        1.93785   0.00000   0.00000   0.00000   0.00000   1.93785
    A8        1.89516   0.00000   0.00000   0.00000   0.00000   1.89516
    A9        1.88544   0.00000   0.00000   0.00000   0.00000   1.88544
   A10        1.85464   0.00000   0.00000   0.00000   0.00000   1.85464
   A11        1.96170   0.00000   0.00000   0.00000   0.00000   1.96170
   A12        1.92840   0.00000   0.00000   0.00000   0.00000   1.92840
   A13        1.97050   0.00000   0.00000   0.00000   0.00000   1.97050
   A14        1.97420   0.00000   0.00000   0.00000   0.00000   1.97420
   A15        1.83535   0.00000   0.00000   0.00000   0.00000   1.83535
   A16        1.85167   0.00000   0.00000   0.00000   0.00000   1.85167
   A17        1.88743   0.00000   0.00000   0.00000   0.00000   1.88743
   A18        1.94484   0.00000   0.00000  -0.00001  -0.00001   1.94482
   A19        1.90989   0.00000   0.00000  -0.00001  -0.00001   1.90988
   A20        1.92650   0.00000   0.00000   0.00000   0.00000   1.92650
   A21        1.96002   0.00000   0.00000   0.00001   0.00001   1.96002
   A22        1.89196   0.00000   0.00000  -0.00001  -0.00001   1.89195
   A23        1.89049   0.00000   0.00000   0.00000   0.00000   1.89048
   A24        1.88339   0.00000   0.00000   0.00001   0.00001   1.88339
   A25        1.95159   0.00000   0.00000   0.00000   0.00000   1.95159
   A26        1.90636   0.00000   0.00000   0.00000   0.00000   1.90637
   A27        1.91915   0.00000   0.00000   0.00000   0.00000   1.91914
   A28        1.89569   0.00000   0.00000   0.00000   0.00000   1.89569
   A29        1.86249   0.00000   0.00000   0.00000   0.00000   1.86249
   A30        1.92828   0.00000   0.00000   0.00000   0.00000   1.92829
   A31        1.99348   0.00000   0.00000  -0.00001  -0.00001   1.99347
   A32        2.03630   0.00000   0.00000   0.00000   0.00000   2.03630
   A33        1.98475   0.00000   0.00000   0.00000   0.00000   1.98474
   A34        1.98563   0.00000   0.00000   0.00000   0.00000   1.98563
   A35        1.97171   0.00000   0.00000   0.00000   0.00000   1.97171
   A36        1.87325   0.00000   0.00000  -0.00001  -0.00001   1.87324
   A37        1.90903   0.00000   0.00000   0.00000   0.00000   1.90903
   A38        1.99955   0.00000   0.00000   0.00001   0.00001   1.99956
   A39        1.90487   0.00000   0.00000   0.00000   0.00000   1.90486
   A40        1.84423   0.00000   0.00000  -0.00001  -0.00001   1.84423
   A41        1.92932   0.00000   0.00000   0.00000   0.00000   1.92933
   A42        1.98421   0.00000   0.00000   0.00000   0.00000   1.98422
   A43        1.81594   0.00000   0.00000   0.00000   0.00000   1.81593
   A44        1.90167   0.00000   0.00000   0.00000   0.00000   1.90167
   A45        1.79376   0.00000   0.00000  -0.00001  -0.00001   1.79375
   A46        2.13220   0.00000   0.00000   0.00000   0.00000   2.13220
   A47        1.89858   0.00000   0.00000   0.00001   0.00001   1.89858
   A48        1.89184   0.00000   0.00000   0.00000   0.00000   1.89184
   A49        2.07394   0.00000   0.00000   0.00000   0.00000   2.07394
   A50        2.07381   0.00000   0.00000   0.00000   0.00000   2.07381
   A51        2.13490   0.00000   0.00000   0.00000   0.00000   2.13490
   A52        2.06510   0.00000   0.00000   0.00000   0.00000   2.06510
   A53        2.10549   0.00000   0.00000   0.00000   0.00000   2.10549
   A54        2.11259   0.00000   0.00000   0.00000   0.00000   2.11260
   A55        2.06435   0.00000   0.00000   0.00000   0.00000   2.06435
   A56        2.10344   0.00000   0.00000   0.00000   0.00000   2.10344
   A57        2.11540   0.00000   0.00000   0.00000   0.00000   2.11540
   A58        2.10581   0.00000   0.00000   0.00000   0.00000   2.10581
   A59        2.08701   0.00000   0.00000   0.00000   0.00000   2.08701
   A60        2.08965   0.00000   0.00000   0.00000   0.00000   2.08965
   A61        2.10762   0.00000   0.00000   0.00000   0.00000   2.10762
   A62        2.09206   0.00000   0.00000   0.00000   0.00000   2.09206
   A63        2.08188   0.00000   0.00000   0.00000   0.00000   2.08188
   A64        2.08860   0.00000   0.00000   0.00000   0.00000   2.08860
   A65        2.09674   0.00000   0.00000   0.00000   0.00000   2.09674
   A66        2.09783   0.00000   0.00000   0.00000   0.00000   2.09783
   A67        1.94957   0.00000   0.00000   0.00000   0.00000   1.94957
   A68        1.93732   0.00000   0.00000   0.00000   0.00000   1.93732
   A69        1.85109   0.00000   0.00000   0.00000   0.00000   1.85108
   A70        1.90861   0.00000   0.00000   0.00000   0.00000   1.90861
   A71        1.90299   0.00000   0.00000   0.00000   0.00000   1.90299
   A72        1.91313   0.00000   0.00000   0.00000   0.00000   1.91313
   A73        1.84921   0.00000   0.00000   0.00000   0.00000   1.84921
   A74        1.93295   0.00000   0.00000   0.00000   0.00000   1.93294
   A75        1.94242   0.00000   0.00000   0.00000   0.00000   1.94242
   A76        1.90793   0.00000   0.00000   0.00000   0.00000   1.90793
   A77        1.92021   0.00000   0.00000   0.00000   0.00000   1.92021
   A78        1.91022   0.00000   0.00000   0.00000   0.00000   1.91022
   A79        1.85137   0.00000   0.00000   0.00000   0.00000   1.85137
   A80        1.93454   0.00000   0.00000   0.00000   0.00000   1.93453
[...]
 .00550414,0.00014542,0.00009148,0.00181290,-0.00143816,-0.00048108,0.0
 0156459,-0.00073500,0.00086799,0.00135828,0.01861806,-0.01894248,0.540
 40266,0.00006833,-0.00012293,0.00001495,0.00006706,-0.00003637,-0.0000
 4065,0.00013285,-0.00046112,0.00019114,-0.00011946,-0.00055133,-0.0001
 3409,0.00004973,0.00023660,0.00008791,-0.00001602,0.00002669,-0.000009
 13,0.00001004,0.00000883,-0.00000151,-0.00000944,0.00001100,-0.0000115
 5,-0.00000774,0.00004312,-0.00003169,0.00004765,-0.00001389,0.00000559
 ,-0.00021580,0.00037666,-0.00000526,0.00022608,0.00030173,-0.00012686,
 -0.00008589,0.00010135,0.00001312,-0.00016213,0.00005366,-0.00007238,-
 0.00011910,-0.00004868,-0.00007385,0.00148172,0.00097940,0.00021370,-0
 .00019679,-0.00004250,-0.00016115,-0.00102949,-0.00043019,-0.00037663,
 -0.00069162,-0.00055364,-0.00045276,-0.00029345,-0.00021135,0.00011924
 ,0.00007928,-0.00000628,-0.00000856,0.00006007,0.00005324,-0.00000873,
 0.00045714,-0.00060521,0.00030608,0.00016061,-0.00013082,-0.00039267,-
 0.00034222,-0.00049508,0.00099688,-0.00045855,-0.00008646,-0.00021126,
 0.00002690,0.00000374,0.00001642,0.00968203,0.00002076,-0.00210037,-0.
 00004751,0.00005865,-0.00003356,-0.00000768,0.00102596,0.00007007,-0.0
 0001789,0.00002783,-0.00032524,0.00000770,-0.00003278,-0.00004590,0.00
 000455,0.00000070,0.00001102,0.00000306,0.00000179,0.00000864,-0.00000
 866,0.00001019,0.00000330,0.00003468,-0.00004646,0.00007133,-0.0000163
 1,0.00000345,-0.00001028,0.00000078,0.00000598,-0.00001392,-0.00000683
 ,0.00001501,-0.00000651,0.00007461,0.00008942,0.00003118,-0.00000600,-
 0.00001613,-0.00002031,-0.00002609,-0.00001284,-0.00000004,0.00000840,
 0.00001592,0.00000639,0.00134510,0.00037296,0.00098197,-0.00031436,-0.
 00014913,-0.00002784,-0.00198768,-0.00009662,-0.00015739,-0.00033642,-
 0.00006402,-0.00002473,-0.00024551,-0.00008675,0.00007214,0.00006288,0
 .00001696,-0.00003187,0.00006489,0.00003706,-0.00001821,0.00004358,0.0
 0000141,-0.00000619,-0.08078740,-0.04572913,0.01076599,0.11668146,-0.0
 0002475,-0.00020103,-0.00006005,-0.00013697,0.00000829,-0.00009502,-0.
 00020675,-0.00080223,0.00069628,-0.00021174,-0.00089401,-0.00022332,-0
 .00002326,0.00017173,0.00000056,-0.00004965,0.00005295,-0.00003004,0.0
 0008192,0.00002918,-0.00000012,-0.00001781,0.00001747,-0.00002866,-0.0
 0007099,0.00006490,-0.00010792,0.00009658,0.00000661,0.00000999,0.0001
 6011,0.00080622,-0.00002195,0.00135567,0.00059728,-0.00035277,0.000071
 44,0.00005311,-0.00001198,-0.00001884,0.00010646,-0.00000856,-0.000054
 43,0.00013681,0.00001687,0.00127477,0.00069163,0.00056659,-0.00013034,
 0.00000233,-0.00014125,0.00009180,-0.00080812,0.00061580,-0.00059986,-
 0.00009442,-0.00074120,-0.00287691,0.00152612,0.00042949,0.00069538,-0
 .00077567,0.00028517,0.00072501,-0.00049834,-0.00039109,0.00157386,0.0
 0052568,0.00072730,-0.00005711,-0.00036974,0.00066656,-0.00190982,0.00
 052423,0.00226572,0.00165718,0.00066307,0.00164414,-0.00019117,-0.0001
 5603,-0.00000562,-0.01049394,-0.03203853,0.01521752,-0.00091859,-0.000
 50334,-0.00034653,0.00199602,-0.00253607,-0.00175640,-0.00104741,-0.00
 065539,0.00006297,-0.00006328,-0.00000687,0.00003038,-0.00000080,0.000
 01308,0.00001364,0.00001165,0.00001154,-0.00001438,0.00000693,-0.00000
 007,0.00000229,-0.00000794,-0.00001527,0.00002849,0.00000190,0.0000057
 2,-0.00000279,0.00000310,-0.00000267,-0.00000505,-0.00001205,0.0000073
 7,-0.00000326,0.00003065,-0.00004398,0.00005901,0.00000258,0.00000151,
 -0.00000865,-0.00001510,0.00000174,-0.00000677,0.00001243,0.00003720,-
 0.00001562,0.00161727,0.00077519,0.00126957,-0.00030211,-0.00013659,-0
 .00003799,0.00004811,-0.00025700,-0.00075272,-0.00053341,-0.00010282,-
 0.00003728,0.00121150,-0.00088852,-0.00206952,0.00006530,0.00013250,0.
 00096911,-0.00054594,-0.00009930,0.00059155,-0.00034767,0.00059722,0.0
 0046800,-0.04900294,-0.19827208,0.03407129,0.10283752,0.29063973,0.000
 05956,0.00000388,0.00003238,0.00013652,-0.00004019,0.00002632,0.000225
 84,0.00028638,-0.00042414,0.00000372,-0.00004478,-0.00009305,0.0000481
 8,0.00011362,0.00005000,0.00000231,0.00000681,0.00002109,-0.00005905,-
 0.00001718,0.00000284,0.00000700,-0.00000286,0.00001586,0.00004163,-0.
 00001045,0.00006965,-0.00003417,-0.00002103,0.00000089,-0.00023089,-0.
 00022227,0.00012764,-0.00090552,-0.00019702,0.00025422,-0.00010627,0.0
 0004753,0.00004931,-0.00011673,-0.00001338,-0.00003867,-0.00006258,-0.
 00009504,-0.00003329,0.00038848,0.00068802,-0.00023394,-0.00004476,-0.
 00004132,0.00000349,-0.00090696,-0.00001746,-0.00078611,-0.00014002,-0
 .00027653,0.00060173,0.00181161,-0.00144033,-0.00062100,-0.00044047,0.
 00059628,-0.00015407,-0.00043535,0.00039976,0.00041894,-0.00158604,-0.
 00019847,-0.00113844,-0.00062183,0.00077872,-0.00011356,0.00245589,-0.
 00002377,-0.00229603,-0.00064013,-0.00075083,0.00026966,0.00009832,0.0
 0009002,0.00004182,0.00537552,0.03026604,-0.00146119,0.00020085,0.0006
 3656,0.00002773,-0.00091904,0.00023905,0.00083011,0.00039151,0.0002590
 2,0.00004444,0.00004680,-0.00002894,-0.00007819,0.00000950,-0.00000324
 ,-0.00000331,-0.00001116,-0.00000970,0.00001826,-0.00000891,0.00000700
 ,0.00000465,0.00002909,-0.00002639,0.00002960,-0.00001377,-0.00000084,
 -0.00000684,-0.00000265,0.00000559,-0.00000378,0.00000078,0.00000833,-
 0.00000373,0.00004161,0.00008900,-0.00001365,-0.00000265,-0.00001115,-
 0.00000415,-0.00001440,-0.00000863,0.00000356,-0.00000061,-0.00001351,
 0.00000800,-0.00040091,-0.00020918,-0.00054216,0.00008132,0.00003125,0
 .00005481,0.00025045,-0.00003650,0.00016338,0.00010052,0.00004382,0.00
 002816,-0.00066084,0.00029941,0.00140570,-0.00002212,-0.00004509,-0.00
 051771,0.00037340,0.00012570,-0.00040443,0.00020686,-0.00026771,-0.000
 32393,0.01184799,0.03525836,-0.07419720,-0.01405710,-0.02581007,0.0677
 6462,0.00013441,-0.00000449,0.00008785,0.00024106,-0.00009103,0.000044
 90,0.00035815,0.00002499,-0.00033580,0.00003556,0.00003721,0.00007116,
 0.00010200,0.00018174,0.00015672,0.00002319,-0.00000803,0.00001157,-0.
 00006070,-0.00001291,-0.00000759,-0.00000028,0.00000398,0.00000320,0.0
 0003620,0.00001634,0.00003308,0.,-0.00002342,-0.00000340,-0.00043997,-
 0.00010204,-0.00004223,-0.00089385,-0.00008997,0.00011599,-0.00020463,
 0.00013067,0.00002608,-0.00024444,-0.00000534,-0.00011942,-0.00013774,
 -0.00018008,-0.00014271,0.00069440,0.00046436,0.00016861,-0.00008996,-
 0.00005316,-0.00009266,-0.00003764,-0.00008812,0.00012792,-0.00038949,
 -0.00033823,-0.00015502,0.00220686,-0.00156469,-0.00054174,-0.00069003
 ,0.00102792,-0.00045650,-0.00054125,0.00056457,0.00040170,-0.00073856,
 0.00183275,0.00064111,-0.00017496,-0.00008364,-0.00041940,-0.00046500,
 -0.00029428,-0.00646693,0.00029330,0.00068625,-0.00106486,0.00003138,-
 0.00014243,-0.00006592,-0.03499742,0.01087453,-0.00133947,0.00032817,-
 0.00077714,0.00028715,-0.00091534,0.00164195,0.00335451,-0.00015632,-0
 .00125055,-0.00170383,0.00006792,-0.00005324,-0.00009927,0.00000886,-0
 .00001175,0.00000790,-0.00000316,-0.00000495,0.00002607,-0.00002310,0.
 00001797,0.00000225,0.00006929,-0.00006828,0.00009752,-0.00002739,0.00
 000051,-0.00001414,-0.00000117,0.00001209,-0.00002118,-0.00000071,0.00
 001914,-0.00000666,0.00009146,0.00015649,0.00000879,-0.00000886,-0.000
 02659,-0.00002413,-0.00002997,-0.00001915,0.00000560,-0.00000048,-0.00
 000292,0.00001505,0.00069434,0.00028699,0.00042354,-0.00015289,-0.0001
 0875,0.00000859,0.00001287,0.00004719,-0.00028461,-0.00013283,-0.00002
 383,-0.00002232,-0.00125560,0.00051629,0.00155802,0.00005636,-0.000067
 51,-0.00059835,0.00061469,0.00017720,-0.00050485,0.00036582,-0.0004240
 6,-0.00036132,-0.23910496,0.03619158,-0.01234835,-0.05401578,-0.034265
 00,0.00844722,0.35762949,-0.00003776,-0.00005047,-0.00003635,-0.000094
 79,0.00001900,-0.00003466,-0.00013707,-0.00022186,0.00026736,-0.000058
 86,-0.00023897,-0.00006299,-0.00003035,-0.00000203,-0.00003993,-0.0000
 1886,0.00001364,-0.00001117,0.00003596,0.00001178,0.00000070,-0.000004
 99,0.00000376,-0.00000894,-0.00003149,0.00001603,-0.00004124,0.0000284
 9,0.00000774,0.00000375,0.00013803,0.00024150,0.00000260,0.00052706,0.
 00017865,-0.00010419,0.00006697,-0.00001480,-0.00000886,0.00005253,0.0
 0003011,0.00002499,0.00001700,0.00008216,0.00003796,0.00017513,0.00002
 402,0.00009728,-0.00001497,0.00001520,-0.00001673,0.00002603,-0.000185
 12,0.00015701,-0.00008406,0.00005974,-0.00018807,-0.00142215,0.0006179
 8,0.00023871,0.00044233,-0.00044959,0.00020275,0.00032870,-0.00024769,
 -0.00021140,-0.00025348,-0.00131968,0.00037778,0.00043289,-0.00021013,
 0.00009280,0.00014813,0.00093362,0.00228107,-0.00031015,-0.00031830,0.
 00026417,0.00001428,0.00008266,0.00001751,0.02246161,0.00346296,0.0027
 1676,-0.00001888,0.00061602,-0.00020988,0.00045875,-0.00091825,-0.0006
 6168,0.00004650,0.00028249,0.00047174,-0.00003399,0.00000894,0.0000309
 5,-0.00000191,0.00000608,0.00000237,0.00000429,0.00000473,-0.00001008,
 0.00000685,-0.00000404,0.,-0.00001769,0.00001113,-0.00001450,0.0000070
 9,0.00000146,0.00000259,0.00000115,-0.00000361,0.00000334,-0.00000320,
 -0.00000232,0.00000084,-0.00001342,-0.00005156,0.00001466,0.00000302,0
 .00000685,0.00000347,0.00000280,0.00000517,-0.00000324,0.00000342,0.00
 001145,-0.00000850,0.00032527,0.00012237,0.00027161,-0.00004853,-0.000
 01260,-0.00001513,0.00008420,0.00000337,-0.00016911,-0.00010822,-0.000
 02151,-0.00000482,0.00052140,-0.00039561,-0.00090879,0.00000544,0.0000
 5728,0.00033240,-0.00025369,-0.00003590,0.00026383,-0.00017329,0.00026
 332,0.00020985,0.03459500,-0.07175471,0.00325281,-0.04745425,-0.002941
 67,0.00369803,-0.03844188,0.07459545,0.00004627,0.00003013,0.00002862,
 0.00010556,-0.00003112,0.00003552,0.00015784,0.00023227,-0.00034590,0.
 00006964,0.00014080,0.00001519,0.00003473,0.00002484,0.00004167,0.0000
 0770,0.00000103,0.00001626,-0.00004564,-0.00001491,0.00000062,0.000004
 99,-0.00000250,0.00001150,0.00003040,-0.00000779,0.00004778,-0.0000231
 4,-0.00001187,-0.00000138,-0.00015369,-0.00019245,0.00005473,-0.000664
 31,-0.00017418,0.00017600,-0.00007942,0.00003643,0.00003284,-0.0000720
 9,-0.00001831,-0.00002534,-0.00003528,-0.00006844,-0.00002879,-0.00001
 369,0.00007526,-0.00007783,0.00001205,-0.00001314,0.00001717,0.0000123
 6,0.00007800,-0.00006718,-0.00001186,-0.00006953,0.00019670,0.00162310
 ,-0.00085760,-0.00060495,-0.00051553,0.00060177,-0.00020345,-0.0003600
 2,0.00031318,0.00039281,-0.00071599,0.00173765,-0.00001082,-0.00054973
 ,0.00043331,-0.00014901,-0.00044109,-0.00053982,-0.00433629,-0.0003089
 2,0.00007004,0.00077580,-0.00004856,0.00003906,0.00002704,-0.02531995,
 0.00822525,0.00640211,-0.00038995,0.00003413,-0.00000865,-0.00069376,-
 0.00037670,-0.00114531,-0.00098982,0.00052791,-0.00026813,0.00003543,-
 0.00002295,-0.00005717,0.00000738,-0.00000295,-0.00000278,-0.00000803,
 -0.00000710,0.00001344,-0.00000705,0.00000519,0.00000283,0.00002210,-0
 .00001761,0.00001756,-0.00000882,-0.00000122,-0.00000409,-0.00000216,0
 .00000394,-0.00000252,0.00000145,0.00000531,-0.00000187,0.00002418,0.0
 0005264,-0.00001021,-0.00000130,-0.00000667,-0.00000221,-0.00000862,-0
 .00000488,0.00000243,-0.00000102,-0.00000873,0.00000500,-0.00012989,-0
 .00007300,-0.00018526,0.00001785,-0.00000058,0.00001685,0.00002712,0.0
 0001373,0.00004195,0.00002848,0.00001799,0.00000282,-0.00042712,0.0001
 2162,0.00120158,-0.00005269,-0.00002056,-0.00039846,0.00028244,0.00010
 167,-0.00031831,0.00014949,-0.00018420,-0.00027476,-0.00546733,0.00181
 630,-0.07230394,0.01195609,0.00375197,0.01102709,-0.02278474,0.0039099
 7,0.07162855,0.00002824,0.00000896,0.00002442,0.00005163,-0.00002204,0
 .00000761,0.00009978,0.00000109,-0.00003406,0.00001197,0.00005589,0.00
 006235,0.00002171,0.00003150,0.00002934,0.00001612,-0.00001111,-0.0000
 0114,-0.00000896,-0.00000054,-0.00000289,-0.00000018,0.00000034,-0.000
 00093,0.00000619,0.00000325,-0.00000190,0.00000070,-0.00000320,-0.0000
 0144,-0.00008178,-0.00004518,-0.00004015,-0.00016365,-0.00000581,-0.00
 001179,-0.00004398,0.00002527,-0.00000221,-0.00005045,-0.00000529,-0.0
 0002874,-0.00002684,-0.00004405,-0.00003588,0.00007960,0.00005609,0.00
 002914,-0.00001406,-0.00001145,-0.00001776,0.00000619,-0.00000350,0.00
 004373,-0.00004646,-0.00005888,-0.00005198,0.00043908,-0.00040631,0.00
 021514,-0.00007276,0.00014191,-0.00010923,-0.00012822,0.00013923,-0.00
 000096,0.00058043,-0.00056602,-0.00019457,0.00000144,0.00006250,-0.000
 27381,-0.00186793,0.00052655,-0.00063978,0.00028367,-0.00039820,-0.000
 77723,0.00005696,-0.00002168,-0.00007879,0.00986772,-0.00173617,-0.007
 28108,0.00044217,-0.00035216,-0.00147775,-0.00096025,0.00157248,-0.000
 89220,0.00009245,-0.00005237,-0.00042067,0.00001464,-0.00000889,-0.000
 01382,0.00000057,-0.00000438,0.00000268,0.00000131,0.00000019,0.000004
 90,-0.00000599,0.00000402,-0.00000085,0.00001566,-0.00001464,0.0000224
 2,-0.00000570,0.00000004,-0.00000276,0.00000003,0.00000265,-0.00000548
 ,0.00000035,0.00000371,-0.00000101,0.00001749,0.00003325,0.00000106,-0
 .00000215,-0.00000600,-0.00000566,-0.00000525,-0.00000427,0.00000160,-
 0.00000104,-0.00000118,0.00000384,0.00010389,0.00005023,0.00006960,-0.
 00002300,-0.00002247,-0.00000053,-0.00003492,0.00004922,0.00001258,0.0
 0001172,0.00000040,-0.00000343,-0.00044500,0.00014232,0.00033954,0.000
 00545,-0.00002779,-0.00024835,0.00016271,0.00005009,-0.00012183,0.0000
 9825,-0.00010953,-0.00007441,-0.07062110,0.01184510,0.01816881,0.01069
 064,-0.01149214,-0.01023755,-0.02816131,0.02810760,0.04567460,0.079562
 21,0.00001021,-0.00006219,-0.00001564,-0.00000804,-0.00000503,-0.00002
 108,-0.00000964,-0.00022562,0.00008640,-0.00003510,-0.00025927,-0.0000
 9648,0.00001096,0.00006025,0.00001389,-0.00002426,0.00002391,0.0000002
 3,0.00000839,0.00000388,0.00000126,-0.00000380,0.00000448,-0.00000391,
 -0.00001162,0.00001446,-0.00000729,0.00001953,-0.00000382,0.00000321,-
 0.00004931,0.00023109,0.00004488,0.00016367,0.00016085,-0.00000215,-0.
 00001027,0.00004072,0.00001895,-0.00003326,0.00003313,-0.00000726,-0.0
 0003636,0.00002790,0.00000305,0.00046243,0.00026089,0.00013415,-0.0000
 4181,-0.00000532,-0.00003306,0.00007270,-0.00025370,0.00015154,-0.0002
 3569,-0.00004870,-0.00007983,-0.00041422,0.00003389,-0.00038027,0.0000
 5813,-0.00001434,0.00007948,0.00013079,-0.00002168,0.00012954,-0.00060
 992,0.00077365,-0.00006241,-0.00020358,0.00018151,0.00054240,0.0024628
 9,-0.00160836,0.00081694,0.00007163,-0.00069293,0.00057976,-0.00007312
 ,0.00003417,0.00008703,0.00101253,0.00732808,0.00255487,-0.00083019,0.
 00055440,0.00120718,0.00063427,0.00059018,-0.00010444,-0.00002005,0.00
 017134,0.00029950,-0.00001064,-0.00001873,-0.00002343,0.00000552,0.000
 00570,0.00000341,-0.00000067,0.00000041,0.00000110,0.00000047,0.000002
 05,0.00000337,0.00000542,-0.00001203,0.00001316,-0.00000246,0.00000147
 ,-0.00000254,-0.00000024,0.00000031,-0.00000119,-0.00000425,0.00000512
 ,-0.00000196,0.00002054,0.00000276,0.00001540,0.00000127,-0.00000137,-
 0.00000208,-0.00000975,-0.00000095,-0.00000163,0.00000416,0.00000904,-
 0.00000517,0.00043331,0.00012672,0.00019682,-0.00006825,-0.00003286,-0
 .00000106,0.00008288,0.00000329,-0.00016259,-0.00014192,-0.00001318,-0
 .00000504,0.00008106,-0.00034993,-0.00020332,-0.00001110,0.00003713,0.
 00000950,-0.00008054,0.00004453,0.00009517,-0.00006793,0.00013507,0.00
 003196,0.01031276,-0.09839368,-0.07019268,-0.00925364,-0.05510711,-0.0
 4409432,0.02371472,-0.00239625,-0.01967259,-0.02747863,0.14862466,0.00
 009196,-0.00000946,0.00002978,0.00017746,-0.00004673,0.00002246,0.0003
 2005,0.00018013,-0.00051899,0.00008915,-0.00000408,-0.00010659,0.00007
 681,0.00010361,0.00009049,-0.00000972,0.00002798,0.00002712,-0.0000709
 3,-0.00002253,0.00000574,0.00000602,-0.00000088,0.00001909,0.00005433,
 -0.00000593,0.00009196,-0.00002830,-0.00002704,0.00000143,-0.00037666,
 -0.00013035,0.00018437,-0.00101460,-0.00008452,0.00026539,-0.00015189,
 0.00009875,0.00008258,-0.00015945,-0.00000158,-0.00004629,-0.00010077,
 -0.00010084,-0.00004384,0.00046672,0.00040821,-0.00003039,-0.00002388,
 -0.00002799,-0.00000072,0.00000874,-0.00001506,-0.00003160,-0.00027174
 ,-0.00020938,0.00033832,0.00231359,-0.00184386,-0.00074499,-0.00059602
 ,0.00072651,-0.00016878,-0.00054686,0.00057737,0.00068522,0.00005639,0
 .00102162,-0.00014957,-0.00017716,-0.00002240,-0.00056413,0.00258702,-
 0.00161914,-0.00077760,0.00190945,-0.00029604,-0.00246689,-0.00010671,
 -0.00000296,0.00005792,0.00731777,-0.02284186,-0.04265867,-0.00205320,
 0.00086109,-0.00099871,-0.00702206,0.00506095,-0.00311600,-0.00007252,
 -0.00030619,0.00073016,0.00005400,-0.00005713,-0.00012791,0.00001883,0
 .00000123,-0.00000251,-0.00001671,-0.00001349,0.00002575,-0.00001091,0
 .00001060,0.00000921,0.00004301,-0.00004074,0.00003964,-0.00001826,-0.
 00000094,-0.00000963,-0.00000451,0.00000724,-0.00000394,-0.00000152,0.
 00001415,-0.00000553,0.00006405,0.00010426,-0.00000660,-0.00000149,-0.
 00001301,-0.00000563,-0.00002519,-0.00001046,0.00000284,0.00000243,-0.
 00000881,0.00000575,0.00015600,-0.00001904,-0.00017593,-0.00003584,-0.
 00003099,0.00003381,0.00012190,-0.00001949,-0.00010753,-0.00009426,0.0
 0001940,0.00000166,-0.00159857,0.00101100,0.00221008,-0.00020272,-0.00
 014617,-0.00126848,0.00084853,0.00024739,-0.00072602,0.00031899,-0.000
 40186,-0.00051016,0.01235966,-0.06230471,-0.21978379,-0.00694497,-0.03
 137367,0.00009661,0.03389530,-0.01648143,-0.01139785,-0.04162073,0.128
 05925,0.28149788\\-0.00000086,-0.00000004,-0.00000058,0.00000021,0.000
 00065,0.00000136,0.00000023,-0.00000283,0.00000292,-0.00000125,-0.0000
 0053,-0.00000020,0.00000015,0.00000082,-0.00000033,0.00000070,0.000000
 03,0.00000071,0.00000049,0.00000064,0.00000051,-0.00000009,0.00000089,
 0.00000020,-0.00000035,0.00000079,-0.00000036,-0.00000046,0.00000004,0
 .00000016,-0.00000020,0.00000230,-0.00000044,0.00000206,0.00000187,-0.
 00000049,0.00000076,0.00000012,0.00000103,0.00000084,0.00000048,0.0000
 0098,-0.00000170,0.00000109,-0.00000043,0.00000042,0.00000065,-0.00000
 056,-0.00000051,0.00000007,-0.00000043,-0.00000068,-0.00000068,-0.0000
 0130,-0.00000050,-0.00000135,-0.00000047,0.00000005,-0.00000129,0.0000
 0034,0.00000016,0.00000047,0.00000054,0.00000074,-0.00000044,0.0000009
 8,0.00000071,-0.00000075,0.00000022,-0.00000035,-0.00000028,0.00000052
 ,0.00000054,-0.00000051,-0.00000077,-0.00000058,-0.00000011,-0.0000017
 9,-0.00000003,0.00000024,0.00000012,-0.00000043,-0.00000034,-0.0000008
 2,0.00000081,-0.00000087,-0.00000015,0.00000039,-0.00000082,-0.0000010
 3,-0.00000011,-0.00000136,-0.00000125,0.00000073,-0.00000017,0.0000028
 1,0.00000126,0.00000012,0.00000125,0.00000101,0.00000045,0.00000084,0.
 00000067,0.00000058,0.00000164,-0.00000040,0.00000180,0.00000038,-0.00
 000068,0.00000117,0.00000116,-0.00000048,0.00000140,0.00000110,-0.0000
 0016,0.00000101,0.00000120,-0.00000014,0.00000033,0.00000028,-0.000001
 26,0.00000117,-0.00000060,-0.00000095,0.00000128,-0.00000026,-0.000001
 10,0.00000079,-0.00000075,0.00000021,-0.00000051,-0.00000047,-0.000000
 07,-0.00000105,-0.00000078,0.00000026,-0.00000094,-0.00000077,0.000000
 35,-0.00000075,-0.00000029,-0.00000164,0.00000048,-0.00000036,-0.00000
 040,0.00000013,-0.00000060,0.00000026,-0.00000028,-0.00000087,-0.00000
 076,-0.00000014,-0.00000111,-0.00000009,-0.00000073,-0.00000026,0.0000
 0063,-0.00000103,-0.00000082,0.00000049,-0.00000161,-0.00000072,0.0000
 0107,-0.00000248,-0.00000119\\\@


      HUMANKIND PERIODICALLY GOES THROUGH A SPEEDUP OF ITS AFFAIRS, 
      THEREBY EXPERIENCING THE RACE BETWEEN THE RENEWABLE VITALITY
      OF THE LIVING, AND THE BECKONING VITIATION OF DECADENCE.
      IN THIS PERIODIC RACE, ANY PAUSE BECOMES A LUXURY.
      ONLY THEN CAN ONE REFLECT THAT ALL IS PERMITTED;
      ALL IS POSSIBLE.

                              -- THE APOCRYPHA OF MUAD'DIB
                                 CHILDREN OF DUNE, BY FRANK HERBERT
 Job cpu time:       1 days  6 hours 21 minutes 22.3 seconds.
 Elapsed time:       0 days  0 hours 29 minutes 13.9 seconds.
 File lengths (MBytes):  RWF=   2250 Int=      0 D2E=      0 Chk=     39 Scr=      1
 Normal termination of Gaussian 16 at Mon Jun 10 06:09:38 2019.
