 Entering Gaussian System, Link 0=g16
 Input=clay_new-glu_gluC6-bisCF3-sm-bp86_d3bj-631gd-pcm_thf.gjf
 Output=clay_new-glu_gluC6-bisCF3-sm-bp86_d3bj-631gd-pcm_thf.out
 Initial command:
 /home/ekwan/sw/g16/l1.exe "/scratch/users/ekwan/clay_new-glu_gluC6-bisCF3-sm-bp86_d3bj-631gd-pcm_thf/Gau-34988.inp" -scrdir="/scratch/users/ekwan/clay_new-glu_gluC6-bisCF3-sm-bp86_d3bj-631gd-pcm_thf/"
 Entering Link 1 = /home/ekwan/sw/g16/l1.exe PID=     34989.
  
 Copyright (c) 1988,1990,1992,1993,1995,1998,2003,2009,2016,
            Gaussian, Inc.  All Rights Reserved.
  
 This is part of the Gaussian(R) 16 program.  It is based on
 the Gaussian(R) 09 system (copyright 2009, Gaussian, Inc.),
 the Gaussian(R) 03 system (copyright 2003, Gaussian, Inc.),
 the Gaussian(R) 98 system (copyright 1998, Gaussian, Inc.),
 the Gaussian(R) 94 system (copyright 1995, Gaussian, Inc.),
 the Gaussian 92(TM) system (copyright 1992, Gaussian, Inc.),
 the Gaussian 90(TM) system (copyright 1990, Gaussian, Inc.),
 the Gaussian 88(TM) system (copyright 1988, Gaussian, Inc.),
 the Gaussian 86(TM) system (copyright 1986, Carnegie Mellon
 University), and the Gaussian 82(TM) system (copyright 1983,
 Carnegie Mellon University). Gaussian is a federally registered
 trademark of Gaussian, Inc.
  
 This software contains proprietary and confidential information,
 including trade secrets, belonging to Gaussian, Inc.
  
 This software is provided under written license and may be
 used, copied, transmitted, or stored only in accord with that
 written license.
  
 The following legend is applicable only to US Government
 contracts under FAR:
  
                    RESTRICTED RIGHTS LEGEND
  
 Use, reproduction and disclosure by the US Government is
 subject to restrictions as set forth in subparagraphs (a)
 and (c) of the Commercial Computer Software - Restricted
 Rights clause in FAR 52.227-19.
  
 Gaussian, Inc.
 340 Quinnipiac St., Bldg. 40, Wallingford CT 06492
  
  
 ---------------------------------------------------------------
 Warning -- This program may not be used in any manner that
 competes with the business of Gaussian, Inc. or will provide
 assistance to any competitor of Gaussian, Inc.  The licensee
 of this program is prohibited from giving any competitor of
 Gaussian, Inc. access to this program.  By using this program,
 the user acknowledges that Gaussian, Inc. is engaged in the
 business of creating and licensing software in the field of
 computational chemistry and represents and warrants to the
 licensee that it is not a competitor of Gaussian, Inc. and that
 it will not use this program in any manner prohibited above.
 ---------------------------------------------------------------
  

 Cite this work as:
 Gaussian 16, Revision A.03,
 M. J. Frisch, G. W. Trucks, H. B. Schlegel, G. E. Scuseria, 
 M. A. Robb, J. R. Cheeseman, G. Scalmani, V. Barone, 
 G. A. Petersson, H. Nakatsuji, X. Li, M. Caricato, A. V. Marenich, 
 J. Bloino, B. G. Janesko, R. Gomperts, B. Mennucci, H. P. Hratchian, 
 J. V. Ortiz, A. F. Izmaylov, J. L. Sonnenberg, D. Williams-Young, 
 F. Ding, F. Lipparini, F. Egidi, J. Goings, B. Peng, A. Petrone, 
 T. Henderson, D. Ranasinghe, V. G. Zakrzewski, J. Gao, N. Rega, 
 G. Zheng, W. Liang, M. Hada, M. Ehara, K. Toyota, R. Fukuda, 
 J. Hasegawa, M. Ishida, T. Nakajima, Y. Honda, O. Kitao, H. Nakai, 
 T. Vreven, K. Throssell, J. A. Montgomery, Jr., J. E. Peralta, 
 F. Ogliaro, M. J. Bearpark, J. J. Heyd, E. N. Brothers, K. N. Kudin, 
 V. N. Staroverov, T. A. Keith, R. Kobayashi, J. Normand, 
 K. Raghavachari, A. P. Rendell, J. C. Burant, S. S. Iyengar, 
 J. Tomasi, M. Cossi, J. M. Millam, M. Klene, C. Adamo, R. Cammi, 
 J. W. Ochterski, R. L. Martin, K. Morokuma, O. Farkas, 
 J. B. Foresman, and D. J. Fox, Gaussian, Inc., Wallingford CT, 2016.
 
 ******************************************
 Gaussian 16:  AS64L-G16RevA.03 25-Dec-2016
                 5-Jun-2019 
 ******************************************
 %nprocshared=32
 Will use up to   32 processors via shared memory.
 %mem=48GB
 ----------------------------------------------------------------------
 #p opt freq=noraman pop=none 6-31g* scrf=(pcm,solvent=tetrahydrofuran)
  bp86 empiricaldispersion=gd3bj
 ----------------------------------------------------------------------
 1/18=20,19=15,26=3,38=1/1,3;
 2/9=110,12=2,17=6,18=5,40=1/2;
 3/5=1,6=6,7=1,11=2,25=1,30=1,70=2201,71=1,72=20,74=404,124=41/1,2,3;
 4//1;
 5/5=2,38=5,53=20/2;
 7//1,2,3,16;
 1/18=20,19=15,26=3/3(2);
 2/9=110/2;
 99//99;
 2/9=110/2;
 3/5=1,6=6,7=1,11=2,25=1,30=1,70=2205,71=1,72=20,74=404,124=41/1,2,3;
 4/5=5,16=3,69=1/1;
 5/5=2,38=5,53=20/2;
 7//1,2,3,16;
 1/18=20,19=15,26=3/3(-5);
 2/9=110/2;
 99/9=1/99;
 Leave Link    1 at Wed Jun  5 17:00:24 2019, MaxMem=  6442450944 cpu:               5.7 elap:               0.2
 (Enter /home/ekwan/sw/g16/l101.exe)
 -----
 title
 -----
 Symbolic Z-matrix:
 Charge =  0 Multiplicity = 1
 6                     3.39253   0.54266   0.43713 
 6                     3.30782  -0.61394  -0.57258 
 6                     1.84188  -1.04654  -0.79886 
 6                     0.97801   1.09618  -0.15473 
 6                     2.39192   1.64952   0.07869 
 1                     1.74146  -1.77823  -1.61459 
 1                     3.67252  -0.2452   -1.55715 
 1                     3.14694   0.15776   1.44769 
 1                     0.58223   0.69609   0.80014 
 1                     2.72797   2.14789  -0.85094 
 8                     1.00208   0.02008  -1.13577 
 8                     1.43013  -1.69357   0.45573 
 8                     4.12562  -1.67564  -0.10486 
 8                     4.69389   1.13317   0.43094 
 8                     2.29994   2.5928    1.14936 
 6                     0.00808   2.17261  -0.6518 
 1                    -0.20195   2.84123   0.19884 
 1                    -0.93811   1.68942  -0.96751 
 8                     0.51602   3.00883  -1.68764 
 16                    0.12318  -2.71612   0.36613 
 8                     0.12342  -3.40697   1.66618 
 8                     0.17298  -3.45369  -0.91422 
 6                    -1.26212  -1.57254   0.31366 
 6                    -1.68703  -0.9766    1.50606 
 6                    -1.83645  -1.26447  -0.92482 
 6                    -2.72895  -0.03784   1.44722 
 1                    -1.21716  -1.23756   2.45745 
 6                    -2.87716  -0.32749  -0.95867 
 1                    -1.47498  -1.74261  -1.83695 
 6                    -3.32517   0.28904   0.2211 
 1                    -4.13185   1.02515   0.1839 
 6                     4.31174  -2.72215  -1.06332 
 1                     3.39285  -3.32462  -1.20479 
 1                     4.63396  -2.3179   -2.04452 
 1                     5.10227  -3.37423  -0.6616 
 6                     5.57425   0.60285   1.42819 
 1                     6.51097   1.17789   1.35015 
 1                     5.15195   0.73697   2.44506 
 1                     5.78018  -0.46913   1.26083 
 6                     2.95235   3.83482   0.86033 
 1                     2.80078   4.47819   1.74209 
 1                     4.03488   3.68733   0.6919 
 1                     2.50374   4.32103  -0.02851 
 6                     0.52122   2.38372  -2.97713 
 1                     0.73986   3.17886  -3.70798 
 1                    -0.46764   1.93803  -3.20393 
 1                     1.2891    1.59193  -3.05397 
 6                    -3.24656   0.58442   2.72552 
 9                    -2.26507   0.68846   3.66208 
 9                    -4.24699  -0.16573   3.2684 
 9                    -3.74872   1.83017   2.50633 
 6                    -3.47306   0.09541  -2.28167 
 9                    -2.95399   1.29678  -2.68754 
 9                    -4.82018   0.26045  -2.19295 
 9                    -3.22319  -0.80554  -3.26601 
 
 ITRead=  0  0  0  0  0  0  0  0  0  0  0  0  0  0  0  0  0  0  0  0
 ITRead=  0  0  0  0  0  0  0  0  0  0  0  0  0  0  0  0  0  0  0  0
 ITRead=  0  0  0  0  0  0  0  0  0  0  0  0  0  0  0
 MicOpt= -1 -1 -1 -1 -1 -1 -1 -1 -1 -1 -1 -1 -1 -1 -1 -1 -1 -1 -1 -1
 MicOpt= -1 -1 -1 -1 -1 -1 -1 -1 -1 -1 -1 -1 -1 -1 -1 -1 -1 -1 -1 -1
 MicOpt= -1 -1 -1 -1 -1 -1 -1 -1 -1 -1 -1 -1 -1 -1 -1
 NAtoms=     55 NQM=       55 NQMF=       0 NMMI=      0 NMMIF=      0
                NMic=       0 NMicF=      0.
                    Isotopes and Nuclear Properties:
 (Nuclear quadrupole moments (NQMom) in fm**2, nuclear magnetic moments (NMagM)
  in nuclear magnetons)

  Atom         1           2           3           4           5           6           7           8           9          10
 IAtWgt=          12          12          12          12          12           1           1           1           1           1
 AtmWgt=  12.0000000  12.0000000  12.0000000  12.0000000  12.0000000   1.0078250   1.0078250   1.0078250   1.0078250   1.0078250
 NucSpn=           0           0           0           0           0           1           1           1           1           1
 AtZEff=   0.0000000   0.0000000   0.0000000   0.0000000   0.0000000   0.0000000   0.0000000   0.0000000   0.0000000   0.0000000
 NQMom=    0.0000000   0.0000000   0.0000000   0.0000000   0.0000000   0.0000000   0.0000000   0.0000000   0.0000000   0.0000000
 NMagM=    0.0000000   0.0000000   0.0000000   0.0000000   0.0000000   2.7928460   2.7928460   2.7928460   2.7928460   2.7928460
 AtZNuc=   6.0000000   6.0000000   6.0000000   6.0000000   6.0000000   1.0000000   1.0000000   1.0000000   1.0000000   1.0000000

  Atom        11          12          13          14          15          16          17          18          19          20
 IAtWgt=          16          16          16          16          16          12           1           1          16          32
 AtmWgt=  15.9949146  15.9949146  15.9949146  15.9949146  15.9949146  12.0000000   1.0078250   1.0078250  15.9949146  31.9720718
 NucSpn=           0           0           0           0           0           0           1           1           0           0
 AtZEff=   0.0000000   0.0000000   0.0000000   0.0000000   0.0000000   0.0000000   0.0000000   0.0000000   0.0000000   0.0000000
 NQMom=    0.0000000   0.0000000   0.0000000   0.0000000   0.0000000   0.0000000   0.0000000   0.0000000   0.0000000   0.0000000
 NMagM=    0.0000000   0.0000000   0.0000000   0.0000000   0.0000000   0.0000000   2.7928460   2.7928460   0.0000000   0.0000000
 AtZNuc=   8.0000000   8.0000000   8.0000000   8.0000000   8.0000000   6.0000000   1.0000000   1.0000000   8.0000000  16.0000000

  Atom        21          22          23          24          25          26          27          28          29          30
 IAtWgt=          16          16          12          12          12          12           1          12           1          12
 AtmWgt=  15.9949146  15.9949146  12.0000000  12.0000000  12.0000000  12.0000000   1.0078250  12.0000000   1.0078250  12.0000000
 NucSpn=           0           0           0           0           0           0           1           0           1           0
 AtZEff=   0.0000000   0.0000000   0.0000000   0.0000000   0.0000000   0.0000000   0.0000000   0.0000000   0.0000000   0.0000000
 NQMom=    0.0000000   0.0000000   0.0000000   0.0000000   0.0000000   0.0000000   0.0000000   0.0000000   0.0000000   0.0000000
 NMagM=    0.0000000   0.0000000   0.0000000   0.0000000   0.0000000   0.0000000   2.7928460   0.0000000   2.7928460   0.0000000
 AtZNuc=   8.0000000   8.0000000   6.0000000   6.0000000   6.0000000   6.0000000   1.0000000   6.0000000   1.0000000   6.0000000

  Atom        31          32          33          34          35          36          37          38          39          40
 IAtWgt=           1          12           1           1           1          12           1           1           1          12
 AtmWgt=   1.0078250  12.0000000   1.0078250   1.0078250   1.0078250  12.0000000   1.0078250   1.0078250   1.0078250  12.0000000
 NucSpn=           1           0           1           1           1           0           1           1           1           0
 AtZEff=   0.0000000   0.0000000   0.0000000   0.0000000   0.0000000   0.0000000   0.0000000   0.0000000   0.0000000   0.0000000
 NQMom=    0.0000000   0.0000000   0.0000000   0.0000000   0.0000000   0.0000000   0.0000000   0.0000000   0.0000000   0.0000000
 NMagM=    2.7928460   0.0000000   2.7928460   2.7928460   2.7928460   0.0000000   2.7928460   2.7928460   2.7928460   0.0000000
 AtZNuc=   1.0000000   6.0000000   1.0000000   1.0000000   1.0000000   6.0000000   1.0000000   1.0000000   1.0000000   6.0000000

  Atom        41          42          43          44          45          46          47          48          49          50
 IAtWgt=           1           1           1          12           1           1           1          12          19          19
 AtmWgt=   1.0078250   1.0078250   1.0078250  12.0000000   1.0078250   1.0078250   1.0078250  12.0000000  18.9984033  18.9984033
 NucSpn=           1           1           1           0           1           1           1           0           1           1
 AtZEff=   0.0000000   0.0000000   0.0000000   0.0000000   0.0000000   0.0000000   0.0000000   0.0000000   0.0000000   0.0000000
 NQMom=    0.0000000   0.0000000   0.0000000   0.0000000   0.0000000   0.0000000   0.0000000   0.0000000   0.0000000   0.0000000
 NMagM=    2.7928460   2.7928460   2.7928460   0.0000000   2.7928460   2.7928460   2.7928460   0.0000000   2.6288670   2.6288670
 AtZNuc=   1.0000000   1.0000000   1.0000000   6.0000000   1.0000000   1.0000000   1.0000000   6.0000000   9.0000000   9.0000000

  Atom        51          52          53          54          55
 IAtWgt=          19          12          19          19          19
 AtmWgt=  18.9984033  12.0000000  18.9984033  18.9984033  18.9984033
 NucSpn=           1           0           1           1           1
 AtZEff=   0.0000000   0.0000000   0.0000000   0.0000000   0.0000000
 NQMom=    0.0000000   0.0000000   0.0000000   0.0000000   0.0000000
 NMagM=    2.6288670   0.0000000   2.6288670   2.6288670   2.6288670
 AtZNuc=   9.0000000   6.0000000   9.0000000   9.0000000   9.0000000
 Leave Link  101 at Wed Jun  5 17:00:25 2019, MaxMem=  6442450944 cpu:              17.1 elap:               0.6
 (Enter /home/ekwan/sw/g16/l103.exe)

 GradGradGradGradGradGradGradGradGradGradGradGradGradGradGradGradGradGrad
 Berny optimization.
 Initialization pass.
                           ----------------------------
                           !    Initial Parameters    !
                           ! (Angstroms and Degrees)  !
 --------------------------                            --------------------------
 ! Name  Definition              Value          Derivative Info.                !
 --------------------------------------------------------------------------------
 ! R1    R(1,2)                  1.5377         estimate D2E/DX2                !
 ! R2    R(1,5)                  1.5345         estimate D2E/DX2                !
 ! R3    R(1,8)                  1.1089         estimate D2E/DX2                !
 ! R4    R(1,14)                 1.4291         estimate D2E/DX2                !
 ! R5    R(2,3)                  1.5451         estimate D2E/DX2                !
 ! R6    R(2,7)                  1.1128         estimate D2E/DX2                !
 ! R7    R(2,13)                 1.4194         estimate D2E/DX2                !
 ! R8    R(3,6)                  1.1004         estimate D2E/DX2                !
 ! R9    R(3,11)                 1.3987         estimate D2E/DX2                !
 ! R10   R(3,12)                 1.4704         estimate D2E/DX2                !
 ! R11   R(4,5)                  1.5362         estimate D2E/DX2                !
 ! R12   R(4,9)                  1.1084         estimate D2E/DX2                !
 ! R13   R(4,11)                 1.4564         estimate D2E/DX2                !
 ! R14   R(4,16)                 1.5318         estimate D2E/DX2                !
 ! R15   R(5,10)                 1.107          estimate D2E/DX2                !
 ! R16   R(5,15)                 1.4299         estimate D2E/DX2                !
 ! R17   R(12,20)                1.6619         estimate D2E/DX2                !
 ! R18   R(13,32)                1.4312         estimate D2E/DX2                !
 ! R19   R(14,36)                1.4321         estimate D2E/DX2                !
 ! R20   R(15,40)                1.4324         estimate D2E/DX2                !
 ! R21   R(16,17)                1.1022         estimate D2E/DX2                !
 ! R22   R(16,18)                1.1083         estimate D2E/DX2                !
 ! R23   R(16,19)                1.4249         estimate D2E/DX2                !
 ! R24   R(19,44)                1.433          estimate D2E/DX2                !
 ! R25   R(20,21)                1.4722         estimate D2E/DX2                !
 ! R26   R(20,22)                1.4784         estimate D2E/DX2                !
 ! R27   R(20,23)                1.7971         estimate D2E/DX2                !
 ! R28   R(23,24)                1.3991         estimate D2E/DX2                !
 ! R29   R(23,25)                1.3995         estimate D2E/DX2                !
 ! R30   R(24,26)                1.4037         estimate D2E/DX2                !
 ! R31   R(24,27)                1.0927         estimate D2E/DX2                !
 ! R32   R(25,28)                1.4008         estimate D2E/DX2                !
 ! R33   R(25,29)                1.0914         estimate D2E/DX2                !
 ! R34   R(26,30)                1.402          estimate D2E/DX2                !
 ! R35   R(26,48)                1.513          estimate D2E/DX2                !
 ! R36   R(28,30)                1.4045         estimate D2E/DX2                !
 ! R37   R(28,52)                1.5114         estimate D2E/DX2                !
 ! R38   R(30,31)                1.0927         estimate D2E/DX2                !
 ! R39   R(32,33)                1.1079         estimate D2E/DX2                !
 ! R40   R(32,34)                1.1091         estimate D2E/DX2                !
 ! R41   R(32,35)                1.1007         estimate D2E/DX2                !
 ! R42   R(36,37)                1.1019         estimate D2E/DX2                !
 ! R43   R(36,38)                1.1092         estimate D2E/DX2                !
 ! R44   R(36,39)                1.1043         estimate D2E/DX2                !
 ! R45   R(40,41)                1.102          estimate D2E/DX2                !
 ! R46   R(40,42)                1.1054         estimate D2E/DX2                !
 ! R47   R(40,43)                1.108          estimate D2E/DX2                !
 ! R48   R(44,45)                1.1019         estimate D2E/DX2                !
 ! R49   R(44,46)                1.1081         estimate D2E/DX2                !
 ! R50   R(44,47)                1.1057         estimate D2E/DX2                !
 ! R51   R(48,49)                1.3606         estimate D2E/DX2                !
 ! R52   R(48,50)                1.3632         estimate D2E/DX2                !
 ! R53   R(48,51)                1.3609         estimate D2E/DX2                !
 ! R54   R(52,53)                1.3702         estimate D2E/DX2                !
 ! R55   R(52,54)                1.3601         estimate D2E/DX2                !
 ! R56   R(52,55)                1.3576         estimate D2E/DX2                !
 ! A1    A(2,1,5)              110.6858         estimate D2E/DX2                !
 ! A2    A(2,1,8)              108.9729         estimate D2E/DX2                !
 ! A3    A(2,1,14)             110.9853         estimate D2E/DX2                !
 ! A4    A(5,1,8)              108.5911         estimate D2E/DX2                !
 ! A5    A(5,1,14)             107.1409         estimate D2E/DX2                !
 ! A6    A(8,1,14)             110.4294         estimate D2E/DX2                !
 ! A7    A(1,2,3)              111.0405         estimate D2E/DX2                !
 ! A8    A(1,2,7)              108.2812         estimate D2E/DX2                !
 ! A9    A(1,2,13)             108.3307         estimate D2E/DX2                !
 ! A10   A(3,2,7)              105.9105         estimate D2E/DX2                !
 ! A11   A(3,2,13)             112.6732         estimate D2E/DX2                !
 ! A12   A(7,2,13)             110.5221         estimate D2E/DX2                !
 ! A13   A(2,3,6)              112.4151         estimate D2E/DX2                !
 ! A14   A(2,3,11)             113.0426         estimate D2E/DX2                !
 ! A15   A(2,3,12)             105.3028         estimate D2E/DX2                !
 ! A16   A(6,3,11)             105.8845         estimate D2E/DX2                !
 ! A17   A(6,3,12)             108.3215         estimate D2E/DX2                !
 ! A18   A(11,3,12)            111.897          estimate D2E/DX2                !
 ! A19   A(5,4,9)              109.1345         estimate D2E/DX2                !
 ! A20   A(5,4,11)             110.6893         estimate D2E/DX2                !
 ! A21   A(5,4,16)             112.27           estimate D2E/DX2                !
 ! A22   A(9,4,11)             108.6332         estimate D2E/DX2                !
 ! A23   A(9,4,16)             107.8851         estimate D2E/DX2                !
 ! A24   A(11,4,16)            108.1256         estimate D2E/DX2                !
 ! A25   A(1,5,4)              112.076          estimate D2E/DX2                !
 ! A26   A(1,5,10)             108.8401         estimate D2E/DX2                !
 ! A27   A(1,5,15)             110.0524         estimate D2E/DX2                !
 ! A28   A(4,5,10)             108.2983         estimate D2E/DX2                !
 ! A29   A(4,5,15)             106.9893         estimate D2E/DX2                !
 ! A30   A(10,5,15)            110.5687         estimate D2E/DX2                !
 ! A31   A(3,11,4)             114.2752         estimate D2E/DX2                !
 ! A32   A(3,12,20)            116.4213         estimate D2E/DX2                !
 ! A33   A(2,13,32)            113.6512         estimate D2E/DX2                !
 ! A34   A(1,14,36)            113.8143         estimate D2E/DX2                !
 ! A35   A(5,15,40)            113.0554         estimate D2E/DX2                !
 ! A36   A(4,16,17)            107.2483         estimate D2E/DX2                !
 ! A37   A(4,16,18)            109.0641         estimate D2E/DX2                !
 ! A38   A(4,16,19)            114.9976         estimate D2E/DX2                !
 ! A39   A(17,16,18)           108.762          estimate D2E/DX2                !
 ! A40   A(17,16,19)           105.8419         estimate D2E/DX2                !
 ! A41   A(18,16,19)           110.6769         estimate D2E/DX2                !
 ! A42   A(16,19,44)           113.5441         estimate D2E/DX2                !
 ! A43   A(12,20,21)           103.9453         estimate D2E/DX2                !
 ! A44   A(12,20,22)           109.0968         estimate D2E/DX2                !
 ! A45   A(12,20,23)           102.4894         estimate D2E/DX2                !
 ! A46   A(21,20,22)           122.0481         estimate D2E/DX2                !
 ! A47   A(21,20,23)           108.9364         estimate D2E/DX2                !
 ! A48   A(22,20,23)           108.5511         estimate D2E/DX2                !
 ! A49   A(20,23,24)           118.703          estimate D2E/DX2                !
 ! A50   A(20,23,25)           118.8328         estimate D2E/DX2                !
 ! A51   A(24,23,25)           122.3988         estimate D2E/DX2                !
 ! A52   A(23,24,26)           118.3309         estimate D2E/DX2                !
 ! A53   A(23,24,27)           120.6453         estimate D2E/DX2                !
 ! A54   A(26,24,27)           121.0238         estimate D2E/DX2                !
 ! A55   A(23,25,28)           118.2634         estimate D2E/DX2                !
 ! A56   A(23,25,29)           120.478          estimate D2E/DX2                !
 ! A57   A(28,25,29)           121.2581         estimate D2E/DX2                !
 ! A58   A(24,26,30)           120.5467         estimate D2E/DX2                !
 ! A59   A(24,26,48)           119.5759         estimate D2E/DX2                !
 ! A60   A(30,26,48)           119.8345         estimate D2E/DX2                !
 ! A61   A(25,28,30)           120.6845         estimate D2E/DX2                !
 ! A62   A(25,28,52)           120.0827         estimate D2E/DX2                !
 ! A63   A(30,28,52)           119.1234         estimate D2E/DX2                !
 ! A64   A(26,30,28)           119.7752         estimate D2E/DX2                !
 ! A65   A(26,30,31)           120.0516         estimate D2E/DX2                !
 ! A66   A(28,30,31)           120.1724         estimate D2E/DX2                !
 ! A67   A(13,32,33)           112.0427         estimate D2E/DX2                !
 ! A68   A(13,32,34)           111.3296         estimate D2E/DX2                !
 ! A69   A(13,32,35)           106.3896         estimate D2E/DX2                !
 ! A70   A(33,32,34)           109.0399         estimate D2E/DX2                !
 ! A71   A(33,32,35)           108.6711         estimate D2E/DX2                !
 ! A72   A(34,32,35)           109.2784         estimate D2E/DX2                !
 ! A73   A(14,36,37)           106.2616         estimate D2E/DX2                !
 ! A74   A(14,36,38)           111.0743         estimate D2E/DX2                !
 ! A75   A(14,36,39)           111.6275         estimate D2E/DX2                !
 ! A76   A(37,36,38)           108.9941         estimate D2E/DX2                !
 ! A77   A(37,36,39)           109.7133         estimate D2E/DX2                !
 ! A78   A(38,36,39)           109.105          estimate D2E/DX2                !
 ! A79   A(15,40,41)           106.3871         estimate D2E/DX2                !
 ! A80   A(15,40,42)           111.1666         estimate D2E/DX2                !
 ! A81   A(15,40,43)           110.9744         estimate D2E/DX2                !
 ! A82   A(41,40,42)           109.5419         estimate D2E/DX2                !
 ! A83   A(41,40,43)           109.2684         estimate D2E/DX2                !
 ! A84   A(42,40,43)           109.4396         estimate D2E/DX2                !
 ! A85   A(19,44,45)           106.4257         estimate D2E/DX2                !
 ! A86   A(19,44,46)           110.878          estimate D2E/DX2                !
 ! A87   A(19,44,47)           112.1753         estimate D2E/DX2                !
 ! A88   A(45,44,46)           109.3627         estimate D2E/DX2                !
 ! A89   A(45,44,47)           109.4433         estimate D2E/DX2                !
 ! A90   A(46,44,47)           108.5116         estimate D2E/DX2                !
 ! A91   A(26,48,49)           111.4827         estimate D2E/DX2                !
 ! A92   A(26,48,50)           111.1748         estimate D2E/DX2                !
 ! A93   A(26,48,51)           111.508          estimate D2E/DX2                !
 ! A94   A(49,48,50)           107.2981         estimate D2E/DX2                !
 ! A95   A(49,48,51)           107.8807         estimate D2E/DX2                !
 ! A96   A(50,48,51)           107.2816         estimate D2E/DX2                !
 ! A97   A(28,52,53)           110.8093         estimate D2E/DX2                !
 ! A98   A(28,52,54)           111.5531         estimate D2E/DX2                !
 ! A99   A(28,52,55)           112.1125         estimate D2E/DX2                !
 ! A100  A(53,52,54)           106.7473         estimate D2E/DX2                !
 ! A101  A(53,52,55)           107.2997         estimate D2E/DX2                !
 ! A102  A(54,52,55)           108.067          estimate D2E/DX2                !
 ! D1    D(5,1,2,3)            -48.5732         estimate D2E/DX2                !
 ! D2    D(5,1,2,7)             67.3019         estimate D2E/DX2                !
 ! D3    D(5,1,2,13)          -172.8046         estimate D2E/DX2                !
 ! D4    D(8,1,2,3)             70.7787         estimate D2E/DX2                !
 ! D5    D(8,1,2,7)           -173.3462         estimate D2E/DX2                !
 ! D6    D(8,1,2,13)           -53.4527         estimate D2E/DX2                !
 ! D7    D(14,1,2,3)          -167.4051         estimate D2E/DX2                !
 ! D8    D(14,1,2,7)           -51.53           estimate D2E/DX2                !
 ! D9    D(14,1,2,13)           68.3635         estimate D2E/DX2                !
 ! D10   D(2,1,5,4)             50.2647         estimate D2E/DX2                !
 ! D11   D(2,1,5,10)           -69.4951         estimate D2E/DX2                !
 ! D12   D(2,1,5,15)           169.1916         estimate D2E/DX2                !
 ! D13   D(8,1,5,4)            -69.3169         estimate D2E/DX2                !
 ! D14   D(8,1,5,10)           170.9232         estimate D2E/DX2                !
 ! D15   D(8,1,5,15)            49.61           estimate D2E/DX2                !
 ! D16   D(14,1,5,4)           171.3997         estimate D2E/DX2                !
 ! D17   D(14,1,5,10)           51.6398         estimate D2E/DX2                !
 ! D18   D(14,1,5,15)          -69.6734         estimate D2E/DX2                !
 ! D19   D(2,1,14,36)          -94.5656         estimate D2E/DX2                !
 ! D20   D(5,1,14,36)          144.4889         estimate D2E/DX2                !
 ! D21   D(8,1,14,36)           26.3958         estimate D2E/DX2                !
 ! D22   D(1,2,3,6)            172.3116         estimate D2E/DX2                !
 ! D23   D(1,2,3,11)            52.4975         estimate D2E/DX2                !
 ! D24   D(1,2,3,12)           -69.9522         estimate D2E/DX2                !
 ! D25   D(7,2,3,6)             54.9806         estimate D2E/DX2                !
 ! D26   D(7,2,3,11)           -64.8336         estimate D2E/DX2                !
 ! D27   D(7,2,3,12)           172.7168         estimate D2E/DX2                !
 ! D28   D(13,2,3,6)           -65.9601         estimate D2E/DX2                !
 ! D29   D(13,2,3,11)          174.2258         estimate D2E/DX2                !
 ! D30   D(13,2,3,12)           51.7761         estimate D2E/DX2                !
 ! D31   D(1,2,13,32)         -170.0294         estimate D2E/DX2                !
 ! D32   D(3,2,13,32)           66.7197         estimate D2E/DX2                !
 ! D33   D(7,2,13,32)          -51.549          estimate D2E/DX2                !
 ! D34   D(2,3,11,4)           -57.496          estimate D2E/DX2                !
 ! D35   D(6,3,11,4)           179.0087         estimate D2E/DX2                !
 ! D36   D(12,3,11,4)           61.1938         estimate D2E/DX2                !
 ! D37   D(2,3,12,20)         -159.461          estimate D2E/DX2                !
 ! D38   D(6,3,12,20)          -38.9936         estimate D2E/DX2                !
 ! D39   D(11,3,12,20)          77.3547         estimate D2E/DX2                !
 ! D40   D(9,4,5,1)             66.2963         estimate D2E/DX2                !
 ! D41   D(9,4,5,10)          -173.6275         estimate D2E/DX2                !
 ! D42   D(9,4,5,15)           -54.4209         estimate D2E/DX2                !
 ! D43   D(11,4,5,1)           -53.2111         estimate D2E/DX2                !
 ! D44   D(11,4,5,10)           66.8651         estimate D2E/DX2                !
 ! D45   D(11,4,5,15)         -173.9283         estimate D2E/DX2                !
 ! D46   D(16,4,5,1)          -174.1423         estimate D2E/DX2                !
 ! D47   D(16,4,5,10)          -54.0661         estimate D2E/DX2                !
 ! D48   D(16,4,5,15)           65.1405         estimate D2E/DX2                !
 ! D49   D(5,4,11,3)            57.3743         estimate D2E/DX2                !
 ! D50   D(9,4,11,3)           -62.4342         estimate D2E/DX2                !
 ! D51   D(16,4,11,3)         -179.2675         estimate D2E/DX2                !
 ! D52   D(5,4,16,17)          -72.0233         estimate D2E/DX2                !
 ! D53   D(5,4,16,18)          170.3557         estimate D2E/DX2                !
 ! D54   D(5,4,16,19)           45.373          estimate D2E/DX2                !
 ! D55   D(9,4,16,17)           48.2648         estimate D2E/DX2                !
 ! D56   D(9,4,16,18)          -69.3562         estimate D2E/DX2                !
 ! D57   D(9,4,16,19)          165.6611         estimate D2E/DX2                !
 ! D58   D(11,4,16,17)         165.5809         estimate D2E/DX2                !
 ! D59   D(11,4,16,18)          47.9599         estimate D2E/DX2                !
 ! D60   D(11,4,16,19)         -77.0228         estimate D2E/DX2                !
 ! D61   D(1,5,15,40)          106.2098         estimate D2E/DX2                !
 ! D62   D(4,5,15,40)         -131.7938         estimate D2E/DX2                !
 ! D63   D(10,5,15,40)         -14.0646         estimate D2E/DX2                !
 ! D64   D(3,12,20,21)         168.8144         estimate D2E/DX2                !
 ! D65   D(3,12,20,22)          37.166          estimate D2E/DX2                !
 ! D66   D(3,12,20,23)         -77.765          estimate D2E/DX2                !
 ! D67   D(2,13,32,33)         -71.9024         estimate D2E/DX2                !
 ! D68   D(2,13,32,34)          50.5049         estimate D2E/DX2                !
 ! D69   D(2,13,32,35)         169.4712         estimate D2E/DX2                !
 ! D70   D(1,14,36,37)        -176.9192         estimate D2E/DX2                !
 ! D71   D(1,14,36,38)         -58.5116         estimate D2E/DX2                !
 ! D72   D(1,14,36,39)          63.5012         estimate D2E/DX2                !
 ! D73   D(5,15,40,41)         179.0856         estimate D2E/DX2                !
 ! D74   D(5,15,40,42)         -61.7217         estimate D2E/DX2                !
 ! D75   D(5,15,40,43)          60.3278         estimate D2E/DX2                !
 ! D76   D(4,16,19,44)          77.0897         estimate D2E/DX2                !
 ! D77   D(17,16,19,44)       -164.7213         estimate D2E/DX2                !
 ! D78   D(18,16,19,44)        -47.0468         estimate D2E/DX2                !
 ! D79   D(16,19,44,45)        169.0908         estimate D2E/DX2                !
 ! D80   D(16,19,44,46)         50.2493         estimate D2E/DX2                !
 ! D81   D(16,19,44,47)        -71.245          estimate D2E/DX2                !
 ! D82   D(12,20,23,24)        -78.3411         estimate D2E/DX2                !
 ! D83   D(12,20,23,25)         98.7907         estimate D2E/DX2                !
 ! D84   D(21,20,23,24)         31.3502         estimate D2E/DX2                !
 ! D85   D(21,20,23,25)       -151.5179         estimate D2E/DX2                !
 ! D86   D(22,20,23,24)        166.3314         estimate D2E/DX2                !
 ! D87   D(22,20,23,25)        -16.5368         estimate D2E/DX2                !
 ! D88   D(20,23,24,26)        177.0917         estimate D2E/DX2                !
 ! D89   D(20,23,24,27)         -2.8921         estimate D2E/DX2                !
 ! D90   D(25,23,24,26)          0.0677         estimate D2E/DX2                !
 ! D91   D(25,23,24,27)       -179.9162         estimate D2E/DX2                !
 ! D92   D(20,23,25,28)       -177.2599         estimate D2E/DX2                !
 ! D93   D(20,23,25,29)          2.4897         estimate D2E/DX2                !
 ! D94   D(24,23,25,28)         -0.2396         estimate D2E/DX2                !
 ! D95   D(24,23,25,29)        179.5101         estimate D2E/DX2                !
 ! D96   D(23,24,26,30)          0.0491         estimate D2E/DX2                !
 ! D97   D(23,24,26,48)        177.6633         estimate D2E/DX2                !
 ! D98   D(27,24,26,30)       -179.9671         estimate D2E/DX2                !
 ! D99   D(27,24,26,48)         -2.3529         estimate D2E/DX2                !
 ! D100  D(23,25,28,30)          0.2979         estimate D2E/DX2                !
 ! D101  D(23,25,28,52)        176.4623         estimate D2E/DX2                !
 ! D102  D(29,25,28,30)       -179.4497         estimate D2E/DX2                !
 ! D103  D(29,25,28,52)         -3.2854         estimate D2E/DX2                !
 ! D104  D(24,26,30,28)          0.0114         estimate D2E/DX2                !
 ! D105  D(24,26,30,31)       -179.6527         estimate D2E/DX2                !
 ! D106  D(48,26,30,28)       -177.5967         estimate D2E/DX2                !
 ! D107  D(48,26,30,31)          2.7392         estimate D2E/DX2                !
 ! D108  D(24,26,48,49)         30.9689         estimate D2E/DX2                !
 ! D109  D(24,26,48,50)        -88.7096         estimate D2E/DX2                !
 ! D110  D(24,26,48,51)        151.6159         estimate D2E/DX2                !
 ! D111  D(30,26,48,49)       -151.3996         estimate D2E/DX2                !
 ! D112  D(30,26,48,50)         88.9219         estimate D2E/DX2                !
 ! D113  D(30,26,48,51)        -30.7527         estimate D2E/DX2                !
 ! D114  D(25,28,30,26)         -0.1893         estimate D2E/DX2                !
 ! D115  D(25,28,30,31)        179.4744         estimate D2E/DX2                !
 ! D116  D(52,28,30,26)       -176.3901         estimate D2E/DX2                !
 ! D117  D(52,28,30,31)          3.2736         estimate D2E/DX2                !
 ! D118  D(25,28,52,53)        -99.5436         estimate D2E/DX2                !
 ! D119  D(25,28,52,54)        141.6699         estimate D2E/DX2                !
 ! D120  D(25,28,52,55)         20.3107         estimate D2E/DX2                !
 ! D121  D(30,28,52,53)         76.6805         estimate D2E/DX2                !
 ! D122  D(30,28,52,54)        -42.106          estimate D2E/DX2                !
 ! D123  D(30,28,52,55)       -163.4652         estimate D2E/DX2                !
 --------------------------------------------------------------------------------
 Trust Radius=3.00D-01 FncErr=1.00D-07 GrdErr=1.00D-06 EigMax=2.50D+02 EigMin=1.00D-04
 Number of steps in this run=    291 maximum allowed number of steps=    330.
 GradGradGradGradGradGradGradGradGradGradGradGradGradGradGradGradGradGrad

 Leave Link  103 at Wed Jun  5 17:00:25 2019, MaxMem=  6442450944 cpu:               1.5 elap:               0.1
 (Enter /home/ekwan/sw/g16/l202.exe)
 Stoichiometry    C18H22F6O8S
 Framework group  C1[X(C18H22F6O8S)]
 Deg. of freedom   159
 Full point group                 C1      NOp   1
 Largest Abelian subgroup         C1      NOp   1
 Largest concise Abelian subgroup C1      NOp   1
                         Standard orientation:                         
 ---------------------------------------------------------------------
 Center     Atomic      Atomic             Coordinates (Angstroms)
 Number     Number       Type             X           Y           Z
 ---------------------------------------------------------------------
      1          6           0       -3.392529   -0.542662    0.437131
      2          6           0       -3.307819    0.613943   -0.572577
      3          6           0       -1.841877    1.046537   -0.798855
      4          6           0       -0.978012   -1.096178   -0.154725
      5          6           0       -2.391919   -1.649520    0.078693
      6          1           0       -1.741455    1.778227   -1.614593
      7          1           0       -3.672515    0.245203   -1.557149
      8          1           0       -3.146937   -0.157756    1.447685
      9          1           0       -0.582230   -0.696086    0.800142
     10          1           0       -2.727969   -2.147891   -0.850936
     11          8           0       -1.002083   -0.020077   -1.135766
     12          8           0       -1.430131    1.693569    0.455728
     13          8           0       -4.125622    1.675641   -0.104859
     14          8           0       -4.693891   -1.133171    0.430937
     15          8           0       -2.299936   -2.592802    1.149357
     16          6           0       -0.008081   -2.172609   -0.651797
     17          1           0        0.201951   -2.841228    0.198837
     18          1           0        0.938105   -1.689419   -0.967513
     19          8           0       -0.516019   -3.008826   -1.687642
     20         16           0       -0.123176    2.716118    0.366126
     21          8           0       -0.123419    3.406965    1.666178
     22          8           0       -0.172984    3.453687   -0.914217
     23          6           0        1.262123    1.572541    0.313661
     24          6           0        1.687026    0.976603    1.506059
     25          6           0        1.836446    1.264466   -0.924822
     26          6           0        2.728949    0.037836    1.447217
     27          1           0        1.217159    1.237562    2.457450
     28          6           0        2.877162    0.327490   -0.958672
     29          1           0        1.474979    1.742608   -1.836945
     30          6           0        3.325173   -0.289041    0.221098
     31          1           0        4.131854   -1.025151    0.183900
     32          6           0       -4.311736    2.722147   -1.063317
     33          1           0       -3.392850    3.324624   -1.204792
     34          1           0       -4.633964    2.317896   -2.044522
     35          1           0       -5.102271    3.374233   -0.661604
     36          6           0       -5.574251   -0.602853    1.428189
     37          1           0       -6.510969   -1.177890    1.350152
     38          1           0       -5.151949   -0.736974    2.445063
     39          1           0       -5.780182    0.469129    1.260828
     40          6           0       -2.952347   -3.834821    0.860325
     41          1           0       -2.800779   -4.478194    1.742086
     42          1           0       -4.034883   -3.687330    0.691898
     43          1           0       -2.503739   -4.321034   -0.028511
     44          6           0       -0.521224   -2.383723   -2.977132
     45          1           0       -0.739859   -3.178864   -3.707979
     46          1           0        0.467637   -1.938029   -3.203934
     47          1           0       -1.289101   -1.591925   -3.053970
     48          6           0        3.246562   -0.584423    2.725515
     49          9           0        2.265074   -0.688461    3.662075
     50          9           0        4.246988    0.165728    3.268397
     51          9           0        3.748719   -1.830171    2.506330
     52          6           0        3.473063   -0.095413   -2.281674
     53          9           0        2.953986   -1.296781   -2.687539
     54          9           0        4.820176   -0.260452   -2.192946
     55          9           0        3.223192    0.805536   -3.266012
 ---------------------------------------------------------------------
 Rotational constants (GHZ):           0.1493516           0.0851580           0.0835647
 Leave Link  202 at Wed Jun  5 17:00:25 2019, MaxMem=  6442450944 cpu:               7.8 elap:               0.3
 (Enter /home/ekwan/sw/g16/l301.exe)
 Standard basis: 6-31G(d) (6D, 7F)
 Ernie: Thresh=  0.10000D-02 Tol=  0.10000D-05 Strict=F.
 There are   543 symmetry adapted cartesian basis functions of A   symmetry.
 There are   543 symmetry adapted basis functions of A   symmetry.
   543 basis functions,  1036 primitive gaussians,   543 cartesian basis functions
   132 alpha electrons      132 beta electrons
       nuclear repulsion energy      4331.4083646276 Hartrees.
 IExCor=  404 DFT=T Ex=B Corr=P86 ExCW=0 ScaHFX=  0.000000
 ScaDFX=  1.000000  1.000000  1.000000  1.000000 ScalE2=  1.000000  1.000000
 IRadAn=      5 IRanWt=     -1 IRanGd=            0 ICorTp=0 IEmpDi=141
 NAtoms=   55 NActive=   55 NUniq=   55 SFac= 1.00D+00 NAtFMM=   60 NAOKFM=F Big=F
 Integral buffers will be    131072 words long.
 Raffenetti 2 integral format.
 Two-electron integral symmetry is turned on.
 R6Disp:  Grimme-D3(BJ) Dispersion energy=       -0.1157934137 Hartrees.
 Nuclear repulsion after empirical dispersion term =     4331.2925712139 Hartrees.
 ------------------------------------------------------------------------------
 Polarizable Continuum Model (PCM)
 =================================
 Model                : PCM.
 Atomic radii         : UFF (Universal Force Field).
 Polarization charges : Total charges.
 Charge compensation  : None.
 Solution method      : On-the-fly selection.
 Cavity type          : Scaled VdW (van der Waals Surface) (Alpha=1.100).
 Cavity algorithm     : GePol (No added spheres)
                        Default sphere list used, NSphG=   55.
                        Lebedev-Laikov grids with approx.  5.0 points / Ang**2.
                        Smoothing algorithm: York/Karplus (Gamma=1.0000).
                        Polarization charges: spherical gaussians, with
                                              point-specific exponents (IZeta= 3).
                        Self-potential: point-specific (ISelfS= 7).
                        Self-field    : sphere-specific E.n sum rule (ISelfD= 2).
 1st derivatives      : Analytical E(r).r(x)/FMM algorithm (CHGder, D1EAlg=3).
                        Cavity 1st derivative terms included.
 Solvent              : TetraHydroFuran, Eps=   7.425700 Eps(inf)=   1.974025
 ------------------------------------------------------------------------------
 GePol: Number of generator spheres                  =      55
 GePol: Total number of spheres                      =      55
 GePol: Number of exposed spheres                    =      55 (100.00%)
 GePol: Number of points                             =    3945
 GePol: Average weight of points                     =       0.13
 GePol: Minimum weight of points                     =   0.25D-10
 GePol: Maximum weight of points                     =    0.20577
 GePol: Number of points with low weight             =     241
 GePol: Fraction of low-weight points (<1% of avg)   =       6.11%
 GePol: Cavity surface area                          =    494.710 Ang**2
 GePol: Cavity volume                                =    579.597 Ang**3
 Leave Link  301 at Wed Jun  5 17:00:26 2019, MaxMem=  6442450944 cpu:               9.7 elap:               0.4
 (Enter /home/ekwan/sw/g16/l302.exe)
 NPDir=0 NMtPBC=     1 NCelOv=     1 NCel=       1 NClECP=     1 NCelD=      1
         NCelK=      1 NCelE2=     1 NClLst=     1 CellRange=     0.0.
 One-electron integrals computed using PRISM.
 One-electron integral symmetry used in STVInt
 NBasis=   543 RedAO= T EigKep=  4.43D-04  NBF=   543
 NBsUse=   543 1.00D-06 EigRej= -1.00D+00 NBFU=   543
 Precomputing XC quadrature grid using
 IXCGrd= 4 IRadAn=           5 IRanWt=          -1 IRanGd=           0 AccXCQ= 0.00D+00.
 Generated NRdTot=       0 NPtTot=           0 NUsed=           0 NTot=          32
 NSgBfM=   533   532   532   533   533 MxSgAt=    55 MxSgA2=    55.
 Leave Link  302 at Wed Jun  5 17:00:32 2019, MaxMem=  6442450944 cpu:             188.3 elap:               6.1
 (Enter /home/ekwan/sw/g16/l303.exe)
 DipDrv:  MaxL=1.
 Leave Link  303 at Wed Jun  5 17:00:32 2019, MaxMem=  6442450944 cpu:               9.0 elap:               0.3
 (Enter /home/ekwan/sw/g16/l401.exe)
 ExpMin= 1.17D-01 ExpMax= 2.19D+04 ExpMxC= 3.30D+03 IAcc=3 IRadAn=         5 AccDes= 0.00D+00
 Harris functional with IExCor=  404 and IRadAn=       5 diagonalized for initial guess.
 HarFok:  IExCor=  404 AccDes= 0.00D+00 IRadAn=         5 IDoV= 1 UseB2=F ITyADJ=14
 ICtDFT=  3500011 ScaDFX=  1.000000  1.000000  1.000000  1.000000
 FoFCou: FMM=F IPFlag=           0 FMFlag=      100000 FMFlg1=           0
         NFxFlg=           0 DoJE=T BraDBF=F KetDBF=T FulRan=T
         wScrn=  0.000000 ICntrl=       500 IOpCl=  0 I1Cent=   200000004 NGrid=           0
         NMat0=    1 NMatS0=      1 NMatT0=    0 NMatD0=    1 NMtDS0=    0 NMtDT0=    0
 Petite list used in FoFCou.
 Harris En= -2298.50197195325    
 JPrj=0 DoOrth=F DoCkMO=F.
 Leave Link  401 at Wed Jun  5 17:00:40 2019, MaxMem=  6442450944 cpu:             244.3 elap:               8.3
 (Enter /home/ekwan/sw/g16/l502.exe)
 Integral symmetry usage will be decided dynamically.
 Closed shell SCF:
 Using DIIS extrapolation, IDIIS=  1040.
 NGot=  6442450944 LenX=  6441838015 LenY=  6441542623
 Requested convergence on RMS density matrix=1.00D-08 within 128 cycles.
 Requested convergence on MAX density matrix=1.00D-06.
 Requested convergence on             energy=1.00D-06.
 No special actions if energy rises.
 Fock matrices will be formed incrementally for  20 cycles.

 Cycle   1  Pass 1  IDiag  1:
 FoFJK:  IHMeth= 1 ICntrl=     500 DoSepK=F KAlg= 0 I1Cent=           0 FoldK=F
 IRaf= 700000000 NMat=       1 IRICut=       1 DoRegI=T DoRafI=F ISym2E= 0 IDoP0=0 IntGTp=1.
 FoFCou: FMM=F IPFlag=           0 FMFlag=      100000 FMFlg1=           0
         NFxFlg=           0 DoJE=T BraDBF=F KetDBF=F FulRan=T
         wScrn=  0.000000 ICntrl=       500 IOpCl=  0 I1Cent=           0 NGrid=           0
         NMat0=    1 NMatS0=      1 NMatT0=    0 NMatD0=    1 NMtDS0=    0 NMtDT0=    0
 Symmetry not used in FoFCou.
 Inv3:  Mode=1 IEnd=    46689075.
 Iteration    1 A*A^-1 deviation from unit magnitude is 5.11D-15 for   3944.
 Iteration    1 A*A^-1 deviation from orthogonality  is 3.23D-15 for   3944   3916.
 Iteration    1 A^-1*A deviation from unit magnitude is 5.11D-15 for   3944.
 Iteration    1 A^-1*A deviation from orthogonality  is 3.22D-15 for   3932   2696.
 E= -2297.57243949312    
 DIIS: error= 2.08D-02 at cycle   1 NSaved=   1.
 NSaved= 1 IEnMin= 1 EnMin= -2297.57243949312     IErMin= 1 ErrMin= 2.08D-02
 ErrMax= 2.08D-02  0.00D+00 EMaxC= 1.00D-01 BMatC= 7.54D-01 BMatP= 7.54D-01
 IDIUse=3 WtCom= 7.92D-01 WtEn= 2.08D-01
 Coeff-Com:  0.100D+01
 Coeff-En:   0.100D+01
 Coeff:      0.100D+01
 Gap=     0.081 Goal=   None    Shift=    0.000
 GapD=    0.081 DampG=0.500 DampE=0.500 DampFc=0.2500 IDamp=-1.
 Damping current iteration by 2.50D-01
 RMSDP=4.84D-03 MaxDP=7.19D-01              OVMax= 2.46D-01

 Cycle   2  Pass 1  IDiag  1:
 RMSU=  1.21D-03    CP:  1.00D+00
 E= -2297.78827554283     Delta-E=       -0.215836049705 Rises=F Damp=T
 DIIS: error= 7.18D-03 at cycle   2 NSaved=   2.
 NSaved= 2 IEnMin= 2 EnMin= -2297.78827554283     IErMin= 2 ErrMin= 7.18D-03
 ErrMax= 7.18D-03  0.00D+00 EMaxC= 1.00D-01 BMatC= 9.04D-02 BMatP= 7.54D-01
 IDIUse=3 WtCom= 9.28D-01 WtEn= 7.18D-02
 Coeff-Com: -0.311D+00 0.131D+01
 Coeff-En:   0.327D-01 0.967D+00
 Coeff:     -0.286D+00 0.129D+01
 Gap=     0.125 Goal=   None    Shift=    0.000
 RMSDP=1.19D-03 MaxDP=5.49D-02 DE=-2.16D-01 OVMax= 2.13D-01

 Cycle   3  Pass 1  IDiag  1:
 RMSU=  1.19D-03    CP:  1.00D+00  1.08D+00
 E= -2298.08673686503     Delta-E=       -0.298461322200 Rises=F Damp=F
 DIIS: error= 1.39D-02 at cycle   3 NSaved=   3.
 NSaved= 3 IEnMin= 3 EnMin= -2298.08673686503     IErMin= 2 ErrMin= 7.18D-03
 ErrMax= 1.39D-02  0.00D+00 EMaxC= 1.00D-01 BMatC= 1.49D-01 BMatP= 9.04D-02
 IDIUse=2 WtCom= 0.00D+00 WtEn= 1.00D+00
 Coeff-En:   0.000D+00 0.000D+00 0.100D+01
 Coeff:      0.000D+00 0.000D+00 0.100D+01
 Gap=     0.082 Goal=   None    Shift=    0.000
 RMSDP=3.12D-03 MaxDP=2.80D-01 DE=-2.98D-01 OVMax= 3.02D-01

 Cycle   4  Pass 1  IDiag  1:
 RMSU=  1.31D-03    CP:  1.01D+00  2.31D+00 -1.02D+00
 E= -2297.05589671388     Delta-E=        1.030840151149 Rises=F Damp=F
 DIIS: error= 3.97D-02 at cycle   4 NSaved=   4.
 NSaved= 4 IEnMin= 3 EnMin= -2298.08673686503     IErMin= 2 ErrMin= 7.18D-03
 ErrMax= 3.97D-02  0.00D+00 EMaxC= 1.00D-01 BMatC= 1.41D+00 BMatP= 9.04D-02
 IDIUse=2 WtCom= 0.00D+00 WtEn= 1.00D+00
 Coeff-En:   0.000D+00 0.000D+00 0.839D+00 0.161D+00
 Coeff:      0.000D+00 0.000D+00 0.839D+00 0.161D+00
 Gap=     0.135 Goal=   None    Shift=    0.000
 RMSDP=1.84D-03 MaxDP=1.74D-01 DE= 1.03D+00 OVMax= 2.11D-01

 Cycle   5  Pass 1  IDiag  1:
 RMSU=  3.77D-04    CP:  1.01D+00  1.44D+00  2.62D-03  3.88D-01
 E= -2298.11198037068     Delta-E=       -1.056083656800 Rises=F Damp=F
 DIIS: error= 1.17D-02 at cycle   5 NSaved=   5.
 NSaved= 5 IEnMin= 5 EnMin= -2298.11198037068     IErMin= 2 ErrMin= 7.18D-03
 ErrMax= 1.17D-02  0.00D+00 EMaxC= 1.00D-01 BMatC= 1.26D-01 BMatP= 9.04D-02
 IDIUse=2 WtCom= 0.00D+00 WtEn= 1.00D+00
 Coeff-En:   0.000D+00 0.000D+00 0.462D+00 0.000D+00 0.538D+00
 Coeff:      0.000D+00 0.000D+00 0.462D+00 0.000D+00 0.538D+00
 Gap=     0.101 Goal=   None    Shift=    0.000
 RMSDP=7.38D-04 MaxDP=5.99D-02 DE=-1.06D+00 OVMax= 6.84D-02

 Cycle   6  Pass 1  IDiag  1:
 RMSU=  1.22D-04    CP:  1.00D+00  1.23D+00  4.94D-01  1.47D-01  5.79D-01
 E= -2298.21606301019     Delta-E=       -0.104082639516 Rises=F Damp=F
 DIIS: error= 1.96D-03 at cycle   6 NSaved=   6.
 NSaved= 6 IEnMin= 6 EnMin= -2298.21606301019     IErMin= 6 ErrMin= 1.96D-03
 ErrMax= 1.96D-03  0.00D+00 EMaxC= 1.00D-01 BMatC= 3.24D-03 BMatP= 9.04D-02
 IDIUse=3 WtCom= 9.80D-01 WtEn= 1.96D-02
 Coeff-Com: -0.234D-01 0.491D-01 0.247D+00-0.429D-01 0.420D+00 0.350D+00
 Coeff-En:   0.000D+00 0.000D+00 0.000D+00 0.000D+00 0.000D+00 0.100D+01
 Coeff:     -0.230D-01 0.482D-01 0.243D+00-0.420D-01 0.412D+00 0.362D+00
 Gap=     0.100 Goal=   None    Shift=    0.000
 RMSDP=1.21D-04 MaxDP=1.04D-02 DE=-1.04D-01 OVMax= 1.15D-02

 Cycle   7  Pass 1  IDiag  1:
 RMSU=  5.30D-05    CP:  1.00D+00  1.26D+00  4.58D-01  1.81D-01  6.64D-01
                    CP:  3.71D-01
 E= -2298.21827663566     Delta-E=       -0.002213625468 Rises=F Damp=F
 DIIS: error= 5.79D-04 at cycle   7 NSaved=   7.
 NSaved= 7 IEnMin= 7 EnMin= -2298.21827663566     IErMin= 7 ErrMin= 5.79D-04
 ErrMax= 5.79D-04  0.00D+00 EMaxC= 1.00D-01 BMatC= 4.04D-04 BMatP= 3.24D-03
 IDIUse=3 WtCom= 9.94D-01 WtEn= 5.79D-03
 Coeff-Com: -0.146D-01 0.268D-01 0.114D+00-0.292D-01 0.219D+00 0.248D+00
 Coeff-Com:  0.436D+00
 Coeff-En:   0.000D+00 0.000D+00 0.000D+00 0.000D+00 0.000D+00 0.137D+00
 Coeff-En:   0.863D+00
 Coeff:     -0.145D-01 0.267D-01 0.114D+00-0.291D-01 0.218D+00 0.248D+00
 Coeff:      0.438D+00
 Gap=     0.100 Goal=   None    Shift=    0.000
 RMSDP=3.67D-05 MaxDP=2.23D-03 DE=-2.21D-03 OVMax= 5.81D-03

 Cycle   8  Pass 1  IDiag  1:
 RMSU=  1.62D-05    CP:  1.00D+00  1.26D+00  4.64D-01  1.76D-01  6.67D-01
                    CP:  4.46D-01  4.49D-01
 E= -2298.21860192139     Delta-E=       -0.000325285728 Rises=F Damp=F
 DIIS: error= 1.18D-04 at cycle   8 NSaved=   8.
 NSaved= 8 IEnMin= 8 EnMin= -2298.21860192139     IErMin= 8 ErrMin= 1.18D-04
 ErrMax= 1.18D-04  0.00D+00 EMaxC= 1.00D-01 BMatC= 2.01D-05 BMatP= 4.04D-04
 IDIUse=3 WtCom= 9.99D-01 WtEn= 1.18D-03
 Coeff-Com: -0.295D-02 0.516D-02 0.302D-01-0.797D-02 0.551D-01 0.938D-01
 Coeff-Com:  0.217D+00 0.609D+00
 Coeff-En:   0.000D+00 0.000D+00 0.000D+00 0.000D+00 0.000D+00 0.000D+00
 Coeff-En:   0.000D+00 0.100D+01
 Coeff:     -0.295D-02 0.515D-02 0.301D-01-0.796D-02 0.551D-01 0.937D-01
 Coeff:      0.217D+00 0.610D+00
 Gap=     0.101 Goal=   None    Shift=    0.000
 RMSDP=1.11D-05 MaxDP=5.68D-04 DE=-3.25D-04 OVMax= 1.73D-03

 Cycle   9  Pass 1  IDiag  1:
 RMSU=  6.81D-06    CP:  1.00D+00  1.25D+00  4.65D-01  1.74D-01  6.62D-01
                    CP:  4.46D-01  5.16D-01  5.82D-01
 E= -2298.21861487120     Delta-E=       -0.000012949810 Rises=F Damp=F
 DIIS: error= 7.19D-05 at cycle   9 NSaved=   9.
 NSaved= 9 IEnMin= 9 EnMin= -2298.21861487120     IErMin= 9 ErrMin= 7.19D-05
 ErrMax= 7.19D-05  0.00D+00 EMaxC= 1.00D-01 BMatC= 5.54D-06 BMatP= 2.01D-05
 IDIUse=1 WtCom= 1.00D+00 WtEn= 0.00D+00
 Coeff-Com:  0.165D-03-0.544D-03 0.674D-02-0.161D-02 0.999D-02 0.378D-01
 Coeff-Com:  0.951D-01 0.421D+00 0.431D+00
 Coeff:      0.165D-03-0.544D-03 0.674D-02-0.161D-02 0.999D-02 0.378D-01
 Coeff:      0.951D-01 0.421D+00 0.431D+00
 Gap=     0.101 Goal=   None    Shift=    0.000
 RMSDP=4.91D-06 MaxDP=2.61D-04 DE=-1.29D-05 OVMax= 6.28D-04

 Cycle  10  Pass 1  IDiag  1:
 RMSU=  1.93D-06    CP:  1.00D+00  1.25D+00  4.67D-01  1.74D-01  6.61D-01
                    CP:  4.52D-01  5.09D-01  6.60D-01  4.20D-01
 E= -2298.21861962758     Delta-E=       -0.000004756377 Rises=F Damp=F
 DIIS: error= 1.60D-05 at cycle  10 NSaved=  10.
 NSaved=10 IEnMin=10 EnMin= -2298.21861962758     IErMin=10 ErrMin= 1.60D-05
 ErrMax= 1.60D-05  0.00D+00 EMaxC= 1.00D-01 BMatC= 3.80D-07 BMatP= 5.54D-06
 IDIUse=1 WtCom= 1.00D+00 WtEn= 0.00D+00
 Coeff-Com:  0.261D-03-0.456D-03 0.224D-02-0.443D-03 0.218D-02 0.167D-01
 Coeff-Com:  0.434D-01 0.224D+00 0.275D+00 0.437D+00
 Coeff:      0.261D-03-0.456D-03 0.224D-02-0.443D-03 0.218D-02 0.167D-01
 Coeff:      0.434D-01 0.224D+00 0.275D+00 0.437D+00
 Gap=     0.101 Goal=   None    Shift=    0.000
 RMSDP=1.48D-06 MaxDP=1.04D-04 DE=-4.76D-06 OVMax= 1.52D-04

 Cycle  11  Pass 1  IDiag  1:
 RMSU=  7.64D-07    CP:  1.00D+00  1.25D+00  4.67D-01  1.74D-01  6.61D-01
                    CP:  4.52D-01  5.08D-01  6.67D-01  4.81D-01  3.90D-01
 E= -2298.21861996019     Delta-E=       -0.000000332610 Rises=F Damp=F
 DIIS: error= 5.70D-06 at cycle  11 NSaved=  11.
 NSaved=11 IEnMin=11 EnMin= -2298.21861996019     IErMin=11 ErrMin= 5.70D-06
 ErrMax= 5.70D-06  0.00D+00 EMaxC= 1.00D-01 BMatC= 4.36D-08 BMatP= 3.80D-07
 IDIUse=1 WtCom= 1.00D+00 WtEn= 0.00D+00
 Coeff-Com:  0.142D-03-0.217D-03 0.749D-03-0.141D-03 0.436D-03 0.637D-02
 Coeff-Com:  0.164D-01 0.940D-01 0.124D+00 0.295D+00 0.463D+00
 Coeff:      0.142D-03-0.217D-03 0.749D-03-0.141D-03 0.436D-03 0.637D-02
 Coeff:      0.164D-01 0.940D-01 0.124D+00 0.295D+00 0.463D+00
 Gap=     0.101 Goal=   None    Shift=    0.000
 RMSDP=4.38D-07 MaxDP=2.80D-05 DE=-3.33D-07 OVMax= 5.00D-05

 Cycle  12  Pass 1  IDiag  1:
 RMSU=  2.04D-07    CP:  1.00D+00  1.25D+00  4.67D-01  1.74D-01  6.61D-01
                    CP:  4.52D-01  5.08D-01  6.71D-01  4.74D-01  4.53D-01
                    CP:  5.44D-01
 E= -2298.21861998922     Delta-E=       -0.000000029030 Rises=F Damp=F
 DIIS: error= 1.73D-06 at cycle  12 NSaved=  12.
 NSaved=12 IEnMin=12 EnMin= -2298.21861998922     IErMin=12 ErrMin= 1.73D-06
 ErrMax= 1.73D-06  0.00D+00 EMaxC= 1.00D-01 BMatC= 3.57D-09 BMatP= 4.36D-08
 IDIUse=1 WtCom= 1.00D+00 WtEn= 0.00D+00
 Coeff-Com:  0.804D-04-0.118D-03 0.177D-03-0.219D-04-0.104D-03 0.225D-02
 Coeff-Com:  0.575D-02 0.375D-01 0.512D-01 0.147D+00 0.284D+00 0.472D+00
 Coeff:      0.804D-04-0.118D-03 0.177D-03-0.219D-04-0.104D-03 0.225D-02
 Coeff:      0.575D-02 0.375D-01 0.512D-01 0.147D+00 0.284D+00 0.472D+00
 Gap=     0.101 Goal=   None    Shift=    0.000
 RMSDP=1.36D-07 MaxDP=1.08D-05 DE=-2.90D-08 OVMax= 1.24D-05

 Cycle  13  Pass 1  IDiag  1:
 RMSU=  7.51D-08    CP:  1.00D+00  1.25D+00  4.67D-01  1.74D-01  6.61D-01
                    CP:  4.52D-01  5.09D-01  6.70D-01  4.74D-01  4.70D-01
                    CP:  5.74D-01  5.06D-01
 E= -2298.21861998374     Delta-E=        0.000000005482 Rises=F Damp=F
 DIIS: error= 4.87D-07 at cycle  13 NSaved=  13.
 NSaved=13 IEnMin=12 EnMin= -2298.21861998922     IErMin=13 ErrMin= 4.87D-07
 ErrMax= 4.87D-07  0.00D+00 EMaxC= 1.00D-01 BMatC= 3.30D-10 BMatP= 3.57D-09
 IDIUse=1 WtCom= 1.00D+00 WtEn= 0.00D+00
 Coeff-Com:  0.288D-04-0.405D-04 0.287D-04 0.109D-05-0.785D-04 0.575D-03
 Coeff-Com:  0.130D-02 0.998D-02 0.138D-01 0.497D-01 0.106D+00 0.282D+00
 Coeff-Com:  0.537D+00
 Coeff:      0.288D-04-0.405D-04 0.287D-04 0.109D-05-0.785D-04 0.575D-03
 Coeff:      0.130D-02 0.998D-02 0.138D-01 0.497D-01 0.106D+00 0.282D+00
 Coeff:      0.537D+00
 Gap=     0.101 Goal=   None    Shift=    0.000
 RMSDP=4.06D-08 MaxDP=2.29D-06 DE= 5.48D-09 OVMax= 5.31D-06

 Cycle  14  Pass 1  IDiag  1:
 RMSU=  2.06D-08    CP:  1.00D+00  1.25D+00  4.67D-01  1.74D-01  6.61D-01
                    CP:  4.52D-01  5.08D-01  6.70D-01  4.74D-01  4.73D-01
                    CP:  5.71D-01  5.66D-01  5.97D-01
 E= -2298.21861998396     Delta-E=       -0.000000000222 Rises=F Damp=F
 DIIS: error= 1.58D-07 at cycle  14 NSaved=  14.
 NSaved=14 IEnMin=12 EnMin= -2298.21861998922     IErMin=14 ErrMin= 1.58D-07
 ErrMax= 1.58D-07  0.00D+00 EMaxC= 1.00D-01 BMatC= 2.88D-11 BMatP= 3.30D-10
 IDIUse=1 WtCom= 1.00D+00 WtEn= 0.00D+00
 Coeff-Com:  0.129D-04-0.175D-04 0.104D-04 0.102D-05-0.338D-04 0.219D-03
 Coeff-Com:  0.433D-03 0.373D-02 0.520D-02 0.215D-01 0.477D-01 0.147D+00
 Coeff-Com:  0.332D+00 0.442D+00
 Coeff:      0.129D-04-0.175D-04 0.104D-04 0.102D-05-0.338D-04 0.219D-03
 Coeff:      0.433D-03 0.373D-02 0.520D-02 0.215D-01 0.477D-01 0.147D+00
 Coeff:      0.332D+00 0.442D+00
 Gap=     0.101 Goal=   None    Shift=    0.000
 RMSDP=1.32D-08 MaxDP=1.10D-06 DE=-2.22D-10 OVMax= 2.20D-06

 Cycle  15  Pass 1  IDiag  1:
 RMSU=  7.91D-09    CP:  1.00D+00  1.25D+00  4.67D-01  1.74D-01  6.61D-01
                    CP:  4.52D-01  5.08D-01  6.70D-01  4.74D-01  4.72D-01
                    CP:  5.72D-01  5.74D-01  6.15D-01  5.35D-01
 E= -2298.21861998399     Delta-E=       -0.000000000033 Rises=F Damp=F
 DIIS: error= 7.73D-08 at cycle  15 NSaved=  15.
 NSaved=15 IEnMin=12 EnMin= -2298.21861998922     IErMin=15 ErrMin= 7.73D-08
 ErrMax= 7.73D-08  0.00D+00 EMaxC= 1.00D-01 BMatC= 3.54D-12 BMatP= 2.88D-11
 IDIUse=1 WtCom= 1.00D+00 WtEn= 0.00D+00
 Coeff-Com:  0.365D-05-0.447D-05 0.303D-05 0.351D-07-0.678D-05 0.425D-04
 Coeff-Com:  0.604D-04 0.729D-03 0.104D-02 0.545D-02 0.133D-01 0.475D-01
 Coeff-Com:  0.123D+00 0.276D+00 0.533D+00
 Coeff:      0.365D-05-0.447D-05 0.303D-05 0.351D-07-0.678D-05 0.425D-04
 Coeff:      0.604D-04 0.729D-03 0.104D-02 0.545D-02 0.133D-01 0.475D-01
 Coeff:      0.123D+00 0.276D+00 0.533D+00
 Gap=     0.101 Goal=   None    Shift=    0.000
 RMSDP=4.47D-09 MaxDP=2.89D-07 DE=-3.27D-11 OVMax= 8.03D-07

 Error on total polarization charges =  0.00872
 SCF Done:  E(RB-P86) =  -2298.21861998     A.U. after   15 cycles
            NFock= 15  Conv=0.45D-08     -V/T= 2.0083
 KE= 2.279362560944D+03 PE=-1.406849755629D+04 EE= 5.159623804146D+03
 Leave Link  502 at Wed Jun  5 17:04:21 2019, MaxMem=  6442450944 cpu:            6603.9 elap:             220.4
 (Enter /home/ekwan/sw/g16/l701.exe)
 ... and contract with generalized density number  0.
 Compute integral first derivatives.
 R6Disp: Adding Grimme-D3(BJ) dispersion energy 1st derivatives to the gradient.
 D1PCM: PCM CHGder 1st derivatives, ID1Alg=3 FixD1E=F DoIter=F DoCFld=F I1PDM=0.
 GePol: Maximum number of non-zero 1st derivatives   =     213
 Leave Link  701 at Wed Jun  5 17:04:31 2019, MaxMem=  6442450944 cpu:             297.1 elap:              10.0
 (Enter /home/ekwan/sw/g16/l702.exe)
 L702 exits ... SP integral derivatives will be done elsewhere.
 Leave Link  702 at Wed Jun  5 17:04:31 2019, MaxMem=  6442450944 cpu:               2.3 elap:               0.1
 (Enter /home/ekwan/sw/g16/l703.exe)
 Integral derivatives from FoFJK, PRISM(SPDF).
 Compute integral first derivatives, UseDBF=F ICtDFT=           0.
 Calling FoFJK, ICntrl=      2527 FMM=F ISym2X=0 I1Cent= 0 IOpClX= 0 NMat=1 NMatS=1 NMatT=0.
 FoFJK:  IHMeth= 1 ICntrl=    2527 DoSepK=F KAlg= 0 I1Cent=           0 FoldK=F
 IRaf=         0 NMat=       1 IRICut=       1 DoRegI=T DoRafI=F ISym2E= 0 IDoP0=0 IntGTp=1.
 FoFCou: FMM=F IPFlag=           0 FMFlag=      100000 FMFlg1=         800
         NFxFlg=           0 DoJE=F BraDBF=F KetDBF=F FulRan=T
         wScrn=  0.000000 ICntrl=      2527 IOpCl=  0 I1Cent=           0 NGrid=           0
         NMat0=    1 NMatS0=      1 NMatT0=    0 NMatD0=    1 NMtDS0=    0 NMtDT0=    0
 Symmetry not used in FoFCou.
 Leave Link  703 at Wed Jun  5 17:05:05 2019, MaxMem=  6442450944 cpu:            1024.7 elap:              34.0
 (Enter /home/ekwan/sw/g16/l716.exe)
 Dipole        =-2.03555428D-01-7.39371618D-01-9.17513641D-01
 ***** Axes restored to original set *****
 -------------------------------------------------------------------
 Center     Atomic                   Forces (Hartrees/Bohr)
 Number     Number              X              Y              Z
 -------------------------------------------------------------------
      1        6          -0.000010319   -0.000007911   -0.000006984
      2        6          -0.000007805    0.000005232    0.000003941
      3        6           0.000015617    0.000029605   -0.000043869
      4        6           0.000011233    0.000005383    0.000011548
      5        6          -0.000000618   -0.000010778   -0.000004179
      6        1          -0.000001266   -0.000000893    0.000006710
      7        1          -0.000000728   -0.000000294    0.000000636
      8        1           0.000001437    0.000003406    0.000000311
      9        1           0.000004323    0.000000333   -0.000000866
     10        1           0.000001698    0.000002203    0.000002899
     11        8          -0.000002150   -0.000009125   -0.000003699
     12        8          -0.000017355   -0.000021902    0.000031829
     13        8           0.000001781    0.000001949    0.000004076
     14        8           0.000005140    0.000009451   -0.000001861
     15        8          -0.000013214    0.000002106    0.000003047
     16        6          -0.000007324    0.000000408   -0.000000057
     17        1          -0.000003515    0.000000336   -0.000003661
     18        1           0.000003518   -0.000002424    0.000003705
     19        8           0.000006067    0.000004100    0.000005184
     20       16           0.000015350    0.000020474   -0.000002171
     21        8           0.000001534   -0.000009547    0.000004953
     22        8          -0.000002063   -0.000007497   -0.000004689
     23        6          -0.000015893   -0.000002453   -0.000003846
     24        6           0.000007697   -0.000002358   -0.000002715
     25        6           0.000006637    0.000003763    0.000003693
     26        6          -0.000002299   -0.000002846    0.000001586
     27        1          -0.000002135   -0.000000306    0.000001491
     28        6          -0.000002114   -0.000002709   -0.000001295
     29        1           0.000001142   -0.000005161   -0.000000040
     30        6           0.000005565   -0.000000499   -0.000006283
     31        1          -0.000002377   -0.000001573   -0.000000461
     32        6           0.000004300   -0.000000356   -0.000006528
     33        1           0.000002495    0.000001346   -0.000000319
     34        1           0.000001659    0.000002846    0.000002354
     35        1          -0.000000580    0.000000953    0.000001178
     36        6           0.000004433   -0.000003962    0.000003933
     37        1          -0.000000959    0.000003262    0.000000184
     38        1          -0.000000800    0.000001990   -0.000000639
     39        1          -0.000000420    0.000004092    0.000001269
     40        6           0.000004787    0.000005747    0.000000360
     41        1          -0.000002677   -0.000000110    0.000000637
     42        1          -0.000003295    0.000000891   -0.000000185
     43        1          -0.000002012   -0.000000297    0.000000466
     44        6          -0.000007571    0.000000028   -0.000007110
     45        1          -0.000000828   -0.000000509    0.000000962
     46        1           0.000000597   -0.000001110    0.000001693
     47        1           0.000002103    0.000000128    0.000000440
     48        6           0.000002422   -0.000000479    0.000004215
     49        9          -0.000003404   -0.000002491   -0.000003252
     50        9           0.000001997   -0.000002507   -0.000002263
     51        9          -0.000000276   -0.000002717    0.000000043
     52        6           0.000001036   -0.000003369   -0.000000950
     53        9           0.000000733    0.000000611    0.000004103
     54        9          -0.000002343   -0.000003772   -0.000000535
     55        9           0.000001042   -0.000000689    0.000001012
 -------------------------------------------------------------------
 Cartesian Forces:  Max     0.000043869 RMS     0.000007062
 Leave Link  716 at Wed Jun  5 17:05:05 2019, MaxMem=  6442450944 cpu:               3.8 elap:               0.2
 (Enter /home/ekwan/sw/g16/l103.exe)

 GradGradGradGradGradGradGradGradGradGradGradGradGradGradGradGradGradGrad
 Berny optimization.
 FormGI is forming the generalized inverse of G from B-inverse, IUseBI=4.
 GSVD:  received Info=                   1 from GESDD.
 Internal  Forces:  Max     0.000038811 RMS     0.000003443
 Search for a local minimum.
 Step number   1 out of a maximum of  291
 All quantities printed in internal units (Hartrees-Bohrs-Radians)
 RMS Force = .34426D-05 SwitMx=.10000D-02 MixMth= 2
 Mixed Optimization -- En-DIIS/RFO-DIIS
 Second derivative matrix not updated -- first step.
 ITU=  0
     Eigenvalues ---    0.00345   0.00409   0.00486   0.00548   0.00594
     Eigenvalues ---    0.00615   0.00760   0.01255   0.01263   0.01268
     Eigenvalues ---    0.01279   0.01284   0.01296   0.01307   0.01363
     Eigenvalues ---    0.01429   0.01435   0.01488   0.01510   0.01801
     Eigenvalues ---    0.02043   0.02049   0.02062   0.02071   0.02087
     Eigenvalues ---    0.02094   0.02820   0.03195   0.04360   0.04484
     Eigenvalues ---    0.04575   0.04733   0.04808   0.05154   0.05184
     Eigenvalues ---    0.05674   0.05963   0.06520   0.06949   0.07017
     Eigenvalues ---    0.07162   0.07754   0.09171   0.09933   0.09976
     Eigenvalues ---    0.10002   0.10048   0.10515   0.10533   0.10559
     Eigenvalues ---    0.10566   0.10640   0.10649   0.10666   0.10779
     Eigenvalues ---    0.10896   0.10980   0.11476   0.11819   0.11964
     Eigenvalues ---    0.14123   0.14788   0.16000   0.16000   0.16000
     Eigenvalues ---    0.16000   0.16000   0.16000   0.16000   0.16000
     Eigenvalues ---    0.16000   0.16000   0.16000   0.16000   0.16000
     Eigenvalues ---    0.16000   0.16000   0.16476   0.16603   0.17424
     Eigenvalues ---    0.18620   0.19642   0.19717   0.20562   0.22154
     Eigenvalues ---    0.23472   0.23484   0.23492   0.24943   0.24969
     Eigenvalues ---    0.24979   0.25000   0.25000   0.25000   0.25000
     Eigenvalues ---    0.25000   0.25000   0.25000   0.25000   0.25000
     Eigenvalues ---    0.25000   0.25000   0.25000   0.26346   0.26643
     Eigenvalues ---    0.27979   0.28306   0.28556   0.29254   0.31051
     Eigenvalues ---    0.31212   0.32304   0.32683   0.32700   0.32715
     Eigenvalues ---    0.32773   0.32776   0.32800   0.32812   0.32828
     Eigenvalues ---    0.32917   0.33064   0.33087   0.33207   0.33445
     Eigenvalues ---    0.33462   0.33472   0.33473   0.33605   0.33638
     Eigenvalues ---    0.34501   0.34503   0.34646   0.35689   0.36196
     Eigenvalues ---    0.40557   0.40645   0.40695   0.40811   0.40902
     Eigenvalues ---    0.41006   0.41121   0.41437   0.41557   0.41736
     Eigenvalues ---    0.42547   0.44031   0.45033   0.45287   0.45473
     Eigenvalues ---    0.45681   0.50938   0.52307   0.52763   0.52822
     Eigenvalues ---    0.52931   0.53436   0.84286   0.86668
 RFO step:  Lambda=-2.45501971D-08 EMin= 3.44693563D-03
 Linear search not attempted -- first point.
 Iteration  1 RMS(Cart)=  0.00022486 RMS(Int)=  0.00000002
 Iteration  2 RMS(Cart)=  0.00000003 RMS(Int)=  0.00000000
 ITry= 1 IFail=0 DXMaxC= 1.19D-03 DCOld= 1.00D+10 DXMaxT= 3.00D-01 DXLimC= 3.00D+00 Rises=F
 Variable       Old X    -DE/DX   Delta X   Delta X   Delta X     New X
                                 (Linear)    (Quad)   (Total)
    R1        2.90577   0.00000   0.00000  -0.00001  -0.00001   2.90576
    R2        2.89987   0.00000   0.00000  -0.00002  -0.00002   2.89986
    R3        2.09554   0.00000   0.00000   0.00000   0.00000   2.09554
    R4        2.70058   0.00001   0.00000   0.00002   0.00002   2.70060
    R5        2.91981   0.00000   0.00000   0.00000   0.00000   2.91981
    R6        2.10291   0.00000   0.00000   0.00000   0.00000   2.10291
    R7        2.68232   0.00000   0.00000   0.00001   0.00001   2.68233
    R8        2.07946   0.00000   0.00000  -0.00001  -0.00001   2.07945
    R9        2.64321  -0.00001   0.00000  -0.00002  -0.00002   2.64319
   R10        2.77871   0.00004   0.00000   0.00011   0.00011   2.77882
   R11        2.90293  -0.00001   0.00000  -0.00005  -0.00005   2.90289
   R12        2.09452   0.00000   0.00000  -0.00001  -0.00001   2.09451
   R13        2.75214   0.00001   0.00000   0.00001   0.00001   2.75215
   R14        2.89477   0.00000   0.00000   0.00001   0.00001   2.89477
   R15        2.09198   0.00000   0.00000   0.00000   0.00000   2.09198
   R16        2.70209   0.00000   0.00000   0.00001   0.00001   2.70210
   R17        3.14045  -0.00001   0.00000  -0.00001  -0.00001   3.14044
   R18        2.70466   0.00000   0.00000   0.00001   0.00001   2.70467
   R19        2.70619   0.00001   0.00000   0.00001   0.00001   2.70620
   R20        2.70686   0.00000   0.00000   0.00001   0.00001   2.70687
   R21        2.08277   0.00000   0.00000  -0.00001  -0.00001   2.08276
   R22        2.09446   0.00000   0.00000  -0.00001  -0.00001   2.09445
   R23        2.69260   0.00000   0.00000   0.00001   0.00001   2.69261
   R24        2.70803   0.00001   0.00000   0.00001   0.00001   2.70804
   R25        2.78208   0.00001   0.00000   0.00001   0.00001   2.78209
   R26        2.79384   0.00001   0.00000   0.00001   0.00001   2.79384
   R27        3.39603   0.00000   0.00000   0.00001   0.00001   3.39604
   R28        2.64393   0.00000   0.00000  -0.00001  -0.00001   2.64392
   R29        2.64467  -0.00001   0.00000  -0.00001  -0.00001   2.64466
   R30        2.65259   0.00000   0.00000   0.00000   0.00000   2.65259
   R31        2.06493   0.00000   0.00000   0.00000   0.00000   2.06493
   R32        2.64707   0.00000   0.00000   0.00000   0.00000   2.64707
   R33        2.06253   0.00000   0.00000   0.00000   0.00000   2.06253
   R34        2.64946   0.00000   0.00000   0.00000   0.00000   2.64946
   R35        2.85916   0.00000   0.00000   0.00000   0.00000   2.85916
   R36        2.65416   0.00000   0.00000  -0.00001  -0.00001   2.65415
   R37        2.85610   0.00000   0.00000  -0.00001  -0.00001   2.85609
   R38        2.06489   0.00000   0.00000   0.00001   0.00001   2.06489
   R39        2.09354   0.00000   0.00000   0.00000   0.00000   2.09354
   R40        2.09582   0.00000   0.00000   0.00000   0.00000   2.09581
   R41        2.08002   0.00000   0.00000   0.00000   0.00000   2.08002
   R42        2.08230   0.00000   0.00000   0.00000   0.00000   2.08230
   R43        2.09611   0.00000   0.00000   0.00000   0.00000   2.09611
   R44        2.08690   0.00000   0.00000  -0.00001  -0.00001   2.08689
   R45        2.08248   0.00000   0.00000   0.00000   0.00000   2.08248
   R46        2.08899   0.00000   0.00000   0.00000   0.00000   2.08898
   R47        2.09383   0.00000   0.00000   0.00000   0.00000   2.09383
   R48        2.08229   0.00000   0.00000   0.00000   0.00000   2.08229
   R49        2.09404   0.00000   0.00000   0.00000   0.00000   2.09404
   R50        2.08939   0.00000   0.00000   0.00001   0.00001   2.08940
   R51        2.57120   0.00000   0.00000  -0.00001  -0.00001   2.57119
   R52        2.57606   0.00000   0.00000   0.00000   0.00000   2.57606
   R53        2.57176   0.00000   0.00000   0.00000   0.00000   2.57176
   R54        2.58931   0.00000   0.00000   0.00000   0.00000   2.58931
   R55        2.57018   0.00000   0.00000   0.00000   0.00000   2.57019
   R56        2.56548   0.00000   0.00000   0.00000   0.00000   2.56548
    A1        1.93183   0.00000   0.00000   0.00000   0.00000   1.93183
    A2        1.90194   0.00000   0.00000   0.00002   0.00002   1.90196
    A3        1.93706   0.00000   0.00000   0.00001   0.00001   1.93707
    A4        1.89527   0.00000   0.00000  -0.00001  -0.00001   1.89526
    A5        1.86996   0.00000   0.00000  -0.00001  -0.00001   1.86995
    A6        1.92736   0.00000   0.00000  -0.00002  -0.00002   1.92734
    A7        1.93802   0.00000   0.00000   0.00004   0.00004   1.93806
    A8        1.88986   0.00000   0.00000  -0.00001  -0.00001   1.88985
    A9        1.89073   0.00000   0.00000  -0.00001  -0.00001   1.89072
   A10        1.84849   0.00000   0.00000  -0.00001  -0.00001   1.84848
   A11        1.96652   0.00000   0.00000   0.00000   0.00000   1.96652
   A12        1.92898   0.00000   0.00000  -0.00001  -0.00001   1.92897
   A13        1.96201   0.00000   0.00000   0.00002   0.00002   1.96204
   A14        1.97297   0.00000   0.00000   0.00003   0.00003   1.97300
   A15        1.83788   0.00000   0.00000  -0.00001  -0.00001   1.83787
   A16        1.84803   0.00000   0.00000   0.00002   0.00002   1.84805
   A17        1.89057   0.00000   0.00000  -0.00007  -0.00007   1.89050
   A18        1.95297   0.00000   0.00000  -0.00001  -0.00001   1.95297
   A19        1.90476   0.00000   0.00000  -0.00004  -0.00004   1.90472
   A20        1.93189   0.00000   0.00000   0.00001   0.00001   1.93190
   A21        1.95948   0.00000   0.00000   0.00002   0.00002   1.95950
   A22        1.89601   0.00000   0.00000   0.00001   0.00001   1.89602
   A23        1.88295   0.00000   0.00000   0.00002   0.00002   1.88297
   A24        1.88715  -0.00001   0.00000  -0.00002  -0.00002   1.88713
   A25        1.95609   0.00000   0.00000  -0.00002  -0.00002   1.95607
   A26        1.89962   0.00000   0.00000   0.00000   0.00000   1.89962
   A27        1.92078   0.00001   0.00000   0.00004   0.00004   1.92081
   A28        1.89016   0.00000   0.00000   0.00005   0.00005   1.89021
   A29        1.86732  -0.00001   0.00000  -0.00005  -0.00005   1.86727
   A30        1.92979   0.00000   0.00000  -0.00001  -0.00001   1.92977
   A31        1.99448   0.00000   0.00000  -0.00002  -0.00002   1.99446
   A32        2.03193   0.00000   0.00000   0.00000   0.00000   2.03194
   A33        1.98359   0.00000   0.00000   0.00000   0.00000   1.98359
   A34        1.98643   0.00000   0.00000   0.00000   0.00000   1.98643
   A35        1.97319   0.00000   0.00000  -0.00001  -0.00001   1.97318
   A36        1.87184   0.00000   0.00000   0.00004   0.00004   1.87188
   A37        1.90353   0.00000   0.00000  -0.00004  -0.00004   1.90349
   A38        2.00709   0.00000   0.00000   0.00000   0.00000   2.00709
   A39        1.89825   0.00000   0.00000  -0.00001  -0.00001   1.89824
   A40        1.84729   0.00000   0.00000   0.00000   0.00000   1.84729
   A41        1.93168   0.00000   0.00000   0.00001   0.00001   1.93169
   A42        1.98172  -0.00001   0.00000  -0.00002  -0.00002   1.98170
   A43        1.81419   0.00000   0.00000   0.00001   0.00001   1.81420
   A44        1.90410   0.00000   0.00000   0.00003   0.00003   1.90413
   A45        1.78878   0.00000   0.00000   0.00001   0.00001   1.78879
   A46        2.13014  -0.00001   0.00000  -0.00004  -0.00004   2.13010
   A47        1.90130   0.00000   0.00000   0.00001   0.00001   1.90131
   A48        1.89457   0.00000   0.00000  -0.00002  -0.00002   1.89456
   A49        2.07176   0.00000   0.00000   0.00000   0.00000   2.07176
   A50        2.07402   0.00000   0.00000  -0.00001  -0.00001   2.07401
   A51        2.13626   0.00000   0.00000   0.00001   0.00001   2.13627
   A52        2.06526   0.00000   0.00000  -0.00001  -0.00001   2.06526
   A53        2.10566   0.00000   0.00000   0.00002   0.00002   2.10568
   A54        2.11226   0.00000   0.00000  -0.00002  -0.00002   2.11225
   A55        2.06409   0.00000   0.00000   0.00000   0.00000   2.06408
   A56        2.10274   0.00000   0.00000  -0.00001  -0.00001   2.10272
   A57        2.11635   0.00000   0.00000   0.00002   0.00002   2.11637
   A58        2.10394   0.00000   0.00000   0.00000   0.00000   2.10394
   A59        2.08699   0.00000   0.00000  -0.00001  -0.00001   2.08698
   A60        2.09151   0.00000   0.00000   0.00001   0.00001   2.09152
   A61        2.10634   0.00000   0.00000   0.00000   0.00000   2.10634
   A62        2.09584   0.00000   0.00000   0.00001   0.00001   2.09585
   A63        2.07910   0.00000   0.00000  -0.00002  -0.00002   2.07908
   A64        2.09047   0.00000   0.00000   0.00000   0.00000   2.09047
   A65        2.09529   0.00000   0.00000   0.00000   0.00000   2.09530
   A66        2.09740   0.00000   0.00000   0.00000   0.00000   2.09740
[...]
 32,-0.00000917,0.00000648,0.00000382,-0.00000391,-0.00000970,0.0000055
 1,-0.00001067,-0.00000434,0.00003288,-0.00002625,0.00005113,-0.0000106
 2,0.00001075,-0.00021768,0.00031030,-0.00005934,0.00014640,0.00025301,
 -0.00016249,-0.00009205,0.00010147,-0.00000140,-0.00016716,0.00002789,
 -0.00007600,-0.00011961,-0.00007380,-0.00006475,0.00141887,0.00108855,
 -0.00006053,-0.00017752,-0.00005633,-0.00013009,-0.00112876,-0.0007044
 1,-0.00023699,-0.00064346,-0.00067740,-0.00033195,-0.00013140,-0.00028
 919,0.00014233,0.00003767,0.00003364,-0.00003153,0.00002788,0.00008127
 ,0.00000217,0.00031983,-0.00055597,0.00030190,0.00008631,-0.00015954,-
 0.00035570,-0.00016600,-0.00026490,0.00093416,-0.00050202,-0.00017063,
 -0.00015002,0.00003759,0.00001720,0.00001812,0.00991196,0.00101155,-0.
 00280873,-0.00000938,0.00009001,-0.00004939,-0.00000891,0.00110681,-0.
 00025650,0.00002940,-0.00007851,-0.00035611,0.00000951,-0.00004030,-0.
 00004218,0.00000605,0.00000082,0.00001004,0.00000345,0.00000297,0.0000
 0748,-0.00000970,0.00001023,0.00000085,0.00003812,-0.00003085,0.000076
 84,-0.00001692,-0.00000003,-0.00000945,0.00000176,0.00000390,-0.000014
 79,-0.00000653,0.00001334,-0.00000867,0.00006966,0.00009664,0.00000717
 ,-0.00000584,-0.00001928,-0.00001699,-0.00002555,-0.00001135,0.0000038
 0,0.00001218,0.00001911,0.00000487,0.00124032,0.00061117,0.00093032,-0
 .00028997,-0.00015148,0.00000019,-0.00188343,-0.00005785,-0.00020633,-
 0.00032981,-0.00008533,-0.00001006,-0.00028384,-0.00000400,0.00020858,
 0.00005775,-0.00000542,-0.00007631,0.00008884,0.00003076,-0.00006599,0
 .00005800,-0.00002847,-0.00002829,-0.07813941,-0.03703823,0.01732136,0
 .10985928,-0.00000562,-0.00019702,-0.00001655,-0.00010729,-0.00001949,
 -0.00007678,-0.00011919,-0.00056166,0.00070670,-0.00017664,-0.00090605
 ,-0.00002303,-0.00002510,0.00019123,-0.00003491,-0.00004715,0.00004257
 ,-0.00003654,0.00006469,0.00002158,-0.00000897,-0.00001728,0.00001068,
 -0.00002737,-0.00006589,0.00003608,-0.00012569,0.00009608,0.00000772,0
 .00001177,0.00011250,0.00069930,-0.00015915,0.00108822,0.00046180,-0.0
 0039907,0.00004456,0.00005857,-0.00001666,-0.00004209,0.00009210,-0.00
 003267,-0.00006711,0.00011306,-0.00001156,0.00124087,0.00092790,0.0003
 0283,-0.00012937,-0.00002765,-0.00012497,-0.00004310,-0.00098809,0.000
 65608,-0.00055880,-0.00028445,-0.00061391,-0.00237109,0.00120911,0.000
 05527,0.00057509,-0.00055881,0.00034986,0.00060519,-0.00044034,-0.0001
 9730,0.00124734,0.00052917,0.00029140,-0.00016091,-0.00006004,0.000674
 86,-0.00136957,0.00063630,0.00181225,0.00153349,0.00081646,0.00143322,
 -0.00017004,-0.00011036,0.00002316,-0.00761201,-0.02254717,0.01995678,
 -0.00089464,-0.00038684,-0.00021289,0.00154390,-0.00244115,-0.00125929
 ,-0.00101637,-0.00045981,0.00028175,-0.00004799,-0.00001087,0.00001791
 ,-0.00000220,0.00001736,0.00001066,0.00000766,0.00000749,-0.00001225,0
 .00000533,0.00000185,0.00000299,-0.00000131,-0.00001160,0.00003658,-0.
 00000116,0.00000378,-0.00000422,0.00000245,-0.00000286,-0.00000583,-0.
 00001247,0.00000745,-0.00000609,0.00003576,-0.00001725,0.00005713,0.00
 000176,-0.00000236,-0.00000889,-0.00001614,-0.00000077,-0.00000547,0.0
 0001639,0.00003473,-0.00001933,0.00136151,0.00107338,0.00104440,-0.000
 26215,-0.00013693,-0.00000693,0.00036786,-0.00047428,-0.00069495,-0.00
 050983,-0.00013109,-0.00001347,0.00095032,-0.00116127,-0.00149354,0.00
 006895,0.00029303,0.00074367,-0.00042024,0.00005371,0.00049900,-0.0002
 8149,0.00058841,0.00026177,-0.04078637,-0.17989194,0.05466520,0.090537
 84,0.27476955,0.00006912,0.00004747,0.00003823,0.00016870,-0.00003166,
 0.00004252,0.00025028,0.00027341,-0.00061015,0.00004989,0.00009724,-0.
 00010374,0.00006050,0.00009573,0.00004683,0.00001234,0.00000427,0.0000
 2877,-0.00007049,-0.00002160,0.00000897,0.00001032,-0.00000385,0.00002
 233,0.00005895,0.00000079,0.00012021,-0.00005320,-0.00002501,0.0000021
 7,-0.00028386,-0.00031653,0.00020289,-0.00112723,-0.00021208,0.0003679
 1,-0.00012394,0.00005218,0.00004793,-0.00012431,-0.00004342,-0.0000328
 7,-0.00005713,-0.00013885,-0.00002156,0.00018855,0.00058938,-0.0004711
 9,-0.00001187,-0.00002845,0.00003662,-0.00089174,-0.00007987,-0.000823
 59,-0.00004541,-0.00014195,0.00079433,0.00231037,-0.00185772,-0.000322
 08,-0.00056689,0.00068049,-0.00034634,-0.00056096,0.00057782,0.0003675
 1,-0.00189611,-0.00044833,-0.00111067,-0.00065017,0.00076611,-0.000406
 77,0.00272155,-0.00065781,-0.00274466,-0.00077228,-0.00078515,0.000227
 96,0.00012688,0.00009736,0.00003095,0.00570836,0.03484585,-0.01199105,
 0.00036818,0.00067404,-0.00010279,-0.00127537,0.00085828,0.00085342,0.
 00048360,0.00044484,-0.00004100,0.00005277,-0.00004145,-0.00007939,0.0
 0001284,-0.00000980,-0.00000534,-0.00001080,-0.00000808,0.00002414,-0.
 00001191,0.00000783,0.00000177,0.00003398,-0.00002005,0.00003192,-0.00
 001487,-0.00000355,-0.00000607,-0.00000155,0.00000610,-0.00000462,0.00
 000335,0.00000711,-0.00000365,0.00003552,0.00010003,-0.00004470,-0.000
 00310,-0.00001296,-0.00000155,-0.00001338,-0.00000782,0.00000747,-0.00
 000259,-0.00001863,0.00001517,-0.00060484,-0.00053998,-0.00068378,0.00
 011632,0.00006062,0.00004970,0.00004493,0.00006838,0.00035605,0.000202
 46,0.00008134,0.00001988,-0.00082071,0.00088404,0.00167569,-0.00004926
 ,-0.00022281,-0.00064393,0.00045369,0.00001149,-0.00055533,0.00026286,
 -0.00046067,-0.00031996,0.01934220,0.05620239,-0.09333061,-0.03187987,
 -0.06837205,0.08767626,0.00013974,0.00001257,0.00008450,0.00023986,-0.
 00007975,0.00005136,0.00033760,-0.00007220,-0.00031907,0.00005026,0.00
 004062,0.00001542,0.00009678,0.00021087,0.00013603,0.00001355,-0.00000
 457,0.00002018,-0.00005604,-0.00001889,-0.00000177,-0.00000099,0.00000
 041,0.00000418,0.00004621,0.00002578,0.00006065,0.00000246,-0.00002196
 ,0.00000290,-0.00044678,-0.00010634,-0.00000176,-0.00085739,-0.0000412
 2,0.00012421,-0.00020595,0.00013669,0.00000944,-0.00025240,-0.00003625
 ,-0.00011139,-0.00013826,-0.00021561,-0.00011195,0.00068980,0.00056087
 ,0.00002734,-0.00007785,-0.00005896,-0.00007347,-0.00002780,-0.0000603
 7,0.00016638,-0.00038512,-0.00038463,-0.00006350,0.00219016,-0.0016602
 4,-0.00019519,-0.00068628,0.00089447,-0.00062364,-0.00053338,0.0006382
 5,0.00027538,-0.00063295,0.00187340,0.00010673,-0.00023774,-0.00016937
 ,-0.00041706,-0.00050861,-0.00171118,-0.00583304,0.00026097,0.00039676
 ,-0.00118308,0.00002376,-0.00016079,-0.00001026,-0.03610044,0.00943156
 ,-0.00435835,0.00031129,-0.00074302,0.00043204,-0.00089552,0.00238189,
 0.00261616,-0.00030320,-0.00156894,-0.00153771,0.00006193,-0.00006761,
 -0.00009138,0.00001477,-0.00001542,0.00000927,-0.00000020,0.00000011,0
 .00002335,-0.00002472,0.00001703,-0.00000185,0.00007334,-0.00004775,0.
 00010686,-0.00002790,-0.00000381,-0.00001256,0.00000106,0.00000893,-0.
 00002292,-0.00000025,0.00001777,-0.00000891,0.00008602,0.00016128,-0.0
 0002694,-0.00000835,-0.00003033,-0.00001934,-0.00003044,-0.00001568,0.
 00001087,0.00000325,0.00000189,0.00001649,0.00063287,0.00038188,0.0003
 5738,-0.00013996,-0.00010192,0.00003065,0.00007717,-0.00000895,-0.0003
 1881,-0.00013487,-0.00003133,-0.00001563,-0.00121512,0.00088684,0.0014
 7738,0.00004420,-0.00020486,-0.00057074,0.00060116,0.00005593,-0.00057
 067,0.00036218,-0.00049664,-0.00027356,-0.23712274,0.02644455,-0.01552
 992,-0.05081377,-0.03313606,0.01566397,0.35462360,-0.00002511,-0.00004
 514,-0.00001982,-0.00006636,0.00000424,-0.00002207,-0.00008413,-0.0001
 0730,0.00019853,-0.00003595,-0.00020254,0.00000226,-0.00002305,0.00000
 008,-0.00003376,-0.00001416,0.00001021,-0.00001155,0.00002242,0.000007
 91,-0.00000261,-0.00000394,0.00000241,-0.00000685,-0.00002748,0.000006
 71,-0.00004343,0.00002509,0.00000571,0.00000280,0.00010191,0.00017704,
 -0.00002925,0.00033566,0.00010508,-0.00008194,0.00004575,-0.00000691,-
 0.00000243,0.00003466,0.00002797,0.00001218,0.00000787,0.00006891,0.00
 001735,0.00015492,0.00004978,0.00007299,-0.00001431,0.00000778,-0.0000
 1587,0.00004211,-0.00016403,0.00019728,-0.00007639,0.00000859,-0.00017
 220,-0.00096636,0.00041906,-0.00000029,0.00029513,-0.00024157,0.000184
 96,0.00022587,-0.00018062,-0.00007492,-0.00043892,-0.00071307,0.000561
 94,0.00029468,-0.00008343,0.00010624,-0.00002213,0.00087933,0.00077779
 ,-0.00033337,-0.00020616,0.00049233,0.00001040,0.00009163,-0.00000909,
 0.01557499,0.00668251,0.00274955,-0.00007432,0.00055104,-0.00031920,0.
 00027775,-0.00100195,-0.00052486,-0.00012230,0.00048198,0.00055314,-0.
 00002252,0.00000596,0.00001733,-0.00000211,0.00000700,0.00000086,0.000
 00148,0.00000166,-0.00000653,0.00000521,-0.00000240,0.00000121,-0.0000
 1232,0.00000492,-0.00001009,0.00000476,0.00000150,0.00000121,0.0000003
 2,-0.00000230,0.00000271,-0.00000305,-0.00000108,0.00000017,-0.0000068
 3,-0.00003598,0.00001983,0.00000229,0.00000528,0.00000167,0.00000120,0
 .00000295,-0.00000349,0.00000357,0.00000854,-0.00000866,0.00028637,0.0
 0019172,0.00023592,-0.00004448,-0.00001690,-0.00000992,0.00014115,-0.0
 0002897,-0.00018126,-0.00010509,-0.00002754,-0.00000181,0.00037803,-0.
 00047862,-0.00053014,-0.00000058,0.00009819,0.00021132,-0.00017232,0.0
 0003224,0.00018869,-0.00012610,0.00022792,0.00009487,0.02667224,-0.069
 51887,0.00147327,-0.04577339,-0.00312583,0.00728818,-0.03242233,0.0736
 3349,0.00005238,0.00004280,0.00002685,0.00012084,-0.00002279,0.0000388
 6,0.00016221,0.00015348,-0.00041127,0.00008005,0.00017870,-0.00003460,
 0.00004089,0.00003437,0.00005164,0.00001029,0.00000475,0.00001906,-0.0
 0004716,-0.00001691,0.00000535,0.00000588,-0.00000223,0.00001360,0.000
 04192,0.00000432,0.00007322,-0.00002940,-0.00001425,-0.00000004,-0.000
 18511,-0.00020076,0.00010223,-0.00069567,-0.00014146,0.00021806,-0.000
 08925,0.00004615,0.00002936,-0.00008305,-0.00003017,-0.00002361,-0.000
 03780,-0.00009217,-0.00002249,-0.00003575,0.00007954,-0.00011250,0.000
 01976,-0.00000832,0.00002056,0.00001021,0.00011174,-0.00013902,-0.0000
 0418,-0.00003775,0.00026148,0.00179098,-0.00104629,-0.00041167,-0.0005
 7075,0.00058021,-0.00033375,-0.00039836,0.00042022,0.00032832,-0.00054
 584,0.00178032,-0.00059562,-0.00065211,0.00044683,-0.00025033,-0.00045
 177,-0.00175741,-0.00390201,-0.00016021,0.00014780,0.00069662,-0.00004
 179,0.00001775,0.00003156,-0.02882410,0.00729327,0.00400062,-0.0003896
 0,-0.00005894,0.00002606,-0.00109135,-0.00029988,-0.00124626,-0.001112
 64,0.00059673,-0.00047115,0.00003578,-0.00003293,-0.00005636,0.0000097
 4,-0.00000618,-0.00000311,-0.00000709,-0.00000526,0.00001650,-0.000008
 83,0.00000587,0.00000105,0.00002583,-0.00001512,0.00002299,-0.00000992
 ,-0.00000266,-0.00000397,-0.00000116,0.00000415,-0.00000374,0.00000217
 ,0.00000539,-0.00000238,0.00002412,0.00006089,-0.00002522,-0.00000155,
 -0.00000833,-0.00000161,-0.00000956,-0.00000460,0.00000458,-0.00000112
 ,-0.00000953,0.00000845,-0.00018875,-0.00016621,-0.00023054,0.00002664
 ,0.00000568,0.00002000,-0.00000737,0.00003140,0.00007928,0.00005179,0.
 00002898,-0.00000149,-0.00047938,0.00050253,0.00126170,-0.00005853,-0.
 00013061,-0.00042157,0.00030565,0.00001518,-0.00038308,0.00016844,-0.0
 0028417,-0.00025024,-0.01006471,0.00055726,-0.07274053,0.02183698,0.00
 734444,0.00866662,-0.01870899,0.00310507,0.07086722,0.00002969,0.00001
 633,0.00002203,0.00005290,-0.00002127,0.00001162,0.00009538,-0.0000004
 4,-0.00004178,0.00001882,0.00007693,0.00004662,0.00002024,0.00003607,0
 .00002506,0.00001272,-0.00001260,0.00000402,-0.00000917,-0.00000241,-0
 .00000166,-0.00000024,-0.00000083,-0.00000030,0.00000926,0.00000447,0.
 00000183,0.00000089,-0.00000277,-0.00000028,-0.00008082,-0.00006415,-0
 .00002439,-0.00017219,-0.00001339,-0.00000438,-0.00004507,0.00002448,-
 0.00000517,-0.00005258,-0.00001390,-0.00002628,-0.00002658,-0.00005409
 ,-0.00002824,0.00006591,0.00006313,0.00000836,-0.00001179,-0.00001303,
 -0.00001337,0.00000482,0.00001576,0.00003650,-0.00004205,-0.00007067,-
 0.00003534,0.00047795,-0.00036507,0.00029102,-0.00008531,0.00012697,-0
 .00013974,-0.00013622,0.00014272,-0.00002543,0.00060775,-0.00055869,-0
 .00004287,0.00000798,-0.00003779,-0.00031534,-0.00201430,0.00039068,-0
 .00112498,0.00019938,-0.00050773,-0.00070376,0.00004948,-0.00004458,-0
 .00007005,0.00958700,-0.00329933,-0.00732562,0.00043751,-0.00064256,-0
 .00151393,-0.00089517,0.00135012,-0.00108597,0.00006797,-0.00015423,-0
 .00040687,0.00001476,-0.00001049,-0.00001326,0.00000219,-0.00000587,0.
 00000340,0.00000203,0.00000119,0.00000357,-0.00000654,0.00000359,-0.00
 000178,0.00001707,-0.00001001,0.00002441,-0.00000596,-0.00000092,-0.00
 000236,0.00000047,0.00000194,-0.00000587,0.00000074,0.00000345,-0.0000
 0137,0.00001649,0.00003464,-0.00000706,-0.00000209,-0.00000687,-0.0000
 0454,-0.00000523,-0.00000334,0.00000280,-0.00000049,-0.00000043,0.0000
 0451,0.00009802,0.00005682,0.00005441,-0.00002122,-0.00002165,0.000003
 94,-0.00005563,0.00004603,-0.00000109,0.00001672,0.00000229,-0.0000019
 9,-0.00044708,0.00022886,0.00034421,0.00000123,-0.00008674,-0.00024295
 ,0.00015965,0.00001899,-0.00014309,0.00010183,-0.00013377,-0.00005700,
 -0.07183308,0.01557205,0.01636232,0.01141312,-0.01103107,-0.00688865,-
 0.02911899,0.03607359,0.04017032,0.08147783,0.00003045,-0.00006145,0.0
 0000136,0.00002728,-0.00001542,-0.00001404,0.00006357,-0.00018503,0.00
 001345,-0.00000432,-0.00027240,-0.00007311,0.00002316,0.00008360,0.000
 01947,-0.00002387,0.00003033,-0.00000103,-0.00000562,-0.00000181,0.000
 00109,-0.00000285,0.00000260,-0.00000012,-0.00000118,0.00001339,0.0000
 1627,0.00001557,-0.00000854,0.00000570,-0.00012378,0.00020374,0.000046
 43,-0.00004680,0.00014747,0.00002187,-0.00004062,0.00006407,0.00002505
 ,-0.00006486,0.00002542,-0.00001983,-0.00005524,0.00000254,-0.00000856
 ,0.00051189,0.00038364,0.00003825,-0.00003613,-0.00001088,-0.00002668,
 0.00010275,-0.00024127,0.00022435,-0.00026807,-0.00009932,0.00000443,0
 .00005910,-0.00043491,-0.00043957,-0.00006430,0.00013270,0.00002138,0.
 00001848,0.00014431,0.00023356,-0.00060286,0.00091096,-0.00027667,-0.0
 0021060,0.00025678,0.00035772,0.00295941,-0.00182797,0.00120592,0.0004
 2571,-0.00068534,0.00021640,-0.00008461,0.00005304,0.00009218,0.002447
 49,0.00130739,-0.00689196,-0.00110596,0.00082886,0.00099750,-0.0007507
 1,0.00142436,-0.00103862,-0.00003389,0.00021226,0.00043811,-0.00000131
 ,-0.00003649,-0.00004075,0.00000822,0.00000763,0.00000075,-0.00000414,
 -0.00000188,0.00000780,-0.00000176,0.00000460,0.00000393,0.00001408,-0
 .00001426,0.00002328,-0.00000596,-0.00000017,-0.00000419,-0.00000030,0
 .00000125,-0.00000220,-0.00000483,0.00000694,-0.00000428,0.00002972,0.
 00002609,0.00000784,0.00000107,-0.00000444,-0.00000238,-0.00001418,-0.
 00000277,-0.00000002,0.00000681,0.00000773,-0.00000511,0.00042868,0.00
 018690,0.00014710,-0.00006737,-0.00003592,0.00001150,0.00016271,-0.000
 03665,-0.00019653,-0.00016129,-0.00001987,-0.00000486,-0.00022680,-0.0
 0007097,0.00028699,-0.00005999,-0.00004932,-0.00023635,0.00008566,0.00
 007455,-0.00007453,-0.00000630,0.00003191,-0.00007997,0.01303405,-0.12
 837109,-0.08643839,-0.00839155,-0.06774837,-0.03031261,0.02911662,-0.0
 0761811,-0.01921088,-0.03710041,0.20127961,0.00009175,0.00000631,0.000
 03215,0.00017788,-0.00003739,0.00002437,0.00030254,0.00006420,-0.00053
 282,0.00010292,0.00001359,-0.00013264,0.00007409,0.00011223,0.00008327
 ,-0.00000463,0.00003146,0.00002237,-0.00006590,-0.00002292,0.00000994,
 0.00000619,-0.00000136,0.00002000,0.00006163,0.00001356,0.00012084,-0.
 00003043,-0.00002723,0.00000539,-0.00037213,-0.00011322,0.00021515,-0.
 00097161,-0.00003494,0.00026912,-0.00014813,0.00010685,0.00006492,-0.0
 0015890,-0.00001995,-0.00004180,-0.00009452,-0.00012207,-0.00003133,0.
 00038948,0.00041881,-0.00014460,-0.00000307,-0.00001660,0.00000624,0.0
 0000625,0.00003175,-0.00007046,-0.00023591,-0.00015166,0.00040266,0.00
 227955,-0.00189224,-0.00028802,-0.00058566,0.00065282,-0.00030074,-0.0
 0054152,0.00067401,0.00049843,0.00008790,0.00075957,-0.00025201,-0.000
 14781,-0.00019984,-0.00064476,0.00174306,-0.00149832,-0.00118530,0.001
 59492,-0.00085272,-0.00237649,-0.00007405,-0.00000312,0.00005707,0.006
 47885,-0.03095887,-0.03667834,-0.00179179,0.00066246,-0.00142575,-0.00
 661558,0.00403679,-0.00376223,-0.00003575,-0.00011362,0.00071922,0.000
 04691,-0.00007104,-0.00010902,0.00001958,-0.00000166,-0.00000461,-0.00
 001403,-0.00000933,0.00002909,-0.00001214,0.00001103,0.00000511,0.0000
 4375,-0.00003006,0.00004468,-0.00001780,-0.00000375,-0.00000846,-0.000
 00202,0.00000662,-0.00000523,-0.00000088,0.00001230,-0.00000658,0.0000
 5550,0.00010518,-0.00003049,-0.00000137,-0.00001399,-0.00000360,-0.000
 02406,-0.00000871,0.00000614,0.00000402,-0.00000776,0.00000862,0.00006
 097,-0.00007954,-0.00020029,-0.00002144,-0.00002083,0.00003871,0.00013
 235,-0.00002530,-0.00007328,-0.00006609,0.00002192,-0.00000524,-0.0014
 6934,0.00148678,0.00196439,-0.00022060,-0.00041179,-0.00113629,0.00079
 282,0.00005018,-0.00078005,0.00030261,-0.00050450,-0.00040517,0.011329
 88,-0.07928865,-0.18675119,-0.00452841,-0.01721937,0.01304316,0.029184
 36,-0.01644961,-0.00481369,-0.03711418,0.14093354,0.22450939\\0.000010
 33,0.00000789,0.00000697,0.00000780,-0.00000527,-0.00000390,-0.0000155
 3,-0.00002961,0.00004387,-0.00001123,-0.00000534,-0.00001159,0.0000005
 7,0.00001078,0.00000418,0.00000126,0.00000089,-0.00000671,0.00000073,0
 .00000031,-0.00000065,-0.00000144,-0.00000340,-0.00000031,-0.00000433,
 -0.00000035,0.00000088,-0.00000169,-0.00000220,-0.00000291,0.00000211,
 0.00000916,0.00000374,0.00001741,0.00002200,-0.00003194,-0.00000179,-0
 .00000192,-0.00000408,-0.00000512,-0.00000945,0.00000187,0.00001321,-0
 .00000210,-0.00000304,0.00000735,-0.00000046,0.00000006,0.00000351,-0.
 00000033,0.00000366,-0.00000351,0.00000244,-0.00000370,-0.00000607,-0.
 00000409,-0.00000515,-0.00001549,-0.00002076,0.00000270,-0.00000153,0.
 00000966,-0.00000522,0.00000207,0.00000755,0.00000464,0.00001590,0.000
 00246,0.00000343,-0.00000745,0.00000212,0.00000270,-0.00000681,-0.0000
 0359,-0.00000354,0.00000216,0.00000297,-0.00000159,0.00000215,0.000000
 31,-0.00000140,0.00000229,0.00000256,0.00000130,-0.00000115,0.00000518
 ,0.00000009,-0.00000560,0.00000046,0.00000589,0.00000235,0.00000161,0.
 00000052,-0.00000431,0.00000038,0.00000655,-0.00000249,-0.00000135,0.0
 0000031,-0.00000166,-0.00000285,-0.00000236,0.00000058,-0.00000096,-0.
 00000118,-0.00000445,0.00000396,-0.00000395,0.00000096,-0.00000326,-0.
 00000018,0.00000080,-0.00000199,0.00000064,0.00000042,-0.00000409,-0.0
 0000127,-0.00000480,-0.00000578,-0.00000036,0.00000268,0.00000012,-0.0
 0000063,0.00000330,-0.00000089,0.00000018,0.00000202,0.00000031,-0.000
 00047,0.00000757,-0.00000005,0.00000710,0.00000083,0.00000052,-0.00000
 097,-0.00000059,0.00000111,-0.00000169,-0.00000210,-0.00000012,-0.0000
 0044,-0.00000245,0.00000056,-0.00000409,0.00000352,0.00000249,0.000003
 34,-0.00000210,0.00000241,0.00000230,0.00000023,0.00000283,-0.00000008
 ,-0.00000095,0.00000329,0.00000107,-0.00000074,-0.00000061,-0.00000412
 ,0.00000232,0.00000378,0.00000052,-0.00000106,0.00000073,-0.00000098\\
 \@


 10 WHATSOEVER THY HAND FINDETH TO DO, DO IT WITH THY  
 MIGHT. FOR THERE IS NO WORK, NOR DEVICE, NOR KNOWLEDGE, NOR  
 WISDOM, IN THE GRAVE, WHITHER THOU GOEST.                    
 11 I RETURNED AND SAW UNDER THE SUN, THAT THE RACE IS NOT TO 
 THE SWIFT, NOR THE BATTLE TO THE STRONG, NEITHER YET BREAD TO
 THE WISE, NOR YET RICHES TO MEN OF UNDERSTANDING, NOR YET    
 FAVOR TO MEN OF SKILL. BUT TIME AND CHANCE HAPPEN TO THEM ALL.
 12 FOR MAN ALSO KNOWETH NOT HIS TIME. AS THE FISHES   
 THAT ARE TAKEN IN AN EVIL NET, AND AS THE BIRDS THAT ARE     
 CAUGHT IN THE SNARE. SO ARE THE SONS OF MEN SNARED IN AN EVIL
 TIME, WHEN IT FALLETH SUDDENLY UPON THEM.
                                         ECCLESIASTES 9
 Job cpu time:       0 days 16 hours  8 minutes 27.1 seconds.
 Elapsed time:       0 days  0 hours 32 minutes  8.9 seconds.
 File lengths (MBytes):  RWF=   2254 Int=      0 D2E=      0 Chk=     40 Scr=      1
 Normal termination of Gaussian 16 at Wed Jun  5 17:37:32 2019.
