 Entering Gaussian System, Link 0=g16
 Input=clay_new-glu_gluC6-bisCF3-sm-n12sx-631gd-pcm_thf.gjf
 Output=clay_new-glu_gluC6-bisCF3-sm-n12sx-631gd-pcm_thf.out
 Initial command:
 /home/ekwan/sw/g16/l1.exe "/scratch/users/ekwan/clay_new-glu_gluC6-bisCF3-sm-n12sx-631gd-pcm_thf/Gau-55634.inp" -scrdir="/scratch/users/ekwan/clay_new-glu_gluC6-bisCF3-sm-n12sx-631gd-pcm_thf/"
 Entering Link 1 = /home/ekwan/sw/g16/l1.exe PID=     55635.
  
 Copyright (c) 1988,1990,1992,1993,1995,1998,2003,2009,2016,
            Gaussian, Inc.  All Rights Reserved.
  
 This is part of the Gaussian(R) 16 program.  It is based on
 the Gaussian(R) 09 system (copyright 2009, Gaussian, Inc.),
 the Gaussian(R) 03 system (copyright 2003, Gaussian, Inc.),
 the Gaussian(R) 98 system (copyright 1998, Gaussian, Inc.),
 the Gaussian(R) 94 system (copyright 1995, Gaussian, Inc.),
 the Gaussian 92(TM) system (copyright 1992, Gaussian, Inc.),
 the Gaussian 90(TM) system (copyright 1990, Gaussian, Inc.),
 the Gaussian 88(TM) system (copyright 1988, Gaussian, Inc.),
 the Gaussian 86(TM) system (copyright 1986, Carnegie Mellon
 University), and the Gaussian 82(TM) system (copyright 1983,
 Carnegie Mellon University). Gaussian is a federally registered
 trademark of Gaussian, Inc.
  
 This software contains proprietary and confidential information,
 including trade secrets, belonging to Gaussian, Inc.
  
 This software is provided under written license and may be
 used, copied, transmitted, or stored only in accord with that
 written license.
  
 The following legend is applicable only to US Government
 contracts under FAR:
  
                    RESTRICTED RIGHTS LEGEND
  
 Use, reproduction and disclosure by the US Government is
 subject to restrictions as set forth in subparagraphs (a)
 and (c) of the Commercial Computer Software - Restricted
 Rights clause in FAR 52.227-19.
  
 Gaussian, Inc.
 340 Quinnipiac St., Bldg. 40, Wallingford CT 06492
  
  
 ---------------------------------------------------------------
 Warning -- This program may not be used in any manner that
 competes with the business of Gaussian, Inc. or will provide
 assistance to any competitor of Gaussian, Inc.  The licensee
 of this program is prohibited from giving any competitor of
 Gaussian, Inc. access to this program.  By using this program,
 the user acknowledges that Gaussian, Inc. is engaged in the
 business of creating and licensing software in the field of
 computational chemistry and represents and warrants to the
 licensee that it is not a competitor of Gaussian, Inc. and that
 it will not use this program in any manner prohibited above.
 ---------------------------------------------------------------
  

 Cite this work as:
 Gaussian 16, Revision A.03,
 M. J. Frisch, G. W. Trucks, H. B. Schlegel, G. E. Scuseria, 
 M. A. Robb, J. R. Cheeseman, G. Scalmani, V. Barone, 
 G. A. Petersson, H. Nakatsuji, X. Li, M. Caricato, A. V. Marenich, 
 J. Bloino, B. G. Janesko, R. Gomperts, B. Mennucci, H. P. Hratchian, 
 J. V. Ortiz, A. F. Izmaylov, J. L. Sonnenberg, D. Williams-Young, 
 F. Ding, F. Lipparini, F. Egidi, J. Goings, B. Peng, A. Petrone, 
 T. Henderson, D. Ranasinghe, V. G. Zakrzewski, J. Gao, N. Rega, 
 G. Zheng, W. Liang, M. Hada, M. Ehara, K. Toyota, R. Fukuda, 
 J. Hasegawa, M. Ishida, T. Nakajima, Y. Honda, O. Kitao, H. Nakai, 
 T. Vreven, K. Throssell, J. A. Montgomery, Jr., J. E. Peralta, 
 F. Ogliaro, M. J. Bearpark, J. J. Heyd, E. N. Brothers, K. N. Kudin, 
 V. N. Staroverov, T. A. Keith, R. Kobayashi, J. Normand, 
 K. Raghavachari, A. P. Rendell, J. C. Burant, S. S. Iyengar, 
 J. Tomasi, M. Cossi, J. M. Millam, M. Klene, C. Adamo, R. Cammi, 
 J. W. Ochterski, R. L. Martin, K. Morokuma, O. Farkas, 
 J. B. Foresman, and D. J. Fox, Gaussian, Inc., Wallingford CT, 2016.
 
 ******************************************
 Gaussian 16:  AS64L-G16RevA.03 25-Dec-2016
                 5-Jun-2019 
 ******************************************
 %nprocshared=32
 Will use up to   32 processors via shared memory.
 %mem=48GB
 ----------------------------------------------------------------------
 #p opt freq=noraman pop=none 6-31g* scrf=(pcm,solvent=tetrahydrofuran)
  n12sx
 ----------------------------------------------------------------------
 1/18=20,19=15,26=3,38=1/1,3;
 2/9=110,12=2,17=6,18=5,40=1/2;
 3/5=1,6=6,7=1,11=2,25=1,30=1,70=2201,71=1,72=20,74=-69/1,2,3;
 4//1;
 5/5=2,38=5,53=20/2;
 7//1,2,3,16;
 1/18=20,19=15,26=3/3(2);
 2/9=110/2;
 99//99;
 2/9=110/2;
 3/5=1,6=6,7=1,11=2,25=1,30=1,70=2205,71=1,72=20,74=-69/1,2,3;
 4/5=5,16=3,69=1/1;
 5/5=2,38=5,53=20/2;
 7//1,2,3,16;
 1/18=20,19=15,26=3/3(-5);
 2/9=110/2;
 99/9=1/99;
 Leave Link    1 at Wed Jun  5 18:54:00 2019, MaxMem=  6442450944 cpu:               4.2 elap:               0.2
 (Enter /home/ekwan/sw/g16/l101.exe)
 -----
 title
 -----
 Symbolic Z-matrix:
 Charge =  0 Multiplicity = 1
 6                     3.49287  -0.19147   0.74333 
 6                     3.33574  -0.5075   -0.73993 
 6                     1.86724  -0.42329  -1.16832 
 6                     1.32035   1.0774    0.59512 
 6                     2.76473   1.1027    1.08523 
 1                     1.7589   -0.50532  -2.24577 
 1                     3.85896   0.27301  -1.30681 
 1                     3.05044  -1.00329   1.32932 
 1                     0.77232   0.31274   1.15437 
 1                     3.2763    1.93395   0.59336 
 8                     1.2676    0.75948  -0.79816 
 8                     1.19891  -1.55645  -0.56663 
 8                     3.89545  -1.7586   -1.00384 
 8                     4.84619  -0.0275    1.08153 
 8                     2.73677   1.29442   2.47674 
 6                     0.61281   2.40211   0.81783 
 1                     0.50924   2.52941   1.89445 
 1                    -0.38815   2.35344   0.3785 
 8                     1.30872   3.52344   0.34364 
 16                   -0.08796  -2.20327  -1.28416 
 8                    -0.19397  -3.53495  -0.73096 
 8                     0.02542  -1.9851   -2.71524 
 6                    -1.44086  -1.23383  -0.67582 
 6                    -2.13469  -1.67454   0.44126 
 6                    -1.77783  -0.05709  -1.32956 
 6                    -3.19172  -0.90793   0.91375 
 1                    -1.85801  -2.59946   0.92454 
 6                    -2.82839   0.70081  -0.83282 
 1                    -1.236     0.25877  -2.2076 
 6                    -3.53821   0.28039   0.28502 
 1                    -4.35802   0.87396   0.66095 
 6                     4.13625  -2.03764  -2.36322 
 1                     3.20908  -2.18501  -2.92411 
 1                     4.71302  -1.23708  -2.83643 
 1                     4.71173  -2.95922  -2.40102 
 6                     5.48496  -1.17007   1.60275 
 1                     6.50143  -0.87589   1.85671 
 1                     4.98384  -1.52251   2.50977 
 1                     5.51393  -1.98128   0.87517 
 6                     3.62522   2.27616   2.95891 
 1                     3.49518   2.32061   4.03848 
 1                     4.6606    2.01854   2.73085 
 1                     3.39553   3.25732   2.53293 
 6                     1.11927   3.822    -1.01998 
 1                     1.54163   4.8102   -1.19242 
 1                     0.05438   3.84249  -1.27185 
 1                     1.61567   3.10104  -1.67156 
 6                    -4.00022  -1.39723   2.07963 
 9                    -3.26209  -2.1421    2.90987 
 9                    -5.02915  -2.15497   1.67543 
 9                    -4.51091  -0.3798    2.7828 
 6                    -3.15874   2.01406  -1.47728 
 9                    -2.4407    3.01504  -0.93311 
 9                    -4.44738   2.33144  -1.32378 
 9                    -2.88621   2.00456  -2.78535 
 
 ITRead=  0  0  0  0  0  0  0  0  0  0  0  0  0  0  0  0  0  0  0  0
 ITRead=  0  0  0  0  0  0  0  0  0  0  0  0  0  0  0  0  0  0  0  0
 ITRead=  0  0  0  0  0  0  0  0  0  0  0  0  0  0  0
 MicOpt= -1 -1 -1 -1 -1 -1 -1 -1 -1 -1 -1 -1 -1 -1 -1 -1 -1 -1 -1 -1
 MicOpt= -1 -1 -1 -1 -1 -1 -1 -1 -1 -1 -1 -1 -1 -1 -1 -1 -1 -1 -1 -1
 MicOpt= -1 -1 -1 -1 -1 -1 -1 -1 -1 -1 -1 -1 -1 -1 -1
 NAtoms=     55 NQM=       55 NQMF=       0 NMMI=      0 NMMIF=      0
                NMic=       0 NMicF=      0.
                    Isotopes and Nuclear Properties:
 (Nuclear quadrupole moments (NQMom) in fm**2, nuclear magnetic moments (NMagM)
  in nuclear magnetons)

  Atom         1           2           3           4           5           6           7           8           9          10
 IAtWgt=          12          12          12          12          12           1           1           1           1           1
 AtmWgt=  12.0000000  12.0000000  12.0000000  12.0000000  12.0000000   1.0078250   1.0078250   1.0078250   1.0078250   1.0078250
 NucSpn=           0           0           0           0           0           1           1           1           1           1
 AtZEff=   0.0000000   0.0000000   0.0000000   0.0000000   0.0000000   0.0000000   0.0000000   0.0000000   0.0000000   0.0000000
 NQMom=    0.0000000   0.0000000   0.0000000   0.0000000   0.0000000   0.0000000   0.0000000   0.0000000   0.0000000   0.0000000
 NMagM=    0.0000000   0.0000000   0.0000000   0.0000000   0.0000000   2.7928460   2.7928460   2.7928460   2.7928460   2.7928460
 AtZNuc=   6.0000000   6.0000000   6.0000000   6.0000000   6.0000000   1.0000000   1.0000000   1.0000000   1.0000000   1.0000000

  Atom        11          12          13          14          15          16          17          18          19          20
 IAtWgt=          16          16          16          16          16          12           1           1          16          32
 AtmWgt=  15.9949146  15.9949146  15.9949146  15.9949146  15.9949146  12.0000000   1.0078250   1.0078250  15.9949146  31.9720718
 NucSpn=           0           0           0           0           0           0           1           1           0           0
 AtZEff=   0.0000000   0.0000000   0.0000000   0.0000000   0.0000000   0.0000000   0.0000000   0.0000000   0.0000000   0.0000000
 NQMom=    0.0000000   0.0000000   0.0000000   0.0000000   0.0000000   0.0000000   0.0000000   0.0000000   0.0000000   0.0000000
 NMagM=    0.0000000   0.0000000   0.0000000   0.0000000   0.0000000   0.0000000   2.7928460   2.7928460   0.0000000   0.0000000
 AtZNuc=   8.0000000   8.0000000   8.0000000   8.0000000   8.0000000   6.0000000   1.0000000   1.0000000   8.0000000  16.0000000

  Atom        21          22          23          24          25          26          27          28          29          30
 IAtWgt=          16          16          12          12          12          12           1          12           1          12
 AtmWgt=  15.9949146  15.9949146  12.0000000  12.0000000  12.0000000  12.0000000   1.0078250  12.0000000   1.0078250  12.0000000
 NucSpn=           0           0           0           0           0           0           1           0           1           0
 AtZEff=   0.0000000   0.0000000   0.0000000   0.0000000   0.0000000   0.0000000   0.0000000   0.0000000   0.0000000   0.0000000
 NQMom=    0.0000000   0.0000000   0.0000000   0.0000000   0.0000000   0.0000000   0.0000000   0.0000000   0.0000000   0.0000000
 NMagM=    0.0000000   0.0000000   0.0000000   0.0000000   0.0000000   0.0000000   2.7928460   0.0000000   2.7928460   0.0000000
 AtZNuc=   8.0000000   8.0000000   6.0000000   6.0000000   6.0000000   6.0000000   1.0000000   6.0000000   1.0000000   6.0000000

  Atom        31          32          33          34          35          36          37          38          39          40
 IAtWgt=           1          12           1           1           1          12           1           1           1          12
 AtmWgt=   1.0078250  12.0000000   1.0078250   1.0078250   1.0078250  12.0000000   1.0078250   1.0078250   1.0078250  12.0000000
 NucSpn=           1           0           1           1           1           0           1           1           1           0
 AtZEff=   0.0000000   0.0000000   0.0000000   0.0000000   0.0000000   0.0000000   0.0000000   0.0000000   0.0000000   0.0000000
 NQMom=    0.0000000   0.0000000   0.0000000   0.0000000   0.0000000   0.0000000   0.0000000   0.0000000   0.0000000   0.0000000
 NMagM=    2.7928460   0.0000000   2.7928460   2.7928460   2.7928460   0.0000000   2.7928460   2.7928460   2.7928460   0.0000000
 AtZNuc=   1.0000000   6.0000000   1.0000000   1.0000000   1.0000000   6.0000000   1.0000000   1.0000000   1.0000000   6.0000000

  Atom        41          42          43          44          45          46          47          48          49          50
 IAtWgt=           1           1           1          12           1           1           1          12          19          19
 AtmWgt=   1.0078250   1.0078250   1.0078250  12.0000000   1.0078250   1.0078250   1.0078250  12.0000000  18.9984033  18.9984033
 NucSpn=           1           1           1           0           1           1           1           0           1           1
 AtZEff=   0.0000000   0.0000000   0.0000000   0.0000000   0.0000000   0.0000000   0.0000000   0.0000000   0.0000000   0.0000000
 NQMom=    0.0000000   0.0000000   0.0000000   0.0000000   0.0000000   0.0000000   0.0000000   0.0000000   0.0000000   0.0000000
 NMagM=    2.7928460   2.7928460   2.7928460   0.0000000   2.7928460   2.7928460   2.7928460   0.0000000   2.6288670   2.6288670
 AtZNuc=   1.0000000   1.0000000   1.0000000   6.0000000   1.0000000   1.0000000   1.0000000   6.0000000   9.0000000   9.0000000

  Atom        51          52          53          54          55
 IAtWgt=          19          12          19          19          19
 AtmWgt=  18.9984033  12.0000000  18.9984033  18.9984033  18.9984033
 NucSpn=           1           0           1           1           1
 AtZEff=   0.0000000   0.0000000   0.0000000   0.0000000   0.0000000
 NQMom=    0.0000000   0.0000000   0.0000000   0.0000000   0.0000000
 NMagM=    2.6288670   0.0000000   2.6288670   2.6288670   2.6288670
 AtZNuc=   9.0000000   6.0000000   9.0000000   9.0000000   9.0000000
 Leave Link  101 at Wed Jun  5 18:54:01 2019, MaxMem=  6442450944 cpu:              16.3 elap:               0.6
 (Enter /home/ekwan/sw/g16/l103.exe)

 GradGradGradGradGradGradGradGradGradGradGradGradGradGradGradGradGradGrad
 Berny optimization.
 Initialization pass.
                           ----------------------------
                           !    Initial Parameters    !
                           ! (Angstroms and Degrees)  !
 --------------------------                            --------------------------
 ! Name  Definition              Value          Derivative Info.                !
 --------------------------------------------------------------------------------
 ! R1    R(1,2)                  1.5247         estimate D2E/DX2                !
 ! R2    R(1,5)                  1.5238         estimate D2E/DX2                !
 ! R3    R(1,8)                  1.0946         estimate D2E/DX2                !
 ! R4    R(1,14)                 1.4045         estimate D2E/DX2                !
 ! R5    R(2,3)                  1.532          estimate D2E/DX2                !
 ! R6    R(2,7)                  1.0974         estimate D2E/DX2                !
 ! R7    R(2,13)                 1.3958         estimate D2E/DX2                !
 ! R8    R(3,6)                  1.086          estimate D2E/DX2                !
 ! R9    R(3,11)                 1.3768         estimate D2E/DX2                !
 ! R10   R(3,12)                 1.4466         estimate D2E/DX2                !
 ! R11   R(4,5)                  1.5255         estimate D2E/DX2                !
 ! R12   R(4,9)                  1.0944         estimate D2E/DX2                !
 ! R13   R(4,11)                 1.4301         estimate D2E/DX2                !
 ! R14   R(4,16)                 1.5182         estimate D2E/DX2                !
 ! R15   R(5,10)                 1.093          estimate D2E/DX2                !
 ! R16   R(5,15)                 1.4049         estimate D2E/DX2                !
 ! R17   R(12,20)                1.6091         estimate D2E/DX2                !
 ! R18   R(13,32)                1.4085         estimate D2E/DX2                !
 ! R19   R(14,36)                1.4089         estimate D2E/DX2                !
 ! R20   R(15,40)                1.4091         estimate D2E/DX2                !
 ! R21   R(16,17)                1.0891         estimate D2E/DX2                !
 ! R22   R(16,18)                1.0942         estimate D2E/DX2                !
 ! R23   R(16,19)                1.4023         estimate D2E/DX2                !
 ! R24   R(19,44)                1.4087         estimate D2E/DX2                !
 ! R25   R(20,21)                1.4459         estimate D2E/DX2                !
 ! R26   R(20,22)                1.452          estimate D2E/DX2                !
 ! R27   R(20,23)                1.7721         estimate D2E/DX2                !
 ! R28   R(23,24)                1.3869         estimate D2E/DX2                !
 ! R29   R(23,25)                1.3877         estimate D2E/DX2                !
 ! R30   R(24,26)                1.3886         estimate D2E/DX2                !
 ! R31   R(24,27)                1.0796         estimate D2E/DX2                !
 ! R32   R(25,28)                1.3874         estimate D2E/DX2                !
 ! R33   R(25,29)                1.079          estimate D2E/DX2                !
 ! R34   R(26,30)                1.3883         estimate D2E/DX2                !
 ! R35   R(26,48)                1.5008         estimate D2E/DX2                !
 ! R36   R(28,30)                1.3893         estimate D2E/DX2                !
 ! R37   R(28,52)                1.4997         estimate D2E/DX2                !
 ! R38   R(30,31)                1.0797         estimate D2E/DX2                !
 ! R39   R(32,33)                1.0936         estimate D2E/DX2                !
 ! R40   R(32,34)                1.0943         estimate D2E/DX2                !
 ! R41   R(32,35)                1.0872         estimate D2E/DX2                !
 ! R42   R(36,37)                1.0882         estimate D2E/DX2                !
 ! R43   R(36,38)                1.0945         estimate D2E/DX2                !
 ! R44   R(36,39)                1.0901         estimate D2E/DX2                !
 ! R45   R(40,41)                1.0883         estimate D2E/DX2                !
 ! R46   R(40,42)                1.091          estimate D2E/DX2                !
 ! R47   R(40,43)                1.094          estimate D2E/DX2                !
 ! R48   R(44,45)                1.0884         estimate D2E/DX2                !
 ! R49   R(44,46)                1.0945         estimate D2E/DX2                !
 ! R50   R(44,47)                1.0912         estimate D2E/DX2                !
 ! R51   R(48,49)                1.3375         estimate D2E/DX2                !
 ! R52   R(48,50)                1.3402         estimate D2E/DX2                !
 ! R53   R(48,51)                1.3381         estimate D2E/DX2                !
 ! R54   R(52,53)                1.3467         estimate D2E/DX2                !
 ! R55   R(52,54)                1.336          estimate D2E/DX2                !
 ! R56   R(52,55)                1.3362         estimate D2E/DX2                !
 ! A1    A(2,1,5)              110.1869         estimate D2E/DX2                !
 ! A2    A(2,1,8)              108.991          estimate D2E/DX2                !
 ! A3    A(2,1,14)             110.9618         estimate D2E/DX2                !
 ! A4    A(5,1,8)              108.4592         estimate D2E/DX2                !
 ! A5    A(5,1,14)             107.8931         estimate D2E/DX2                !
 ! A6    A(8,1,14)             110.3111         estimate D2E/DX2                !
 ! A7    A(1,2,3)              111.0642         estimate D2E/DX2                !
 ! A8    A(1,2,7)              107.8164         estimate D2E/DX2                !
 ! A9    A(1,2,13)             109.1723         estimate D2E/DX2                !
 ! A10   A(3,2,7)              105.8711         estimate D2E/DX2                !
 ! A11   A(3,2,13)             112.3819         estimate D2E/DX2                !
 ! A12   A(7,2,13)             110.4051         estimate D2E/DX2                !
 ! A13   A(2,3,6)              111.6473         estimate D2E/DX2                !
 ! A14   A(2,3,11)             112.9248         estimate D2E/DX2                !
 ! A15   A(2,3,12)             106.4682         estimate D2E/DX2                !
 ! A16   A(6,3,11)             106.7491         estimate D2E/DX2                !
 ! A17   A(6,3,12)             107.9028         estimate D2E/DX2                !
 ! A18   A(11,3,12)            111.0932         estimate D2E/DX2                !
 ! A19   A(5,4,9)              108.7555         estimate D2E/DX2                !
 ! A20   A(5,4,11)             110.5871         estimate D2E/DX2                !
 ! A21   A(5,4,16)             112.3121         estimate D2E/DX2                !
 ! A22   A(9,4,11)             108.9082         estimate D2E/DX2                !
 ! A23   A(9,4,16)             107.5359         estimate D2E/DX2                !
 ! A24   A(11,4,16)            108.6446         estimate D2E/DX2                !
 ! A25   A(1,5,4)              111.4855         estimate D2E/DX2                !
 ! A26   A(1,5,10)             108.7409         estimate D2E/DX2                !
 ! A27   A(1,5,15)             110.3432         estimate D2E/DX2                !
 ! A28   A(4,5,10)             108.1313         estimate D2E/DX2                !
 ! A29   A(4,5,15)             107.5558         estimate D2E/DX2                !
 ! A30   A(10,5,15)            110.5642         estimate D2E/DX2                !
 ! A31   A(3,11,4)             115.9037         estimate D2E/DX2                !
 ! A32   A(3,12,20)            119.9258         estimate D2E/DX2                !
 ! A33   A(2,13,32)            115.3803         estimate D2E/DX2                !
 ! A34   A(1,14,36)            115.5461         estimate D2E/DX2                !
 ! A35   A(5,15,40)            114.9251         estimate D2E/DX2                !
 ! A36   A(4,16,17)            106.937          estimate D2E/DX2                !
 ! A37   A(4,16,18)            109.1841         estimate D2E/DX2                !
 ! A38   A(4,16,19)            114.6343         estimate D2E/DX2                !
 ! A39   A(17,16,18)           108.3686         estimate D2E/DX2                !
 ! A40   A(17,16,19)           106.7382         estimate D2E/DX2                !
 ! A41   A(18,16,19)           110.7176         estimate D2E/DX2                !
 ! A42   A(16,19,44)           115.4705         estimate D2E/DX2                !
 ! A43   A(12,20,21)           104.9663         estimate D2E/DX2                !
 ! A44   A(12,20,22)           108.4596         estimate D2E/DX2                !
 ! A45   A(12,20,23)           103.7438         estimate D2E/DX2                !
 ! A46   A(21,20,22)           121.411          estimate D2E/DX2                !
 ! A47   A(21,20,23)           108.4533         estimate D2E/DX2                !
 ! A48   A(22,20,23)           108.406          estimate D2E/DX2                !
 ! A49   A(20,23,24)           118.9868         estimate D2E/DX2                !
 ! A50   A(20,23,25)           119.1815         estimate D2E/DX2                !
 ! A51   A(24,23,25)           121.8317         estimate D2E/DX2                !
 ! A52   A(23,24,26)           118.6498         estimate D2E/DX2                !
 ! A53   A(23,24,27)           120.3031         estimate D2E/DX2                !
 ! A54   A(26,24,27)           121.0456         estimate D2E/DX2                !
 ! A55   A(23,25,28)           118.5839         estimate D2E/DX2                !
 ! A56   A(23,25,29)           120.6401         estimate D2E/DX2                !
 ! A57   A(28,25,29)           120.7757         estimate D2E/DX2                !
 ! A58   A(24,26,30)           120.5586         estimate D2E/DX2                !
 ! A59   A(24,26,48)           119.6313         estimate D2E/DX2                !
 ! A60   A(30,26,48)           119.7634         estimate D2E/DX2                !
 ! A61   A(25,28,30)           120.6407         estimate D2E/DX2                !
 ! A62   A(25,28,52)           119.4261         estimate D2E/DX2                !
 ! A63   A(30,28,52)           119.8814         estimate D2E/DX2                !
 ! A64   A(26,30,28)           119.7278         estimate D2E/DX2                !
 ! A65   A(26,30,31)           120.1574         estimate D2E/DX2                !
 ! A66   A(28,30,31)           120.1144         estimate D2E/DX2                !
 ! A67   A(13,32,33)           112.1334         estimate D2E/DX2                !
 ! A68   A(13,32,34)           111.2561         estimate D2E/DX2                !
 ! A69   A(13,32,35)           106.9775         estimate D2E/DX2                !
 ! A70   A(33,32,34)           108.8844         estimate D2E/DX2                !
 ! A71   A(33,32,35)           108.4646         estimate D2E/DX2                !
 ! A72   A(34,32,35)           109.0328         estimate D2E/DX2                !
 ! A73   A(14,36,37)           106.8925         estimate D2E/DX2                !
 ! A74   A(14,36,38)           111.1074         estimate D2E/DX2                !
 ! A75   A(14,36,39)           111.63           estimate D2E/DX2                !
 ! A76   A(37,36,38)           108.742          estimate D2E/DX2                !
 ! A77   A(37,36,39)           109.3963         estimate D2E/DX2                !
 ! A78   A(38,36,39)           109.0049         estimate D2E/DX2                !
 ! A79   A(15,40,41)           107.0107         estimate D2E/DX2                !
 ! A80   A(15,40,42)           111.2411         estimate D2E/DX2                !
 ! A81   A(15,40,43)           111.052          estimate D2E/DX2                !
 ! A82   A(41,40,42)           109.2928         estimate D2E/DX2                !
 ! A83   A(41,40,43)           108.9373         estimate D2E/DX2                !
 ! A84   A(42,40,43)           109.2456         estimate D2E/DX2                !
 ! A85   A(19,44,45)           107.0731         estimate D2E/DX2                !
 ! A86   A(19,44,46)           110.9512         estimate D2E/DX2                !
 ! A87   A(19,44,47)           112.1358         estimate D2E/DX2                !
 ! A88   A(45,44,46)           108.9111         estimate D2E/DX2                !
 ! A89   A(45,44,47)           109.1921         estimate D2E/DX2                !
 ! A90   A(46,44,47)           108.516          estimate D2E/DX2                !
 ! A91   A(26,48,49)           111.4991         estimate D2E/DX2                !
 ! A92   A(26,48,50)           111.3228         estimate D2E/DX2                !
 ! A93   A(26,48,51)           111.4654         estimate D2E/DX2                !
 ! A94   A(49,48,50)           107.219          estimate D2E/DX2                !
 ! A95   A(49,48,51)           107.9317         estimate D2E/DX2                !
 ! A96   A(50,48,51)           107.18           estimate D2E/DX2                !
 ! A97   A(28,52,53)           111.0867         estimate D2E/DX2                !
 ! A98   A(28,52,54)           111.7849         estimate D2E/DX2                !
 ! A99   A(28,52,55)           111.6865         estimate D2E/DX2                !
 ! A100  A(53,52,54)           106.9344         estimate D2E/DX2                !
 ! A101  A(53,52,55)           106.9842         estimate D2E/DX2                !
 ! A102  A(54,52,55)           108.1132         estimate D2E/DX2                !
 ! D1    D(5,1,2,3)            -49.7423         estimate D2E/DX2                !
 ! D2    D(5,1,2,7)             65.8268         estimate D2E/DX2                !
 ! D3    D(5,1,2,13)          -174.2085         estimate D2E/DX2                !
 ! D4    D(8,1,2,3)             69.1593         estimate D2E/DX2                !
 ! D5    D(8,1,2,7)           -175.2716         estimate D2E/DX2                !
 ! D6    D(8,1,2,13)           -55.3069         estimate D2E/DX2                !
 ! D7    D(14,1,2,3)          -169.1752         estimate D2E/DX2                !
 ! D8    D(14,1,2,7)           -53.6061         estimate D2E/DX2                !
 ! D9    D(14,1,2,13)           66.3586         estimate D2E/DX2                !
 ! D10   D(2,1,5,4)             51.8104         estimate D2E/DX2                !
 ! D11   D(2,1,5,10)           -67.3139         estimate D2E/DX2                !
 ! D12   D(2,1,5,15)           171.2605         estimate D2E/DX2                !
 ! D13   D(8,1,5,4)            -67.4155         estimate D2E/DX2                !
 ! D14   D(8,1,5,10)           173.4602         estimate D2E/DX2                !
 ! D15   D(8,1,5,15)            52.0346         estimate D2E/DX2                !
 ! D16   D(14,1,5,4)           173.0915         estimate D2E/DX2                !
 ! D17   D(14,1,5,10)           53.9672         estimate D2E/DX2                !
 ! D18   D(14,1,5,15)          -67.4584         estimate D2E/DX2                !
 ! D19   D(2,1,14,36)          -95.7387         estimate D2E/DX2                !
 ! D20   D(5,1,14,36)          143.4636         estimate D2E/DX2                !
 ! D21   D(8,1,14,36)           25.1509         estimate D2E/DX2                !
 ! D22   D(1,2,3,6)            171.8226         estimate D2E/DX2                !
 ! D23   D(1,2,3,11)            51.5252         estimate D2E/DX2                !
 ! D24   D(1,2,3,12)           -70.6483         estimate D2E/DX2                !
 ! D25   D(7,2,3,6)             55.0549         estimate D2E/DX2                !
 ! D26   D(7,2,3,11)           -65.2425         estimate D2E/DX2                !
 ! D27   D(7,2,3,12)           172.584          estimate D2E/DX2                !
 ! D28   D(13,2,3,6)           -65.548          estimate D2E/DX2                !
 ! D29   D(13,2,3,11)          174.1545         estimate D2E/DX2                !
 ! D30   D(13,2,3,12)           51.9811         estimate D2E/DX2                !
 ! D31   D(1,2,13,32)         -164.3218         estimate D2E/DX2                !
 ! D32   D(3,2,13,32)           71.9881         estimate D2E/DX2                !
 ! D33   D(7,2,13,32)          -45.9648         estimate D2E/DX2                !
 ! D34   D(2,3,11,4)           -55.7955         estimate D2E/DX2                !
 ! D35   D(6,3,11,4)          -178.8578         estimate D2E/DX2                !
 ! D36   D(12,3,11,4)           63.7446         estimate D2E/DX2                !
 ! D37   D(2,3,12,20)         -151.1183         estimate D2E/DX2                !
 ! D38   D(6,3,12,20)          -31.1354         estimate D2E/DX2                !
 ! D39   D(11,3,12,20)          85.5571         estimate D2E/DX2                !
 ! D40   D(9,4,5,1)             66.0817         estimate D2E/DX2                !
 ! D41   D(9,4,5,10)          -174.432          estimate D2E/DX2                !
 ! D42   D(9,4,5,15)           -55.0083         estimate D2E/DX2                !
 ! D43   D(11,4,5,1)           -53.464          estimate D2E/DX2                !
 ! D44   D(11,4,5,10)           66.0223         estimate D2E/DX2                !
 ! D45   D(11,4,5,15)         -174.554          estimate D2E/DX2                !
 ! D46   D(16,4,5,1)          -175.0171         estimate D2E/DX2                !
 ! D47   D(16,4,5,10)          -55.5308         estimate D2E/DX2                !
 ! D48   D(16,4,5,15)           63.8929         estimate D2E/DX2                !
 ! D49   D(5,4,11,3)            56.4517         estimate D2E/DX2                !
 ! D50   D(9,4,11,3)           -63.0019         estimate D2E/DX2                !
 ! D51   D(16,4,11,3)         -179.855          estimate D2E/DX2                !
 ! D52   D(5,4,16,17)          -67.3991         estimate D2E/DX2                !
 ! D53   D(5,4,16,18)          175.5527         estimate D2E/DX2                !
 ! D54   D(5,4,16,19)           50.69           estimate D2E/DX2                !
 ! D55   D(9,4,16,17)           52.2156         estimate D2E/DX2                !
 ! D56   D(9,4,16,18)          -64.8325         estimate D2E/DX2                !
 ! D57   D(9,4,16,19)          170.3048         estimate D2E/DX2                !
 ! D58   D(11,4,16,17)         169.9443         estimate D2E/DX2                !
 ! D59   D(11,4,16,18)          52.8962         estimate D2E/DX2                !
 ! D60   D(11,4,16,19)         -71.9665         estimate D2E/DX2                !
 ! D61   D(1,5,15,40)          105.0436         estimate D2E/DX2                !
 ! D62   D(4,5,15,40)         -133.1525         estimate D2E/DX2                !
 ! D63   D(10,5,15,40)         -15.2931         estimate D2E/DX2                !
 ! D64   D(3,12,20,21)         159.7643         estimate D2E/DX2                !
 ! D65   D(3,12,20,22)          28.619          estimate D2E/DX2                !
 ! D66   D(3,12,20,23)         -86.4895         estimate D2E/DX2                !
 ! D67   D(2,13,32,33)         -70.1846         estimate D2E/DX2                !
 ! D68   D(2,13,32,34)          52.0329         estimate D2E/DX2                !
 ! D69   D(2,13,32,35)         171.0206         estimate D2E/DX2                !
 ! D70   D(1,14,36,37)        -177.4234         estimate D2E/DX2                !
 ! D71   D(1,14,36,38)         -58.9226         estimate D2E/DX2                !
 ! D72   D(1,14,36,39)          62.9869         estimate D2E/DX2                !
 ! D73   D(5,15,40,41)         179.7651         estimate D2E/DX2                !
 ! D74   D(5,15,40,42)         -60.9198         estimate D2E/DX2                !
 ! D75   D(5,15,40,43)          60.9875         estimate D2E/DX2                !
 ! D76   D(4,16,19,44)          84.8506         estimate D2E/DX2                !
 ! D77   D(17,16,19,44)       -156.9478         estimate D2E/DX2                !
 ! D78   D(18,16,19,44)        -39.2008         estimate D2E/DX2                !
 ! D79   D(16,19,44,45)        168.5598         estimate D2E/DX2                !
 ! D80   D(16,19,44,46)         49.8326         estimate D2E/DX2                !
 ! D81   D(16,19,44,47)        -71.6919         estimate D2E/DX2                !
 ! D82   D(12,20,23,24)        -93.6119         estimate D2E/DX2                !
 ! D83   D(12,20,23,25)         86.4554         estimate D2E/DX2                !
 ! D84   D(21,20,23,24)         17.6044         estimate D2E/DX2                !
 ! D85   D(21,20,23,25)       -162.3283         estimate D2E/DX2                !
 ! D86   D(22,20,23,24)        151.2416         estimate D2E/DX2                !
 ! D87   D(22,20,23,25)        -28.6912         estimate D2E/DX2                !
 ! D88   D(20,23,24,26)        179.8591         estimate D2E/DX2                !
 ! D89   D(20,23,24,27)         -0.5838         estimate D2E/DX2                !
 ! D90   D(25,23,24,26)         -0.21           estimate D2E/DX2                !
 ! D91   D(25,23,24,27)        179.3471         estimate D2E/DX2                !
 ! D92   D(20,23,25,28)       -179.2027         estimate D2E/DX2                !
 ! D93   D(20,23,25,29)          1.0242         estimate D2E/DX2                !
 ! D94   D(24,23,25,28)          0.8666         estimate D2E/DX2                !
 ! D95   D(24,23,25,29)       -178.9065         estimate D2E/DX2                !
 ! D96   D(23,24,26,30)         -0.4937         estimate D2E/DX2                !
 ! D97   D(23,24,26,48)        177.0146         estimate D2E/DX2                !
 ! D98   D(27,24,26,30)        179.9526         estimate D2E/DX2                !
 ! D99   D(27,24,26,48)         -2.539          estimate D2E/DX2                !
 ! D100  D(23,25,28,30)         -0.8313         estimate D2E/DX2                !
 ! D101  D(23,25,28,52)        176.5506         estimate D2E/DX2                !
 ! D102  D(29,25,28,30)        178.9415         estimate D2E/DX2                !
 ! D103  D(29,25,28,52)         -3.6766         estimate D2E/DX2                !
 ! D104  D(24,26,30,28)          0.5231         estimate D2E/DX2                !
 ! D105  D(24,26,30,31)       -179.6839         estimate D2E/DX2                !
 ! D106  D(48,26,30,28)       -176.982          estimate D2E/DX2                !
 ! D107  D(48,26,30,31)          2.8111         estimate D2E/DX2                !
 ! D108  D(24,26,48,49)         30.4053         estimate D2E/DX2                !
 ! D109  D(24,26,48,50)        -89.2837         estimate D2E/DX2                !
 ! D110  D(24,26,48,51)        151.0993         estimate D2E/DX2                !
 ! D111  D(30,26,48,49)       -152.0663         estimate D2E/DX2                !
 ! D112  D(30,26,48,50)         88.2446         estimate D2E/DX2                !
 ! D113  D(30,26,48,51)        -31.3723         estimate D2E/DX2                !
 ! D114  D(25,28,30,26)          0.153          estimate D2E/DX2                !
 ! D115  D(25,28,30,31)       -179.6401         estimate D2E/DX2                !
 ! D116  D(52,28,30,26)       -177.217          estimate D2E/DX2                !
 ! D117  D(52,28,30,31)          2.9899         estimate D2E/DX2                !
 ! D118  D(25,28,52,53)        -87.9            estimate D2E/DX2                !
 ! D119  D(25,28,52,54)        152.7396         estimate D2E/DX2                !
 ! D120  D(25,28,52,55)         31.4579         estimate D2E/DX2                !
 ! D121  D(30,28,52,53)         89.5021         estimate D2E/DX2                !
 ! D122  D(30,28,52,54)        -29.8583         estimate D2E/DX2                !
 ! D123  D(30,28,52,55)       -151.14           estimate D2E/DX2                !
 --------------------------------------------------------------------------------
 Trust Radius=3.00D-01 FncErr=1.00D-07 GrdErr=1.00D-06 EigMax=2.50D+02 EigMin=1.00D-04
 Number of steps in this run=    291 maximum allowed number of steps=    330.
 GradGradGradGradGradGradGradGradGradGradGradGradGradGradGradGradGradGrad

 Leave Link  103 at Wed Jun  5 18:54:01 2019, MaxMem=  6442450944 cpu:               1.3 elap:               0.1
 (Enter /home/ekwan/sw/g16/l202.exe)
 Stoichiometry    C18H22F6O8S
 Framework group  C1[X(C18H22F6O8S)]
 Deg. of freedom   159
 Full point group                 C1      NOp   1
 Largest Abelian subgroup         C1      NOp   1
 Largest concise Abelian subgroup C1      NOp   1
                         Standard orientation:                         
 ---------------------------------------------------------------------
 Center     Atomic      Atomic             Coordinates (Angstroms)
 Number     Number       Type             X           Y           Z
 ---------------------------------------------------------------------
      1          6           0        3.492865   -0.191469    0.743327
      2          6           0        3.335741   -0.507502   -0.739931
      3          6           0        1.867240   -0.423291   -1.168316
      4          6           0        1.320347    1.077400    0.595121
      5          6           0        2.764727    1.102701    1.085233
      6          1           0        1.758904   -0.505315   -2.245770
      7          1           0        3.858963    0.273014   -1.306807
      8          1           0        3.050437   -1.003290    1.329322
      9          1           0        0.772324    0.312744    1.154367
     10          1           0        3.276304    1.933953    0.593357
     11          8           0        1.267600    0.759479   -0.798160
     12          8           0        1.198905   -1.556445   -0.566631
     13          8           0        3.895451   -1.758600   -1.003836
     14          8           0        4.846192   -0.027504    1.081531
     15          8           0        2.736768    1.294422    2.476737
     16          6           0        0.612807    2.402107    0.817825
     17          1           0        0.509243    2.529411    1.894452
     18          1           0       -0.388146    2.353437    0.378497
     19          8           0        1.308716    3.523439    0.343643
     20         16           0       -0.087958   -2.203266   -1.284155
     21          8           0       -0.193971   -3.534947   -0.730959
     22          8           0        0.025417   -1.985099   -2.715236
     23          6           0       -1.440855   -1.233830   -0.675823
     24          6           0       -2.134691   -1.674535    0.441255
     25          6           0       -1.777832   -0.057092   -1.329564
     26          6           0       -3.191720   -0.907928    0.913746
     27          1           0       -1.858013   -2.599463    0.924542
     28          6           0       -2.828387    0.700810   -0.832817
     29          1           0       -1.235997    0.258770   -2.207602
     30          6           0       -3.538209    0.280393    0.285020
     31          1           0       -4.358021    0.873957    0.660946
     32          6           0        4.136246   -2.037639   -2.363220
     33          1           0        3.209081   -2.185013   -2.924106
     34          1           0        4.713018   -1.237084   -2.836428
     35          1           0        4.711732   -2.959220   -2.401019
     36          6           0        5.484955   -1.170067    1.602752
     37          1           0        6.501431   -0.875885    1.856706
     38          1           0        4.983841   -1.522513    2.509768
     39          1           0        5.513934   -1.981275    0.875172
     40          6           0        3.625224    2.276162    2.958909
     41          1           0        3.495179    2.320611    4.038482
     42          1           0        4.660598    2.018537    2.730851
     43          1           0        3.395531    3.257320    2.532930
     44          6           0        1.119272    3.821995   -1.019983
     45          1           0        1.541629    4.810202   -1.192420
     46          1           0        0.054379    3.842488   -1.271848
     47          1           0        1.615666    3.101039   -1.671562
     48          6           0       -4.000218   -1.397232    2.079630
     49          9           0       -3.262095   -2.142104    2.909869
     50          9           0       -5.029153   -2.154965    1.675425
     51          9           0       -4.510906   -0.379796    2.782796
     52          6           0       -3.158735    2.014061   -1.477280
     53          9           0       -2.440698    3.015042   -0.933109
     54          9           0       -4.447384    2.331445   -1.323780
     55          9           0       -2.886206    2.004556   -2.785353
 ---------------------------------------------------------------------
 Rotational constants (GHZ):           0.1527117           0.0823504           0.0753944
 Leave Link  202 at Wed Jun  5 18:54:02 2019, MaxMem=  6442450944 cpu:               2.7 elap:               0.1
 (Enter /home/ekwan/sw/g16/l301.exe)
 Standard basis: 6-31G(d) (6D, 7F)
 Ernie: Thresh=  0.10000D-02 Tol=  0.10000D-05 Strict=F.
 There are   543 symmetry adapted cartesian basis functions of A   symmetry.
 There are   543 symmetry adapted basis functions of A   symmetry.
   543 basis functions,  1036 primitive gaussians,   543 cartesian basis functions
   132 alpha electrons      132 beta electrons
       nuclear repulsion energy      4309.3042539122 Hartrees.
 IExCor= 5547 DFT=T Ex+Corr=N12SX ExCW=0 ScaHFX=  0.250000
 ScaDFX=  1.000000  1.000000  1.000000  1.000000 ScalE2=  1.000000  1.000000
 IRadAn=      5 IRanWt=     -1 IRanGd=            0 ICorTp=0 IEmpDi=  4
 HFx  wShort=  0.110000 wLong=  0.000000 cFull=  0.000000 cShort=  1.000000 cLong=  0.000000
 DFx  wShort=  0.110000 wLong=  0.000000 cFull=  0.000000 cShort=  1.000000 cLong=  0.000000
 NAtoms=   55 NActive=   55 NUniq=   55 SFac= 1.00D+00 NAtFMM=   60 NAOKFM=F Big=F
 Integral buffers will be    131072 words long.
 Raffenetti 2 integral format.
 Two-electron integral symmetry is turned on.
 ------------------------------------------------------------------------------
 Polarizable Continuum Model (PCM)
 =================================
 Model                : PCM.
 Atomic radii         : UFF (Universal Force Field).
 Polarization charges : Total charges.
 Charge compensation  : None.
 Solution method      : On-the-fly selection.
 Cavity type          : Scaled VdW (van der Waals Surface) (Alpha=1.100).
 Cavity algorithm     : GePol (No added spheres)
                        Default sphere list used, NSphG=   55.
                        Lebedev-Laikov grids with approx.  5.0 points / Ang**2.
                        Smoothing algorithm: York/Karplus (Gamma=1.0000).
                        Polarization charges: spherical gaussians, with
                                              point-specific exponents (IZeta= 3).
                        Self-potential: point-specific (ISelfS= 7).
                        Self-field    : sphere-specific E.n sum rule (ISelfD= 2).
 1st derivatives      : Analytical E(r).r(x)/FMM algorithm (CHGder, D1EAlg=3).
                        Cavity 1st derivative terms included.
 Solvent              : TetraHydroFuran, Eps=   7.425700 Eps(inf)=   1.974025
 ------------------------------------------------------------------------------
 GePol: Number of generator spheres                  =      55
 GePol: Total number of spheres                      =      55
 GePol: Number of exposed spheres                    =      55 (100.00%)
 GePol: Number of points                             =    3927
 GePol: Average weight of points                     =       0.13
 GePol: Minimum weight of points                     =   0.11D-10
 GePol: Maximum weight of points                     =    0.20577
 GePol: Number of points with low weight             =     248
 GePol: Fraction of low-weight points (<1% of avg)   =       6.32%
 GePol: Cavity surface area                          =    498.346 Ang**2
 GePol: Cavity volume                                =    575.081 Ang**3
 Leave Link  301 at Wed Jun  5 18:54:02 2019, MaxMem=  6442450944 cpu:               6.6 elap:               0.3
 (Enter /home/ekwan/sw/g16/l302.exe)
 NPDir=0 NMtPBC=     1 NCelOv=     1 NCel=       1 NClECP=     1 NCelD=      1
         NCelK=      1 NCelE2=     1 NClLst=     1 CellRange=     0.0.
 One-electron integrals computed using PRISM.
 One-electron integral symmetry used in STVInt
 NBasis=   543 RedAO= T EigKep=  3.96D-04  NBF=   543
 NBsUse=   543 1.00D-06 EigRej= -1.00D+00 NBFU=   543
 Precomputing XC quadrature grid using
 IXCGrd= 4 IRadAn=           5 IRanWt=          -1 IRanGd=           0 AccXCQ= 0.00D+00.
 Generated NRdTot=       0 NPtTot=           0 NUsed=           0 NTot=          32
 NSgBfM=   532   530   531   531   532 MxSgAt=    55 MxSgA2=    55.
 Leave Link  302 at Wed Jun  5 18:54:12 2019, MaxMem=  6442450944 cpu:             270.1 elap:               9.7
 (Enter /home/ekwan/sw/g16/l303.exe)
 DipDrv:  MaxL=1.
 Leave Link  303 at Wed Jun  5 18:54:12 2019, MaxMem=  6442450944 cpu:               8.2 elap:               0.4
 (Enter /home/ekwan/sw/g16/l401.exe)
 ExpMin= 1.17D-01 ExpMax= 2.19D+04 ExpMxC= 3.30D+03 IAcc=3 IRadAn=         5 AccDes= 0.00D+00
 Harris functional with IExCor= 5547 and IRadAn=       5 diagonalized for initial guess.
 HarFok:  IExCor= 5547 AccDes= 0.00D+00 IRadAn=         5 IDoV= 1 UseB2=F ITyADJ=14
 ICtDFT=  3500011 ScaDFX=  1.000000  1.000000  1.000000  1.000000
 FoFCou: FMM=F IPFlag=           0 FMFlag=      100000 FMFlg1=           0
         NFxFlg=           0 DoJE=T BraDBF=F KetDBF=T FulRan=T
         wScrn=  0.000000 ICntrl=       500 IOpCl=  0 I1Cent=   200000004 NGrid=           0
         NMat0=    1 NMatS0=      1 NMatT0=    0 NMatD0=    1 NMtDS0=    0 NMtDT0=    0
 Petite list used in FoFCou.
 Harris En= -2239.03624376098    
 JPrj=0 DoOrth=F DoCkMO=F.
 Leave Link  401 at Wed Jun  5 18:54:20 2019, MaxMem=  6442450944 cpu:             240.1 elap:               7.9
 (Enter /home/ekwan/sw/g16/l502.exe)
 Integral symmetry usage will be decided dynamically.
 Closed shell SCF:
 Using DIIS extrapolation, IDIIS=  1040.
 NGot=  6442450944 LenX=  6441838015 LenY=  6441542623
 Requested convergence on RMS density matrix=1.00D-08 within 128 cycles.
 Requested convergence on MAX density matrix=1.00D-06.
 Requested convergence on             energy=1.00D-06.
 No special actions if energy rises.
 Fock matrices will be formed incrementally for  20 cycles.

 Cycle   1  Pass 1  IDiag  1:
 FoFJK:  IHMeth= 1 ICntrl=       0 DoSepK=T KAlg= 0 I1Cent=           0 FoldK=F
 IRaf=         1 NMat=       1 IRICut=       1 DoRegI=T DoRafI=F ISym2E= 0 IDoP0=0 IntGTp=1.
 FoFCou: FMM=F IPFlag=           0 FMFlag=      100000 FMFlg1=           0
         NFxFlg=           0 DoJE=T BraDBF=F KetDBF=F FulRan=T
         wScrn=  0.000000 ICntrl=       500 IOpCl=  0 I1Cent=           0 NGrid=           0
         NMat0=    1 NMatS0=      1 NMatT0=    0 NMatD0=    1 NMtDS0=    0 NMtDT0=    0
 Symmetry not used in FoFCou.
 Inv3:  Mode=1 IEnd=    46263987.
 Iteration    1 A*A^-1 deviation from unit magnitude is 7.44D-15 for   3904.
 Iteration    1 A*A^-1 deviation from orthogonality  is 3.51D-15 for   3897   2781.
 Iteration    1 A^-1*A deviation from unit magnitude is 7.44D-15 for   3904.
 Iteration    1 A^-1*A deviation from orthogonality  is 2.20D-15 for   3900   2716.
 E= -2296.38940944915    
 DIIS: error= 7.16D-02 at cycle   1 NSaved=   1.
 NSaved= 1 IEnMin= 1 EnMin= -2296.38940944915     IErMin= 1 ErrMin= 7.16D-02
 ErrMax= 7.16D-02  0.00D+00 EMaxC= 1.00D-01 BMatC= 2.38D+00 BMatP= 2.38D+00
 IDIUse=3 WtCom= 2.84D-01 WtEn= 7.16D-01
 Coeff-Com:  0.100D+01
 Coeff-En:   0.100D+01
 Coeff:      0.100D+01
 Gap=     0.267 Goal=   None    Shift=    0.000
 GapD=    0.267 DampG=1.000 DampE=0.500 DampFc=0.5000 IDamp=-1.
 Damping current iteration by 5.00D-01
 RMSDP=4.40D-03 MaxDP=5.72D-01              OVMax= 2.59D-01

 Cycle   2  Pass 1  IDiag  1:
 RMSU=  2.20D-03    CP:  9.91D-01
 E= -2296.71868533589     Delta-E=       -0.329275886743 Rises=F Damp=T
 DIIS: error= 3.74D-02 at cycle   2 NSaved=   2.
 NSaved= 2 IEnMin= 2 EnMin= -2296.71868533589     IErMin= 2 ErrMin= 3.74D-02
 ErrMax= 3.74D-02  0.00D+00 EMaxC= 1.00D-01 BMatC= 3.89D-01 BMatP= 2.38D+00
 IDIUse=3 WtCom= 6.26D-01 WtEn= 3.74D-01
 Coeff-Com: -0.168D+00 0.117D+01
 Coeff-En:   0.129D+00 0.871D+00
 Coeff:     -0.572D-01 0.106D+01
 Gap=     0.359 Goal=   None    Shift=    0.000
 RMSDP=1.43D-03 MaxDP=1.22D-01 DE=-3.29D-01 OVMax= 1.72D-01

 Cycle   3  Pass 1  IDiag  1:
 RMSU=  1.42D-03    CP:  9.93D-01  9.13D-01
 E= -2297.02003064573     Delta-E=       -0.301345309840 Rises=F Damp=F
 DIIS: error= 1.16D-02 at cycle   3 NSaved=   3.
 NSaved= 3 IEnMin= 3 EnMin= -2297.02003064573     IErMin= 3 ErrMin= 1.16D-02
 ErrMax= 1.16D-02  0.00D+00 EMaxC= 1.00D-01 BMatC= 2.40D-01 BMatP= 3.89D-01
 IDIUse=3 WtCom= 8.84D-01 WtEn= 1.16D-01
 Coeff-Com: -0.207D+00 0.597D+00 0.609D+00
 Coeff-En:   0.000D+00 0.000D+00 0.100D+01
 Coeff:     -0.183D+00 0.528D+00 0.655D+00
 Gap=     0.163 Goal=   None    Shift=    0.000
 RMSDP=1.23D-03 MaxDP=8.31D-02 DE=-3.01D-01 OVMax= 1.29D-01

 Cycle   4  Pass 1  IDiag  1:
 RMSU=  7.13D-04    CP:  9.92D-01  1.14D+00  3.87D-01
 E= -2297.14092428793     Delta-E=       -0.120893642198 Rises=F Damp=F
 DIIS: error= 7.01D-03 at cycle   4 NSaved=   4.
 NSaved= 4 IEnMin= 4 EnMin= -2297.14092428793     IErMin= 4 ErrMin= 7.01D-03
 ErrMax= 7.01D-03  0.00D+00 EMaxC= 1.00D-01 BMatC= 8.44D-02 BMatP= 2.40D-01
 IDIUse=3 WtCom= 9.30D-01 WtEn= 7.01D-02
 Coeff-Com: -0.104D+00 0.245D+00 0.428D+00 0.431D+00
 Coeff-En:   0.000D+00 0.000D+00 0.285D+00 0.715D+00
 Coeff:     -0.971D-01 0.228D+00 0.418D+00 0.451D+00
 Gap=     0.171 Goal=   None    Shift=    0.000
 RMSDP=5.91D-04 MaxDP=4.79D-02 DE=-1.21D-01 OVMax= 5.27D-02

 Cycle   5  Pass 1  IDiag  1:
 RMSU=  2.26D-04    CP:  9.89D-01  1.12D+00  6.17D-01  3.90D-01
 E= -2297.20274420475     Delta-E=       -0.061819916820 Rises=F Damp=F
 DIIS: error= 1.22D-03 at cycle   5 NSaved=   5.
 NSaved= 5 IEnMin= 5 EnMin= -2297.20274420475     IErMin= 5 ErrMin= 1.22D-03
 ErrMax= 1.22D-03  0.00D+00 EMaxC= 1.00D-01 BMatC= 3.61D-03 BMatP= 8.44D-02
 IDIUse=3 WtCom= 9.88D-01 WtEn= 1.22D-02
 Coeff-Com: -0.380D-01 0.804D-01 0.186D+00 0.261D+00 0.511D+00
 Coeff-En:   0.000D+00 0.000D+00 0.000D+00 0.000D+00 0.100D+01
 Coeff:     -0.375D-01 0.794D-01 0.184D+00 0.258D+00 0.517D+00
 Gap=     0.161 Goal=   None    Shift=    0.000
 RMSDP=1.25D-04 MaxDP=6.62D-03 DE=-6.18D-02 OVMax= 1.16D-02

 Cycle   6  Pass 1  IDiag  1:
 RMSU=  5.75D-05    CP:  9.90D-01  1.13D+00  6.07D-01  4.78D-01  6.03D-01
 E= -2297.20569180941     Delta-E=       -0.002947604665 Rises=F Damp=F
 DIIS: error= 2.69D-04 at cycle   6 NSaved=   6.
 NSaved= 6 IEnMin= 6 EnMin= -2297.20569180941     IErMin= 6 ErrMin= 2.69D-04
 ErrMax= 2.69D-04  0.00D+00 EMaxC= 1.00D-01 BMatC= 1.42D-04 BMatP= 3.61D-03
 IDIUse=3 WtCom= 9.97D-01 WtEn= 2.69D-03
 Coeff-Com: -0.787D-02 0.153D-01 0.443D-01 0.748D-01 0.235D+00 0.638D+00
 Coeff-En:   0.000D+00 0.000D+00 0.000D+00 0.000D+00 0.000D+00 0.100D+01
 Coeff:     -0.785D-02 0.152D-01 0.442D-01 0.746D-01 0.235D+00 0.639D+00
 Gap=     0.161 Goal=   None    Shift=    0.000
 RMSDP=3.14D-05 MaxDP=1.75D-03 DE=-2.95D-03 OVMax= 3.75D-03

 Cycle   7  Pass 1  IDiag  1:
 RMSU=  2.11D-05    CP:  9.90D-01  1.12D+00  6.10D-01  4.81D-01  6.44D-01
                    CP:  6.56D-01
 E= -2297.20579103860     Delta-E=       -0.000099229192 Rises=F Damp=F
 DIIS: error= 1.29D-04 at cycle   7 NSaved=   7.
 NSaved= 7 IEnMin= 7 EnMin= -2297.20579103860     IErMin= 7 ErrMin= 1.29D-04
 ErrMax= 1.29D-04  0.00D+00 EMaxC= 1.00D-01 BMatC= 2.66D-05 BMatP= 1.42D-04
 IDIUse=3 WtCom= 9.99D-01 WtEn= 1.29D-03
 Coeff-Com:  0.297D-03-0.104D-02 0.128D-02 0.824D-02 0.657D-01 0.363D+00
 Coeff-Com:  0.563D+00
 Coeff-En:   0.000D+00 0.000D+00 0.000D+00 0.000D+00 0.000D+00 0.147D+00
 Coeff-En:   0.853D+00
 Coeff:      0.296D-03-0.104D-02 0.128D-02 0.823D-02 0.656D-01 0.363D+00
 Coeff:      0.563D+00
 Gap=     0.162 Goal=   None    Shift=    0.000
 RMSDP=1.07D-05 MaxDP=7.02D-04 DE=-9.92D-05 OVMax= 1.61D-03

 Cycle   8  Pass 1  IDiag  1:
 RMSU=  4.19D-06    CP:  9.90D-01  1.12D+00  6.09D-01  4.80D-01  6.48D-01
                    CP:  7.31D-01  5.89D-01
 E= -2297.20581471721     Delta-E=       -0.000023678611 Rises=F Damp=F
 DIIS: error= 4.30D-05 at cycle   8 NSaved=   8.
 NSaved= 8 IEnMin= 8 EnMin= -2297.20581471721     IErMin= 8 ErrMin= 4.30D-05
 ErrMax= 4.30D-05  0.00D+00 EMaxC= 1.00D-01 BMatC= 1.08D-06 BMatP= 2.66D-05
 IDIUse=1 WtCom= 1.00D+00 WtEn= 0.00D+00
 Coeff-Com:  0.519D-03-0.126D-02-0.128D-02 0.127D-02 0.257D-01 0.171D+00
 Coeff-Com:  0.296D+00 0.508D+00
 Coeff:      0.519D-03-0.126D-02-0.128D-02 0.127D-02 0.257D-01 0.171D+00
 Coeff:      0.296D+00 0.508D+00
 Gap=     0.162 Goal=   None    Shift=    0.000
 RMSDP=2.33D-06 MaxDP=1.51D-04 DE=-2.37D-05 OVMax= 3.03D-04

 Cycle   9  Pass 1  IDiag  1:
 RMSU=  1.77D-06    CP:  9.90D-01  1.12D+00  6.09D-01  4.79D-01  6.50D-01
                    CP:  7.33D-01  6.01D-01  6.81D-01
 E= -2297.20581550361     Delta-E=       -0.000000786394 Rises=F Damp=F
 DIIS: error= 1.23D-05 at cycle   9 NSaved=   9.
 NSaved= 9 IEnMin= 9 EnMin= -2297.20581550361     IErMin= 9 ErrMin= 1.23D-05
 ErrMax= 1.23D-05  0.00D+00 EMaxC= 1.00D-01 BMatC= 1.28D-07 BMatP= 1.08D-06
 IDIUse=1 WtCom= 1.00D+00 WtEn= 0.00D+00
 Coeff-Com:  0.206D-03-0.459D-03-0.825D-03-0.498D-03 0.402D-02 0.388D-01
 Coeff-Com:  0.760D-01 0.277D+00 0.606D+00
 Coeff:      0.206D-03-0.459D-03-0.825D-03-0.498D-03 0.402D-02 0.388D-01
 Coeff:      0.760D-01 0.277D+00 0.606D+00
 Gap=     0.162 Goal=   None    Shift=    0.000
 RMSDP=8.30D-07 MaxDP=4.89D-05 DE=-7.86D-07 OVMax= 1.09D-04

 Cycle  10  Pass 1  IDiag  1:
 RMSU=  4.48D-07    CP:  9.90D-01  1.12D+00  6.09D-01  4.79D-01  6.49D-01
                    CP:  7.35D-01  6.02D-01  7.49D-01  6.59D-01
 E= -2297.20581560592     Delta-E=       -0.000000102312 Rises=F Damp=F
 DIIS: error= 5.06D-06 at cycle  10 NSaved=  10.
 NSaved=10 IEnMin=10 EnMin= -2297.20581560592     IErMin=10 ErrMin= 5.06D-06
 ErrMax= 5.06D-06  0.00D+00 EMaxC= 1.00D-01 BMatC= 1.76D-08 BMatP= 1.28D-07
 IDIUse=1 WtCom= 1.00D+00 WtEn= 0.00D+00
 Coeff-Com:  0.758D-04-0.159D-03-0.362D-03-0.373D-03 0.378D-03 0.973D-02
 Coeff-Com:  0.222D-01 0.117D+00 0.348D+00 0.503D+00
 Coeff:      0.758D-04-0.159D-03-0.362D-03-0.373D-03 0.378D-03 0.973D-02
 Coeff:      0.222D-01 0.117D+00 0.348D+00 0.503D+00
 Gap=     0.162 Goal=   None    Shift=    0.000
 RMSDP=2.56D-07 MaxDP=1.88D-05 DE=-1.02D-07 OVMax= 3.03D-05

 Cycle  11  Pass 1  IDiag  1:
 RMSU=  1.42D-07    CP:  9.90D-01  1.12D+00  6.09D-01  4.79D-01  6.49D-01
                    CP:  7.35D-01  6.03D-01  7.43D-01  7.14D-01  6.03D-01
 E= -2297.20581561915     Delta-E=       -0.000000013232 Rises=F Damp=F
 DIIS: error= 1.09D-06 at cycle  11 NSaved=  11.
 NSaved=11 IEnMin=11 EnMin= -2297.20581561915     IErMin=11 ErrMin= 1.09D-06
 ErrMax= 1.09D-06  0.00D+00 EMaxC= 1.00D-01 BMatC= 1.01D-09 BMatP= 1.76D-08
 IDIUse=1 WtCom= 1.00D+00 WtEn= 0.00D+00
 Coeff-Com:  0.141D-04-0.266D-04-0.811D-04-0.125D-03-0.327D-03-0.550D-04
 Coeff-Com:  0.136D-02 0.197D-01 0.860D-01 0.236D+00 0.657D+00
 Coeff:      0.141D-04-0.266D-04-0.811D-04-0.125D-03-0.327D-03-0.550D-04
 Coeff:      0.136D-02 0.197D-01 0.860D-01 0.236D+00 0.657D+00
 Gap=     0.162 Goal=   None    Shift=    0.000
 RMSDP=7.35D-08 MaxDP=6.11D-06 DE=-1.32D-08 OVMax= 6.94D-06

 Cycle  12  Pass 1  IDiag  1:
 RMSU=  5.25D-08    CP:  9.90D-01  1.12D+00  6.09D-01  4.79D-01  6.49D-01
                    CP:  7.35D-01  6.03D-01  7.48D-01  7.18D-01  6.55D-01
                    CP:  7.27D-01
 E= -2297.20581561976     Delta-E=       -0.000000000605 Rises=F Damp=F
 DIIS: error= 5.56D-07 at cycle  12 NSaved=  12.
 NSaved=12 IEnMin=12 EnMin= -2297.20581561976     IErMin=12 ErrMin= 5.56D-07
 ErrMax= 5.56D-07  0.00D+00 EMaxC= 1.00D-01 BMatC= 2.22D-10 BMatP= 1.01D-09
 IDIUse=1 WtCom= 1.00D+00 WtEn= 0.00D+00
 Coeff-Com:  0.859D-06-0.152D-06-0.124D-04-0.369D-04-0.244D-03-0.102D-02
 Coeff-Com: -0.138D-02 0.506D-03 0.190D-01 0.984D-01 0.405D+00 0.480D+00
 Coeff:      0.859D-06-0.152D-06-0.124D-04-0.369D-04-0.244D-03-0.102D-02
 Coeff:     -0.138D-02 0.506D-03 0.190D-01 0.984D-01 0.405D+00 0.480D+00
 Gap=     0.162 Goal=   None    Shift=    0.000
 RMSDP=3.33D-08 MaxDP=2.61D-06 DE=-6.05D-10 OVMax= 3.67D-06

 Cycle  13  Pass 1  IDiag  1:
 RMSU=  1.72D-08    CP:  9.90D-01  1.12D+00  6.09D-01  4.79D-01  6.49D-01
                    CP:  7.35D-01  6.03D-01  7.48D-01  7.17D-01  6.63D-01
                    CP:  7.96D-01  5.15D-01
 E= -2297.20581561986     Delta-E=       -0.000000000103 Rises=F Damp=F
 DIIS: error= 1.47D-07 at cycle  13 NSaved=  13.
 NSaved=13 IEnMin=13 EnMin= -2297.20581561986     IErMin=13 ErrMin= 1.47D-07
 ErrMax= 1.47D-07  0.00D+00 EMaxC= 1.00D-01 BMatC= 2.05D-11 BMatP= 2.22D-10
 IDIUse=1 WtCom= 1.00D+00 WtEn= 0.00D+00
 Coeff-Com: -0.136D-05 0.327D-05 0.462D-05-0.203D-05-0.907D-04-0.555D-03
 Coeff-Com: -0.919D-03-0.240D-02-0.846D-03 0.233D-01 0.137D+00 0.272D+00
 Coeff-Com:  0.573D+00
 Coeff:     -0.136D-05 0.327D-05 0.462D-05-0.203D-05-0.907D-04-0.555D-03
 Coeff:     -0.919D-03-0.240D-02-0.846D-03 0.233D-01 0.137D+00 0.272D+00
 Coeff:      0.573D+00
 Gap=     0.162 Goal=   None    Shift=    0.000
 RMSDP=1.01D-08 MaxDP=6.85D-07 DE=-1.03D-10 OVMax= 9.72D-07

 Cycle  14  Pass 1  IDiag  1:
 RMSU=  6.40D-09    CP:  9.90D-01  1.12D+00  6.09D-01  4.79D-01  6.49D-01
                    CP:  7.35D-01  6.03D-01  7.48D-01  7.18D-01  6.67D-01
                    CP:  7.94D-01  5.88D-01  6.56D-01
 E= -2297.20581561995     Delta-E=       -0.000000000094 Rises=F Damp=F
 DIIS: error= 4.36D-08 at cycle  14 NSaved=  14.
 NSaved=14 IEnMin=14 EnMin= -2297.20581561995     IErMin=14 ErrMin= 4.36D-08
 ErrMax= 4.36D-08  0.00D+00 EMaxC= 1.00D-01 BMatC= 2.05D-12 BMatP= 2.05D-11
 IDIUse=1 WtCom= 1.00D+00 WtEn= 0.00D+00
 Coeff-Com: -0.432D-06 0.921D-06 0.261D-05 0.221D-05-0.172D-04-0.145D-03
 Coeff-Com: -0.257D-03-0.116D-02-0.221D-02 0.103D-02 0.218D-01 0.806D-01
 Coeff-Com:  0.300D+00 0.601D+00
 Coeff:     -0.432D-06 0.921D-06 0.261D-05 0.221D-05-0.172D-04-0.145D-03
 Coeff:     -0.257D-03-0.116D-02-0.221D-02 0.103D-02 0.218D-01 0.806D-01
 Coeff:      0.300D+00 0.601D+00
 Gap=     0.162 Goal=   None    Shift=    0.000
 RMSDP=3.18D-09 MaxDP=2.17D-07 DE=-9.37D-11 OVMax= 2.98D-07

 Error on total polarization charges =  0.00871
 SCF Done:  E(RN12SX) =  -2297.20581562     A.U. after   14 cycles
            NFock= 14  Conv=0.32D-08     -V/T= 2.0076
 KE= 2.279920201338D+03 PE=-1.402687706774D+04 EE= 5.140446796866D+03
 Leave Link  502 at Wed Jun  5 18:59:36 2019, MaxMem=  6442450944 cpu:            9520.7 elap:             315.9
 (Enter /home/ekwan/sw/g16/l701.exe)
 ... and contract with generalized density number  0.
 Compute integral first derivatives.
 D1PCM: PCM CHGder 1st derivatives, ID1Alg=3 FixD1E=F DoIter=F DoCFld=F I1PDM=0.
 GePol: Maximum number of non-zero 1st derivatives   =     222
 Leave Link  701 at Wed Jun  5 18:59:46 2019, MaxMem=  6442450944 cpu:             296.7 elap:              10.7
 (Enter /home/ekwan/sw/g16/l702.exe)
 L702 exits ... SP integral derivatives will be done elsewhere.
 Leave Link  702 at Wed Jun  5 18:59:47 2019, MaxMem=  6442450944 cpu:               2.3 elap:               0.1
 (Enter /home/ekwan/sw/g16/l703.exe)
 Integral derivatives from FoFJK, PRISM(SPDF).
 Compute integral first derivatives, UseDBF=F ICtDFT=           0.
 Calling FoFJK, ICntrl=      2127 FMM=F ISym2X=0 I1Cent= 0 IOpClX= 0 NMat=1 NMatS=1 NMatT=0.
 FoFJK:  IHMeth= 1 ICntrl=    2127 DoSepK=T KAlg= 0 I1Cent=           0 FoldK=F
 IRaf=         1 NMat=       1 IRICut=       1 DoRegI=T DoRafI=F ISym2E= 0 IDoP0=0 IntGTp=1.
 FoFCou: FMM=F IPFlag=           0 FMFlag=      100000 FMFlg1=         800
         NFxFlg=           0 DoJE=F BraDBF=F KetDBF=F FulRan=T
         wScrn=  0.000000 ICntrl=      2527 IOpCl=  0 I1Cent=           0 NGrid=           0
         NMat0=    1 NMatS0=      1 NMatT0=    0 NMatD0=    1 NMtDS0=    0 NMtDT0=    0
 Symmetry not used in FoFCou.
 Leave Link  703 at Wed Jun  5 19:00:51 2019, MaxMem=  6442450944 cpu:            1921.8 elap:              64.3
 (Enter /home/ekwan/sw/g16/l716.exe)
 Dipole        = 3.50319076D-01 1.14575352D+00-1.81461244D-01
 ***** Axes restored to original set *****
 -------------------------------------------------------------------
 Center     Atomic                   Forces (Hartrees/Bohr)
 Number     Number              X              Y              Z
 -------------------------------------------------------------------
      1        6          -0.000000675    0.000007769   -0.000000919
      2        6           0.000001587   -0.000003939   -0.000000172
      3        6          -0.000005349   -0.000000901    0.000008895
      4        6          -0.000001047   -0.000000939    0.000001686
      5        6           0.000003698   -0.000001183    0.000002989
      6        1          -0.000001279   -0.000001247    0.000001111
      7        1          -0.000000042    0.000001521   -0.000000447
      8        1          -0.000000121    0.000000208   -0.000000165
      9        1          -0.000000807   -0.000000401   -0.000001607
     10        1          -0.000003279    0.000003824   -0.000003028
     11        8           0.000003084    0.000007834   -0.000001411
     12        8          -0.000001932   -0.000006621   -0.000004830
     13        8           0.000005043   -0.000000107    0.000006351
     14        8           0.000002141   -0.000004012   -0.000004633
     15        8          -0.000003656    0.000009227   -0.000002076
     16        6          -0.000001097    0.000004046   -0.000003727
     17        1          -0.000001196    0.000002720   -0.000002440
     18        1          -0.000003540   -0.000001342   -0.000001793
     19        8          -0.000000872   -0.000004248   -0.000005350
     20       16           0.000007191    0.000001079    0.000006628
     21        8           0.000001467   -0.000000714    0.000003225
     22        8           0.000000885   -0.000003528    0.000000025
     23        6           0.000003487    0.000003594   -0.000007560
     24        6           0.000005367   -0.000000317    0.000004838
     25        6          -0.000004473   -0.000002698    0.000004778
     26        6           0.000001675   -0.000005072    0.000003435
     27        1          -0.000000433   -0.000000820    0.000003343
     28        6           0.000000618   -0.000007125    0.000000874
     29        1           0.000002694   -0.000004222    0.000000018
     30        6          -0.000001004    0.000001697    0.000000115
     31        1          -0.000001362   -0.000001003   -0.000000278
     32        6           0.000001099   -0.000002949    0.000005310
     33        1          -0.000000214   -0.000001647    0.000000767
     34        1           0.000000698    0.000000540   -0.000001012
     35        1           0.000002731   -0.000000805    0.000000216
     36        6          -0.000001524    0.000007578    0.000000905
     37        1           0.000001038    0.000004812   -0.000000174
     38        1           0.000000489    0.000003181    0.000001141
     39        1           0.000000574    0.000000661   -0.000002184
     40        6           0.000003847   -0.000002743   -0.000000428
     41        1          -0.000000820    0.000005177   -0.000000635
     42        1          -0.000001779    0.000005204   -0.000002430
     43        1          -0.000001423    0.000005282   -0.000003174
     44        6          -0.000003157    0.000000072    0.000000699
     45        1          -0.000002209    0.000000310   -0.000003885
     46        1          -0.000001818   -0.000001657   -0.000002702
     47        1          -0.000000468   -0.000002175   -0.000003188
     48        6           0.000003474   -0.000001630    0.000003410
     49        9           0.000000845   -0.000000574    0.000001416
     50        9          -0.000002020   -0.000001755    0.000002204
     51        9           0.000000194    0.000002206    0.000001510
     52        6          -0.000009315   -0.000006233   -0.000008057
     53        9           0.000002445    0.000002451    0.000003206
     54        9           0.000002793   -0.000004557   -0.000001056
     55        9          -0.000002255   -0.000003834    0.000000270
 -------------------------------------------------------------------
 Cartesian Forces:  Max     0.000009315 RMS     0.000003323
 Leave Link  716 at Wed Jun  5 19:00:51 2019, MaxMem=  6442450944 cpu:               2.6 elap:               0.1
 (Enter /home/ekwan/sw/g16/l103.exe)

 GradGradGradGradGradGradGradGradGradGradGradGradGradGradGradGradGradGrad
 Berny optimization.
 FormGI is forming the generalized inverse of G from B-inverse, IUseBI=4.
 Internal  Forces:  Max     0.000008499 RMS     0.000002062
 Search for a local minimum.
 Step number   1 out of a maximum of  291
 All quantities printed in internal units (Hartrees-Bohrs-Radians)
 RMS Force = .20622D-05 SwitMx=.10000D-02 MixMth= 2
 Mixed Optimization -- En-DIIS/RFO-DIIS
 Second derivative matrix not updated -- first step.
 ITU=  0
     Eigenvalues ---    0.00525   0.00639   0.00704   0.00740   0.00755
     Eigenvalues ---    0.00770   0.01075   0.01466   0.01571   0.01573
     Eigenvalues ---    0.01576   0.01580   0.01622   0.01627   0.01632
     Eigenvalues ---    0.01661   0.01682   0.01688   0.01748   0.02236
     Eigenvalues ---    0.02239   0.02246   0.02250   0.02254   0.02257
     Eigenvalues ---    0.02498   0.02964   0.03367   0.04472   0.04621
     Eigenvalues ---    0.04756   0.04876   0.04956   0.05268   0.05314
     Eigenvalues ---    0.05830   0.06117   0.06596   0.07024   0.07069
     Eigenvalues ---    0.07204   0.07831   0.09360   0.10053   0.10093
     Eigenvalues ---    0.10117   0.10155   0.10575   0.10586   0.10610
     Eigenvalues ---    0.10613   0.10780   0.10782   0.10869   0.10967
     Eigenvalues ---    0.11011   0.11014   0.11523   0.11843   0.11940
     Eigenvalues ---    0.14136   0.14987   0.16000   0.16000   0.16000
     Eigenvalues ---    0.16000   0.16000   0.16000   0.16000   0.16000
     Eigenvalues ---    0.16000   0.16000   0.16000   0.16000   0.16000
     Eigenvalues ---    0.16000   0.16000   0.16495   0.16909   0.17523
     Eigenvalues ---    0.18745   0.19694   0.19853   0.20842   0.22138
     Eigenvalues ---    0.23482   0.23485   0.23501   0.24972   0.24978
     Eigenvalues ---    0.25000   0.25000   0.25000   0.25000   0.25000
     Eigenvalues ---    0.25000   0.25000   0.25000   0.25000   0.25000
     Eigenvalues ---    0.25000   0.25000   0.25000   0.27547   0.28447
     Eigenvalues ---    0.29061   0.29239   0.29585   0.30537   0.32294
     Eigenvalues ---    0.32409   0.33970   0.34285   0.34294   0.34302
     Eigenvalues ---    0.34305   0.34321   0.34331   0.34352   0.34401
     Eigenvalues ---    0.34469   0.34673   0.34692   0.34804   0.34921
     Eigenvalues ---    0.34995   0.35012   0.35017   0.35143   0.35280
     Eigenvalues ---    0.36032   0.36039   0.36112   0.38690   0.39507
     Eigenvalues ---    0.43290   0.43405   0.44140   0.44169   0.44205
     Eigenvalues ---    0.44246   0.44814   0.44875   0.45237   0.46329
     Eigenvalues ---    0.47520   0.47657   0.47665   0.47671   0.47802
     Eigenvalues ---    0.49496   0.55725   0.57151   0.57641   0.57765
     Eigenvalues ---    0.58066   0.58109   0.95031   0.97792
 RFO step:  Lambda=-1.17572858D-08 EMin= 5.24641759D-03
 Linear search not attempted -- first point.
 Iteration  1 RMS(Cart)=  0.00016643 RMS(Int)=  0.00000001
 Iteration  2 RMS(Cart)=  0.00000001 RMS(Int)=  0.00000000
 ITry= 1 IFail=0 DXMaxC= 6.64D-04 DCOld= 1.00D+10 DXMaxT= 3.00D-01 DXLimC= 3.00D+00 Rises=F
 Variable       Old X    -DE/DX   Delta X   Delta X   Delta X     New X
                                 (Linear)    (Quad)   (Total)
    R1        2.88121  -0.00001   0.00000  -0.00002  -0.00002   2.88119
    R2        2.87956   0.00000   0.00000   0.00001   0.00001   2.87957
    R3        2.06853   0.00000   0.00000   0.00000   0.00000   2.06853
    R4        2.65421   0.00000   0.00000  -0.00001  -0.00001   2.65421
    R5        2.89511   0.00000   0.00000   0.00000   0.00000   2.89511
    R6        2.07381   0.00000   0.00000   0.00000   0.00000   2.07381
    R7        2.63762   0.00000   0.00000   0.00001   0.00001   2.63763
    R8        2.05222   0.00000   0.00000   0.00000   0.00000   2.05222
    R9        2.60174   0.00000   0.00000   0.00001   0.00001   2.60175
   R10        2.73373   0.00000   0.00000   0.00000   0.00000   2.73373
   R11        2.88274   0.00000   0.00000   0.00001   0.00001   2.88275
   R12        2.06818   0.00000   0.00000   0.00000   0.00000   2.06818
   R13        2.70243   0.00000   0.00000   0.00000   0.00000   2.70243
   R14        2.86906   0.00000   0.00000   0.00000   0.00000   2.86906
   R15        2.06546   0.00000   0.00000   0.00000   0.00000   2.06546
   R16        2.65493   0.00000   0.00000   0.00000   0.00000   2.65493
   R17        3.04078  -0.00001   0.00000  -0.00002  -0.00002   3.04076
   R18        2.66161   0.00000   0.00000   0.00000   0.00000   2.66161
   R19        2.66253   0.00000   0.00000  -0.00001  -0.00001   2.66252
   R20        2.66288   0.00000   0.00000   0.00000   0.00000   2.66288
   R21        2.05803   0.00000   0.00000   0.00000   0.00000   2.05803
   R22        2.06775   0.00000   0.00000   0.00001   0.00001   2.06776
   R23        2.65002   0.00000   0.00000  -0.00001  -0.00001   2.65001
   R24        2.66210   0.00000   0.00000  -0.00001  -0.00001   2.66209
   R25        2.73236   0.00000   0.00000   0.00000   0.00000   2.73236
   R26        2.74397   0.00000   0.00000   0.00000   0.00000   2.74398
   R27        3.34871   0.00000   0.00000   0.00000   0.00000   3.34871
   R28        2.62086   0.00000   0.00000   0.00001   0.00001   2.62087
   R29        2.62233   0.00000   0.00000  -0.00001  -0.00001   2.62232
   R30        2.62410   0.00000   0.00000   0.00000   0.00000   2.62410
   R31        2.04021   0.00000   0.00000   0.00000   0.00000   2.04021
   R32        2.62178   0.00000   0.00000   0.00000   0.00000   2.62178
   R33        2.03907   0.00000   0.00000   0.00000   0.00000   2.03907
   R34        2.62356   0.00000   0.00000   0.00001   0.00001   2.62357
   R35        2.83608   0.00000   0.00000   0.00000   0.00000   2.83609
   R36        2.62540   0.00000   0.00000   0.00000   0.00000   2.62540
   R37        2.83402   0.00000   0.00000   0.00001   0.00001   2.83402
   R38        2.04032   0.00000   0.00000   0.00000   0.00000   2.04032
   R39        2.06659   0.00000   0.00000   0.00000   0.00000   2.06660
   R40        2.06792   0.00000   0.00000   0.00001   0.00001   2.06792
   R41        2.05444   0.00000   0.00000   0.00000   0.00000   2.05445
   R42        2.05647   0.00000   0.00000   0.00000   0.00000   2.05647
   R43        2.06838   0.00000   0.00000   0.00000   0.00000   2.06838
   R44        2.05995   0.00000   0.00000   0.00001   0.00001   2.05996
   R45        2.05656   0.00000   0.00000   0.00000   0.00000   2.05657
   R46        2.06178   0.00000   0.00000   0.00000   0.00000   2.06177
   R47        2.06741   0.00000   0.00000   0.00001   0.00001   2.06741
   R48        2.05683   0.00000   0.00000   0.00000   0.00000   2.05683
   R49        2.06824   0.00000   0.00000   0.00000   0.00000   2.06824
   R50        2.06209   0.00000   0.00000   0.00000   0.00000   2.06209
   R51        2.52754   0.00000   0.00000   0.00000   0.00000   2.52754
   R52        2.53269   0.00000   0.00000   0.00001   0.00001   2.53270
   R53        2.52858   0.00000   0.00000   0.00000   0.00000   2.52858
   R54        2.54494   0.00001   0.00000   0.00001   0.00001   2.54495
   R55        2.52468   0.00000   0.00000  -0.00001  -0.00001   2.52468
   R56        2.52504   0.00000   0.00000   0.00000   0.00000   2.52504
    A1        1.92312   0.00000   0.00000   0.00004   0.00004   1.92316
    A2        1.90225   0.00000   0.00000  -0.00003  -0.00003   1.90222
    A3        1.93665  -0.00001   0.00000  -0.00006  -0.00006   1.93659
    A4        1.89297   0.00000   0.00000   0.00001   0.00001   1.89298
    A5        1.88309   0.00001   0.00000   0.00006   0.00006   1.88315
    A6        1.92529   0.00000   0.00000   0.00000   0.00000   1.92529
    A7        1.93844   0.00000   0.00000  -0.00001  -0.00001   1.93843
    A8        1.88175   0.00000   0.00000  -0.00001  -0.00001   1.88175
    A9        1.90542   0.00000   0.00000  -0.00004  -0.00004   1.90538
   A10        1.84780   0.00000   0.00000  -0.00001  -0.00001   1.84779
   A11        1.96143   0.00001   0.00000   0.00005   0.00005   1.96149
   A12        1.92693   0.00000   0.00000   0.00001   0.00001   1.92694
   A13        1.94861   0.00000   0.00000  -0.00001  -0.00001   1.94861
   A14        1.97091   0.00000   0.00000   0.00000   0.00000   1.97091
   A15        1.85822   0.00000   0.00000   0.00001   0.00001   1.85823
   A16        1.86312   0.00000   0.00000  -0.00002  -0.00002   1.86310
   A17        1.88326   0.00000   0.00000  -0.00003  -0.00003   1.88323
   A18        1.93894   0.00000   0.00000   0.00006   0.00006   1.93900
   A19        1.89814   0.00000   0.00000   0.00002   0.00002   1.89816
   A20        1.93011   0.00000   0.00000  -0.00002  -0.00002   1.93009
   A21        1.96022   0.00000   0.00000   0.00002   0.00002   1.96023
   A22        1.90081   0.00000   0.00000  -0.00001  -0.00001   1.90080
   A23        1.87686   0.00000   0.00000   0.00001   0.00001   1.87687
   A24        1.89621   0.00000   0.00000  -0.00002  -0.00002   1.89618
   A25        1.94579   0.00000   0.00000  -0.00002  -0.00002   1.94576
   A26        1.89789   0.00000   0.00000   0.00001   0.00001   1.89790
   A27        1.92585   0.00000   0.00000   0.00002   0.00002   1.92587
   A28        1.88725   0.00000   0.00000  -0.00002  -0.00002   1.88723
   A29        1.87720   0.00000   0.00000   0.00000   0.00000   1.87721
   A30        1.92971   0.00000   0.00000   0.00000   0.00000   1.92971
   A31        2.02290   0.00000   0.00000   0.00001   0.00001   2.02291
   A32        2.09310   0.00000   0.00000  -0.00001  -0.00001   2.09309
   A33        2.01377   0.00000   0.00000   0.00001   0.00001   2.01378
   A34        2.01666  -0.00001   0.00000  -0.00002  -0.00002   2.01664
   A35        2.00582   0.00000   0.00000   0.00002   0.00002   2.00584
   A36        1.86640   0.00000   0.00000   0.00001   0.00001   1.86641
   A37        1.90562   0.00000   0.00000   0.00000   0.00000   1.90562
   A38        2.00075   0.00000   0.00000  -0.00001  -0.00001   2.00073
   A39        1.89139   0.00000   0.00000   0.00000   0.00000   1.89138
   A40        1.86293   0.00000   0.00000  -0.00001  -0.00001   1.86293
   A41        1.93239   0.00000   0.00000   0.00001   0.00001   1.93240
   A42        2.01534   0.00000   0.00000   0.00001   0.00001   2.01535
   A43        1.83201   0.00000   0.00000   0.00000   0.00000   1.83201
   A44        1.89298   0.00000   0.00000   0.00000   0.00000   1.89298
   A45        1.81067   0.00000   0.00000   0.00000   0.00000   1.81067
   A46        2.11902   0.00000   0.00000   0.00000   0.00000   2.11902
   A47        1.89287   0.00000   0.00000  -0.00001  -0.00001   1.89286
   A48        1.89204   0.00000   0.00000   0.00001   0.00001   1.89205
   A49        2.07671   0.00000   0.00000  -0.00001  -0.00001   2.07670
   A50        2.08011   0.00000   0.00000   0.00002   0.00002   2.08013
   A51        2.12636   0.00000   0.00000   0.00000   0.00000   2.12636
   A52        2.07083   0.00000   0.00000   0.00000   0.00000   2.07083
   A53        2.09968   0.00000   0.00000   0.00001   0.00001   2.09969
   A54        2.11264   0.00000   0.00000  -0.00001  -0.00001   2.11263
   A55        2.06968   0.00000   0.00000   0.00000   0.00000   2.06968
   A56        2.10557   0.00000   0.00000  -0.00002  -0.00002   2.10555
   A57        2.10793   0.00000   0.00000   0.00002   0.00002   2.10795
   A58        2.10414   0.00000   0.00000   0.00000   0.00000   2.10414
   A59        2.08796   0.00000   0.00000   0.00002   0.00002   2.08797
   A60        2.09027   0.00000   0.00000  -0.00001  -0.00001   2.09025
   A61        2.10558   0.00000   0.00000   0.00001   0.00001   2.10558
   A62        2.08438   0.00000   0.00000   0.00001   0.00001   2.08439
   A63        2.09233   0.00000   0.00000  -0.00001  -0.00001   2.09231
   A64        2.08964   0.00000   0.00000   0.00000   0.00000   2.08964
   A65        2.09714   0.00000   0.00000   0.00001   0.00001   2.09715
   A66        2.09639   0.00000   0.00000   0.00000   0.00000   2.09639
   A67        1.95710   0.00000   0.00000   0.00000   0.00000   1.95710
   A68        1.94179   0.00000   0.00000   0.00000   0.00000   1.94179
   A69        1.86711   0.00000   0.00000   0.00002   0.00002   1.86713
   A70        1.90039   0.00000   0.00000  -0.00001  -0.00001   1.90038
   A71        1.89307   0.00000   0.00000   0.00000   0.00000   1.89306
   A72        1.90298   0.00000   0.00000  -0.00001  -0.00001   1.90297
   A73        1.86563   0.00000   0.00000   0.00000   0.00000   1.86562
   A74        1.93919   0.00000   0.00000   0.00001   0.00001   1.93920
   A75        1.94831   0.00000   0.00000  -0.00001  -0.00001   1.94830
   A76        1.89791   0.00000   0.00000   0.00001   0.00001   1.89791
   A77        1.90933   0.00000   0.00000   0.00000   0.00000   1.90933
   A78        1.90249   0.00000   0.00000   0.00000   0.00000   1.90249
   A79        1.86769   0.00000   0.00000   0.00000   0.00000   1.86769
   A80        1.94152   0.00000   0.00000   0.00000   0.00000   1.94153
   A81        1.93822   0.00000   0.00000   0.00000   0.00000   1.93822
   A82        1.90752   0.00000   0.00000   0.00001   0.00001   1.90752
[...]
 9,0.00005150,0.00000701,0.00000193,-0.00001049,0.00001073,0.00000264,-
 0.00096364,0.00016223,0.00008245,0.00022258,0.00008593,-0.00003292,-0.
 00043813,-0.00038606,0.00049318,0.00033048,-0.00007271,-0.00006002,0.0
 0125789,0.00220151,-0.00171087,-0.00014518,-0.00051547,0.00057899,-0.0
 0076000,-0.00068156,0.00023706,-0.00043188,-0.00026554,0.00064297,-0.0
 1483481,-0.03708323,0.57009968,0.00003732,-0.00018040,-0.00007265,0.00
 005372,-0.00000855,-0.00007658,-0.00002497,-0.00079238,-0.00000087,-0.
 00036263,-0.00065015,-0.00056691,0.00009884,0.00025951,0.00025788,-0.0
 0002235,0.00004691,0.00000692,0.00002458,0.00000678,0.00000403,-0.0000
 0897,0.00001699,-0.00000958,-0.00000407,0.00005094,-0.00001641,0.00005
 331,-0.00002144,0.00000112,-0.00014955,0.00059298,0.00029386,0.0006068
 5,0.00048212,0.00001694,-0.00007185,0.00012186,0.00007383,-0.00018965,
 0.00014492,-0.00004391,-0.00017208,0.00002236,-0.00010946,0.00238875,0
 .00080947,0.00052814,-0.00030220,0.00006018,-0.00020074,-0.00196080,0.
 00006548,-0.00097817,-0.00135333,-0.00036923,-0.00059021,-0.00109332,0
 .00004701,0.00025224,0.00024995,-0.00019808,-0.00003754,0.00024785,-0.
 00001173,-0.00012122,0.00083578,-0.00100175,0.00063184,0.00048587,-0.0
 0016664,-0.00052258,-0.00118264,-0.00067957,0.00083216,-0.00020426,0.0
 0036473,-0.00006093,-0.00001384,-0.00002782,-0.00003332,0.00719303,-0.
 00742306,-0.00410626,-0.00021881,-0.00020820,-0.00026286,0.00040860,0.
 00034190,0.00060740,-0.00006492,0.00018195,-0.00044148,0.00000255,-0.0
 0001068,-0.00006180,0.00000158,-0.00000529,0.00001365,0.00000474,-0.00
 000117,0.00000716,-0.00000708,0.00000854,0.00000753,0.00002834,-0.0000
 8888,0.00005463,-0.00001544,0.00001063,-0.00000847,0.00000330,0.000010
 76,-0.00001101,-0.00000590,0.00001944,-0.00000028,0.00011400,0.0000702
 5,0.00008381,-0.00000678,-0.00000717,-0.00002747,-0.00003101,-0.000006
 55,-0.00000371,0.00001189,0.00001245,0.00000669,0.00182557,-0.00057140
 ,0.00091051,-0.00041628,-0.00006128,-0.00004284,-0.00161214,0.00030215
 ,0.00002602,-0.00032338,0.00002924,0.00003421,0.00006844,0.00010568,-0
 .00045647,0.00004582,-0.00008472,0.00017299,-0.00008295,-0.00007052,0.
 00007789,-0.00004129,0.00000914,0.00014003,-0.11628177,-0.07370364,-0.
 03081053,0.17274072,-0.00006076,-0.00013425,-0.00012853,-0.00012959,0.
 00010968,-0.00006274,-0.00046280,-0.00112118,0.00030061,-0.00028927,-0
 .00056644,-0.00053641,0.00002060,0.00009900,0.00006884,-0.00003629,0.0
 0004861,-0.00000343,0.00008669,0.00000739,0.00001148,-0.00001052,0.000
 02423,-0.00001826,-0.00002489,0.00006185,-0.00005261,0.00006789,-0.000
 00695,0.00000800,0.00028773,0.00076738,0.00036973,0.00170196,0.0006909
 7,-0.00007362,0.00009083,0.00002628,-0.00000908,0.00002345,0.00008820,
 0.00004545,-0.00002532,0.00011982,0.00006443,0.00091628,0.00012696,0.0
 0053391,-0.00006156,0.00006618,-0.00008429,0.00091064,-0.00104991,0.00
 050064,-0.00055219,0.00037513,-0.00066628,-0.00366583,0.00162380,0.001
 36486,0.00085759,-0.00107401,-0.00018027,0.00090600,-0.00038689,-0.000
 80532,0.00152876,-0.00027687,0.00169363,0.00008141,-0.00114989,0.00038
 627,-0.00267567,-0.00002636,0.00214114,0.00171074,-0.00020575,0.002006
 87,-0.00021304,-0.00002972,-0.00018700,-0.02376460,-0.04414100,-0.0128
 0676,-0.00077750,-0.00051489,-0.00082555,0.00258149,-0.00159223,-0.002
 75479,-0.00093087,-0.00047476,-0.00067661,-0.00006786,-0.00000620,0.00
 003503,0.00000020,0.00000291,0.00002168,0.00001621,0.00001578,-0.00000
 695,0.00000628,-0.00000392,0.00000122,-0.00001318,-0.00001257,0.000012
 40,0.00000534,0.00000377,0.00000088,0.00000138,-0.00000331,-0.00000546
 ,-0.00000963,0.00000776,0.00000020,0.00000953,-0.00005947,0.00002288,0
 .00000390,0.00000158,-0.00000355,-0.00000897,0.00000556,-0.00000258,0.
 00001391,0.00003000,-0.00000551,0.00156471,-0.00039932,0.00105685,-0.0
 0031735,-0.00003335,-0.00004873,-0.00007266,0.00043618,-0.00053178,-0.
 00038186,0.00001410,0.00001239,0.00192838,0.00069021,-0.00231397,-0.00
 016134,-0.00058754,0.00102190,-0.00078854,-0.00048207,0.00034364,-0.00
 051724,0.00019985,0.00078756,-0.07663038,-0.20531252,-0.05188023,0.128
 36248,0.24818455,0.00002302,-0.00010983,-0.00005233,0.00004797,-0.0000
 2331,-0.00004689,0.00005393,-0.00025999,-0.00008131,-0.00022681,-0.000
 41914,-0.00043328,0.00006699,0.00018170,0.00015688,-0.00001738,0.00003
 529,0.00001206,-0.00000457,0.00000128,0.00000185,-0.00000243,0.0000039
 2,-0.00000009,0.00000766,0.00000333,0.00001199,0.00001434,-0.00001659,
 -0.00000061,-0.00012467,0.00024677,0.00025685,0.00003615,0.00015241,0.
 00009396,-0.00005567,0.00006923,0.00007367,-0.00012741,0.00008631,-0.0
 0001907,-0.00011514,0.00000643,-0.00004337,0.00140281,0.00075994,0.000
 38571,-0.00014926,0.00001376,-0.00008796,-0.00112443,-0.00007561,-0.00
 078045,-0.00071317,-0.00041137,0.00017338,-0.00002822,-0.00020015,-0.0
 0043681,0.00000012,0.00006911,0.00007434,0.00002015,0.00000247,0.00015
 842,-0.00030396,0.00031068,-0.00057884,-0.00052228,0.00030219,0.000317
 99,0.00123244,0.00038447,-0.00021277,-0.00013453,-0.00081386,0.0005297
 8,0.00000336,-0.00001859,0.00002864,-0.00044196,0.00457927,0.01098598,
 -0.00020683,0.00031307,-0.00002205,0.00015587,-0.00102461,-0.00019559,
 -0.00003164,-0.00002494,-0.00006576,0.00000995,-0.00000624,-0.00006286
 ,0.00000721,0.00000048,0.00000635,-0.00000436,-0.00000445,0.00000627,-
 0.00000406,0.00000437,0.00000671,0.00001907,-0.00005202,0.00002700,-0.
 00001068,0.00000631,-0.00000617,0.00000056,0.00000571,-0.00000364,-0.0
 0000340,0.00001299,-0.00000004,0.00007499,0.00005224,0.00004880,-0.000
 00150,-0.00000610,-0.00001203,-0.00002194,-0.00000277,-0.00000181,0.00
 000711,0.00000311,-0.00000046,0.00050917,-0.00001242,0.00005685,-0.000
 09893,-0.00004235,0.00003357,0.00035763,0.00005224,-0.00042756,-0.0001
 4203,0.00001935,0.00004144,0.00002783,-0.00018351,-0.00005837,0.000019
 91,-0.00002681,0.00008356,0.00002929,0.00004660,0.00001713,0.00000574,
 0.00006508,0.00002948,-0.03107408,-0.04983383,-0.09341715,0.07063192,0
 .10035017,0.13105070,0.00010326,-0.00006623,0.00005424,0.00017438,-0.0
 0012579,-0.00002101,0.00034161,0.00003587,-0.00023037,0.00000186,-0.00
 008903,0.00007551,0.00010230,0.00011432,0.00019243,0.00001389,-0.00000
 250,0.00000404,-0.00004311,0.00000389,-0.00000941,-0.00000188,0.000000
 86,0.00000158,0.00001744,0.00000701,0.00001978,0.00000974,-0.00001142,
 -0.00000603,-0.00040730,0.00003221,-0.00009263,-0.00074776,-0.00005466
 ,0.00004929,-0.00015847,0.00013049,0.00007877,-0.00022034,0.00008280,-
 0.00009714,-0.00015545,-0.00006357,-0.00018410,0.00085656,0.00029564,0
 .00025229,-0.00011290,0.00000415,-0.00009603,-0.00000337,-0.00018460,0
 .00013891,-0.00051689,-0.00016833,-0.00023088,0.00185982,-0.00109423,-
 0.00090068,-0.00053535,0.00099154,0.00004143,-0.00045132,0.00033247,0.
 00053093,-0.00083911,0.00070304,0.00122544,0.00008087,0.00017171,-0.00
 046295,0.00047404,0.00392419,-0.00453056,0.00046372,0.00103505,-0.0005
 5719,0.00008827,-0.00009213,-0.00009740,-0.02913258,0.01380459,0.00353
 227,0.00040394,-0.00069773,-0.00018286,-0.00145930,-0.00102668,0.00400
 161,0.00033985,0.00010785,-0.00207954,0.00005924,-0.00001143,-0.000091
 86,-0.00000099,-0.00001302,-0.00000220,-0.00000301,-0.00001234,0.00001
 365,-0.00001607,0.00001519,0.00000582,0.00004758,-0.00009520,0.0000536
 4,-0.00002059,0.00000780,-0.00000962,0.00000315,0.00001541,-0.00001039
 ,0.00000178,0.00001442,0.00000089,0.00010569,0.00010236,0.00006770,-0.
 00000803,-0.00000943,-0.00002606,-0.00002508,-0.00000945,-0.00000008,-
 0.00000059,-0.00000545,0.00000668,0.00072527,-0.00013750,0.00035861,-0
 .00017826,-0.00006334,-0.00002299,-0.00001801,0.00030360,-0.00018087,-
 0.00008101,0.00001548,-0.00000207,-0.00132870,-0.00020824,0.00107526,0
 .00016563,0.00021967,-0.00040557,0.00057665,0.00029436,-0.00015778,0.0
 0038050,-0.00017220,-0.00040033,-0.27005441,0.07315699,0.00908030,-0.0
 7201464,-0.02373222,-0.01461821,0.40445394,-0.00007010,-0.00002919,-0.
 00007500,-0.00012949,0.00010131,-0.00002078,-0.00034352,-0.00053043,0.
 00024626,-0.00013900,-0.00020624,-0.00025275,-0.00003629,-0.00000082,-
 0.00005009,-0.00001988,0.00001820,-0.00000619,0.00005764,0.00000277,0.
 00000946,-0.00000376,0.00001010,-0.00000965,-0.00001877,0.00002515,-0.
 00003557,0.00002320,0.00000290,0.00000631,0.00027414,0.00031708,0.0001
 8195,0.00106804,0.00033058,-0.00005677,0.00010582,-0.00004310,-0.00004
 286,0.00010107,0.00000335,0.00005718,0.00005340,0.00007575,0.00010063,
 0.00013551,-0.00006152,0.00007497,-0.00000437,0.00002466,-0.00000165,0
 .00001375,-0.00018680,0.00005635,-0.00006407,0.00015070,-0.00011847,-0
 .00267309,0.00095203,0.00099556,0.00075759,-0.00099247,-0.00005641,0.0
 0061162,-0.00025389,-0.00064806,0.00053861,-0.00210785,-0.00109103,0.0
 0065209,-0.00062461,0.00004424,-0.00032001,-0.00279548,0.00526955,0.00
 008301,-0.00015667,-0.00035186,-0.00000368,0.00005077,0.00000770,0.041
 18480,-0.00881366,-0.00145453,0.00007677,0.00058466,0.00019147,0.00098
 784,-0.00074708,-0.00021788,0.00085117,-0.00126945,0.00100682,-0.00005
 434,0.00000249,0.00005854,-0.00000133,0.00000534,0.00001056,0.00000974
 ,0.00001255,-0.00000882,0.00000904,-0.00000770,-0.00000245,-0.00002549
 ,0.00003367,-0.00001583,0.00001081,-0.00000155,0.00000452,-0.00000043,
 -0.00000763,0.00000153,-0.00000482,-0.00000293,-0.00000030,-0.00003960
 ,-0.00006526,-0.00001812,0.00000456,0.00000448,0.00000874,0.00000698,0
 .00000564,-0.00000099,0.00000552,0.00001420,-0.00000456,0.00023313,-0.
 00008190,0.00015617,-0.00002554,0.00001400,-0.00000665,0.00001277,0.00
 007311,-0.00006698,-0.00007070,-0.00000378,0.00000893,0.00116534,0.000
 56065,-0.00147546,-0.00008845,-0.00030587,0.00053038,-0.00053102,-0.00
 032062,0.00022852,-0.00035814,0.00010966,0.00050762,0.06707651,-0.1023
 7944,0.00158153,-0.04039302,0.00994225,-0.00411852,-0.07737785,0.09750
 394,0.00002090,-0.00000711,0.00000342,0.00003618,-0.00003337,-0.000000
 55,0.00009711,0.00014771,-0.00010773,0.00002209,-0.00001037,-0.0000301
 9,0.00001793,0.00001705,0.00002265,-0.00000129,0.00000531,0.00000725,-
 0.00001985,-0.00000161,-0.00000253,0.00000105,-0.00000348,0.00000425,0
 .00000620,-0.00001125,0.00001697,-0.00000501,-0.00000459,-0.00000165,-
 0.00006995,-0.00004812,0.00003602,-0.00035507,-0.00008286,0.00006840,-
 0.00003365,0.00001971,0.00003570,-0.00003974,0.00001059,-0.00000812,-0
 .00003034,-0.00001169,-0.00001251,0.00013739,0.00009016,0.00000525,-0.
 00000086,-0.00000309,0.00000274,0.00002495,-0.00003334,0.00004104,-0.0
 0008194,-0.00006386,0.00006805,0.00076078,-0.00031108,-0.00056031,-0.0
 0020510,0.00031041,0.00007074,-0.00016951,0.00004258,0.00028880,-0.000
 88392,0.00058349,0.00048948,-0.00014783,0.00027649,-0.00004444,0.00035
 143,0.00181136,-0.00181539,-0.00060523,-0.00022079,0.00060748,-0.00005
 141,0.00003022,0.00005617,-0.01105321,0.00619155,0.01053236,-0.0002816
 9,0.00029361,0.00005235,-0.00021169,0.00062915,-0.00199576,-0.00141534
 ,0.00119683,0.00019536,0.00001383,-0.00000262,-0.00003579,0.00000529,0
 .00000084,-0.00000124,-0.00000581,-0.00000460,0.00000358,-0.00000228,0
 .00000178,0.00000264,0.00000889,-0.00001301,0.00000316,-0.00000383,0.0
 0000096,-0.00000217,-0.00000069,0.00000169,0.00000067,0.00000037,0.000
 00314,0.00000032,0.00001943,0.00001835,0.00000861,0.00000052,-0.000001
 97,-0.00000095,-0.00000595,-0.00000033,0.,0.00000121,-0.00000215,-0.00
 000101,0.00008253,-0.00001891,-0.00002177,-0.00001989,-0.00000765,0.00
 000423,0.00003767,0.00005063,-0.00006001,-0.00003738,0.00000915,0.0000
 0620,-0.00027972,-0.00045816,0.00043601,-0.00000654,0.00014016,-0.0001
 7105,0.00018677,0.00015441,-0.00005184,0.00008067,0.00006797,-0.000134
 92,0.01402826,-0.00051830,-0.07762024,-0.02065883,-0.00303415,0.010223
 35,-0.03820209,0.00811310,0.08494960,0.00002332,-0.00001469,0.00002134
 ,0.00003776,-0.00002422,-0.00000887,0.00006395,-0.00011694,0.00000130,
 -0.00000326,-0.00000437,0.00008818,0.00002447,0.00001845,0.00004231,0.
 00000973,-0.00000890,-0.00000617,0.00000034,0.00000350,-0.00000166,-0.
 00000154,0.00000276,-0.00000343,0.00000007,0.00001100,-0.00001059,0.00
 000777,0.00000014,-0.00000054,-0.00008176,0.00005867,-0.00007695,-0.00
 002091,0.00007615,-0.00002883,-0.00003444,0.00003739,0.00000432,-0.000
 04945,0.00002159,-0.00002960,-0.00003391,-0.00001282,-0.00005506,0.000
 12077,-0.00000231,0.00006629,-0.00002494,0.00000187,-0.00002899,0.0000
 1596,-0.00003775,0.00005513,-0.00008880,0.00001597,-0.00014828,0.00007
 275,-0.00036480,0.00014276,0.00001887,0.00010592,-0.00005007,-0.000041
 20,0.00012210,-0.00001982,0.00045225,-0.00055319,-0.00044401,0.0000542
 0,0.00011516,-0.00006515,-0.00200198,0.00083651,-0.00034217,0.00023551
 ,-0.00010868,-0.00065998,0.00007805,0.00002911,-0.00004675,0.01042186,
 0.00129070,-0.00050061,0.00077277,0.00047397,-0.00120674,-0.00030742,0
 .00111517,0.00000149,0.00022831,0.00033521,-0.00035380,0.00001056,-0.0
 0000337,-0.00000948,-0.00000385,-0.00000639,0.00000076,0.00000397,-0.0
 0000091,0.00000260,-0.00000483,0.00000469,-0.00000001,0.00001166,-0.00
 002568,0.00001650,-0.00000447,0.00000200,-0.00000193,0.00000146,0.0000
 0418,-0.00000430,0.00000035,0.00000303,0.00000047,0.00002230,0.0000205
 9,0.00001588,-0.00000243,-0.00000215,-0.00000767,-0.00000481,-0.000002
 63,0.00000031,-0.00000094,0.00000015,0.00000228,0.00019182,-0.00004096
 ,0.00013801,-0.00004618,-0.00002137,-0.00001936,-0.00004466,0.00011315
 ,0.00005975,0.00003058,0.00000015,-0.00000649,-0.00023459,0.00001484,0
 .00006255,0.00003639,0.00003952,-0.00007414,0.00007996,0.00003973,-0.0
 0001151,0.00005747,-0.00004199,-0.00003357,-0.08132426,-0.00078974,0.0
 3706322,0.01070750,-0.00730247,-0.02445562,-0.03331646,0.00668626,0.05
 894419,0.09388433,-0.00004414,-0.00003653,-0.00005303,-0.00008529,0.00
 006427,-0.00001530,-0.00026482,-0.00046743,0.00017476,-0.00011763,-0.0
 0019087,-0.00018756,-0.00001652,0.00001620,-0.00000913,-0.00001822,0.0
 0001392,-0.00000308,0.00004391,0.00000358,0.00000580,-0.00000392,0.000
 00999,-0.00000913,-0.00001507,0.00002635,-0.00002980,0.00002349,0.0000
 0164,0.00000443,0.00018434,0.00029798,0.00012734,0.00082621,0.00024439
 ,-0.00003891,0.00006655,-0.00001298,-0.00002824,0.00005268,0.00001774,
 0.00003093,0.00002372,0.00005706,0.00005245,0.00022467,-0.00003085,0.0
 0012809,-0.00002326,0.00002088,-0.00002033,0.00006609,-0.00020425,0.00
 003059,-0.00012739,0.00012512,-0.00016474,-0.00184030,0.00105965,0.000
 51908,0.00041412,-0.00052664,-0.00004573,0.00047829,-0.00024551,-0.000
 42014,-0.00058664,0.00023001,-0.00001876,-0.00031053,-0.00039833,0.000
 88687,0.00080664,-0.00118587,0.00086858,-0.00115336,-0.00168556,0.0008
 2300,-0.00003723,0.00004081,0.00003877,-0.00572561,0.00173570,0.035705
 18,0.00009643,-0.00113557,0.00138292,0.00405027,-0.00285976,0.00035147
 ,0.00014680,0.00036533,0.00019035,-0.00003878,-0.00000068,0.00003836,-
 0.00000180,0.00000192,0.00000892,0.00000923,0.00000948,-0.00000568,0.0
 0000500,-0.00000386,-0.00000146,-0.00001446,0.00001222,-0.00000311,0.0
 0000622,0.00000002,0.00000249,0.00000049,-0.00000379,-0.00000121,-0.00
 000391,-0.00000032,-0.00000010,-0.00001862,-0.00004222,-0.00000451,0.0
 0000226,0.00000239,0.00000249,0.00000263,0.00000319,-0.00000079,0.0000
 0420,0.00001221,-0.00000265,0.00030165,-0.00007793,0.00017715,-0.00004
 297,0.00000151,-0.00001072,-0.00000488,0.00008902,-0.00002351,-0.00005
 778,-0.00000298,0.00000557,0.00124440,0.00010079,-0.00153726,-0.000048
 99,-0.00032481,0.00062689,-0.00063020,-0.00031136,0.00024298,-0.000319
 56,0.00012172,0.00044129,0.00079680,-0.08138696,0.02060614,-0.00581358
 ,-0.00411862,-0.05045325,0.00960158,0.01106393,-0.01530993,-0.00211325
 ,0.07950466,0.00006743,-0.00004622,-0.00000598,0.00011564,-0.00008157,
 -0.00001862,0.00030569,0.00026821,-0.00033454,0.00004007,-0.00010016,-
 0.00016527,0.00007392,0.00008255,0.00010438,-0.00001013,0.00002803,0.0
 0002307,-0.00005413,-0.00000494,-0.00000500,0.00000234,-0.00000941,0.0
 0001257,0.00002490,-0.00003602,0.00005687,-0.00001391,-0.00001712,-0.0
 0000592,-0.00032143,-0.00006686,0.00016941,-0.00088989,-0.00013112,0.0
 0021360,-0.00011381,0.00007421,0.00012240,-0.00014311,0.00004840,-0.00
 002534,-0.00011722,-0.00003684,-0.00005259,0.00072056,0.00039234,0.000
 11554,-0.00004550,-0.00000841,-0.00001523,0.00008778,-0.00018293,-0.00
 000010,-0.00039782,-0.00027585,0.00024825,0.00206588,-0.00111040,-0.00
 147941,-0.00052422,0.00066514,0.00021113,-0.00047440,0.00015478,0.0008
 5469,-0.00006265,0.00128786,0.00046044,-0.00030193,0.00034992,-0.00024
 691,0.00338261,-0.00178650,-0.00091853,0.00178954,0.00069975,-0.001185
 73,-0.00010540,-0.00007738,0.00004922,0.00965950,0.00608963,-0.0400171
 8,-0.00196506,0.00080893,-0.00025024,-0.00490095,0.00552938,-0.0005906
 3,-0.00034820,-0.00063043,0.00044537,0.00004079,-0.00000885,-0.0001209
 1,0.00001765,0.00000395,-0.00000146,-0.00001860,-0.00001449,0.00001180
 ,-0.00000666,0.00000563,0.00000972,0.00002943,-0.00004749,0.00001429,-
 0.00001355,0.00000410,-0.00000751,-0.00000187,0.00000612,0.00000178,0.
 00000026,0.00001202,0.00000054,0.00007492,0.00006943,0.00003792,0.,-0.
 00000688,-0.00000667,-0.00002222,-0.00000250,-0.00000096,0.00000460,-0
 .00000656,-0.00000194,0.00032208,-0.00003420,-0.00012380,-0.00007672,-
 0.00003285,0.00001816,0.00012394,0.00010782,-0.00016404,-0.00014146,0.
 00003418,0.00002455,-0.00160198,-0.00044252,0.00164450,0.00004264,0.00
 052252,-0.00088076,0.00078712,0.00046039,-0.00019742,0.00033591,0.0000
 0306,-0.00048251,0.03286759,0.02727355,-0.28717152,-0.01534032,-0.0354
 5822,-0.05784543,0.04304782,-0.00925036,-0.02556268,-0.06801747,0.0049
 2520,0.41303463\\0.00000065,-0.00000780,0.00000090,-0.00000157,0.00000
 391,0.00000014,0.00000532,0.00000083,-0.00000887,0.00000103,0.00000093
 ,-0.00000171,-0.00000370,0.00000122,-0.00000296,0.00000128,0.00000126,
 -0.00000112,0.00000004,-0.00000151,0.00000045,0.00000013,-0.00000020,0
 .00000016,0.00000081,0.00000040,0.00000161,0.00000328,-0.00000383,0.00
 000302,-0.00000309,-0.00000780,0.00000143,0.00000200,0.00000667,0.0000
 0486,-0.00000505,0.00000012,-0.00000635,-0.00000214,0.00000402,0.00000
 463,0.00000366,-0.00000922,0.00000209,0.00000112,-0.00000401,0.0000037
 0,0.00000119,-0.00000272,0.00000245,0.00000353,0.00000133,0.00000179,0
 .00000087,0.00000424,0.00000536,-0.00000714,-0.00000113,-0.00000652,-0
 .00000149,0.00000068,-0.00000322,-0.00000089,0.00000356,-0.00000017,-0
 .00000358,-0.00000354,0.00000760,-0.00000529,0.00000025,-0.00000487,0.
 00000455,0.00000265,-0.00000482,-0.00000167,0.00000503,-0.00000340,0.0
 0000042,0.00000085,-0.00000335,-0.00000060,0.00000714,-0.00000091,-0.0
 0000271,0.00000422,0.,0.00000091,-0.00000164,-0.00000007,0.00000137,0.
 00000100,0.00000027,-0.00000110,0.00000297,-0.00000528,0.00000021,0.00
 000164,-0.00000078,-0.00000070,-0.00000054,0.00000101,-0.00000273,0.00
 000080,-0.00000022,0.00000155,-0.00000762,-0.00000089,-0.00000104,-0.0
 0000480,0.00000017,-0.00000049,-0.00000317,-0.00000115,-0.00000058,-0.
 00000065,0.00000218,-0.00000387,0.00000273,0.00000041,0.00000082,-0.00
 000518,0.00000064,0.00000179,-0.00000520,0.00000243,0.00000143,-0.0000
 0528,0.00000318,0.00000315,-0.00000009,-0.00000066,0.00000221,-0.00000
 030,0.00000388,0.00000182,0.00000166,0.00000269,0.00000047,0.00000217,
 0.00000318,-0.00000351,0.00000158,-0.00000334,-0.00000085,0.00000060,-
 0.00000144,0.00000204,0.00000177,-0.00000221,-0.00000019,-0.00000221,-
 0.00000152,0.00000935,0.00000632,0.00000804,-0.00000246,-0.00000247,-0
 .00000321,-0.00000282,0.00000455,0.00000106,0.00000225,0.00000382,-0.0
 0000027\\\@


 THEORY:  SUPPOSITION WHICH HAS SCIENTIFIC BASIS,
          BUT NOT EXPERIMENTALLY PROVEN.
 FACT:    A THEORY WHICH HAS BEEN PROVEN BY ENOUGH 
          MONEY TO PAY FOR THE EXPERIMENTS.

                          --  THE WIZARD OF ID
 Job cpu time:       0 days 22 hours 56 minutes 18.3 seconds.
 Elapsed time:       0 days  0 hours 45 minutes 25.3 seconds.
 File lengths (MBytes):  RWF=   2252 Int=      0 D2E=      0 Chk=     40 Scr=      1
 Normal termination of Gaussian 16 at Wed Jun  5 19:46:39 2019.
