 Entering Gaussian System, Link 0=g16
 Input=clay_new-glu_gluC6-bisCF3-sm-cam_b3lyp_d3bj-631gd-pcm_thf.gjf
 Output=clay_new-glu_gluC6-bisCF3-sm-cam_b3lyp_d3bj-631gd-pcm_thf.out
 Initial command:
 /home/ekwan/sw/g16/l1.exe "/scratch/users/ekwan/clay_new-glu_gluC6-bisCF3-sm-cam_b3lyp_d3bj-631gd-pcm_thf/Gau-18274.inp" -scrdir="/scratch/users/ekwan/clay_new-glu_gluC6-bisCF3-sm-cam_b3lyp_d3bj-631gd-pcm_thf/"
 Entering Link 1 = /home/ekwan/sw/g16/l1.exe PID=     18275.
  
 Copyright (c) 1988,1990,1992,1993,1995,1998,2003,2009,2016,
            Gaussian, Inc.  All Rights Reserved.
  
 This is part of the Gaussian(R) 16 program.  It is based on
 the Gaussian(R) 09 system (copyright 2009, Gaussian, Inc.),
 the Gaussian(R) 03 system (copyright 2003, Gaussian, Inc.),
 the Gaussian(R) 98 system (copyright 1998, Gaussian, Inc.),
 the Gaussian(R) 94 system (copyright 1995, Gaussian, Inc.),
 the Gaussian 92(TM) system (copyright 1992, Gaussian, Inc.),
 the Gaussian 90(TM) system (copyright 1990, Gaussian, Inc.),
 the Gaussian 88(TM) system (copyright 1988, Gaussian, Inc.),
 the Gaussian 86(TM) system (copyright 1986, Carnegie Mellon
 University), and the Gaussian 82(TM) system (copyright 1983,
 Carnegie Mellon University). Gaussian is a federally registered
 trademark of Gaussian, Inc.
  
 This software contains proprietary and confidential information,
 including trade secrets, belonging to Gaussian, Inc.
  
 This software is provided under written license and may be
 used, copied, transmitted, or stored only in accord with that
 written license.
  
 The following legend is applicable only to US Government
 contracts under FAR:
  
                    RESTRICTED RIGHTS LEGEND
  
 Use, reproduction and disclosure by the US Government is
 subject to restrictions as set forth in subparagraphs (a)
 and (c) of the Commercial Computer Software - Restricted
 Rights clause in FAR 52.227-19.
  
 Gaussian, Inc.
 340 Quinnipiac St., Bldg. 40, Wallingford CT 06492
  
  
 ---------------------------------------------------------------
 Warning -- This program may not be used in any manner that
 competes with the business of Gaussian, Inc. or will provide
 assistance to any competitor of Gaussian, Inc.  The licensee
 of this program is prohibited from giving any competitor of
 Gaussian, Inc. access to this program.  By using this program,
 the user acknowledges that Gaussian, Inc. is engaged in the
 business of creating and licensing software in the field of
 computational chemistry and represents and warrants to the
 licensee that it is not a competitor of Gaussian, Inc. and that
 it will not use this program in any manner prohibited above.
 ---------------------------------------------------------------
  

 Cite this work as:
 Gaussian 16, Revision A.03,
 M. J. Frisch, G. W. Trucks, H. B. Schlegel, G. E. Scuseria, 
 M. A. Robb, J. R. Cheeseman, G. Scalmani, V. Barone, 
 G. A. Petersson, H. Nakatsuji, X. Li, M. Caricato, A. V. Marenich, 
 J. Bloino, B. G. Janesko, R. Gomperts, B. Mennucci, H. P. Hratchian, 
 J. V. Ortiz, A. F. Izmaylov, J. L. Sonnenberg, D. Williams-Young, 
 F. Ding, F. Lipparini, F. Egidi, J. Goings, B. Peng, A. Petrone, 
 T. Henderson, D. Ranasinghe, V. G. Zakrzewski, J. Gao, N. Rega, 
 G. Zheng, W. Liang, M. Hada, M. Ehara, K. Toyota, R. Fukuda, 
 J. Hasegawa, M. Ishida, T. Nakajima, Y. Honda, O. Kitao, H. Nakai, 
 T. Vreven, K. Throssell, J. A. Montgomery, Jr., J. E. Peralta, 
 F. Ogliaro, M. J. Bearpark, J. J. Heyd, E. N. Brothers, K. N. Kudin, 
 V. N. Staroverov, T. A. Keith, R. Kobayashi, J. Normand, 
 K. Raghavachari, A. P. Rendell, J. C. Burant, S. S. Iyengar, 
 J. Tomasi, M. Cossi, J. M. Millam, M. Klene, C. Adamo, R. Cammi, 
 J. W. Ochterski, R. L. Martin, K. Morokuma, O. Farkas, 
 J. B. Foresman, and D. J. Fox, Gaussian, Inc., Wallingford CT, 2016.
 
 ******************************************
 Gaussian 16:  AS64L-G16RevA.03 25-Dec-2016
                 5-Jun-2019 
 ******************************************
 %nprocshared=32
 Will use up to   32 processors via shared memory.
 %mem=48GB
 ----------------------------------------------------------------------
 #p opt freq=noraman pop=none 6-31g* scrf=(pcm,solvent=tetrahydrofuran)
  cam-b3lyp empiricaldispersion=gd3bj
 ----------------------------------------------------------------------
 1/18=20,19=15,26=3,38=1/1,3;
 2/9=110,12=2,17=6,18=5,40=1/2;
 3/5=1,6=6,7=1,11=2,25=1,30=1,70=2201,71=1,72=20,74=-40,124=41/1,2,3;
 4//1;
 5/5=2,38=5,53=20/2;
 7//1,2,3,16;
 1/18=20,19=15,26=3/3(2);
 2/9=110/2;
 99//99;
 2/9=110/2;
 3/5=1,6=6,7=1,11=2,25=1,30=1,70=2205,71=1,72=20,74=-40,124=41/1,2,3;
 4/5=5,16=3,69=1/1;
 5/5=2,38=5,53=20/2;
 7//1,2,3,16;
 1/18=20,19=15,26=3/3(-5);
 2/9=110/2;
 99/9=1/99;
 Leave Link    1 at Wed Jun  5 17:17:14 2019, MaxMem=  6442450944 cpu:               7.1 elap:               0.3
 (Enter /home/ekwan/sw/g16/l101.exe)
 -----
 title
 -----
 Symbolic Z-matrix:
 Charge =  0 Multiplicity = 1
 6                     3.39388   0.16093   0.70367 
 6                     3.31241  -0.39225  -0.7151 
 6                     1.8557   -0.56383  -1.15601 
 6                     1.07744   1.09543   0.36909 
 6                     2.49622   1.38212   0.84946 
 1                     1.77396  -0.82036  -2.21099 
 1                     3.75466   0.34895  -1.39824 
 1                     3.05519  -0.60936   1.40859 
 1                     0.61902   0.35084   1.03201 
 1                     2.90762   2.19809   0.24459 
 8                     1.09674   0.57749  -0.97143 
 8                     1.33359  -1.67216  -0.37916 
 8                     4.0305   -1.59526  -0.76482 
 8                     4.712     0.56066   1.00874 
 8                     2.41067   1.7641    2.20539 
 6                     0.20252   2.33801   0.38862 
 1                     0.02458   2.59276   1.43543 
 1                    -0.7604    2.11173  -0.08495 
 8                     0.79047   3.47449  -0.20131 
 16                    0.05747  -2.48124  -0.9491 
 8                     0.02058  -3.70157  -0.17226 
 8                     0.13477  -2.50695  -2.39987 
 6                    -1.31219  -1.45954  -0.47418 
 6                    -1.83155  -1.58798   0.8054 
 6                    -1.80322  -0.52844  -1.37764 
 6                    -2.87299  -0.75138   1.18537 
 1                    -1.43285  -2.32727   1.48958 
 6                    -2.84001   0.30025  -0.97459 
 1                    -1.38236  -0.45185  -2.37194 
 6                    -3.37753   0.19448   0.30277 
 1                    -4.18642   0.84729   0.60875 
 6                     4.2563   -2.09563  -2.06895 
 1                     3.33734  -2.48579  -2.52343 
 1                     4.67902  -1.32184  -2.72297 
 1                     4.97137  -2.91349  -1.97286 
 6                     5.4767   -0.40416   1.7084 
 1                     6.44901   0.05082   1.90706 
 1                     5.00258  -0.66254   2.66436 
 1                     5.61149  -1.31387   1.11693 
 6                     3.15135   2.92803   2.52665 
 1                     2.99247   3.11938   3.58969 
 1                     4.21915   2.77966   2.3383 
 1                     2.79512   3.78969   1.94844 
 6                     0.71937   3.51154  -1.61579 
 1                     1.00033   4.52198  -1.91946 
 1                    -0.30079   3.3022   -1.96106 
 1                     1.39986   2.79101  -2.07989 
 6                    -3.49257  -0.90572   2.54505 
 9                    -2.60892  -1.37604   3.43715 
 9                    -4.52569  -1.7633    2.51821 
 9                    -3.9609    0.26398   3.00546 
 6                    -3.33592   1.37457  -1.89795 
 9                    -2.70753   2.54554  -1.66129 
 9                    -4.64678   1.59948  -1.73675 
 9                    -3.12122   1.06553  -3.18281 
 
 ITRead=  0  0  0  0  0  0  0  0  0  0  0  0  0  0  0  0  0  0  0  0
 ITRead=  0  0  0  0  0  0  0  0  0  0  0  0  0  0  0  0  0  0  0  0
 ITRead=  0  0  0  0  0  0  0  0  0  0  0  0  0  0  0
 MicOpt= -1 -1 -1 -1 -1 -1 -1 -1 -1 -1 -1 -1 -1 -1 -1 -1 -1 -1 -1 -1
 MicOpt= -1 -1 -1 -1 -1 -1 -1 -1 -1 -1 -1 -1 -1 -1 -1 -1 -1 -1 -1 -1
 MicOpt= -1 -1 -1 -1 -1 -1 -1 -1 -1 -1 -1 -1 -1 -1 -1
 NAtoms=     55 NQM=       55 NQMF=       0 NMMI=      0 NMMIF=      0
                NMic=       0 NMicF=      0.
                    Isotopes and Nuclear Properties:
 (Nuclear quadrupole moments (NQMom) in fm**2, nuclear magnetic moments (NMagM)
  in nuclear magnetons)

  Atom         1           2           3           4           5           6           7           8           9          10
 IAtWgt=          12          12          12          12          12           1           1           1           1           1
 AtmWgt=  12.0000000  12.0000000  12.0000000  12.0000000  12.0000000   1.0078250   1.0078250   1.0078250   1.0078250   1.0078250
 NucSpn=           0           0           0           0           0           1           1           1           1           1
 AtZEff=   0.0000000   0.0000000   0.0000000   0.0000000   0.0000000   0.0000000   0.0000000   0.0000000   0.0000000   0.0000000
 NQMom=    0.0000000   0.0000000   0.0000000   0.0000000   0.0000000   0.0000000   0.0000000   0.0000000   0.0000000   0.0000000
 NMagM=    0.0000000   0.0000000   0.0000000   0.0000000   0.0000000   2.7928460   2.7928460   2.7928460   2.7928460   2.7928460
 AtZNuc=   6.0000000   6.0000000   6.0000000   6.0000000   6.0000000   1.0000000   1.0000000   1.0000000   1.0000000   1.0000000

  Atom        11          12          13          14          15          16          17          18          19          20
 IAtWgt=          16          16          16          16          16          12           1           1          16          32
 AtmWgt=  15.9949146  15.9949146  15.9949146  15.9949146  15.9949146  12.0000000   1.0078250   1.0078250  15.9949146  31.9720718
 NucSpn=           0           0           0           0           0           0           1           1           0           0
 AtZEff=   0.0000000   0.0000000   0.0000000   0.0000000   0.0000000   0.0000000   0.0000000   0.0000000   0.0000000   0.0000000
 NQMom=    0.0000000   0.0000000   0.0000000   0.0000000   0.0000000   0.0000000   0.0000000   0.0000000   0.0000000   0.0000000
 NMagM=    0.0000000   0.0000000   0.0000000   0.0000000   0.0000000   0.0000000   2.7928460   2.7928460   0.0000000   0.0000000
 AtZNuc=   8.0000000   8.0000000   8.0000000   8.0000000   8.0000000   6.0000000   1.0000000   1.0000000   8.0000000  16.0000000

  Atom        21          22          23          24          25          26          27          28          29          30
 IAtWgt=          16          16          12          12          12          12           1          12           1          12
 AtmWgt=  15.9949146  15.9949146  12.0000000  12.0000000  12.0000000  12.0000000   1.0078250  12.0000000   1.0078250  12.0000000
 NucSpn=           0           0           0           0           0           0           1           0           1           0
 AtZEff=   0.0000000   0.0000000   0.0000000   0.0000000   0.0000000   0.0000000   0.0000000   0.0000000   0.0000000   0.0000000
 NQMom=    0.0000000   0.0000000   0.0000000   0.0000000   0.0000000   0.0000000   0.0000000   0.0000000   0.0000000   0.0000000
 NMagM=    0.0000000   0.0000000   0.0000000   0.0000000   0.0000000   0.0000000   2.7928460   0.0000000   2.7928460   0.0000000
 AtZNuc=   8.0000000   8.0000000   6.0000000   6.0000000   6.0000000   6.0000000   1.0000000   6.0000000   1.0000000   6.0000000

  Atom        31          32          33          34          35          36          37          38          39          40
 IAtWgt=           1          12           1           1           1          12           1           1           1          12
 AtmWgt=   1.0078250  12.0000000   1.0078250   1.0078250   1.0078250  12.0000000   1.0078250   1.0078250   1.0078250  12.0000000
 NucSpn=           1           0           1           1           1           0           1           1           1           0
 AtZEff=   0.0000000   0.0000000   0.0000000   0.0000000   0.0000000   0.0000000   0.0000000   0.0000000   0.0000000   0.0000000
 NQMom=    0.0000000   0.0000000   0.0000000   0.0000000   0.0000000   0.0000000   0.0000000   0.0000000   0.0000000   0.0000000
 NMagM=    2.7928460   0.0000000   2.7928460   2.7928460   2.7928460   0.0000000   2.7928460   2.7928460   2.7928460   0.0000000
 AtZNuc=   1.0000000   6.0000000   1.0000000   1.0000000   1.0000000   6.0000000   1.0000000   1.0000000   1.0000000   6.0000000

  Atom        41          42          43          44          45          46          47          48          49          50
 IAtWgt=           1           1           1          12           1           1           1          12          19          19
 AtmWgt=   1.0078250   1.0078250   1.0078250  12.0000000   1.0078250   1.0078250   1.0078250  12.0000000  18.9984033  18.9984033
 NucSpn=           1           1           1           0           1           1           1           0           1           1
 AtZEff=   0.0000000   0.0000000   0.0000000   0.0000000   0.0000000   0.0000000   0.0000000   0.0000000   0.0000000   0.0000000
 NQMom=    0.0000000   0.0000000   0.0000000   0.0000000   0.0000000   0.0000000   0.0000000   0.0000000   0.0000000   0.0000000
 NMagM=    2.7928460   2.7928460   2.7928460   0.0000000   2.7928460   2.7928460   2.7928460   0.0000000   2.6288670   2.6288670
 AtZNuc=   1.0000000   1.0000000   1.0000000   6.0000000   1.0000000   1.0000000   1.0000000   6.0000000   9.0000000   9.0000000

  Atom        51          52          53          54          55
 IAtWgt=          19          12          19          19          19
 AtmWgt=  18.9984033  12.0000000  18.9984033  18.9984033  18.9984033
 NucSpn=           1           0           1           1           1
 AtZEff=   0.0000000   0.0000000   0.0000000   0.0000000   0.0000000
 NQMom=    0.0000000   0.0000000   0.0000000   0.0000000   0.0000000
 NMagM=    2.6288670   0.0000000   2.6288670   2.6288670   2.6288670
 AtZNuc=   9.0000000   6.0000000   9.0000000   9.0000000   9.0000000
 Leave Link  101 at Wed Jun  5 17:17:15 2019, MaxMem=  6442450944 cpu:              29.1 elap:               1.1
 (Enter /home/ekwan/sw/g16/l103.exe)

 GradGradGradGradGradGradGradGradGradGradGradGradGradGradGradGradGradGrad
 Berny optimization.
 Initialization pass.
                           ----------------------------
                           !    Initial Parameters    !
                           ! (Angstroms and Degrees)  !
 --------------------------                            --------------------------
 ! Name  Definition              Value          Derivative Info.                !
 --------------------------------------------------------------------------------
 ! R1    R(1,2)                  1.525          estimate D2E/DX2                !
 ! R2    R(1,5)                  1.5226         estimate D2E/DX2                !
 ! R3    R(1,8)                  1.0977         estimate D2E/DX2                !
 ! R4    R(1,14)                 1.4108         estimate D2E/DX2                !
 ! R5    R(2,3)                  1.5316         estimate D2E/DX2                !
 ! R6    R(2,7)                  1.1007         estimate D2E/DX2                !
 ! R7    R(2,13)                 1.4019         estimate D2E/DX2                !
 ! R8    R(3,6)                  1.0888         estimate D2E/DX2                !
 ! R9    R(3,11)                 1.383          estimate D2E/DX2                !
 ! R10   R(3,12)                 1.4507         estimate D2E/DX2                !
 ! R11   R(4,5)                  1.5251         estimate D2E/DX2                !
 ! R12   R(4,9)                  1.0973         estimate D2E/DX2                !
 ! R13   R(4,11)                 1.4372         estimate D2E/DX2                !
 ! R14   R(4,16)                 1.5198         estimate D2E/DX2                !
 ! R15   R(5,10)                 1.0959         estimate D2E/DX2                !
 ! R16   R(5,15)                 1.4113         estimate D2E/DX2                !
 ! R17   R(12,20)                1.6149         estimate D2E/DX2                !
 ! R18   R(13,32)                1.415          estimate D2E/DX2                !
 ! R19   R(14,36)                1.416          estimate D2E/DX2                !
 ! R20   R(15,40)                1.4165         estimate D2E/DX2                !
 ! R21   R(16,17)                1.092          estimate D2E/DX2                !
 ! R22   R(16,18)                1.0967         estimate D2E/DX2                !
 ! R23   R(16,19)                1.409          estimate D2E/DX2                !
 ! R24   R(19,44)                1.4167         estimate D2E/DX2                !
 ! R25   R(20,21)                1.4471         estimate D2E/DX2                !
 ! R26   R(20,22)                1.4531         estimate D2E/DX2                !
 ! R27   R(20,23)                1.7735         estimate D2E/DX2                !
 ! R28   R(23,24)                1.3869         estimate D2E/DX2                !
 ! R29   R(23,25)                1.3872         estimate D2E/DX2                !
 ! R30   R(24,26)                1.3888         estimate D2E/DX2                !
 ! R31   R(24,27)                1.0833         estimate D2E/DX2                !
 ! R32   R(25,28)                1.3871         estimate D2E/DX2                !
 ! R33   R(25,29)                1.0824         estimate D2E/DX2                !
 ! R34   R(26,30)                1.3886         estimate D2E/DX2                !
 ! R35   R(26,48)                1.5021         estimate D2E/DX2                !
 ! R36   R(28,30)                1.3899         estimate D2E/DX2                !
 ! R37   R(28,52)                1.5009         estimate D2E/DX2                !
 ! R38   R(30,31)                1.0835         estimate D2E/DX2                !
 ! R39   R(32,33)                1.0969         estimate D2E/DX2                !
 ! R40   R(32,34)                1.0978         estimate D2E/DX2                !
 ! R41   R(32,35)                1.0906         estimate D2E/DX2                !
 ! R42   R(36,37)                1.0917         estimate D2E/DX2                !
 ! R43   R(36,38)                1.0979         estimate D2E/DX2                !
 ! R44   R(36,39)                1.0934         estimate D2E/DX2                !
 ! R45   R(40,41)                1.0917         estimate D2E/DX2                !
 ! R46   R(40,42)                1.0944         estimate D2E/DX2                !
 ! R47   R(40,43)                1.0971         estimate D2E/DX2                !
 ! R48   R(44,45)                1.0919         estimate D2E/DX2                !
 ! R49   R(44,46)                1.0972         estimate D2E/DX2                !
 ! R50   R(44,47)                1.0944         estimate D2E/DX2                !
 ! R51   R(48,49)                1.3408         estimate D2E/DX2                !
 ! R52   R(48,50)                1.3429         estimate D2E/DX2                !
 ! R53   R(48,51)                1.3415         estimate D2E/DX2                !
 ! R54   R(52,53)                1.3498         estimate D2E/DX2                !
 ! R55   R(52,54)                1.3398         estimate D2E/DX2                !
 ! R56   R(52,55)                1.3388         estimate D2E/DX2                !
 ! A1    A(2,1,5)              110.3973         estimate D2E/DX2                !
 ! A2    A(2,1,8)              109.0519         estimate D2E/DX2                !
 ! A3    A(2,1,14)             110.7248         estimate D2E/DX2                !
 ! A4    A(5,1,8)              108.6275         estimate D2E/DX2                !
 ! A5    A(5,1,14)             107.6303         estimate D2E/DX2                !
 ! A6    A(8,1,14)             110.379          estimate D2E/DX2                !
 ! A7    A(1,2,3)              111.0552         estimate D2E/DX2                !
 ! A8    A(1,2,7)              108.1597         estimate D2E/DX2                !
 ! A9    A(1,2,13)             108.4766         estimate D2E/DX2                !
 ! A10   A(3,2,7)              106.1943         estimate D2E/DX2                !
 ! A11   A(3,2,13)             112.3849         estimate D2E/DX2                !
 ! A12   A(7,2,13)             110.4887         estimate D2E/DX2                !
 ! A13   A(2,3,6)              112.131          estimate D2E/DX2                !
 ! A14   A(2,3,11)             113.021          estimate D2E/DX2                !
 ! A15   A(2,3,12)             105.8865         estimate D2E/DX2                !
 ! A16   A(6,3,11)             106.413          estimate D2E/DX2                !
 ! A17   A(6,3,12)             108.1706         estimate D2E/DX2                !
 ! A18   A(11,3,12)            111.1935         estimate D2E/DX2                !
 ! A19   A(5,4,9)              109.0215         estimate D2E/DX2                !
 ! A20   A(5,4,11)             110.4281         estimate D2E/DX2                !
 ! A21   A(5,4,16)             112.1982         estimate D2E/DX2                !
 ! A22   A(9,4,11)             108.9389         estimate D2E/DX2                !
 ! A23   A(9,4,16)             107.85           estimate D2E/DX2                !
 ! A24   A(11,4,16)            108.3218         estimate D2E/DX2                !
 ! A25   A(1,5,4)              111.5636         estimate D2E/DX2                !
 ! A26   A(1,5,10)             108.845          estimate D2E/DX2                !
 ! A27   A(1,5,15)             110.1705         estimate D2E/DX2                !
 ! A28   A(4,5,10)             108.3824         estimate D2E/DX2                !
 ! A29   A(4,5,15)             107.2835         estimate D2E/DX2                !
 ! A30   A(10,5,15)            110.5807         estimate D2E/DX2                !
 ! A31   A(3,11,4)             115.4202         estimate D2E/DX2                !
 ! A32   A(3,12,20)            118.5667         estimate D2E/DX2                !
 ! A33   A(2,13,32)            114.7013         estimate D2E/DX2                !
 ! A34   A(1,14,36)            114.7305         estimate D2E/DX2                !
 ! A35   A(5,15,40)            114.1167         estimate D2E/DX2                !
 ! A36   A(4,16,17)            107.2697         estimate D2E/DX2                !
 ! A37   A(4,16,18)            109.3426         estimate D2E/DX2                !
 ! A38   A(4,16,19)            114.4467         estimate D2E/DX2                !
 ! A39   A(17,16,18)           108.6044         estimate D2E/DX2                !
 ! A40   A(17,16,19)           106.3319         estimate D2E/DX2                !
 ! A41   A(18,16,19)           110.6105         estimate D2E/DX2                !
 ! A42   A(16,19,44)           114.7189         estimate D2E/DX2                !
 ! A43   A(12,20,21)           104.6659         estimate D2E/DX2                !
 ! A44   A(12,20,22)           108.614          estimate D2E/DX2                !
 ! A45   A(12,20,23)           103.1285         estimate D2E/DX2                !
 ! A46   A(21,20,22)           121.4949         estimate D2E/DX2                !
 ! A47   A(21,20,23)           108.8067         estimate D2E/DX2                !
 ! A48   A(22,20,23)           108.5809         estimate D2E/DX2                !
 ! A49   A(20,23,24)           118.8754         estimate D2E/DX2                !
 ! A50   A(20,23,25)           119.0544         estimate D2E/DX2                !
 ! A51   A(24,23,25)           122.0382         estimate D2E/DX2                !
 ! A52   A(23,24,26)           118.5182         estimate D2E/DX2                !
 ! A53   A(23,24,27)           120.5338         estimate D2E/DX2                !
 ! A54   A(26,24,27)           120.9479         estimate D2E/DX2                !
 ! A55   A(23,25,28)           118.4458         estimate D2E/DX2                !
 ! A56   A(23,25,29)           120.5394         estimate D2E/DX2                !
 ! A57   A(28,25,29)           121.0146         estimate D2E/DX2                !
 ! A58   A(24,26,30)           120.5889         estimate D2E/DX2                !
 ! A59   A(24,26,48)           119.6726         estimate D2E/DX2                !
 ! A60   A(30,26,48)           119.6995         estimate D2E/DX2                !
 ! A61   A(25,28,30)           120.7065         estimate D2E/DX2                !
 ! A62   A(25,28,52)           119.7246         estimate D2E/DX2                !
 ! A63   A(30,28,52)           119.478          estimate D2E/DX2                !
 ! A64   A(26,30,28)           119.7007         estimate D2E/DX2                !
 ! A65   A(26,30,31)           120.1416         estimate D2E/DX2                !
 ! A66   A(28,30,31)           120.1576         estimate D2E/DX2                !
 ! A67   A(13,32,33)           111.9596         estimate D2E/DX2                !
 ! A68   A(13,32,34)           111.1787         estimate D2E/DX2                !
 ! A69   A(13,32,35)           106.7748         estimate D2E/DX2                !
 ! A70   A(33,32,34)           109.0533         estimate D2E/DX2                !
 ! A71   A(33,32,35)           108.6062         estimate D2E/DX2                !
 ! A72   A(34,32,35)           109.1837         estimate D2E/DX2                !
 ! A73   A(14,36,37)           106.6733         estimate D2E/DX2                !
 ! A74   A(14,36,38)           110.9377         estimate D2E/DX2                !
 ! A75   A(14,36,39)           111.4799         estimate D2E/DX2                !
 ! A76   A(37,36,38)           108.9194         estimate D2E/DX2                !
 ! A77   A(37,36,39)           109.5958         estimate D2E/DX2                !
 ! A78   A(38,36,39)           109.1734         estimate D2E/DX2                !
 ! A79   A(15,40,41)           106.7833         estimate D2E/DX2                !
 ! A80   A(15,40,42)           111.085          estimate D2E/DX2                !
 ! A81   A(15,40,43)           110.856          estimate D2E/DX2                !
 ! A82   A(41,40,42)           109.4714         estimate D2E/DX2                !
 ! A83   A(41,40,43)           109.1631         estimate D2E/DX2                !
 ! A84   A(42,40,43)           109.4255         estimate D2E/DX2                !
 ! A85   A(19,44,45)           106.7956         estimate D2E/DX2                !
 ! A86   A(19,44,46)           110.8469         estimate D2E/DX2                !
 ! A87   A(19,44,47)           112.0228         estimate D2E/DX2                !
 ! A88   A(45,44,46)           109.1667         estimate D2E/DX2                !
 ! A89   A(45,44,47)           109.3512         estimate D2E/DX2                !
 ! A90   A(46,44,47)           108.6081         estimate D2E/DX2                !
 ! A91   A(26,48,49)           111.4962         estimate D2E/DX2                !
 ! A92   A(26,48,50)           111.3969         estimate D2E/DX2                !
 ! A93   A(26,48,51)           111.4119         estimate D2E/DX2                !
 ! A94   A(49,48,50)           107.2352         estimate D2E/DX2                !
 ! A95   A(49,48,51)           107.9138         estimate D2E/DX2                !
 ! A96   A(50,48,51)           107.1635         estimate D2E/DX2                !
 ! A97   A(28,52,53)           111.0548         estimate D2E/DX2                !
 ! A98   A(28,52,54)           111.6802         estimate D2E/DX2                !
 ! A99   A(28,52,55)           111.851          estimate D2E/DX2                !
 ! A100  A(53,52,54)           106.7844         estimate D2E/DX2                !
 ! A101  A(53,52,55)           107.0885         estimate D2E/DX2                !
 ! A102  A(54,52,55)           108.127          estimate D2E/DX2                !
 ! D1    D(5,1,2,3)            -49.4623         estimate D2E/DX2                !
 ! D2    D(5,1,2,7)             66.6918         estimate D2E/DX2                !
 ! D3    D(5,1,2,13)          -173.441          estimate D2E/DX2                !
 ! D4    D(8,1,2,3)             69.8088         estimate D2E/DX2                !
 ! D5    D(8,1,2,7)           -174.0371         estimate D2E/DX2                !
 ! D6    D(8,1,2,13)           -54.1699         estimate D2E/DX2                !
 ! D7    D(14,1,2,3)          -168.5524         estimate D2E/DX2                !
 ! D8    D(14,1,2,7)           -52.3983         estimate D2E/DX2                !
 ! D9    D(14,1,2,13)           67.4689         estimate D2E/DX2                !
 ! D10   D(2,1,5,4)             51.8036         estimate D2E/DX2                !
 ! D11   D(2,1,5,10)           -67.746          estimate D2E/DX2                !
 ! D12   D(2,1,5,15)           170.8491         estimate D2E/DX2                !
 ! D13   D(8,1,5,4)            -67.7245         estimate D2E/DX2                !
 ! D14   D(8,1,5,10)           172.7259         estimate D2E/DX2                !
 ! D15   D(8,1,5,15)            51.321          estimate D2E/DX2                !
 ! D16   D(14,1,5,4)           172.7565         estimate D2E/DX2                !
 ! D17   D(14,1,5,10)           53.2069         estimate D2E/DX2                !
 ! D18   D(14,1,5,15)          -68.198          estimate D2E/DX2                !
 ! D19   D(2,1,14,36)          -96.307          estimate D2E/DX2                !
 ! D20   D(5,1,14,36)          142.9458         estimate D2E/DX2                !
 ! D21   D(8,1,14,36)           24.548          estimate D2E/DX2                !
 ! D22   D(1,2,3,6)            171.7783         estimate D2E/DX2                !
 ! D23   D(1,2,3,11)            51.498          estimate D2E/DX2                !
 ! D24   D(1,2,3,12)           -70.4621         estimate D2E/DX2                !
 ! D25   D(7,2,3,6)             54.4192         estimate D2E/DX2                !
 ! D26   D(7,2,3,11)           -65.8611         estimate D2E/DX2                !
 ! D27   D(7,2,3,12)           172.1788         estimate D2E/DX2                !
 ! D28   D(13,2,3,6)           -66.4982         estimate D2E/DX2                !
 ! D29   D(13,2,3,11)          173.2215         estimate D2E/DX2                !
 ! D30   D(13,2,3,12)           51.2614         estimate D2E/DX2                !
 ! D31   D(1,2,13,32)         -168.644          estimate D2E/DX2                !
 ! D32   D(3,2,13,32)           68.1751         estimate D2E/DX2                !
 ! D33   D(7,2,13,32)          -50.2422         estimate D2E/DX2                !
 ! D34   D(2,3,11,4)           -56.0719         estimate D2E/DX2                !
 ! D35   D(6,3,11,4)          -179.5675         estimate D2E/DX2                !
 ! D36   D(12,3,11,4)           62.8586         estimate D2E/DX2                !
 ! D37   D(2,3,12,20)         -157.1444         estimate D2E/DX2                !
 ! D38   D(6,3,12,20)          -36.7697         estimate D2E/DX2                !
 ! D39   D(11,3,12,20)          79.732          estimate D2E/DX2                !
 ! D40   D(9,4,5,1)             65.8382         estimate D2E/DX2                !
 ! D41   D(9,4,5,10)          -174.3389         estimate D2E/DX2                !
 ! D42   D(9,4,5,15)           -54.9098         estimate D2E/DX2                !
 ! D43   D(11,4,5,1)           -53.815          estimate D2E/DX2                !
 ! D44   D(11,4,5,10)           66.008          estimate D2E/DX2                !
 ! D45   D(11,4,5,15)         -174.563          estimate D2E/DX2                !
 ! D46   D(16,4,5,1)          -174.7647         estimate D2E/DX2                !
 ! D47   D(16,4,5,10)          -54.9417         estimate D2E/DX2                !
 ! D48   D(16,4,5,15)           64.4873         estimate D2E/DX2                !
 ! D49   D(5,4,11,3)            56.8218         estimate D2E/DX2                !
 ! D50   D(9,4,11,3)           -62.8812         estimate D2E/DX2                !
 ! D51   D(16,4,11,3)         -179.9462         estimate D2E/DX2                !
 ! D52   D(5,4,16,17)          -69.7254         estimate D2E/DX2                !
 ! D53   D(5,4,16,18)          172.6802         estimate D2E/DX2                !
 ! D54   D(5,4,16,19)           47.9723         estimate D2E/DX2                !
 ! D55   D(9,4,16,17)           50.3553         estimate D2E/DX2                !
 ! D56   D(9,4,16,18)          -67.239          estimate D2E/DX2                !
 ! D57   D(9,4,16,19)          168.0531         estimate D2E/DX2                !
 ! D58   D(11,4,16,17)         168.1186         estimate D2E/DX2                !
 ! D59   D(11,4,16,18)          50.5242         estimate D2E/DX2                !
 ! D60   D(11,4,16,19)         -74.1837         estimate D2E/DX2                !
 ! D61   D(1,5,15,40)          105.6817         estimate D2E/DX2                !
 ! D62   D(4,5,15,40)         -132.693          estimate D2E/DX2                !
 ! D63   D(10,5,15,40)         -14.6833         estimate D2E/DX2                !
 ! D64   D(3,12,20,21)         164.7869         estimate D2E/DX2                !
 ! D65   D(3,12,20,22)          33.6417         estimate D2E/DX2                !
 ! D66   D(3,12,20,23)         -81.4337         estimate D2E/DX2                !
 ! D67   D(2,13,32,33)         -71.6349         estimate D2E/DX2                !
 ! D68   D(2,13,32,34)          50.621          estimate D2E/DX2                !
 ! D69   D(2,13,32,35)         169.6239         estimate D2E/DX2                !
 ! D70   D(1,14,36,37)        -177.9251         estimate D2E/DX2                !
 ! D71   D(1,14,36,38)         -59.4359         estimate D2E/DX2                !
 ! D72   D(1,14,36,39)          62.4652         estimate D2E/DX2                !
 ! D73   D(5,15,40,41)         179.3373         estimate D2E/DX2                !
 ! D74   D(5,15,40,42)         -61.3591         estimate D2E/DX2                !
 ! D75   D(5,15,40,43)          60.5337         estimate D2E/DX2                !
 ! D76   D(4,16,19,44)          80.5611         estimate D2E/DX2                !
 ! D77   D(17,16,19,44)       -161.2079         estimate D2E/DX2                !
 ! D78   D(18,16,19,44)        -43.473          estimate D2E/DX2                !
 ! D79   D(16,19,44,45)        167.6296         estimate D2E/DX2                !
 ! D80   D(16,19,44,46)         48.8194         estimate D2E/DX2                !
 ! D81   D(16,19,44,47)        -72.6707         estimate D2E/DX2                !
 ! D82   D(12,20,23,24)        -83.7403         estimate D2E/DX2                !
 ! D83   D(12,20,23,25)         94.2432         estimate D2E/DX2                !
 ! D84   D(21,20,23,24)         26.9961         estimate D2E/DX2                !
 ! D85   D(21,20,23,25)       -155.0205         estimate D2E/DX2                !
 ! D86   D(22,20,23,24)        161.1605         estimate D2E/DX2                !
 ! D87   D(22,20,23,25)        -20.856          estimate D2E/DX2                !
 ! D88   D(20,23,24,26)        177.7482         estimate D2E/DX2                !
 ! D89   D(20,23,24,27)         -2.4052         estimate D2E/DX2                !
 ! D90   D(25,23,24,26)         -0.1723         estimate D2E/DX2                !
 ! D91   D(25,23,24,27)        179.6743         estimate D2E/DX2                !
 ! D92   D(20,23,25,28)       -177.4868         estimate D2E/DX2                !
 ! D93   D(20,23,25,29)          2.3425         estimate D2E/DX2                !
 ! D94   D(24,23,25,28)          0.4301         estimate D2E/DX2                !
 ! D95   D(24,23,25,29)       -179.7406         estimate D2E/DX2                !
 ! D96   D(23,24,26,30)         -0.2127         estimate D2E/DX2                !
 ! D97   D(23,24,26,48)        177.5076         estimate D2E/DX2                !
 ! D98   D(27,24,26,30)        179.9414         estimate D2E/DX2                !
 ! D99   D(27,24,26,48)         -2.3384         estimate D2E/DX2                !
 ! D100  D(23,25,28,30)         -0.3081         estimate D2E/DX2                !
 ! D101  D(23,25,28,52)        176.2061         estimate D2E/DX2                !
 ! D102  D(29,25,28,30)        179.8635         estimate D2E/DX2                !
 ! D103  D(29,25,28,52)         -3.6223         estimate D2E/DX2                !
 ! D104  D(24,26,30,28)          0.3287         estimate D2E/DX2                !
 ! D105  D(24,26,30,31)       -179.6512         estimate D2E/DX2                !
 ! D106  D(48,26,30,28)       -177.3909         estimate D2E/DX2                !
 ! D107  D(48,26,30,31)          2.6292         estimate D2E/DX2                !
 ! D108  D(24,26,48,49)         29.3237         estimate D2E/DX2                !
 ! D109  D(24,26,48,50)        -90.4342         estimate D2E/DX2                !
 ! D110  D(24,26,48,51)        149.9558         estimate D2E/DX2                !
 ! D111  D(30,26,48,49)       -152.9356         estimate D2E/DX2                !
 ! D112  D(30,26,48,50)         87.3064         estimate D2E/DX2                !
 ! D113  D(30,26,48,51)        -32.3035         estimate D2E/DX2                !
 ! D114  D(25,28,30,26)         -0.0626         estimate D2E/DX2                !
 ! D115  D(25,28,30,31)        179.9173         estimate D2E/DX2                !
 ! D116  D(52,28,30,26)       -176.5853         estimate D2E/DX2                !
 ! D117  D(52,28,30,31)          3.3946         estimate D2E/DX2                !
 ! D118  D(25,28,52,53)        -93.0495         estimate D2E/DX2                !
 ! D119  D(25,28,52,54)        147.8708         estimate D2E/DX2                !
 ! D120  D(25,28,52,55)         26.529          estimate D2E/DX2                !
 ! D121  D(30,28,52,53)         83.5078         estimate D2E/DX2                !
 ! D122  D(30,28,52,54)        -35.5719         estimate D2E/DX2                !
 ! D123  D(30,28,52,55)       -156.9137         estimate D2E/DX2                !
 --------------------------------------------------------------------------------
 Trust Radius=3.00D-01 FncErr=1.00D-07 GrdErr=1.00D-06 EigMax=2.50D+02 EigMin=1.00D-04
 Number of steps in this run=    291 maximum allowed number of steps=    330.
 GradGradGradGradGradGradGradGradGradGradGradGradGradGradGradGradGradGrad

 Leave Link  103 at Wed Jun  5 17:17:16 2019, MaxMem=  6442450944 cpu:               2.2 elap:               0.1
 (Enter /home/ekwan/sw/g16/l202.exe)
 Stoichiometry    C18H22F6O8S
 Framework group  C1[X(C18H22F6O8S)]
 Deg. of freedom   159
 Full point group                 C1      NOp   1
 Largest Abelian subgroup         C1      NOp   1
 Largest concise Abelian subgroup C1      NOp   1
                         Standard orientation:                         
 ---------------------------------------------------------------------
 Center     Atomic      Atomic             Coordinates (Angstroms)
 Number     Number       Type             X           Y           Z
 ---------------------------------------------------------------------
      1          6           0        3.393876    0.160931    0.703665
      2          6           0        3.312412   -0.392250   -0.715095
      3          6           0        1.855696   -0.563827   -1.156007
      4          6           0        1.077441    1.095434    0.369093
      5          6           0        2.496221    1.382116    0.849459
      6          1           0        1.773960   -0.820358   -2.210991
      7          1           0        3.754661    0.348953   -1.398236
      8          1           0        3.055190   -0.609355    1.408594
      9          1           0        0.619021    0.350840    1.032014
     10          1           0        2.907624    2.198086    0.244587
     11          8           0        1.096742    0.577490   -0.971426
     12          8           0        1.333589   -1.672160   -0.379161
     13          8           0        4.030495   -1.595262   -0.764816
     14          8           0        4.712002    0.560664    1.008744
     15          8           0        2.410665    1.764101    2.205387
     16          6           0        0.202520    2.338011    0.388624
     17          1           0        0.024580    2.592763    1.435430
     18          1           0       -0.760395    2.111729   -0.084949
     19          8           0        0.790473    3.474492   -0.201312
     20         16           0        0.057466   -2.481239   -0.949100
     21          8           0        0.020582   -3.701569   -0.172261
     22          8           0        0.134773   -2.506949   -2.399871
     23          6           0       -1.312187   -1.459538   -0.474179
     24          6           0       -1.831550   -1.587975    0.805395
     25          6           0       -1.803223   -0.528443   -1.377643
     26          6           0       -2.872991   -0.751376    1.185372
     27          1           0       -1.432845   -2.327271    1.489579
     28          6           0       -2.840005    0.300253   -0.974593
     29          1           0       -1.382358   -0.451853   -2.371944
     30          6           0       -3.377532    0.194477    0.302770
     31          1           0       -4.186416    0.847287    0.608747
     32          6           0        4.256301   -2.095634   -2.068948
     33          1           0        3.337343   -2.485786   -2.523429
     34          1           0        4.679015   -1.321841   -2.722967
     35          1           0        4.971367   -2.913485   -1.972855
     36          6           0        5.476705   -0.404161    1.708400
     37          1           0        6.449007    0.050816    1.907063
     38          1           0        5.002581   -0.662542    2.664362
     39          1           0        5.611491   -1.313874    1.116932
     40          6           0        3.151350    2.928030    2.526652
     41          1           0        2.992468    3.119380    3.589694
     42          1           0        4.219151    2.779659    2.338301
     43          1           0        2.795117    3.789692    1.948440
     44          6           0        0.719365    3.511541   -1.615791
     45          1           0        1.000326    4.521985   -1.919457
     46          1           0       -0.300791    3.302200   -1.961064
     47          1           0        1.399861    2.791006   -2.079892
     48          6           0       -3.492570   -0.905721    2.545051
     49          9           0       -2.608919   -1.376041    3.437145
     50          9           0       -4.525692   -1.763296    2.518205
     51          9           0       -3.960903    0.263980    3.005458
     52          6           0       -3.335918    1.374573   -1.897948
     53          9           0       -2.707530    2.545536   -1.661289
     54          9           0       -4.646781    1.599479   -1.736745
     55          9           0       -3.121225    1.065531   -3.182805
 ---------------------------------------------------------------------
 Rotational constants (GHZ):           0.1514521           0.0851639           0.0820850
 Leave Link  202 at Wed Jun  5 17:17:16 2019, MaxMem=  6442450944 cpu:               6.1 elap:               0.3
 (Enter /home/ekwan/sw/g16/l301.exe)
 Standard basis: 6-31G(d) (6D, 7F)
 Ernie: Thresh=  0.10000D-02 Tol=  0.10000D-05 Strict=F.
 There are   543 symmetry adapted cartesian basis functions of A   symmetry.
 There are   543 symmetry adapted basis functions of A   symmetry.
   543 basis functions,  1036 primitive gaussians,   543 cartesian basis functions
   132 alpha electrons      132 beta electrons
       nuclear repulsion energy      4351.1191452565 Hartrees.
 IExCor=20419 DFT=T Ex+Corr=CAM-B3LYP ExCW=0 ScaHFX=  1.000000
 ScaDFX=  1.000000  1.000000  1.000000  0.810000 ScalE2=  1.000000  1.000000
 IRadAn=      5 IRanWt=     -1 IRanGd=            0 ICorTp=0 IEmpDi=141
 HFx  wShort=  0.000000 wLong=  0.330000 cFull=  0.190000 cShort=  0.000000 cLong=  0.460000
 DFx  wShort=  0.000000 wLong=  0.330000 cFull=  0.190000 cShort=  0.000000 cLong=  0.460000
 NAtoms=   55 NActive=   55 NUniq=   55 SFac= 1.00D+00 NAtFMM=   60 NAOKFM=F Big=F
 Integral buffers will be    131072 words long.
 Raffenetti 2 integral format.
 Two-electron integral symmetry is turned on.
 R6Disp:  Grimme-D3(BJ) Dispersion energy=       -0.0620184159 Hartrees.
 Nuclear repulsion after empirical dispersion term =     4351.0571268406 Hartrees.
 ------------------------------------------------------------------------------
 Polarizable Continuum Model (PCM)
 =================================
 Model                : PCM.
 Atomic radii         : UFF (Universal Force Field).
 Polarization charges : Total charges.
 Charge compensation  : None.
 Solution method      : On-the-fly selection.
 Cavity type          : Scaled VdW (van der Waals Surface) (Alpha=1.100).
 Cavity algorithm     : GePol (No added spheres)
                        Default sphere list used, NSphG=   55.
                        Lebedev-Laikov grids with approx.  5.0 points / Ang**2.
                        Smoothing algorithm: York/Karplus (Gamma=1.0000).
                        Polarization charges: spherical gaussians, with
                                              point-specific exponents (IZeta= 3).
                        Self-potential: point-specific (ISelfS= 7).
                        Self-field    : sphere-specific E.n sum rule (ISelfD= 2).
 1st derivatives      : Analytical E(r).r(x)/FMM algorithm (CHGder, D1EAlg=3).
                        Cavity 1st derivative terms included.
 Solvent              : TetraHydroFuran, Eps=   7.425700 Eps(inf)=   1.974025
 ------------------------------------------------------------------------------
 GePol: Number of generator spheres                  =      55
 GePol: Total number of spheres                      =      55
 GePol: Number of exposed spheres                    =      55 (100.00%)
 GePol: Number of points                             =    3890
 GePol: Average weight of points                     =       0.13
 GePol: Minimum weight of points                     =   0.21D-09
 GePol: Maximum weight of points                     =    0.20577
 GePol: Number of points with low weight             =     232
 GePol: Fraction of low-weight points (<1% of avg)   =       5.96%
 GePol: Cavity surface area                          =    493.727 Ang**2
 GePol: Cavity volume                                =    574.546 Ang**3
 Leave Link  301 at Wed Jun  5 17:17:16 2019, MaxMem=  6442450944 cpu:               8.7 elap:               0.4
 (Enter /home/ekwan/sw/g16/l302.exe)
 NPDir=0 NMtPBC=     1 NCelOv=     1 NCel=       1 NClECP=     1 NCelD=      1
         NCelK=      1 NCelE2=     1 NClLst=     1 CellRange=     0.0.
 One-electron integrals computed using PRISM.
 One-electron integral symmetry used in STVInt
 NBasis=   543 RedAO= T EigKep=  3.99D-04  NBF=   543
 NBsUse=   543 1.00D-06 EigRej= -1.00D+00 NBFU=   543
 Precomputing XC quadrature grid using
 IXCGrd= 4 IRadAn=           5 IRanWt=          -1 IRanGd=           0 AccXCQ= 0.00D+00.
 Generated NRdTot=       0 NPtTot=           0 NUsed=           0 NTot=          32
 NSgBfM=   533   533   533   533   533 MxSgAt=    55 MxSgA2=    55.
 Leave Link  302 at Wed Jun  5 17:17:30 2019, MaxMem=  6442450944 cpu:             367.3 elap:              13.7
 (Enter /home/ekwan/sw/g16/l303.exe)
 DipDrv:  MaxL=1.
 Leave Link  303 at Wed Jun  5 17:17:31 2019, MaxMem=  6442450944 cpu:              13.4 elap:               0.6
 (Enter /home/ekwan/sw/g16/l401.exe)
 ExpMin= 1.17D-01 ExpMax= 2.19D+04 ExpMxC= 3.30D+03 IAcc=3 IRadAn=         5 AccDes= 0.00D+00
 Harris functional with IExCor=20419 and IRadAn=       5 diagonalized for initial guess.
 HarFok:  IExCor=20419 AccDes= 0.00D+00 IRadAn=         5 IDoV= 1 UseB2=F ITyADJ=14
 ICtDFT=  3500011 ScaDFX=  1.000000  1.000000  1.000000  1.000000
 FoFCou: FMM=F IPFlag=           0 FMFlag=      100000 FMFlg1=           0
         NFxFlg=           0 DoJE=T BraDBF=F KetDBF=T FulRan=T
         wScrn=  0.000000 ICntrl=       500 IOpCl=  0 I1Cent=   200000004 NGrid=           0
         NMat0=    1 NMatS0=      1 NMatT0=    0 NMatD0=    1 NMtDS0=    0 NMtDT0=    0
 Petite list used in FoFCou.
 Harris En= -2227.62414362694    
 JPrj=0 DoOrth=F DoCkMO=F.
 Leave Link  401 at Wed Jun  5 17:17:41 2019, MaxMem=  6442450944 cpu:             276.2 elap:              10.2
 (Enter /home/ekwan/sw/g16/l502.exe)
 Integral symmetry usage will be decided dynamically.
 Closed shell SCF:
 Using DIIS extrapolation, IDIIS=  1040.
 NGot=  6442450944 LenX=  6441838015 LenY=  6441542623
 Requested convergence on RMS density matrix=1.00D-08 within 128 cycles.
 Requested convergence on MAX density matrix=1.00D-06.
 Requested convergence on             energy=1.00D-06.
 No special actions if energy rises.
 Fock matrices will be formed incrementally for  20 cycles.

 Cycle   1  Pass 1  IDiag  1:
 FoFJK:  IHMeth= 1 ICntrl=       0 DoSepK=T KAlg= 0 I1Cent=           0 FoldK=F
 IRaf=         1 NMat=       1 IRICut=       1 DoRegI=T DoRafI=F ISym2E= 0 IDoP0=0 IntGTp=1.
 FoFCou: FMM=F IPFlag=           0 FMFlag=      100000 FMFlg1=           0
         NFxFlg=           0 DoJE=T BraDBF=F KetDBF=F FulRan=T
         wScrn=  0.000000 ICntrl=       500 IOpCl=  0 I1Cent=           0 NGrid=           0
         NMat0=    1 NMatS0=      1 NMatT0=    0 NMatD0=    1 NMtDS0=    0 NMtDT0=    0
 Symmetry not used in FoFCou.
 Inv3:  Mode=1 IEnd=    45396300.
 Iteration    1 A*A^-1 deviation from unit magnitude is 6.88D-15 for   3880.
 Iteration    1 A*A^-1 deviation from orthogonality  is 7.09D-15 for   3889   3299.
 Iteration    1 A^-1*A deviation from unit magnitude is 6.66D-15 for   3880.
 Iteration    1 A^-1*A deviation from orthogonality  is 2.62D-15 for   3884   2740.
 E= -2296.73899042284    
 DIIS: error= 5.86D-02 at cycle   1 NSaved=   1.
 NSaved= 1 IEnMin= 1 EnMin= -2296.73899042284     IErMin= 1 ErrMin= 5.86D-02
 ErrMax= 5.86D-02  0.00D+00 EMaxC= 1.00D-01 BMatC= 1.78D+00 BMatP= 1.78D+00
 IDIUse=3 WtCom= 4.14D-01 WtEn= 5.86D-01
 Coeff-Com:  0.100D+01
 Coeff-En:   0.100D+01
 Coeff:      0.100D+01
 Gap=     0.389 Goal=   None    Shift=    0.000
 GapD=    0.389 DampG=1.000 DampE=0.500 DampFc=0.5000 IDamp=-1.
 Damping current iteration by 5.00D-01
 RMSDP=3.64D-03 MaxDP=5.00D-01              OVMax= 1.64D-01

 Cycle   2  Pass 1  IDiag  1:
 RMSU=  1.82D-03    CP:  9.91D-01
 E= -2297.08081981696     Delta-E=       -0.341829394115 Rises=F Damp=T
 DIIS: error= 3.06D-02 at cycle   2 NSaved=   2.
 NSaved= 2 IEnMin= 2 EnMin= -2297.08081981696     IErMin= 2 ErrMin= 3.06D-02
 ErrMax= 3.06D-02  0.00D+00 EMaxC= 1.00D-01 BMatC= 2.46D-01 BMatP= 1.78D+00
 IDIUse=3 WtCom= 6.94D-01 WtEn= 3.06D-01
 Coeff-Com: -0.242D+00 0.124D+01
 Coeff-En:   0.000D+00 0.100D+01
 Coeff:     -0.168D+00 0.117D+01
 Gap=     0.458 Goal=   None    Shift=    0.000
 RMSDP=9.88D-04 MaxDP=5.23D-02 DE=-3.42D-01 OVMax= 9.76D-02

 Cycle   3  Pass 1  IDiag  1:
 RMSU=  9.40D-04    CP:  9.89D-01  1.17D+00
 E= -2297.38736611374     Delta-E=       -0.306546296780 Rises=F Damp=F
 DIIS: error= 7.05D-03 at cycle   3 NSaved=   3.
 NSaved= 3 IEnMin= 3 EnMin= -2297.38736611374     IErMin= 3 ErrMin= 7.05D-03
 ErrMax= 7.05D-03  0.00D+00 EMaxC= 1.00D-01 BMatC= 7.61D-02 BMatP= 2.46D-01
 IDIUse=3 WtCom= 9.30D-01 WtEn= 7.05D-02
 Coeff-Com: -0.186D+00 0.505D+00 0.681D+00
 Coeff-En:   0.000D+00 0.000D+00 0.100D+01
 Coeff:     -0.173D+00 0.469D+00 0.703D+00
 Gap=     0.284 Goal=   None    Shift=    0.000
 RMSDP=5.59D-04 MaxDP=3.95D-02 DE=-3.07D-01 OVMax= 4.33D-02

 Cycle   4  Pass 1  IDiag  1:
 RMSU=  3.76D-04    CP:  9.87D-01  1.30D+00  6.44D-01
 E= -2297.43216761766     Delta-E=       -0.044801503925 Rises=F Damp=F
 DIIS: error= 3.36D-03 at cycle   4 NSaved=   4.
 NSaved= 4 IEnMin= 4 EnMin= -2297.43216761766     IErMin= 4 ErrMin= 3.36D-03
 ErrMax= 3.36D-03  0.00D+00 EMaxC= 1.00D-01 BMatC= 1.38D-02 BMatP= 7.61D-02
 IDIUse=3 WtCom= 9.66D-01 WtEn= 3.36D-02
 Coeff-Com: -0.750D-01 0.168D+00 0.377D+00 0.530D+00
 Coeff-En:   0.000D+00 0.000D+00 0.117D+00 0.883D+00
 Coeff:     -0.725D-01 0.162D+00 0.368D+00 0.542D+00
 Gap=     0.287 Goal=   None    Shift=    0.000
 RMSDP=2.15D-04 MaxDP=1.65D-02 DE=-4.48D-02 OVMax= 1.95D-02

 Cycle   5  Pass 1  IDiag  1:
 RMSU=  1.04D-04    CP:  9.86D-01  1.31D+00  7.61D-01  5.96D-01
 E= -2297.44193054332     Delta-E=       -0.009762925662 Rises=F Damp=F
 DIIS: error= 5.56D-04 at cycle   5 NSaved=   5.
 NSaved= 5 IEnMin= 5 EnMin= -2297.44193054332     IErMin= 5 ErrMin= 5.56D-04
 ErrMax= 5.56D-04  0.00D+00 EMaxC= 1.00D-01 BMatC= 5.35D-04 BMatP= 1.38D-02
 IDIUse=3 WtCom= 9.94D-01 WtEn= 5.56D-03
 Coeff-Com: -0.244D-01 0.501D-01 0.141D+00 0.269D+00 0.564D+00
 Coeff-En:   0.000D+00 0.000D+00 0.000D+00 0.000D+00 0.100D+01
 Coeff:     -0.243D-01 0.498D-01 0.140D+00 0.268D+00 0.567D+00
 Gap=     0.283 Goal=   None    Shift=    0.000
 RMSDP=4.23D-05 MaxDP=3.24D-03 DE=-9.76D-03 OVMax= 3.65D-03

 Cycle   6  Pass 1  IDiag  1:
 RMSU=  2.44D-05    CP:  9.86D-01  1.31D+00  7.57D-01  6.46D-01  7.35D-01
 E= -2297.44233644930     Delta-E=       -0.000405905980 Rises=F Damp=F
 DIIS: error= 8.39D-05 at cycle   6 NSaved=   6.
 NSaved= 6 IEnMin= 6 EnMin= -2297.44233644930     IErMin= 6 ErrMin= 8.39D-05
 ErrMax= 8.39D-05  0.00D+00 EMaxC= 1.00D-01 BMatC= 2.08D-05 BMatP= 5.35D-04
 IDIUse=1 WtCom= 1.00D+00 WtEn= 0.00D+00
 Coeff-Com: -0.124D-02 0.135D-02 0.139D-01 0.457D-01 0.195D+00 0.745D+00
 Coeff:     -0.124D-02 0.135D-02 0.139D-01 0.457D-01 0.195D+00 0.745D+00
 Gap=     0.284 Goal=   None    Shift=    0.000
 RMSDP=1.22D-05 MaxDP=8.09D-04 DE=-4.06D-04 OVMax= 7.95D-04

 Cycle   7  Pass 1  IDiag  1:
 RMSU=  9.26D-06    CP:  9.86D-01  1.31D+00  7.61D-01  6.57D-01  7.77D-01
                    CP:  8.92D-01
 E= -2297.44235529436     Delta-E=       -0.000018845060 Rises=F Damp=F
 DIIS: error= 4.59D-05 at cycle   7 NSaved=   7.
 NSaved= 7 IEnMin= 7 EnMin= -2297.44235529436     IErMin= 7 ErrMin= 4.59D-05
 ErrMax= 4.59D-05  0.00D+00 EMaxC= 1.00D-01 BMatC= 3.51D-06 BMatP= 2.08D-05
 IDIUse=1 WtCom= 1.00D+00 WtEn= 0.00D+00
 Coeff-Com:  0.310D-02-0.676D-02-0.144D-01-0.188D-01-0.183D-02 0.307D+00
 Coeff-Com:  0.731D+00
 Coeff:      0.310D-02-0.676D-02-0.144D-01-0.188D-01-0.183D-02 0.307D+00
 Coeff:      0.731D+00
 Gap=     0.284 Goal=   None    Shift=    0.000
 RMSDP=4.72D-06 MaxDP=1.90D-04 DE=-1.88D-05 OVMax= 5.62D-04

 Cycle   8  Pass 1  IDiag  1:
 RMSU=  2.91D-06    CP:  9.86D-01  1.31D+00  7.62D-01  6.60D-01  7.95D-01
                    CP:  9.98D-01  8.48D-01
 E= -2297.44235903754     Delta-E=       -0.000003743180 Rises=F Damp=F
 DIIS: error= 1.71D-05 at cycle   8 NSaved=   8.
 NSaved= 8 IEnMin= 8 EnMin= -2297.44235903754     IErMin= 8 ErrMin= 1.71D-05
 ErrMax= 1.71D-05  0.00D+00 EMaxC= 1.00D-01 BMatC= 2.02D-07 BMatP= 3.51D-06
 IDIUse=1 WtCom= 1.00D+00 WtEn= 0.00D+00
 Coeff-Com:  0.114D-02-0.239D-02-0.569D-02-0.916D-02-0.151D-01 0.417D-01
 Coeff-Com:  0.238D+00 0.752D+00
 Coeff:      0.114D-02-0.239D-02-0.569D-02-0.916D-02-0.151D-01 0.417D-01
 Coeff:      0.238D+00 0.752D+00
 Gap=     0.284 Goal=   None    Shift=    0.000
 RMSDP=1.26D-06 MaxDP=5.00D-05 DE=-3.74D-06 OVMax= 2.38D-04

 Cycle   9  Pass 1  IDiag  1:
 RMSU=  9.39D-07    CP:  9.86D-01  1.31D+00  7.62D-01  6.60D-01  7.97D-01
                    CP:  1.01D+00  9.15D-01  1.08D+00
 E= -2297.44235926082     Delta-E=       -0.000000223272 Rises=F Damp=F
 DIIS: error= 8.96D-06 at cycle   9 NSaved=   9.
 NSaved= 9 IEnMin= 9 EnMin= -2297.44235926082     IErMin= 9 ErrMin= 8.96D-06
 ErrMax= 8.96D-06  0.00D+00 EMaxC= 1.00D-01 BMatC= 5.59D-08 BMatP= 2.02D-07
 IDIUse=1 WtCom= 1.00D+00 WtEn= 0.00D+00
 Coeff-Com:  0.533D-05 0.371D-04-0.163D-03-0.990D-03-0.706D-02-0.336D-01
 Coeff-Com:  0.362D-02 0.369D+00 0.670D+00
 Coeff:      0.533D-05 0.371D-04-0.163D-03-0.990D-03-0.706D-02-0.336D-01
 Coeff:      0.362D-02 0.369D+00 0.670D+00
 Gap=     0.284 Goal=   None    Shift=    0.000
 RMSDP=5.42D-07 MaxDP=3.53D-05 DE=-2.23D-07 OVMax= 1.02D-04

 Cycle  10  Pass 1  IDiag  1:
 RMSU=  3.63D-07    CP:  9.86D-01  1.31D+00  7.62D-01  6.61D-01  7.97D-01
                    CP:  1.02D+00  9.33D-01  1.18D+00  8.39D-01
 E= -2297.44235932236     Delta-E=       -0.000000061548 Rises=F Damp=F
 DIIS: error= 2.78D-06 at cycle  10 NSaved=  10.
 NSaved=10 IEnMin=10 EnMin= -2297.44235932236     IErMin=10 ErrMin= 2.78D-06
 ErrMax= 2.78D-06  0.00D+00 EMaxC= 1.00D-01 BMatC= 4.01D-09 BMatP= 5.59D-08
 IDIUse=1 WtCom= 1.00D+00 WtEn= 0.00D+00
 Coeff-Com: -0.135D-03 0.298D-03 0.665D-03 0.897D-03-0.995D-04-0.163D-01
 Coeff-Com: -0.246D-01 0.638D-02 0.185D+00 0.848D+00
 Coeff:     -0.135D-03 0.298D-03 0.665D-03 0.897D-03-0.995D-04-0.163D-01
 Coeff:     -0.246D-01 0.638D-02 0.185D+00 0.848D+00
 Gap=     0.284 Goal=   None    Shift=    0.000
 RMSDP=2.35D-07 MaxDP=1.33D-05 DE=-6.15D-08 OVMax= 5.08D-05

 Cycle  11  Pass 1  IDiag  1:
 RMSU=  1.45D-07    CP:  9.86D-01  1.31D+00  7.62D-01  6.61D-01  7.97D-01
                    CP:  1.02D+00  9.40D-01  1.22D+00  9.69D-01  1.06D+00
 E= -2297.44235932877     Delta-E=       -0.000000006405 Rises=F Damp=F
 DIIS: error= 1.74D-06 at cycle  11 NSaved=  11.
 NSaved=11 IEnMin=11 EnMin= -2297.44235932877     IErMin=11 ErrMin= 1.74D-06
 ErrMax= 1.74D-06  0.00D+00 EMaxC= 1.00D-01 BMatC= 1.81D-09 BMatP= 4.01D-09
 IDIUse=1 WtCom= 1.00D+00 WtEn= 0.00D+00
 Coeff-Com: -0.730D-04 0.153D-03 0.391D-03 0.669D-03 0.112D-02-0.376D-02
 Coeff-Com: -0.138D-01-0.599D-01-0.132D-01 0.478D+00 0.610D+00
 Coeff:     -0.730D-04 0.153D-03 0.391D-03 0.669D-03 0.112D-02-0.376D-02
 Coeff:     -0.138D-01-0.599D-01-0.132D-01 0.478D+00 0.610D+00
 Gap=     0.284 Goal=   None    Shift=    0.000
 RMSDP=9.39D-08 MaxDP=5.81D-06 DE=-6.40D-09 OVMax= 1.61D-05

 Cycle  12  Pass 1  IDiag  1:
 RMSU=  4.98D-08    CP:  9.86D-01  1.31D+00  7.62D-01  6.61D-01  7.97D-01
                    CP:  1.02D+00  9.41D-01  1.23D+00  9.85D-01  1.22D+00
                    CP:  8.07D-01
 E= -2297.44235933048     Delta-E=       -0.000000001708 Rises=F Damp=F
 DIIS: error= 3.30D-07 at cycle  12 NSaved=  12.
 NSaved=12 IEnMin=12 EnMin= -2297.44235933048     IErMin=12 ErrMin= 3.30D-07
 ErrMax= 3.30D-07  0.00D+00 EMaxC= 1.00D-01 BMatC= 6.74D-11 BMatP= 1.81D-09
 IDIUse=1 WtCom= 1.00D+00 WtEn= 0.00D+00
 Coeff-Com: -0.687D-05 0.123D-04 0.481D-04 0.110D-03 0.360D-03 0.633D-03
 Coeff-Com: -0.152D-02-0.210D-01-0.275D-01 0.473D-01 0.165D+00 0.837D+00
 Coeff:     -0.687D-05 0.123D-04 0.481D-04 0.110D-03 0.360D-03 0.633D-03
 Coeff:     -0.152D-02-0.210D-01-0.275D-01 0.473D-01 0.165D+00 0.837D+00
 Gap=     0.284 Goal=   None    Shift=    0.000
 RMSDP=3.09D-08 MaxDP=1.37D-06 DE=-1.71D-09 OVMax= 5.12D-06

 Cycle  13  Pass 1  IDiag  1:
 RMSU=  1.98D-08    CP:  9.86D-01  1.31D+00  7.62D-01  6.61D-01  7.97D-01
                    CP:  1.02D+00  9.41D-01  1.24D+00  9.97D-01  1.26D+00
                    CP:  8.96D-01  1.03D+00
 E= -2297.44235933058     Delta-E=       -0.000000000101 Rises=F Damp=F
 DIIS: error= 1.35D-07 at cycle  13 NSaved=  13.
 NSaved=13 IEnMin=13 EnMin= -2297.44235933058     IErMin=13 ErrMin= 1.35D-07
 ErrMax= 1.35D-07  0.00D+00 EMaxC= 1.00D-01 BMatC= 1.90D-11 BMatP= 6.74D-11
 IDIUse=1 WtCom= 1.00D+00 WtEn= 0.00D+00
 Coeff-Com:  0.678D-05-0.151D-04-0.292D-04-0.387D-04 0.939D-05 0.725D-03
 Coeff-Com:  0.125D-02-0.104D-02-0.858D-02-0.343D-01-0.247D-02 0.403D+00
 Coeff-Com:  0.642D+00
 Coeff:      0.678D-05-0.151D-04-0.292D-04-0.387D-04 0.939D-05 0.725D-03
 Coeff:      0.125D-02-0.104D-02-0.858D-02-0.343D-01-0.247D-02 0.403D+00
 Coeff:      0.642D+00
 Gap=     0.284 Goal=   None    Shift=    0.000
 RMSDP=9.45D-09 MaxDP=7.45D-07 DE=-1.01D-10 OVMax= 1.42D-06

 Error on total polarization charges =  0.00926
 SCF Done:  E(RCAM-B3LYP) =  -2297.44235933     A.U. after   13 cycles
            NFock= 13  Conv=0.94D-08     -V/T= 2.0072
 KE= 2.281051330494D+03 PE=-1.410847371061D+04 EE= 5.178922893946D+03
 Leave Link  502 at Wed Jun  5 17:24:23 2019, MaxMem=  6442450944 cpu:           10603.9 elap:             401.8
 (Enter /home/ekwan/sw/g16/l701.exe)
 ... and contract with generalized density number  0.
 Compute integral first derivatives.
 R6Disp: Adding Grimme-D3(BJ) dispersion energy 1st derivatives to the gradient.
 D1PCM: PCM CHGder 1st derivatives, ID1Alg=3 FixD1E=F DoIter=F DoCFld=F I1PDM=0.
 GePol: Maximum number of non-zero 1st derivatives   =     224
 Leave Link  701 at Wed Jun  5 17:24:39 2019, MaxMem=  6442450944 cpu:             426.6 elap:              16.5
 (Enter /home/ekwan/sw/g16/l702.exe)
 L702 exits ... SP integral derivatives will be done elsewhere.
 Leave Link  702 at Wed Jun  5 17:24:39 2019, MaxMem=  6442450944 cpu:               2.9 elap:               0.1
 (Enter /home/ekwan/sw/g16/l703.exe)
 Integral derivatives from FoFJK, PRISM(SPDF).
 Compute integral first derivatives, UseDBF=F ICtDFT=           0.
 Calling FoFJK, ICntrl=      2127 FMM=F ISym2X=0 I1Cent= 0 IOpClX= 0 NMat=1 NMatS=1 NMatT=0.
 FoFJK:  IHMeth= 1 ICntrl=    2127 DoSepK=T KAlg= 0 I1Cent=           0 FoldK=F
 IRaf=         1 NMat=       1 IRICut=       1 DoRegI=T DoRafI=F ISym2E= 0 IDoP0=0 IntGTp=1.
 FoFCou: FMM=F IPFlag=           0 FMFlag=      100000 FMFlg1=         800
         NFxFlg=           0 DoJE=F BraDBF=F KetDBF=F FulRan=T
         wScrn=  0.000000 ICntrl=      2527 IOpCl=  0 I1Cent=           0 NGrid=           0
         NMat0=    1 NMatS0=      1 NMatT0=    0 NMatD0=    1 NMtDS0=    0 NMtDT0=    0
 Symmetry not used in FoFCou.
 Leave Link  703 at Wed Jun  5 17:25:46 2019, MaxMem=  6442450944 cpu:            1806.3 elap:              66.7
 (Enter /home/ekwan/sw/g16/l716.exe)
 Dipole        = 2.38594186D-01 1.09925237D+00-4.28490695D-01
 ***** Axes restored to original set *****
 -------------------------------------------------------------------
 Center     Atomic                   Forces (Hartrees/Bohr)
 Number     Number              X              Y              Z
 -------------------------------------------------------------------
      1        6          -0.000006827   -0.000004325    0.000003290
      2        6           0.000002961    0.000003810   -0.000002929
      3        6          -0.000002255   -0.000000422    0.000000840
      4        6           0.000002918   -0.000003993    0.000004943
      5        6           0.000005124   -0.000000157   -0.000005582
      6        1          -0.000001072   -0.000003215   -0.000000926
      7        1          -0.000002488   -0.000002287   -0.000004302
      8        1           0.000001407   -0.000000037   -0.000000385
      9        1           0.000000739    0.000001150   -0.000000921
     10        1           0.000000051    0.000000601   -0.000002431
     11        8           0.000001711    0.000002142   -0.000000624
     12        8           0.000007333    0.000000806    0.000004432
     13        8          -0.000005464   -0.000003298   -0.000001062
     14        8           0.000005871    0.000004673   -0.000001473
     15        8           0.000001286   -0.000000816    0.000001450
     16        6          -0.000000429    0.000005555   -0.000003961
     17        1          -0.000002429    0.000001434   -0.000000306
     18        1          -0.000000323   -0.000002194   -0.000000046
     19        8           0.000005750   -0.000000403   -0.000000077
     20       16          -0.000000756   -0.000006181   -0.000002189
     21        8          -0.000001326    0.000003758    0.000001213
     22        8          -0.000003327   -0.000003769    0.000005862
     23        6          -0.000000901   -0.000002240   -0.000002926
     24        6          -0.000004671    0.000002868    0.000004902
     25        6          -0.000003779    0.000002152    0.000004814
     26        6           0.000000845    0.000002627    0.000000773
     27        1           0.000000903   -0.000000979    0.000002187
     28        6           0.000001907   -0.000000782    0.000000741
     29        1          -0.000000894   -0.000001277    0.000000467
     30        6          -0.000000450    0.000000591    0.000003295
     31        1           0.000000917    0.000000486    0.000002716
     32        6          -0.000000958    0.000002508    0.000001275
     33        1          -0.000002693   -0.000001444   -0.000000026
     34        1          -0.000001559   -0.000002043   -0.000000826
     35        1          -0.000000959   -0.000002614    0.000000776
     36        6          -0.000002257    0.000002715   -0.000002263
     37        1           0.000001662    0.000001371   -0.000002413
     38        1           0.000001003    0.000000517   -0.000000888
     39        1           0.000000794   -0.000000547   -0.000001174
     40        6          -0.000001689   -0.000001053   -0.000005608
     41        1           0.000001085    0.000002119   -0.000002515
     42        1           0.000002477    0.000000967   -0.000003832
     43        1           0.000002310    0.000002354   -0.000003196
     44        6          -0.000004044    0.000000673   -0.000003444
     45        1          -0.000000028   -0.000000908   -0.000002686
     46        1          -0.000000897   -0.000001266   -0.000001494
     47        1          -0.000001094   -0.000002407   -0.000002131
     48        6           0.000000782   -0.000001333   -0.000000494
     49        9           0.000003674    0.000002267    0.000002932
     50        9           0.000002642    0.000001744    0.000005168
     51        9          -0.000000573    0.000006099    0.000002913
     52        6          -0.000000806   -0.000006869   -0.000000003
     53        9           0.000004027    0.000005884    0.000002570
     54        9          -0.000003136   -0.000001344    0.000002549
     55        9          -0.000002095   -0.000003667    0.000003025
 -------------------------------------------------------------------
 Cartesian Forces:  Max     0.000007333 RMS     0.000002806
 Leave Link  716 at Wed Jun  5 17:25:46 2019, MaxMem=  6442450944 cpu:               3.1 elap:               0.2
 (Enter /home/ekwan/sw/g16/l103.exe)

 GradGradGradGradGradGradGradGradGradGradGradGradGradGradGradGradGradGrad
 Berny optimization.
 FormGI is forming the generalized inverse of G from B-inverse, IUseBI=4.
 Internal  Forces:  Max     0.000008334 RMS     0.000001793
 Search for a local minimum.
 Step number   1 out of a maximum of  291
 All quantities printed in internal units (Hartrees-Bohrs-Radians)
 RMS Force = .17932D-05 SwitMx=.10000D-02 MixMth= 2
 Mixed Optimization -- En-DIIS/RFO-DIIS
 Second derivative matrix not updated -- first step.
 ITU=  0
     Eigenvalues ---    0.00504   0.00636   0.00711   0.00721   0.00738
     Eigenvalues ---    0.00754   0.01021   0.01441   0.01470   0.01473
     Eigenvalues ---    0.01480   0.01494   0.01542   0.01549   0.01573
     Eigenvalues ---    0.01616   0.01667   0.01675   0.01686   0.02230
     Eigenvalues ---    0.02235   0.02245   0.02249   0.02259   0.02259
     Eigenvalues ---    0.02422   0.02974   0.03346   0.04504   0.04636
     Eigenvalues ---    0.04750   0.04869   0.04940   0.05262   0.05291
     Eigenvalues ---    0.05809   0.06069   0.06610   0.07033   0.07091
     Eigenvalues ---    0.07223   0.07829   0.09327   0.10041   0.10074
     Eigenvalues ---    0.10110   0.10149   0.10568   0.10583   0.10607
     Eigenvalues ---    0.10611   0.10744   0.10757   0.10867   0.10908
     Eigenvalues ---    0.10945   0.11012   0.11501   0.11823   0.12026
     Eigenvalues ---    0.14114   0.14894   0.16000   0.16000   0.16000
     Eigenvalues ---    0.16000   0.16000   0.16000   0.16000   0.16000
     Eigenvalues ---    0.16000   0.16000   0.16000   0.16000   0.16000
     Eigenvalues ---    0.16000   0.16000   0.16477   0.16865   0.17463
     Eigenvalues ---    0.18666   0.19651   0.19774   0.20756   0.22140
     Eigenvalues ---    0.23476   0.23486   0.23496   0.24954   0.24980
     Eigenvalues ---    0.24985   0.25000   0.25000   0.25000   0.25000
     Eigenvalues ---    0.25000   0.25000   0.25000   0.25000   0.25000
     Eigenvalues ---    0.25000   0.25000   0.25000   0.27561   0.28319
     Eigenvalues ---    0.29043   0.29329   0.29620   0.30383   0.32154
     Eigenvalues ---    0.32284   0.33599   0.33914   0.33926   0.33936
     Eigenvalues ---    0.33984   0.33998   0.34002   0.34024   0.34053
     Eigenvalues ---    0.34143   0.34310   0.34313   0.34420   0.34588
     Eigenvalues ---    0.34599   0.34611   0.34615   0.34742   0.34952
     Eigenvalues ---    0.35569   0.35593   0.35704   0.38155   0.38565
     Eigenvalues ---    0.42954   0.42987   0.43062   0.43228   0.43260
     Eigenvalues ---    0.43410   0.43798   0.43879   0.44160   0.45305
     Eigenvalues ---    0.46590   0.47452   0.47653   0.47687   0.47833
     Eigenvalues ---    0.48440   0.55058   0.56550   0.56879   0.57015
     Eigenvalues ---    0.57261   0.57469   0.94587   0.97255
 RFO step:  Lambda=-1.05407702D-08 EMin= 5.03710416D-03
 Linear search not attempted -- first point.
 Iteration  1 RMS(Cart)=  0.00037031 RMS(Int)=  0.00000001
 Iteration  2 RMS(Cart)=  0.00000003 RMS(Int)=  0.00000000
 ITry= 1 IFail=0 DXMaxC= 1.34D-03 DCOld= 1.00D+10 DXMaxT= 3.00D-01 DXLimC= 3.00D+00 Rises=F
 Variable       Old X    -DE/DX   Delta X   Delta X   Delta X     New X
                                 (Linear)    (Quad)   (Total)
    R1        2.88177   0.00000   0.00000   0.00001   0.00001   2.88178
    R2        2.87731   0.00000   0.00000  -0.00001  -0.00001   2.87730
    R3        2.07438   0.00000   0.00000   0.00000   0.00000   2.07438
    R4        2.66600   0.00000   0.00000   0.00001   0.00001   2.66601
    R5        2.89434   0.00000   0.00000  -0.00001  -0.00001   2.89433
    R6        2.08011   0.00000   0.00000   0.00000   0.00000   2.08011
    R7        2.64923   0.00000   0.00000  -0.00001  -0.00001   2.64922
    R8        2.05753   0.00000   0.00000   0.00000   0.00000   2.05753
    R9        2.61349   0.00000   0.00000   0.00000   0.00000   2.61349
   R10        2.74140   0.00000   0.00000   0.00000   0.00000   2.74140
   R11        2.88199   0.00000   0.00000  -0.00001  -0.00001   2.88198
   R12        2.07357   0.00000   0.00000   0.00000   0.00000   2.07356
   R13        2.71597   0.00000   0.00000   0.00000   0.00000   2.71597
   R14        2.87205   0.00000   0.00000   0.00002   0.00002   2.87207
   R15        2.07089   0.00000   0.00000   0.00000   0.00000   2.07089
   R16        2.66697   0.00000   0.00000   0.00000   0.00000   2.66697
   R17        3.05173   0.00001   0.00000   0.00001   0.00001   3.05175
   R18        2.67389   0.00000   0.00000  -0.00001  -0.00001   2.67389
   R19        2.67593   0.00000   0.00000   0.00000   0.00000   2.67593
   R20        2.67685   0.00000   0.00000  -0.00001  -0.00001   2.67685
   R21        2.06349   0.00000   0.00000   0.00000   0.00000   2.06350
   R22        2.07240   0.00000   0.00000   0.00000   0.00000   2.07240
   R23        2.66264   0.00000   0.00000   0.00000   0.00000   2.66264
   R24        2.67727   0.00000   0.00000   0.00000   0.00000   2.67727
   R25        2.73459   0.00000   0.00000   0.00000   0.00000   2.73458
   R26        2.74588   0.00000   0.00000   0.00000   0.00000   2.74588
   R27        3.35147   0.00000   0.00000   0.00000   0.00000   3.35147
   R28        2.62090   0.00000   0.00000   0.00000   0.00000   2.62090
   R29        2.62141   0.00000   0.00000   0.00000   0.00000   2.62141
   R30        2.62453   0.00000   0.00000  -0.00001  -0.00001   2.62452
   R31        2.04722   0.00000   0.00000   0.00000   0.00000   2.04722
   R32        2.62128   0.00000   0.00000  -0.00001  -0.00001   2.62127
   R33        2.04547   0.00000   0.00000   0.00000   0.00000   2.04548
   R34        2.62406   0.00000   0.00000  -0.00001  -0.00001   2.62405
   R35        2.83864   0.00000   0.00000  -0.00001  -0.00001   2.83863
   R36        2.62650   0.00000   0.00000   0.00000   0.00000   2.62650
   R37        2.83628   0.00000   0.00000  -0.00001  -0.00001   2.83626
   R38        2.04761   0.00000   0.00000   0.00000   0.00000   2.04761
   R39        2.07290   0.00000   0.00000   0.00000   0.00000   2.07290
   R40        2.07456   0.00000   0.00000   0.00000   0.00000   2.07456
   R41        2.06096   0.00000   0.00000   0.00000   0.00000   2.06096
   R42        2.06304   0.00000   0.00000   0.00000   0.00000   2.06305
   R43        2.07476   0.00000   0.00000   0.00000   0.00000   2.07476
   R44        2.06627   0.00000   0.00000   0.00000   0.00000   2.06628
   R45        2.06311   0.00000   0.00000   0.00000   0.00000   2.06311
   R46        2.06810   0.00000   0.00000   0.00000   0.00000   2.06810
   R47        2.07327   0.00000   0.00000   0.00000   0.00000   2.07328
   R48        2.06331   0.00000   0.00000   0.00000   0.00000   2.06331
   R49        2.07333   0.00000   0.00000   0.00000   0.00000   2.07333
   R50        2.06805   0.00000   0.00000   0.00000   0.00000   2.06805
   R51        2.53383   0.00000   0.00000   0.00000   0.00000   2.53384
   R52        2.53780   0.00000   0.00000   0.00000   0.00000   2.53779
   R53        2.53499   0.00000   0.00000   0.00001   0.00001   2.53500
   R54        2.55080   0.00001   0.00000   0.00002   0.00002   2.55082
   R55        2.53176   0.00000   0.00000   0.00000   0.00000   2.53177
   R56        2.53002   0.00000   0.00000   0.00000   0.00000   2.53001
    A1        1.92680   0.00000   0.00000  -0.00001  -0.00001   1.92679
    A2        1.90331   0.00000   0.00000   0.00001   0.00001   1.90332
    A3        1.93251   0.00000   0.00000   0.00002   0.00002   1.93253
    A4        1.89591   0.00000   0.00000   0.00001   0.00001   1.89592
    A5        1.87850   0.00000   0.00000  -0.00004  -0.00004   1.87847
    A6        1.92648   0.00000   0.00000   0.00001   0.00001   1.92648
    A7        1.93828   0.00000   0.00000  -0.00001  -0.00001   1.93827
    A8        1.88774   0.00000   0.00000   0.00004   0.00004   1.88778
    A9        1.89327   0.00000   0.00000   0.00000   0.00000   1.89328
   A10        1.85344   0.00000   0.00000   0.00000   0.00000   1.85344
   A11        1.96149   0.00000   0.00000  -0.00004  -0.00004   1.96145
   A12        1.92839   0.00000   0.00000   0.00001   0.00001   1.92841
   A13        1.95705   0.00000   0.00000   0.00001   0.00001   1.95706
   A14        1.97259   0.00000   0.00000  -0.00001  -0.00001   1.97258
   A15        1.84807   0.00000   0.00000  -0.00002  -0.00002   1.84805
   A16        1.85726   0.00000   0.00000   0.00001   0.00001   1.85727
   A17        1.88793   0.00000   0.00000   0.00000   0.00000   1.88793
   A18        1.94069   0.00000   0.00000   0.00002   0.00002   1.94071
   A19        1.90278   0.00000   0.00000   0.00001   0.00001   1.90279
   A20        1.92733   0.00000   0.00000   0.00000   0.00000   1.92733
   A21        1.95823   0.00000   0.00000  -0.00001  -0.00001   1.95822
   A22        1.90134   0.00000   0.00000   0.00000   0.00000   1.90135
   A23        1.88234   0.00000   0.00000   0.00001   0.00001   1.88235
   A24        1.89057   0.00000   0.00000  -0.00001  -0.00001   1.89056
   A25        1.94715   0.00000   0.00000   0.00002   0.00002   1.94717
   A26        1.89970   0.00000   0.00000   0.00001   0.00001   1.89971
   A27        1.92284   0.00000   0.00000  -0.00001  -0.00001   1.92283
   A28        1.89163   0.00000   0.00000   0.00000   0.00000   1.89163
   A29        1.87245   0.00000   0.00000  -0.00002  -0.00002   1.87243
   A30        1.93000   0.00000   0.00000   0.00001   0.00001   1.93000
   A31        2.01446   0.00000   0.00000   0.00000   0.00000   2.01447
   A32        2.06938   0.00000   0.00000   0.00001   0.00001   2.06939
   A33        2.00192  -0.00001   0.00000  -0.00002  -0.00002   2.00189
   A34        2.00243   0.00000   0.00000  -0.00001  -0.00001   2.00242
   A35        1.99171   0.00000   0.00000  -0.00002  -0.00002   1.99170
   A36        1.87221   0.00000   0.00000   0.00001   0.00001   1.87222
   A37        1.90839   0.00000   0.00000  -0.00001  -0.00001   1.90838
   A38        1.99747   0.00000   0.00000   0.00000   0.00000   1.99747
   A39        1.89550   0.00000   0.00000  -0.00002  -0.00002   1.89549
   A40        1.85584   0.00000   0.00000   0.00001   0.00001   1.85585
   A41        1.93052   0.00000   0.00000   0.00001   0.00001   1.93053
   A42        2.00222   0.00000   0.00000  -0.00001  -0.00001   2.00221
   A43        1.82676   0.00000   0.00000   0.00000   0.00000   1.82677
   A44        1.89567   0.00000   0.00000   0.00003   0.00003   1.89570
   A45        1.79993  -0.00001   0.00000  -0.00003  -0.00003   1.79990
   A46        2.12049   0.00000   0.00000   0.00000   0.00000   2.12048
   A47        1.89904   0.00000   0.00000  -0.00001  -0.00001   1.89903
   A48        1.89509   0.00000   0.00000   0.00001   0.00001   1.89510
   A49        2.07477   0.00000   0.00000  -0.00001  -0.00001   2.07475
   A50        2.07789   0.00000   0.00000   0.00002   0.00002   2.07791
   A51        2.12997   0.00000   0.00000  -0.00001  -0.00001   2.12996
   A52        2.06853   0.00000   0.00000   0.00001   0.00001   2.06854
   A53        2.10371   0.00000   0.00000  -0.00001  -0.00001   2.10370
   A54        2.11094   0.00000   0.00000   0.00001   0.00001   2.11094
   A55        2.06727   0.00000   0.00000   0.00000   0.00000   2.06727
   A56        2.10381   0.00000   0.00000   0.00000   0.00000   2.10381
   A57        2.11210   0.00000   0.00000   0.00000   0.00000   2.11210
   A58        2.10467   0.00000   0.00000   0.00000   0.00000   2.10468
   A59        2.08868   0.00000   0.00000  -0.00001  -0.00001   2.08867
   A60        2.08915   0.00000   0.00000   0.00001   0.00001   2.08916
   A61        2.10673   0.00000   0.00000   0.00001   0.00001   2.10673
   A62        2.08959   0.00000   0.00000  -0.00001  -0.00001   2.08958
   A63        2.08528   0.00000   0.00000   0.00000   0.00000   2.08528
   A64        2.08917   0.00000   0.00000  -0.00001  -0.00001   2.08916
   A65        2.09687   0.00000   0.00000   0.00000   0.00000   2.09687
   A66        2.09715   0.00000   0.00000   0.00001   0.00001   2.09715
   A67        1.95406   0.00000   0.00000   0.00000   0.00000   1.95406
   A68        1.94043   0.00000   0.00000   0.00000   0.00000   1.94043
   A69        1.86357   0.00000   0.00000   0.00000   0.00000   1.86357
   A70        1.90334   0.00000   0.00000   0.00000   0.00000   1.90334
   A71        1.89554   0.00000   0.00000   0.00000   0.00000   1.89554
   A72        1.90562   0.00000   0.00000   0.00000   0.00000   1.90562
   A73        1.86180   0.00000   0.00000   0.00000   0.00000   1.86180
   A74        1.93623   0.00000   0.00000   0.00000   0.00000   1.93623
   A75        1.94569   0.00000   0.00000   0.00001   0.00001   1.94570
   A76        1.90100   0.00000   0.00000   0.00000   0.00000   1.90100
   A77        1.91281   0.00000   0.00000   0.00000   0.00000   1.91281
   A78        1.90543   0.00000   0.00000   0.00000   0.00000   1.90543
   A79        1.86372   0.00000   0.00000  -0.00001  -0.00001   1.86371
   A80        1.93880   0.00000   0.00000   0.00000   0.00000   1.93879
   A81        1.93480   0.00000   0.00000   0.00001   0.00001   1.93482
   A82        1.91064   0.00000   0.00000   0.00000   0.00000   1.91064
   A83        1.90526   0.00000   0.00000   0.00000   0.00000   1.90525
   A84        1.90983   0.00000   0.00000  -0.00001  -0.00001   1.90983
   A85        1.86394   0.00000   0.00000   0.00000   0.00000   1.86394
   A86        1.93464   0.00000   0.00000   0.00000   0.00000   1.93464
   A87        1.95517   0.00000   0.00000   0.00000   0.00000   1.95517
   A88        1.90532   0.00000   0.00000   0.00000   0.00000   1.90532
   A89        1.90854   0.00000   0.00000   0.00000   0.00000   1.90854
   A90        1.89557   0.00000   0.00000   0.00000   0.00000   1.89557
   A91        1.94598   0.00000   0.00000  -0.00001  -0.00001   1.94596
   A92        1.94424   0.00000   0.00000   0.00001   0.00001   1.94425
   A93        1.94450   0.00000   0.00000   0.00000   0.00000   1.94450
   A94        1.87161   0.00000   0.00000   0.00000   0.00000   1.87161
[...]
 249,-0.00039284,-0.00002753,0.00035138,0.00022882,-0.00003696,-0.00001
 266,0.00143060,0.00159494,-0.00375909,-0.00000841,-0.00040723,0.001156
 24,-0.00102196,-0.00074957,0.00082710,-0.00050010,0.00004855,0.0011620
 7,0.00152844,-0.03667076,0.59246520,0.00006211,-0.00015662,-0.00003362
 ,0.00006626,-0.00002811,-0.00005669,0.00009899,-0.00062130,0.00006945,
 -0.00024321,-0.00070553,-0.00041856,0.00006350,0.00026842,0.00019809,-
 0.00002003,0.00003817,0.00000007,0.00001430,0.00000593,0.00000037,-0.0
 0000975,0.00001445,-0.00000748,-0.00001290,0.00004816,-0.00002143,0.00
 005892,-0.00001494,0.00000226,-0.00019362,0.00049064,0.00016484,0.0003
 7223,0.00040467,-0.00004131,-0.00008619,0.00011370,0.00005170,-0.00019
 001,0.00010064,-0.00006505,-0.00015826,-0.00002017,-0.00011638,0.00204
 850,0.00118766,0.00049032,-0.00026727,0.00000659,-0.00019984,-0.001623
 05,-0.00044931,-0.00063721,-0.00104669,-0.00057194,-0.00075510,-0.0006
 0520,-0.00013205,0.00009544,0.00014021,-0.00006297,0.00000097,0.000137
 09,0.00002311,-0.00002853,0.00064855,-0.00072173,0.00036779,0.00030198
 ,-0.00012576,-0.00049083,-0.00060106,-0.00090632,0.00089308,-0.0004683
 9,0.00018903,-0.00019445,0.00001250,-0.00001829,0.00000680,0.00982774,
 -0.00147509,-0.00248507,-0.00014104,-0.00005858,-0.00004186,0.00012898
 ,0.00094605,0.00065479,-0.00003407,0.00015647,-0.00038652,0.00000656,-
 0.00002182,-0.00005702,0.00000267,-0.00000224,0.00001112,0.00000389,0.
 00000036,0.00000689,-0.00000793,0.00000841,0.00000543,0.00003838,-0.00
 007123,0.00006375,-0.00001569,0.00000611,-0.00000940,0.00000181,0.0000
 0869,-0.00001095,-0.00000618,0.00001616,-0.00000372,0.00009610,0.00008
 760,0.00007122,-0.00000584,-0.00000996,-0.00002516,-0.00002726,-0.0000
 1106,-0.00000463,0.00001190,0.00001969,0.00001017,0.00181690,0.0000241
 9,0.00136345,-0.00040898,-0.00013390,-0.00007458,-0.00229002,-0.000061
 46,-0.00012085,-0.00044114,-0.00006782,-0.00003775,-0.00015623,-0.0000
 6774,-0.00017827,0.00007129,0.00000188,0.00006000,0.00001517,0.0000032
 3,0.00004491,0.00001953,0.00002184,0.00005378,-0.10169775,-0.06846029,
 -0.00709469,0.14961246,-0.00003089,-0.00017482,-0.00010501,-0.00011590
 ,0.00004162,-0.00007191,-0.00033034,-0.00107690,0.00043690,-0.00026536
 ,-0.00083058,-0.00042224,0.00000847,0.00016056,0.00007042,-0.00004390,
 0.00005922,-0.00001519,0.00007772,0.00002009,0.00000433,-0.00001826,0.
 00002398,-0.00002542,-0.00005554,0.00007355,-0.00010281,0.00009668,0.0
 0000207,0.00001200,0.00022840,0.00088640,0.00021841,0.00156670,0.00076
 518,-0.00018447,0.00007453,0.00006259,-0.00000262,-0.00002163,0.000110
 90,0.00001438,-0.00006794,0.00012808,0.00002042,0.00119305,0.00038386,
 0.00074392,-0.00011220,0.00004929,-0.00013422,0.00052461,-0.00109746,0
 .00058379,-0.00064995,0.00019862,-0.00097371,-0.00339012,0.00156969,0.
 00100719,0.00081210,-0.00098381,0.00001539,0.00087914,-0.00047589,-0.0
 0065088,0.00172698,0.00035129,0.00134726,0.00021567,-0.00093405,0.0006
 8733,-0.00221671,-0.00030406,0.00257960,0.00182448,0.00033976,0.001608
 93,-0.00020703,-0.00008695,-0.00013355,-0.01785672,-0.04445502,0.00081
 885,-0.00096400,-0.00058782,-0.00050848,0.00247151,-0.00187668,-0.0021
 7463,-0.00101075,-0.00071360,-0.00032801,-0.00006444,-0.00001790,0.000
 01903,0.00000382,0.00000842,0.00001852,0.00001264,0.00001445,-0.000007
 77,0.00000615,-0.00000045,0.00000332,-0.00000268,-0.00002688,0.0000267
 1,0.00000173,0.00000532,-0.00000162,0.00000186,-0.00000163,-0.00000757
 ,-0.00001079,0.00000828,-0.00000017,0.00003342,-0.00005073,0.00004776,
 0.00000212,0.00000100,-0.00000904,-0.00001438,0.00000352,-0.00000549,0
 .00001628,0.00003989,-0.00000276,0.00185445,0.00031765,0.00168740,-0.0
 0037564,-0.00012946,-0.00008425,-0.00001200,0.00003013,-0.00090124,-0.
 00058660,-0.00009589,-0.00006443,0.00137855,-0.00007598,-0.00241930,-0
 .00000422,-0.00021983,0.00103761,-0.00061827,-0.00031745,0.00052567,-0
 .00037321,0.00039373,0.00071727,-0.07059099,-0.23676809,-0.01269189,0.
 13095420,0.31318173,0.00004701,-0.00007952,-0.00001117,0.00008508,-0.0
 0003482,-0.00002450,0.00018150,-0.00000752,-0.00015755,-0.00013709,-0.
 00037803,-0.00031530,0.00004391,0.00019109,0.00012163,-0.00001394,0.00
 002208,0.00001048,-0.00002440,-0.00000503,0.00000062,0.00000124,0.0000
 0083,0.00000700,0.00001180,-0.00000082,0.00003603,0.00000101,-0.000016
 93,-0.00000216,-0.00021553,0.00006961,0.00015563,-0.00039809,-0.000003
 11,0.00011748,-0.00008667,0.00006134,0.00006533,-0.00013921,0.00004645
 ,-0.00003992,-0.00010463,-0.00004325,-0.00006124,0.00112029,0.00109558
 ,0.00018241,-0.00013614,-0.00003322,-0.00007678,-0.00109863,-0.0002356
 1,-0.00080559,-0.00047380,-0.00051826,0.00035732,0.00082492,-0.0007249
 7,-0.00069008,-0.00020852,0.00034206,0.00005076,-0.00019318,0.00015509
 ,0.00034003,-0.00087691,0.00024567,-0.00111441,-0.00072430,0.00064554,
 0.00029524,0.00193709,0.00022507,-0.00117734,-0.00017906,-0.00082292,0
 .00053167,0.00004130,0.00000291,0.00006504,0.00371561,0.01920498,0.009
 86931,-0.00004393,0.00050690,0.00007672,-0.00038532,-0.00064097,0.0005
 2874,0.00009518,-0.00001128,0.00010106,0.00002651,-0.00001210,-0.00006
 940,0.00000525,-0.00000058,0.00000130,-0.00000620,-0.00000751,0.000009
 24,-0.00000646,0.00000518,0.00000538,0.00002776,-0.00004284,0.00003289
 ,-0.00001227,0.00000292,-0.00000716,-0.00000025,0.00000578,-0.00000305
 ,-0.00000224,0.00001079,-0.00000297,0.00006375,0.00008019,0.00003509,-
 0.00000194,-0.00000844,-0.00001034,-0.00001891,-0.00000741,-0.00000177
 ,0.00000499,-0.00000032,0.00000283,0.00015187,0.00009517,-0.00013216,-
 0.00002273,-0.00002979,0.00004375,0.00035255,-0.00012664,-0.00023386,-
 0.00006418,0.00000599,0.00002267,-0.00030496,-0.00020458,0.00062545,0.
 00002184,0.00005917,-0.00018782,0.00018892,0.00013958,-0.00013694,0.00
 009539,-0.00001311,-0.00017548,-0.00750976,-0.01256911,-0.07426924,0.0
 2586012,0.05247845,0.08432324,0.00011904,-0.00004231,0.00006687,0.0001
 9727,-0.00009534,-0.00000204,0.00039135,0.00003168,-0.00025529,0.00002
 244,-0.00003559,0.00004048,0.00009354,0.00013882,0.00019758,0.00001966
 ,-0.00001018,0.00001012,-0.00004417,-0.00000719,-0.00000816,-0.0000001
 6,0.00000211,0.00000666,0.00001838,0.00000810,0.00004187,0.00000927,-0
 .00001439,-0.00000852,-0.00045522,-0.00003989,-0.00006591,-0.00082727,
 -0.00008404,0.00005599,-0.00018937,0.00012189,0.00006081,-0.00023549,0
 .00004395,-0.00011440,-0.00014942,-0.00011854,-0.00019012,0.00079953,0
 .00042539,0.00026288,-0.00010549,-0.00002126,-0.00010372,0.00000275,-0
 .00018335,0.00015283,-0.00046695,-0.00027407,-0.00027664,0.00205883,-0
 .00135546,-0.00079190,-0.00061801,0.00106314,-0.00013146,-0.00053713,0
 .00047377,0.00049946,-0.00069449,0.00130598,0.00109689,-0.00010130,0.0
 0011691,-0.00057870,-0.00051125,0.00271160,-0.00595694,0.00026296,0.00
 099648,-0.00072407,0.00005690,-0.00011858,-0.00006416,-0.03448927,0.01
 229764,0.00282338,0.00036295,-0.00082033,-0.00008650,-0.00093649,0.000
 26422,0.00389830,-0.00011089,-0.00048721,-0.00206140,0.00006244,-0.000
 02076,-0.00008731,-0.00000067,-0.00001407,0.00000165,-0.00000081,-0.00
 000805,0.00001522,-0.00001963,0.00001381,0.00000306,0.00006153,-0.0000
 8268,0.00007155,-0.00002210,0.00000342,-0.00001112,0.00000158,0.000013
 81,-0.00001205,0.00000089,0.00001518,-0.00000329,0.00009591,0.00013317
 ,0.00005748,-0.00000712,-0.00001439,-0.00002605,-0.00002473,-0.0000150
 7,-0.00000067,0.00000060,-0.00000068,0.00001068,0.00076381,0.00011535,
 0.00053599,-0.00017502,-0.00009854,-0.00002387,0.00004169,0.00015083,-
 0.00032310,-0.00014674,-0.00001805,-0.00001865,-0.00124238,0.00000983,
 0.00140764,0.00010369,0.00011253,-0.00052121,0.00057263,0.00027717,-0.
 00033467,0.00035053,-0.00026335,-0.00043620,-0.27760660,0.05660292,0.0
 0232037,-0.06523581,-0.03421404,-0.00241207,0.40794412,-0.00005056,-0.
 00004279,-0.00005517,-0.00010511,0.00004304,-0.00002415,-0.00024427,-0
 .00038945,0.00025133,-0.00010485,-0.00026633,-0.00014280,-0.00002942,0
 .00000800,-0.00004512,-0.00001924,0.00001970,-0.00001008,0.00004217,0.
 00001042,0.00000385,-0.00000623,0.00000729,-0.00001180,-0.00002618,0.0
 0002413,-0.00005383,0.00002964,0.00000615,0.00000734,0.00022045,0.0003
 0669,0.00008645,0.00079651,0.00028808,-0.00007797,0.00008836,-0.000018
 58,-0.00002483,0.00007053,0.00002297,0.00004054,0.00002671,0.00008296,
 0.00006881,0.00016590,-0.00001741,0.00010924,-0.00001449,0.00002292,-0
 .00001227,0.00002336,-0.00023757,0.00010665,-0.00009159,0.00013253,-0.
 00020445,-0.00205520,0.00082698,0.00064497,0.00061230,-0.00074329,0.00
 007374,0.00048753,-0.00029133,-0.00043661,0.00005487,-0.00197232,-0.00
 016125,0.00069739,-0.00051377,0.00003542,0.00023356,-0.00058700,0.0042
 1732,-0.00019082,-0.00019836,-0.00019591,0.00000232,0.00006401,-0.0000
 0278,0.03474916,-0.00155755,0.00029951,0.00005901,0.00066840,0.0000496
 2,0.00071703,-0.00082552,-0.00031319,0.00048112,-0.00040028,0.00093614
 ,-0.00004333,0.00000062,0.00003869,0.00000069,0.00000654,0.00000631,0.
 00000564,0.00000841,-0.00000794,0.00000811,-0.00000449,-0.00000034,-0.
 00002077,0.00001747,-0.00001362,0.00000792,0.00000068,0.00000322,0.000
 00028,-0.00000504,0.00000099,-0.00000390,-0.00000233,0.00000121,-0.000
 02093,-0.00006168,-0.00000306,0.00000313,0.00000501,0.00000546,0.00000
 354,0.00000604,-0.00000146,0.00000490,0.00001360,-0.00000460,0.0003432
 5,0.00001788,0.00031667,-0.00005126,-0.00000384,-0.00001751,0.00005074
 ,0.00005819,-0.00016426,-0.00011041,-0.00001861,-0.00000870,0.00073734
 ,0.00004057,-0.00132418,-0.00001670,-0.00009297,0.00045895,-0.00035195
 ,-0.00017299,0.00029150,-0.00023141,0.00020429,0.00039702,0.05129748,-
 0.08855053,0.00335687,-0.05084936,0.00131167,-0.00075338,-0.05380684,0
 .08652756,0.00003275,0.00000559,0.00001580,0.00006077,-0.00002956,0.00
 000874,0.00014556,0.00020945,-0.00018704,0.00005286,0.00006092,-0.0000
 0424,0.00002290,0.00001449,0.00003193,-0.00000025,0.00000056,0.0000091
 5,-0.00002753,-0.00000718,-0.00000183,0.00000332,-0.00000366,0.0000083
 2,0.00001187,-0.00001307,0.00003662,-0.00001217,-0.00000679,-0.0000032
 8,-0.00012761,-0.00011583,0.00002774,-0.00052182,-0.00014027,0.0000995
 0,-0.00005595,0.00002290,0.00003818,-0.00005373,-0.00000040,-0.0000171
 0,-0.00003298,-0.00003371,-0.00002644,0.00006784,0.00009704,-0.0000288
 5,0.00000732,-0.00000869,0.00000811,0.00002812,0.00000906,0.00000478,-
 0.00004748,-0.00008592,0.00012350,0.00122277,-0.00057734,-0.00067330,-
 0.00035401,0.00047157,0.00000379,-0.00027005,0.00015314,0.00038695,-0.
 00083230,0.00124672,0.00039119,-0.00039197,0.00038974,-0.00005217,-0.0
 0010167,0.00101491,-0.00328241,-0.00050980,-0.00014023,0.00083034,-0.0
 0004721,0.00003877,0.00006211,-0.01878851,0.00786075,0.00987149,-0.000
 35543,0.00019678,0.00000323,-0.00055259,-0.00001584,-0.00213049,-0.001
 44074,0.00121592,0.00041471,0.00002355,-0.00000585,-0.00004397,0.00000
 375,-0.00000103,-0.00000267,-0.00000603,-0.00000661,0.00000613,-0.0000
 0430,0.00000254,0.00000239,0.00001452,-0.00001459,0.00000776,-0.000005
 35,-0.00000006,-0.00000285,-0.00000083,0.00000257,0.00000048,0.0000007
 9,0.00000371,-0.00000093,0.00002075,0.00003371,0.00000631,0.00000005,-
 0.00000307,-0.00000151,-0.00000652,-0.00000244,0.00000006,0.00000052,-
 0.00000427,0.00000044,-0.00001667,-0.00000257,-0.00009243,-0.00000138,
 -0.00000809,0.00000855,0.00004241,0.00001524,-0.00002481,-0.00000995,0
 .00000846,0.00000203,-0.00032201,-0.00035162,0.00090633,-0.00004033,0.
 00010806,-0.00030569,0.00023391,0.00017082,-0.00018792,0.00010335,-0.0
 0001106,-0.00025506,0.00965790,0.00116836,-0.07892744,-0.00440189,-0.0
 0121575,0.01266319,-0.03984367,0.00641635,0.08391444,0.00003038,-0.000
 00387,0.00002717,0.00005429,-0.00002718,-0.00000227,0.00011535,-0.0000
 3307,-0.00002098,0.00000516,0.00002920,0.00008291,0.00002642,0.0000274
 4,0.00004438,0.00001629,-0.00001201,-0.00000130,-0.00000677,0.00000030
 ,-0.00000260,-0.00000062,0.00000090,-0.00000072,0.00000295,0.00000392,
 -0.00000164,0.00000409,-0.00000129,-0.00000192,-0.00009581,-0.00001588
 ,-0.00006642,-0.00016263,0.00002368,-0.00002276,-0.00005027,0.00003455
 ,0.00000586,-0.00005914,0.00000924,-0.00003553,-0.00003531,-0.00003398
 ,-0.00005727,0.00011783,0.00005747,0.00005671,-0.00002046,-0.00000630,
 -0.00002511,0.00002028,-0.00004237,0.00006608,-0.00007499,-0.00004279,
 -0.00010624,0.00044221,-0.00052323,0.00011174,-0.00007193,0.00019932,-
 0.00007335,-0.00014175,0.00017319,0.00004052,0.00057764,-0.00045519,-0
 .00037533,0.00000714,0.00011896,-0.00020917,-0.00220688,0.00071853,-0.
 00044973,0.00027619,-0.00010595,-0.00084582,0.00005855,-0.00000101,-0.
 00006838,0.01076623,0.00081954,-0.00711116,0.00075332,0.00011686,-0.00
 171973,-0.00093444,0.00158324,-0.00028981,0.00013053,0.00012422,-0.000
 41508,0.00001544,-0.00000554,-0.00001448,-0.00000175,-0.00000597,0.000
 00129,0.00000247,-0.00000040,0.00000331,-0.00000625,0.00000421,-0.0000
 0047,0.00001684,-0.00002264,0.00002076,-0.00000556,0.00000090,-0.00000
 267,0.00000075,0.00000384,-0.00000427,0.00000059,0.00000344,-0.0000004
 5,0.00002237,0.00003323,0.00001376,-0.00000212,-0.00000389,-0.00000739
 ,-0.00000529,-0.00000413,0.00000026,-0.00000091,-0.00000038,0.00000313
 ,0.00015778,0.00002745,0.00012129,-0.00003499,-0.00002683,-0.00001117,
 -0.00001520,0.00007455,0.00002695,0.00001393,0.00000097,-0.00000016,-0
 .00041408,0.00002590,0.00034322,0.00002053,0.00004810,-0.00020482,0.00
 016594,0.00008164,-0.00009133,0.00009762,-0.00007464,-0.00009942,-0.07
 803186,0.00673976,0.02459280,0.01031507,-0.01174074,-0.01910360,-0.029
 46029,0.01642385,0.05742509,0.08760514,-0.00002088,-0.00005291,-0.0000
 4049,-0.00005551,0.00002084,-0.00001941,-0.00015157,-0.00036900,0.0001
 5042,-0.00008569,-0.00026219,-0.00014163,-0.00000522,0.00003871,0.0000
 0314,-0.00002098,0.00001915,-0.00000379,0.00002795,0.00000754,0.000001
 73,-0.00000550,0.00000701,-0.00000893,-0.00001924,0.00002070,-0.000034
 57,0.00002654,0.00000182,0.00000426,0.00009092,0.00029608,0.00008234,0
 .00055576,0.00023466,-0.00002198,0.00003883,0.00001332,-0.00000269,0.0
 0001402,0.00003277,0.00001571,-0.00000939,0.00005322,0.00002637,0.0003
 4727,0.00011558,0.00017378,-0.00003756,0.00001195,-0.00003084,0.000088
 76,-0.00030099,0.00009485,-0.00018690,0.00005341,-0.00018003,-0.001292
 34,0.00072077,0.00002307,0.00027779,-0.00033255,0.00006377,0.00036129,
 -0.00022271,-0.00015863,-0.00061460,0.00052883,0.00001700,-0.00027526,
 -0.00006484,0.00089454,0.00193607,-0.00174942,0.00075744,-0.00045813,-
 0.00121557,0.00103840,-0.00005509,0.00002356,0.00004786,-0.00158927,0.
 00953489,0.02270017,-0.00034508,-0.00047721,0.00164285,0.00278644,-0.0
 0129576,0.00033719,0.00004123,0.00025967,0.00015712,-0.00002814,-0.000
 00657,0.00000915,0.00000239,0.00000444,0.00000630,0.00000412,0.0000055
 1,-0.00000367,0.00000371,-0.00000132,0.00000112,-0.00000636,-0.0000015
 7,0.00000170,0.00000267,0.00000144,0.00000049,0.00000040,-0.00000188,-
 0.00000121,-0.00000378,0.00000149,0.00000032,0.00000178,-0.00002850,0.
 00000935,0.00000160,0.00000139,-0.00000003,-0.00000250,0.00000243,-0.0
 0000162,0.00000490,0.00001232,-0.00000255,0.00040530,0.00003538,0.0002
 7138,-0.00006311,-0.00001902,-0.00001474,0.00006712,0.00007054,-0.0001
 2003,-0.00011357,-0.00001444,-0.00000706,0.00064782,-0.00029237,-0.001
 09617,0.00001863,-0.00006579,0.00041623,-0.00035535,-0.00012845,0.0002
 7937,-0.00018243,0.00018609,0.00028595,0.00705514,-0.08095007,-0.02913
 412,-0.00932046,-0.02924062,-0.05836637,0.01481460,0.00622123,-0.01813
 261,-0.01431912,0.09855702,0.00008599,-0.00004040,0.00000721,0.0001399
 4,-0.00005373,-0.00000864,0.00035588,0.00020668,-0.00040033,0.00007039
 ,-0.00006992,-0.00018908,0.00007202,0.00009698,0.00012105,-0.00001710,
 0.00002323,0.00002085,-0.00005413,-0.00001439,-0.00000111,0.00000531,-
 0.00000508,0.00001782,0.00002761,-0.00002496,0.00009039,-0.00001642,-0
 .00002115,-0.00000696,-0.00041315,-0.00007812,0.00018436,-0.00095593,-
 0.00011576,0.00023450,-0.00014269,0.00008325,0.00011469,-0.00016411,0.
 00003058,-0.00004049,-0.00012118,-0.00006876,-0.00007043,0.00068237,0.
 00048630,0.00009875,-0.00004179,-0.00002036,-0.00002173,0.00005148,-0.
 00016461,0.00001607,-0.00038453,-0.00030042,0.00025324,0.00220984,-0.0
 0151438,-0.00136082,-0.00057191,0.00075336,0.00009416,-0.00051092,0.00
 035797,0.00086669,-0.00003523,0.00126024,0.00012306,-0.00031384,0.0002
 9203,-0.00048071,0.00312215,-0.00171429,-0.00093829,0.00172156,0.00052
 452,-0.00187538,-0.00009477,-0.00005722,0.00009243,0.00739964,-0.00706
 288,-0.04690992,-0.00211659,0.00096021,-0.00042222,-0.00598942,0.00589
 435,-0.00185841,-0.00025841,-0.00053194,0.00070284,0.00004843,-0.00002
 170,-0.00012676,0.00001274,0.00000116,-0.00000218,-0.00001509,-0.00001
 586,0.00001591,-0.00000940,0.00000670,0.00000876,0.00003993,-0.0000477
 9,0.00002774,-0.00001530,0.00000138,-0.00000869,-0.00000203,0.00000684
 ,0.00000054,-0.00000104,0.00001329,-0.00000329,0.00007260,0.00009398,0
 .00003257,-0.00000015,-0.00000900,-0.00000751,-0.00002350,-0.00000751,
 -0.00000172,0.00000561,-0.00000375,0.00000143,0.00031416,0.00004199,-0
 .00007646,-0.00007005,-0.00004713,0.00001629,0.00014254,0.00003101,-0.
 00019415,-0.00014385,0.00001167,-0.00000107,-0.00147172,0.00005240,0.0
 0209994,-0.00010732,0.00027223,-0.00108735,0.00076896,0.00041667,-0.00
 047745,0.00029273,-0.00014280,-0.00057441,0.01867628,-0.02013557,-0.28
 906059,-0.01254796,-0.04348645,-0.03097134,0.04183607,-0.01415290,-0.0
 2364186,-0.05154468,0.07800981,0.39557805\\0.00000691,0.00000430,-0.00
 000325,-0.00000291,-0.00000390,0.00000287,0.00000228,0.00000016,-0.000
 00080,-0.00000288,0.00000403,-0.00000495,-0.00000513,0.00000025,0.0000
 0563,0.00000105,0.00000323,0.00000089,0.00000247,0.00000231,0.00000430
 ,-0.00000142,0.00000004,0.00000037,-0.00000077,-0.00000121,0.00000094,
 -0.00000007,-0.00000063,0.00000243,-0.00000178,-0.00000201,0.00000064,
 -0.00000720,-0.00000072,-0.00000424,0.00000543,0.00000334,0.00000103,-
 0.00000588,-0.00000471,0.00000148,-0.00000126,0.00000084,-0.00000146,0
 .00000047,-0.00000541,0.00000387,0.00000242,-0.00000145,0.00000033,0.0
 0000030,0.00000217,0.00000005,-0.00000576,0.00000036,0.00000007,0.0000
 0104,0.00000643,0.00000155,0.00000129,-0.00000410,-0.00000089,0.000003
 27,0.00000373,-0.00000591,0.00000082,0.00000225,0.00000302,0.00000458,
 -0.00000291,-0.00000466,0.00000371,-0.00000203,-0.00000501,-0.00000098
 ,-0.00000256,-0.00000066,-0.00000087,0.00000096,-0.00000220,-0.0000020
 2,0.00000089,-0.00000071,0.00000094,0.00000125,-0.00000047,0.00000047,
 -0.00000061,-0.00000331,-0.00000088,-0.00000051,-0.00000273,0.00000093
 ,-0.00000244,-0.00000120,0.00000269,0.00000144,0.00000001,0.00000156,0
 .00000203,0.00000082,0.00000097,0.00000260,-0.00000078,0.00000221,-0.0
 0000270,0.00000224,-0.00000165,-0.00000137,0.00000242,-0.00000100,-0.0
 0000052,0.00000088,-0.00000079,0.00000055,0.00000118,0.00000165,0.0000
 0099,0.00000556,-0.00000108,-0.00000211,0.00000253,-0.00000248,-0.0000
 0096,0.00000384,-0.00000230,-0.00000235,0.00000320,0.00000403,-0.00000
 070,0.00000356,0.00000003,0.00000092,0.00000267,0.00000090,0.00000126,
 0.00000147,0.00000110,0.00000240,0.00000211,-0.00000082,0.00000136,0.0
 0000048,-0.00000372,-0.00000224,-0.00000298,-0.00000255,-0.00000168,-0
 .00000518,0.00000063,-0.00000621,-0.00000296,0.00000079,0.00000688,0.0
 0000006,-0.00000405,-0.00000595,-0.00000259,0.00000323,0.00000132,-0.0
 0000257,0.00000209,0.00000368,-0.00000300\\\@


 WE SHOULD BE CAREFUL TO GET OUT OF AN EXPERIENCE ONLY THE WISDOM
 THAT IS IN IT -- AND STOP THERE;
 LEST WE BE LIKE THE CAT THAT SITS DOWN ON A HOT STOVE-LID.
 SHE WILL NEVER SIT DOWN ON A HOT STOVE LID AGAIN;
 BUT ALSO SHE WILL NEVER SIT DOWN ON A COLD ONE ANY MORE.

                                                     -- MARK TWAIN
 Job cpu time:       0 days 23 hours 52 minutes 36.3 seconds.
 Elapsed time:       0 days  0 hours 52 minutes 43.9 seconds.
 File lengths (MBytes):  RWF=   2247 Int=      0 D2E=      0 Chk=     40 Scr=      1
 Normal termination of Gaussian 16 at Wed Jun  5 18:18:57 2019.
