 Entering Gaussian System, Link 0=g16
 Input=clay_new-glu_gluC6-bisCF3-sm-m11-631gd-pcm_thf.gjf
 Output=clay_new-glu_gluC6-bisCF3-sm-m11-631gd-pcm_thf.out
 Initial command:
 /home/ekwan/sw/g16/l1.exe "/scratch/users/ekwan/clay_new-glu_gluC6-bisCF3-sm-m11-631gd-pcm_thf/Gau-17932.inp" -scrdir="/scratch/users/ekwan/clay_new-glu_gluC6-bisCF3-sm-m11-631gd-pcm_thf/"
 Entering Link 1 = /home/ekwan/sw/g16/l1.exe PID=     17933.
  
 Copyright (c) 1988,1990,1992,1993,1995,1998,2003,2009,2016,
            Gaussian, Inc.  All Rights Reserved.
  
 This is part of the Gaussian(R) 16 program.  It is based on
 the Gaussian(R) 09 system (copyright 2009, Gaussian, Inc.),
 the Gaussian(R) 03 system (copyright 2003, Gaussian, Inc.),
 the Gaussian(R) 98 system (copyright 1998, Gaussian, Inc.),
 the Gaussian(R) 94 system (copyright 1995, Gaussian, Inc.),
 the Gaussian 92(TM) system (copyright 1992, Gaussian, Inc.),
 the Gaussian 90(TM) system (copyright 1990, Gaussian, Inc.),
 the Gaussian 88(TM) system (copyright 1988, Gaussian, Inc.),
 the Gaussian 86(TM) system (copyright 1986, Carnegie Mellon
 University), and the Gaussian 82(TM) system (copyright 1983,
 Carnegie Mellon University). Gaussian is a federally registered
 trademark of Gaussian, Inc.
  
 This software contains proprietary and confidential information,
 including trade secrets, belonging to Gaussian, Inc.
  
 This software is provided under written license and may be
 used, copied, transmitted, or stored only in accord with that
 written license.
  
 The following legend is applicable only to US Government
 contracts under FAR:
  
                    RESTRICTED RIGHTS LEGEND
  
 Use, reproduction and disclosure by the US Government is
 subject to restrictions as set forth in subparagraphs (a)
 and (c) of the Commercial Computer Software - Restricted
 Rights clause in FAR 52.227-19.
  
 Gaussian, Inc.
 340 Quinnipiac St., Bldg. 40, Wallingford CT 06492
  
  
 ---------------------------------------------------------------
 Warning -- This program may not be used in any manner that
 competes with the business of Gaussian, Inc. or will provide
 assistance to any competitor of Gaussian, Inc.  The licensee
 of this program is prohibited from giving any competitor of
 Gaussian, Inc. access to this program.  By using this program,
 the user acknowledges that Gaussian, Inc. is engaged in the
 business of creating and licensing software in the field of
 computational chemistry and represents and warrants to the
 licensee that it is not a competitor of Gaussian, Inc. and that
 it will not use this program in any manner prohibited above.
 ---------------------------------------------------------------
  

 Cite this work as:
 Gaussian 16, Revision A.03,
 M. J. Frisch, G. W. Trucks, H. B. Schlegel, G. E. Scuseria, 
 M. A. Robb, J. R. Cheeseman, G. Scalmani, V. Barone, 
 G. A. Petersson, H. Nakatsuji, X. Li, M. Caricato, A. V. Marenich, 
 J. Bloino, B. G. Janesko, R. Gomperts, B. Mennucci, H. P. Hratchian, 
 J. V. Ortiz, A. F. Izmaylov, J. L. Sonnenberg, D. Williams-Young, 
 F. Ding, F. Lipparini, F. Egidi, J. Goings, B. Peng, A. Petrone, 
 T. Henderson, D. Ranasinghe, V. G. Zakrzewski, J. Gao, N. Rega, 
 G. Zheng, W. Liang, M. Hada, M. Ehara, K. Toyota, R. Fukuda, 
 J. Hasegawa, M. Ishida, T. Nakajima, Y. Honda, O. Kitao, H. Nakai, 
 T. Vreven, K. Throssell, J. A. Montgomery, Jr., J. E. Peralta, 
 F. Ogliaro, M. J. Bearpark, J. J. Heyd, E. N. Brothers, K. N. Kudin, 
 V. N. Staroverov, T. A. Keith, R. Kobayashi, J. Normand, 
 K. Raghavachari, A. P. Rendell, J. C. Burant, S. S. Iyengar, 
 J. Tomasi, M. Cossi, J. M. Millam, M. Klene, C. Adamo, R. Cammi, 
 J. W. Ochterski, R. L. Martin, K. Morokuma, O. Farkas, 
 J. B. Foresman, and D. J. Fox, Gaussian, Inc., Wallingford CT, 2016.
 
 ******************************************
 Gaussian 16:  AS64L-G16RevA.03 25-Dec-2016
                 5-Jun-2019 
 ******************************************
 %nprocshared=32
 Will use up to   32 processors via shared memory.
 %mem=48GB
 ----------------------------------------------------------------------
 #p opt freq=noraman pop=none 6-31g* scrf=(pcm,solvent=tetrahydrofuran)
  m11
 ----------------------------------------------------------------------
 1/18=20,19=15,26=3,38=1/1,3;
 2/9=110,12=2,17=6,18=5,40=1/2;
 3/5=1,6=6,7=1,11=2,25=1,30=1,70=2201,71=1,72=20,74=-64/1,2,3;
 4//1;
 5/5=2,38=5,53=20/2;
 7//1,2,3,16;
 1/18=20,19=15,26=3/3(2);
 2/9=110/2;
 99//99;
 2/9=110/2;
 3/5=1,6=6,7=1,11=2,25=1,30=1,70=2205,71=1,72=20,74=-64/1,2,3;
 4/5=5,16=3,69=1/1;
 5/5=2,38=5,53=20/2;
 7//1,2,3,16;
 1/18=20,19=15,26=3/3(-5);
 2/9=110/2;
 99/9=1/99;
 Leave Link    1 at Wed Jun  5 17:44:51 2019, MaxMem=  6442450944 cpu:               5.2 elap:               0.2
 (Enter /home/ekwan/sw/g16/l101.exe)
 -----
 title
 -----
 Symbolic Z-matrix:
 Charge =  0 Multiplicity = 1
 6                     3.3796    0.31912   0.62989 
 6                     3.3091   -0.47401  -0.67511 
 6                     1.84966  -0.76745  -1.05802 
 6                     1.02585   1.08398   0.1855 
 6                     2.44152   1.51893   0.56079 
 1                     1.76321  -1.2196   -2.05307 
 1                     3.72561   0.15025  -1.49002 
 1                     3.06367  -0.33556   1.46298 
 1                     0.62814   0.42327   0.97651 
 1                     2.81162   2.21677  -0.21047 
 8                     1.04553   0.35996  -1.05924 
 8                     1.3804   -1.73906  -0.07588 
 8                     4.05934  -1.64941  -0.51461 
 8                     4.68668   0.80484   0.85041 
 8                     2.37008   2.16049   1.81582 
 6                     0.09523   2.28393   0.04449 
 1                    -0.13832   2.64646   1.05341 
 1                    -0.83883   1.96085  -0.44893 
 8                     0.66764   3.37229  -0.64762 
 16                    0.09116  -2.63215  -0.46566 
 8                     0.04219  -3.68242   0.5343 
 8                     0.15919  -2.93159  -1.89018 
 6                    -1.2738   -1.52192  -0.19058 
 6                    -1.77319  -1.38846   1.09816 
 6                    -1.78125  -0.80483  -1.26578 
 6                    -2.81764  -0.49425   1.30587 
 1                    -1.35769  -1.9735    1.92 
 6                    -2.82454   0.08033  -1.02559 
 1                    -1.36757  -0.93688  -2.26619 
 6                    -3.34679   0.24424   0.25338 
 1                    -4.16378   0.9451    0.42882 
 6                     4.12789  -2.45974  -1.67735 
 1                     3.17049  -2.97388  -1.86859 
 1                     4.40125  -1.85985  -2.56207 
 1                     4.90231  -3.21373  -1.49934 
 6                     5.47987  -0.0147    1.69745 
 1                     6.44936   0.48536   1.80847 
 1                     5.01096  -0.11458   2.69083 
 1                     5.62585  -1.01324   1.26264 
 6                     3.05666   3.40439   1.85403 
 1                     2.93595   3.80812   2.86637 
 1                     4.1265    3.26384   1.63821 
 1                     2.61899   4.10519   1.12425 
 6                     0.79024   3.16536  -2.0466 
 1                     0.96595   4.14586  -2.50531 
 1                    -0.13599   2.7288   -2.45674 
 1                     1.62951   2.49425  -2.2887 
 6                    -3.42098  -0.36102   2.68065 
 9                    -2.51933  -0.6432    3.63975 
 9                    -4.46068  -1.20294   2.84562 
 9                    -3.88106   0.88746   2.89116 
 6                    -3.3443    0.93353  -2.15227 
 9                    -2.67028   2.10563  -2.22475 
 9                    -4.64394   1.23617  -1.98291 
 9                    -3.20393   0.32085  -3.3411 
 
 ITRead=  0  0  0  0  0  0  0  0  0  0  0  0  0  0  0  0  0  0  0  0
 ITRead=  0  0  0  0  0  0  0  0  0  0  0  0  0  0  0  0  0  0  0  0
 ITRead=  0  0  0  0  0  0  0  0  0  0  0  0  0  0  0
 MicOpt= -1 -1 -1 -1 -1 -1 -1 -1 -1 -1 -1 -1 -1 -1 -1 -1 -1 -1 -1 -1
 MicOpt= -1 -1 -1 -1 -1 -1 -1 -1 -1 -1 -1 -1 -1 -1 -1 -1 -1 -1 -1 -1
 MicOpt= -1 -1 -1 -1 -1 -1 -1 -1 -1 -1 -1 -1 -1 -1 -1
 NAtoms=     55 NQM=       55 NQMF=       0 NMMI=      0 NMMIF=      0
                NMic=       0 NMicF=      0.
                    Isotopes and Nuclear Properties:
 (Nuclear quadrupole moments (NQMom) in fm**2, nuclear magnetic moments (NMagM)
  in nuclear magnetons)

  Atom         1           2           3           4           5           6           7           8           9          10
 IAtWgt=          12          12          12          12          12           1           1           1           1           1
 AtmWgt=  12.0000000  12.0000000  12.0000000  12.0000000  12.0000000   1.0078250   1.0078250   1.0078250   1.0078250   1.0078250
 NucSpn=           0           0           0           0           0           1           1           1           1           1
 AtZEff=   0.0000000   0.0000000   0.0000000   0.0000000   0.0000000   0.0000000   0.0000000   0.0000000   0.0000000   0.0000000
 NQMom=    0.0000000   0.0000000   0.0000000   0.0000000   0.0000000   0.0000000   0.0000000   0.0000000   0.0000000   0.0000000
 NMagM=    0.0000000   0.0000000   0.0000000   0.0000000   0.0000000   2.7928460   2.7928460   2.7928460   2.7928460   2.7928460
 AtZNuc=   6.0000000   6.0000000   6.0000000   6.0000000   6.0000000   1.0000000   1.0000000   1.0000000   1.0000000   1.0000000

  Atom        11          12          13          14          15          16          17          18          19          20
 IAtWgt=          16          16          16          16          16          12           1           1          16          32
 AtmWgt=  15.9949146  15.9949146  15.9949146  15.9949146  15.9949146  12.0000000   1.0078250   1.0078250  15.9949146  31.9720718
 NucSpn=           0           0           0           0           0           0           1           1           0           0
 AtZEff=   0.0000000   0.0000000   0.0000000   0.0000000   0.0000000   0.0000000   0.0000000   0.0000000   0.0000000   0.0000000
 NQMom=    0.0000000   0.0000000   0.0000000   0.0000000   0.0000000   0.0000000   0.0000000   0.0000000   0.0000000   0.0000000
 NMagM=    0.0000000   0.0000000   0.0000000   0.0000000   0.0000000   0.0000000   2.7928460   2.7928460   0.0000000   0.0000000
 AtZNuc=   8.0000000   8.0000000   8.0000000   8.0000000   8.0000000   6.0000000   1.0000000   1.0000000   8.0000000  16.0000000

  Atom        21          22          23          24          25          26          27          28          29          30
 IAtWgt=          16          16          12          12          12          12           1          12           1          12
 AtmWgt=  15.9949146  15.9949146  12.0000000  12.0000000  12.0000000  12.0000000   1.0078250  12.0000000   1.0078250  12.0000000
 NucSpn=           0           0           0           0           0           0           1           0           1           0
 AtZEff=   0.0000000   0.0000000   0.0000000   0.0000000   0.0000000   0.0000000   0.0000000   0.0000000   0.0000000   0.0000000
 NQMom=    0.0000000   0.0000000   0.0000000   0.0000000   0.0000000   0.0000000   0.0000000   0.0000000   0.0000000   0.0000000
 NMagM=    0.0000000   0.0000000   0.0000000   0.0000000   0.0000000   0.0000000   2.7928460   0.0000000   2.7928460   0.0000000
 AtZNuc=   8.0000000   8.0000000   6.0000000   6.0000000   6.0000000   6.0000000   1.0000000   6.0000000   1.0000000   6.0000000

  Atom        31          32          33          34          35          36          37          38          39          40
 IAtWgt=           1          12           1           1           1          12           1           1           1          12
 AtmWgt=   1.0078250  12.0000000   1.0078250   1.0078250   1.0078250  12.0000000   1.0078250   1.0078250   1.0078250  12.0000000
 NucSpn=           1           0           1           1           1           0           1           1           1           0
 AtZEff=   0.0000000   0.0000000   0.0000000   0.0000000   0.0000000   0.0000000   0.0000000   0.0000000   0.0000000   0.0000000
 NQMom=    0.0000000   0.0000000   0.0000000   0.0000000   0.0000000   0.0000000   0.0000000   0.0000000   0.0000000   0.0000000
 NMagM=    2.7928460   0.0000000   2.7928460   2.7928460   2.7928460   0.0000000   2.7928460   2.7928460   2.7928460   0.0000000
 AtZNuc=   1.0000000   6.0000000   1.0000000   1.0000000   1.0000000   6.0000000   1.0000000   1.0000000   1.0000000   6.0000000

  Atom        41          42          43          44          45          46          47          48          49          50
 IAtWgt=           1           1           1          12           1           1           1          12          19          19
 AtmWgt=   1.0078250   1.0078250   1.0078250  12.0000000   1.0078250   1.0078250   1.0078250  12.0000000  18.9984033  18.9984033
 NucSpn=           1           1           1           0           1           1           1           0           1           1
 AtZEff=   0.0000000   0.0000000   0.0000000   0.0000000   0.0000000   0.0000000   0.0000000   0.0000000   0.0000000   0.0000000
 NQMom=    0.0000000   0.0000000   0.0000000   0.0000000   0.0000000   0.0000000   0.0000000   0.0000000   0.0000000   0.0000000
 NMagM=    2.7928460   2.7928460   2.7928460   0.0000000   2.7928460   2.7928460   2.7928460   0.0000000   2.6288670   2.6288670
 AtZNuc=   1.0000000   1.0000000   1.0000000   6.0000000   1.0000000   1.0000000   1.0000000   6.0000000   9.0000000   9.0000000

  Atom        51          52          53          54          55
 IAtWgt=          19          12          19          19          19
 AtmWgt=  18.9984033  12.0000000  18.9984033  18.9984033  18.9984033
 NucSpn=           1           0           1           1           1
 AtZEff=   0.0000000   0.0000000   0.0000000   0.0000000   0.0000000
 NQMom=    0.0000000   0.0000000   0.0000000   0.0000000   0.0000000
 NMagM=    2.6288670   0.0000000   2.6288670   2.6288670   2.6288670
 AtZNuc=   9.0000000   6.0000000   9.0000000   9.0000000   9.0000000
 Leave Link  101 at Wed Jun  5 17:44:52 2019, MaxMem=  6442450944 cpu:              23.6 elap:               0.9
 (Enter /home/ekwan/sw/g16/l103.exe)

 GradGradGradGradGradGradGradGradGradGradGradGradGradGradGradGradGradGrad
 Berny optimization.
 Initialization pass.
                           ----------------------------
                           !    Initial Parameters    !
                           ! (Angstroms and Degrees)  !
 --------------------------                            --------------------------
 ! Name  Definition              Value          Derivative Info.                !
 --------------------------------------------------------------------------------
 ! R1    R(1,2)                  1.5287         estimate D2E/DX2                !
 ! R2    R(1,5)                  1.5246         estimate D2E/DX2                !
 ! R3    R(1,8)                  1.1056         estimate D2E/DX2                !
 ! R4    R(1,14)                 1.4117         estimate D2E/DX2                !
 ! R5    R(2,3)                  1.5371         estimate D2E/DX2                !
 ! R6    R(2,7)                  1.1078         estimate D2E/DX2                !
 ! R7    R(2,13)                 1.4036         estimate D2E/DX2                !
 ! R8    R(3,6)                  1.0964         estimate D2E/DX2                !
 ! R9    R(3,11)                 1.3848         estimate D2E/DX2                !
 ! R10   R(3,12)                 1.4591         estimate D2E/DX2                !
 ! R11   R(4,5)                  1.5278         estimate D2E/DX2                !
 ! R12   R(4,9)                  1.1047         estimate D2E/DX2                !
 ! R13   R(4,11)                 1.4401         estimate D2E/DX2                !
 ! R14   R(4,16)                 1.5251         estimate D2E/DX2                !
 ! R15   R(5,10)                 1.104          estimate D2E/DX2                !
 ! R16   R(5,15)                 1.4113         estimate D2E/DX2                !
 ! R17   R(12,20)                1.6161         estimate D2E/DX2                !
 ! R18   R(13,32)                1.4189         estimate D2E/DX2                !
 ! R19   R(14,36)                1.4207         estimate D2E/DX2                !
 ! R20   R(15,40)                1.4213         estimate D2E/DX2                !
 ! R21   R(16,17)                1.0972         estimate D2E/DX2                !
 ! R22   R(16,18)                1.1047         estimate D2E/DX2                !
 ! R23   R(16,19)                1.4111         estimate D2E/DX2                !
 ! R24   R(19,44)                1.4195         estimate D2E/DX2                !
 ! R25   R(20,21)                1.451          estimate D2E/DX2                !
 ! R26   R(20,22)                1.4572         estimate D2E/DX2                !
 ! R27   R(20,23)                1.7808         estimate D2E/DX2                !
 ! R28   R(23,24)                1.3885         estimate D2E/DX2                !
 ! R29   R(23,25)                1.3884         estimate D2E/DX2                !
 ! R30   R(24,26)                1.3905         estimate D2E/DX2                !
 ! R31   R(24,27)                1.091          estimate D2E/DX2                !
 ! R32   R(25,28)                1.3891         estimate D2E/DX2                !
 ! R33   R(25,29)                1.0906         estimate D2E/DX2                !
 ! R34   R(26,30)                1.3904         estimate D2E/DX2                !
 ! R35   R(26,48)                1.5072         estimate D2E/DX2                !
 ! R36   R(28,30)                1.3912         estimate D2E/DX2                !
 ! R37   R(28,52)                1.5058         estimate D2E/DX2                !
 ! R38   R(30,31)                1.0906         estimate D2E/DX2                !
 ! R39   R(32,33)                1.1034         estimate D2E/DX2                !
 ! R40   R(32,34)                1.1033         estimate D2E/DX2                !
 ! R41   R(32,35)                1.0954         estimate D2E/DX2                !
 ! R42   R(36,37)                1.0965         estimate D2E/DX2                !
 ! R43   R(36,38)                1.103          estimate D2E/DX2                !
 ! R44   R(36,39)                1.0988         estimate D2E/DX2                !
 ! R45   R(40,41)                1.0965         estimate D2E/DX2                !
 ! R46   R(40,42)                1.1004         estimate D2E/DX2                !
 ! R47   R(40,43)                1.1024         estimate D2E/DX2                !
 ! R48   R(44,45)                1.0967         estimate D2E/DX2                !
 ! R49   R(44,46)                1.103          estimate D2E/DX2                !
 ! R50   R(44,47)                1.1015         estimate D2E/DX2                !
 ! R51   R(48,49)                1.3463         estimate D2E/DX2                !
 ! R52   R(48,50)                1.348          estimate D2E/DX2                !
 ! R53   R(48,51)                1.3471         estimate D2E/DX2                !
 ! R54   R(52,53)                1.354          estimate D2E/DX2                !
 ! R55   R(52,54)                1.3451         estimate D2E/DX2                !
 ! R56   R(52,55)                1.3448         estimate D2E/DX2                !
 ! A1    A(2,1,5)              109.9513         estimate D2E/DX2                !
 ! A2    A(2,1,8)              108.8346         estimate D2E/DX2                !
 ! A3    A(2,1,14)             110.7652         estimate D2E/DX2                !
 ! A4    A(5,1,8)              108.9246         estimate D2E/DX2                !
 ! A5    A(5,1,14)             107.8183         estimate D2E/DX2                !
 ! A6    A(8,1,14)             110.5235         estimate D2E/DX2                !
 ! A7    A(1,2,3)              110.8228         estimate D2E/DX2                !
 ! A8    A(1,2,7)              108.5572         estimate D2E/DX2                !
 ! A9    A(1,2,13)             108.1912         estimate D2E/DX2                !
 ! A10   A(3,2,7)              106.3379         estimate D2E/DX2                !
 ! A11   A(3,2,13)             112.0933         estimate D2E/DX2                !
 ! A12   A(7,2,13)             110.7958         estimate D2E/DX2                !
 ! A13   A(2,3,6)              112.3139         estimate D2E/DX2                !
 ! A14   A(2,3,11)             113.3372         estimate D2E/DX2                !
 ! A15   A(2,3,12)             105.3553         estimate D2E/DX2                !
 ! A16   A(6,3,11)             106.8084         estimate D2E/DX2                !
 ! A17   A(6,3,12)             108.1157         estimate D2E/DX2                !
 ! A18   A(11,3,12)            110.8536         estimate D2E/DX2                !
 ! A19   A(5,4,9)              109.1458         estimate D2E/DX2                !
 ! A20   A(5,4,11)             110.0458         estimate D2E/DX2                !
 ! A21   A(5,4,16)             111.3552         estimate D2E/DX2                !
 ! A22   A(9,4,11)             108.8518         estimate D2E/DX2                !
 ! A23   A(9,4,16)             108.4879         estimate D2E/DX2                !
 ! A24   A(11,4,16)            108.9044         estimate D2E/DX2                !
 ! A25   A(1,5,4)              110.931          estimate D2E/DX2                !
 ! A26   A(1,5,10)             108.8355         estimate D2E/DX2                !
 ! A27   A(1,5,15)             110.4009         estimate D2E/DX2                !
 ! A28   A(4,5,10)             108.6016         estimate D2E/DX2                !
 ! A29   A(4,5,15)             107.5144         estimate D2E/DX2                !
 ! A30   A(10,5,15)            110.5406         estimate D2E/DX2                !
 ! A31   A(3,11,4)             114.6125         estimate D2E/DX2                !
 ! A32   A(3,12,20)            117.5311         estimate D2E/DX2                !
 ! A33   A(2,13,32)            114.2272         estimate D2E/DX2                !
 ! A34   A(1,14,36)            114.3039         estimate D2E/DX2                !
 ! A35   A(5,15,40)            113.409          estimate D2E/DX2                !
 ! A36   A(4,16,17)            107.7482         estimate D2E/DX2                !
 ! A37   A(4,16,18)            109.096          estimate D2E/DX2                !
 ! A38   A(4,16,19)            113.8712         estimate D2E/DX2                !
 ! A39   A(17,16,18)           109.1094         estimate D2E/DX2                !
 ! A40   A(17,16,19)           106.4096         estimate D2E/DX2                !
 ! A41   A(18,16,19)           110.4566         estimate D2E/DX2                !
 ! A42   A(16,19,44)           113.9526         estimate D2E/DX2                !
 ! A43   A(12,20,21)           105.113          estimate D2E/DX2                !
 ! A44   A(12,20,22)           108.1849         estimate D2E/DX2                !
 ! A45   A(12,20,23)           103.2784         estimate D2E/DX2                !
 ! A46   A(21,20,22)           121.7705         estimate D2E/DX2                !
 ! A47   A(21,20,23)           108.5986         estimate D2E/DX2                !
 ! A48   A(22,20,23)           108.3537         estimate D2E/DX2                !
 ! A49   A(20,23,24)           118.6166         estimate D2E/DX2                !
 ! A50   A(20,23,25)           118.8483         estimate D2E/DX2                !
 ! A51   A(24,23,25)           122.5237         estimate D2E/DX2                !
 ! A52   A(23,24,26)           118.0718         estimate D2E/DX2                !
 ! A53   A(23,24,27)           120.7055         estimate D2E/DX2                !
 ! A54   A(26,24,27)           121.2222         estimate D2E/DX2                !
 ! A55   A(23,25,28)           118.0142         estimate D2E/DX2                !
 ! A56   A(23,25,29)           120.6098         estimate D2E/DX2                !
 ! A57   A(28,25,29)           121.376          estimate D2E/DX2                !
 ! A58   A(24,26,30)           120.9537         estimate D2E/DX2                !
 ! A59   A(24,26,48)           119.5874         estimate D2E/DX2                !
 ! A60   A(30,26,48)           119.4174         estimate D2E/DX2                !
 ! A61   A(25,28,30)           121.0629         estimate D2E/DX2                !
 ! A62   A(25,28,52)           119.3996         estimate D2E/DX2                !
 ! A63   A(30,28,52)           119.4421         estimate D2E/DX2                !
 ! A64   A(26,30,28)           119.3727         estimate D2E/DX2                !
 ! A65   A(26,30,31)           120.3085         estimate D2E/DX2                !
 ! A66   A(28,30,31)           120.3188         estimate D2E/DX2                !
 ! A67   A(13,32,33)           111.4823         estimate D2E/DX2                !
 ! A68   A(13,32,34)           111.0117         estimate D2E/DX2                !
 ! A69   A(13,32,35)           107.1029         estimate D2E/DX2                !
 ! A70   A(33,32,34)           109.2283         estimate D2E/DX2                !
 ! A71   A(33,32,35)           108.714          estimate D2E/DX2                !
 ! A72   A(34,32,35)           109.2329         estimate D2E/DX2                !
 ! A73   A(14,36,37)           106.9138         estimate D2E/DX2                !
 ! A74   A(14,36,38)           110.6005         estimate D2E/DX2                !
 ! A75   A(14,36,39)           111.2516         estimate D2E/DX2                !
 ! A76   A(37,36,38)           109.0253         estimate D2E/DX2                !
 ! A77   A(37,36,39)           109.6956         estimate D2E/DX2                !
 ! A78   A(38,36,39)           109.3031         estimate D2E/DX2                !
 ! A79   A(15,40,41)           107.0899         estimate D2E/DX2                !
 ! A80   A(15,40,42)           110.6461         estimate D2E/DX2                !
 ! A81   A(15,40,43)           110.2907         estimate D2E/DX2                !
 ! A82   A(41,40,42)           109.5793         estimate D2E/DX2                !
 ! A83   A(41,40,43)           109.4754         estimate D2E/DX2                !
 ! A84   A(42,40,43)           109.7152         estimate D2E/DX2                !
 ! A85   A(19,44,45)           107.2017         estimate D2E/DX2                !
 ! A86   A(19,44,46)           110.5862         estimate D2E/DX2                !
 ! A87   A(19,44,47)           111.7911         estimate D2E/DX2                !
 ! A88   A(45,44,46)           109.4433         estimate D2E/DX2                !
 ! A89   A(45,44,47)           109.3122         estimate D2E/DX2                !
 ! A90   A(46,44,47)           108.477          estimate D2E/DX2                !
 ! A91   A(26,48,49)           111.2959         estimate D2E/DX2                !
 ! A92   A(26,48,50)           111.4179         estimate D2E/DX2                !
 ! A93   A(26,48,51)           111.1723         estimate D2E/DX2                !
 ! A94   A(49,48,50)           107.3654         estimate D2E/DX2                !
 ! A95   A(49,48,51)           108.1594         estimate D2E/DX2                !
 ! A96   A(50,48,51)           107.2358         estimate D2E/DX2                !
 ! A97   A(28,52,53)           111.0207         estimate D2E/DX2                !
 ! A98   A(28,52,54)           111.5164         estimate D2E/DX2                !
 ! A99   A(28,52,55)           111.5482         estimate D2E/DX2                !
 ! A100  A(53,52,54)           107.0338         estimate D2E/DX2                !
 ! A101  A(53,52,55)           107.1641         estimate D2E/DX2                !
 ! A102  A(54,52,55)           108.3405         estimate D2E/DX2                !
 ! D1    D(5,1,2,3)            -49.8442         estimate D2E/DX2                !
 ! D2    D(5,1,2,7)             66.5881         estimate D2E/DX2                !
 ! D3    D(5,1,2,13)          -173.1117         estimate D2E/DX2                !
 ! D4    D(8,1,2,3)             69.3896         estimate D2E/DX2                !
 ! D5    D(8,1,2,7)           -174.1781         estimate D2E/DX2                !
 ! D6    D(8,1,2,13)           -53.8779         estimate D2E/DX2                !
 ! D7    D(14,1,2,3)          -168.9088         estimate D2E/DX2                !
 ! D8    D(14,1,2,7)           -52.4765         estimate D2E/DX2                !
 ! D9    D(14,1,2,13)           67.8237         estimate D2E/DX2                !
 ! D10   D(2,1,5,4)             53.517          estimate D2E/DX2                !
 ! D11   D(2,1,5,10)           -65.9102         estimate D2E/DX2                !
 ! D12   D(2,1,5,15)           172.5964         estimate D2E/DX2                !
 ! D13   D(8,1,5,4)            -65.6617         estimate D2E/DX2                !
 ! D14   D(8,1,5,10)           174.9111         estimate D2E/DX2                !
 ! D15   D(8,1,5,15)            53.4177         estimate D2E/DX2                !
 ! D16   D(14,1,5,4)           174.3714         estimate D2E/DX2                !
 ! D17   D(14,1,5,10)           54.9442         estimate D2E/DX2                !
 ! D18   D(14,1,5,15)          -66.5492         estimate D2E/DX2                !
 ! D19   D(2,1,14,36)          -96.0293         estimate D2E/DX2                !
 ! D20   D(5,1,14,36)          143.627          estimate D2E/DX2                !
 ! D21   D(8,1,14,36)           24.6751         estimate D2E/DX2                !
 ! D22   D(1,2,3,6)            172.5435         estimate D2E/DX2                !
 ! D23   D(1,2,3,11)            51.379          estimate D2E/DX2                !
 ! D24   D(1,2,3,12)           -69.9887         estimate D2E/DX2                !
 ! D25   D(7,2,3,6)             54.7489         estimate D2E/DX2                !
 ! D26   D(7,2,3,11)           -66.4157         estimate D2E/DX2                !
 ! D27   D(7,2,3,12)           172.2166         estimate D2E/DX2                !
 ! D28   D(13,2,3,6)           -66.4687         estimate D2E/DX2                !
 ! D29   D(13,2,3,11)          172.3668         estimate D2E/DX2                !
 ! D30   D(13,2,3,12)           50.9991         estimate D2E/DX2                !
 ! D31   D(1,2,13,32)         -177.4382         estimate D2E/DX2                !
 ! D32   D(3,2,13,32)           60.0668         estimate D2E/DX2                !
 ! D33   D(7,2,13,32)          -58.5475         estimate D2E/DX2                !
 ! D34   D(2,3,11,4)           -56.2894         estimate D2E/DX2                !
 ! D35   D(6,3,11,4)           179.4961         estimate D2E/DX2                !
 ! D36   D(12,3,11,4)           61.9375         estimate D2E/DX2                !
 ! D37   D(2,3,12,20)         -159.4395         estimate D2E/DX2                !
 ! D38   D(6,3,12,20)          -39.1673         estimate D2E/DX2                !
 ! D39   D(11,3,12,20)          77.5897         estimate D2E/DX2                !
 ! D40   D(9,4,5,1)             63.1308         estimate D2E/DX2                !
 ! D41   D(9,4,5,10)          -177.3019         estimate D2E/DX2                !
 ! D42   D(9,4,5,15)           -57.6703         estimate D2E/DX2                !
 ! D43   D(11,4,5,1)           -56.2608         estimate D2E/DX2                !
 ! D44   D(11,4,5,10)           63.3066         estimate D2E/DX2                !
 ! D45   D(11,4,5,15)         -177.0619         estimate D2E/DX2                !
 ! D46   D(16,4,5,1)          -177.1229         estimate D2E/DX2                !
 ! D47   D(16,4,5,10)          -57.5555         estimate D2E/DX2                !
 ! D48   D(16,4,5,15)           62.076          estimate D2E/DX2                !
 ! D49   D(5,4,11,3)            58.2624         estimate D2E/DX2                !
 ! D50   D(9,4,11,3)           -61.3082         estimate D2E/DX2                !
 ! D51   D(16,4,11,3)         -179.4148         estimate D2E/DX2                !
 ! D52   D(5,4,16,17)          -74.7235         estimate D2E/DX2                !
 ! D53   D(5,4,16,18)          166.9459         estimate D2E/DX2                !
 ! D54   D(5,4,16,19)           43.052          estimate D2E/DX2                !
 ! D55   D(9,4,16,17)           45.4121         estimate D2E/DX2                !
 ! D56   D(9,4,16,18)          -72.9185         estimate D2E/DX2                !
 ! D57   D(9,4,16,19)          163.1876         estimate D2E/DX2                !
 ! D58   D(11,4,16,17)         163.7478         estimate D2E/DX2                !
 ! D59   D(11,4,16,18)          45.4172         estimate D2E/DX2                !
 ! D60   D(11,4,16,19)         -78.4767         estimate D2E/DX2                !
 ! D61   D(1,5,15,40)          107.0229         estimate D2E/DX2                !
 ! D62   D(4,5,15,40)         -131.8427         estimate D2E/DX2                !
 ! D63   D(10,5,15,40)         -13.4544         estimate D2E/DX2                !
 ! D64   D(3,12,20,21)         167.6402         estimate D2E/DX2                !
 ! D65   D(3,12,20,22)          36.129          estimate D2E/DX2                !
 ! D66   D(3,12,20,23)         -78.5834         estimate D2E/DX2                !
 ! D67   D(2,13,32,33)         -73.3124         estimate D2E/DX2                !
 ! D68   D(2,13,32,34)          48.7128         estimate D2E/DX2                !
 ! D69   D(2,13,32,35)         167.8817         estimate D2E/DX2                !
 ! D70   D(1,14,36,37)        -178.3927         estimate D2E/DX2                !
 ! D71   D(1,14,36,38)         -59.8182         estimate D2E/DX2                !
 ! D72   D(1,14,36,39)          61.8567         estimate D2E/DX2                !
 ! D73   D(5,15,40,41)        -179.9581         estimate D2E/DX2                !
 ! D74   D(5,15,40,42)         -60.5848         estimate D2E/DX2                !
 ! D75   D(5,15,40,43)          60.9932         estimate D2E/DX2                !
 ! D76   D(4,16,19,44)          73.2703         estimate D2E/DX2                !
 ! D77   D(17,16,19,44)       -168.1858         estimate D2E/DX2                !
 ! D78   D(18,16,19,44)        -49.8852         estimate D2E/DX2                !
 ! D79   D(16,19,44,45)        164.117          estimate D2E/DX2                !
 ! D80   D(16,19,44,46)         44.8743         estimate D2E/DX2                !
 ! D81   D(16,19,44,47)        -76.1069         estimate D2E/DX2                !
 ! D82   D(12,20,23,24)        -83.2749         estimate D2E/DX2                !
 ! D83   D(12,20,23,25)         95.5265         estimate D2E/DX2                !
 ! D84   D(21,20,23,24)         27.9519         estimate D2E/DX2                !
 ! D85   D(21,20,23,25)       -153.2467         estimate D2E/DX2                !
 ! D86   D(22,20,23,24)        162.1342         estimate D2E/DX2                !
 ! D87   D(22,20,23,25)        -19.0643         estimate D2E/DX2                !
 ! D88   D(20,23,24,26)        178.4632         estimate D2E/DX2                !
 ! D89   D(20,23,24,27)         -1.7888         estimate D2E/DX2                !
 ! D90   D(25,23,24,26)         -0.2917         estimate D2E/DX2                !
 ! D91   D(25,23,24,27)        179.4563         estimate D2E/DX2                !
 ! D92   D(20,23,25,28)       -178.4638         estimate D2E/DX2                !
 ! D93   D(20,23,25,29)          1.4772         estimate D2E/DX2                !
 ! D94   D(24,23,25,28)          0.2884         estimate D2E/DX2                !
 ! D95   D(24,23,25,29)       -179.7707         estimate D2E/DX2                !
 ! D96   D(23,24,26,30)          0.0284         estimate D2E/DX2                !
 ! D97   D(23,24,26,48)        177.6708         estimate D2E/DX2                !
 ! D98   D(27,24,26,30)       -179.7183         estimate D2E/DX2                !
 ! D99   D(27,24,26,48)         -2.0758         estimate D2E/DX2                !
 ! D100  D(23,25,28,30)         -0.0218         estimate D2E/DX2                !
 ! D101  D(23,25,28,52)        176.4058         estimate D2E/DX2                !
 ! D102  D(29,25,28,30)       -179.9623         estimate D2E/DX2                !
 ! D103  D(29,25,28,52)         -3.5347         estimate D2E/DX2                !
 ! D104  D(24,26,30,28)          0.2248         estimate D2E/DX2                !
 ! D105  D(24,26,30,31)       -179.7967         estimate D2E/DX2                !
 ! D106  D(48,26,30,28)       -177.4216         estimate D2E/DX2                !
 ! D107  D(48,26,30,31)          2.5569         estimate D2E/DX2                !
 ! D108  D(24,26,48,49)         28.6934         estimate D2E/DX2                !
 ! D109  D(24,26,48,50)        -91.1086         estimate D2E/DX2                !
 ! D110  D(24,26,48,51)        149.3368         estimate D2E/DX2                !
 ! D111  D(30,26,48,49)       -153.6277         estimate D2E/DX2                !
 ! D112  D(30,26,48,50)         86.5704         estimate D2E/DX2                !
 ! D113  D(30,26,48,51)        -32.9843         estimate D2E/DX2                !
 ! D114  D(25,28,30,26)         -0.2283         estimate D2E/DX2                !
 ! D115  D(25,28,30,31)        179.7931         estimate D2E/DX2                !
 ! D116  D(52,28,30,26)       -176.6545         estimate D2E/DX2                !
 ! D117  D(52,28,30,31)          3.367          estimate D2E/DX2                !
 ! D118  D(25,28,52,53)        -89.4636         estimate D2E/DX2                !
 ! D119  D(25,28,52,54)        151.2729         estimate D2E/DX2                !
 ! D120  D(25,28,52,55)         29.9856         estimate D2E/DX2                !
 ! D121  D(30,28,52,53)         87.0226         estimate D2E/DX2                !
 ! D122  D(30,28,52,54)        -32.2409         estimate D2E/DX2                !
 ! D123  D(30,28,52,55)       -153.5283         estimate D2E/DX2                !
 --------------------------------------------------------------------------------
 Trust Radius=3.00D-01 FncErr=1.00D-07 GrdErr=1.00D-06 EigMax=2.50D+02 EigMin=1.00D-04
 Number of steps in this run=    291 maximum allowed number of steps=    330.
 GradGradGradGradGradGradGradGradGradGradGradGradGradGradGradGradGradGrad

 Leave Link  103 at Wed Jun  5 17:44:52 2019, MaxMem=  6442450944 cpu:               2.7 elap:               0.1
 (Enter /home/ekwan/sw/g16/l202.exe)
 Stoichiometry    C18H22F6O8S
 Framework group  C1[X(C18H22F6O8S)]
 Deg. of freedom   159
 Full point group                 C1      NOp   1
 Largest Abelian subgroup         C1      NOp   1
 Largest concise Abelian subgroup C1      NOp   1
                         Standard orientation:                         
 ---------------------------------------------------------------------
 Center     Atomic      Atomic             Coordinates (Angstroms)
 Number     Number       Type             X           Y           Z
 ---------------------------------------------------------------------
      1          6           0        3.379602    0.319115    0.629894
      2          6           0        3.309103   -0.474009   -0.675112
      3          6           0        1.849657   -0.767445   -1.058024
      4          6           0        1.025846    1.083980    0.185502
      5          6           0        2.441520    1.518925    0.560786
      6          1           0        1.763212   -1.219597   -2.053070
      7          1           0        3.725607    0.150253   -1.490019
      8          1           0        3.063672   -0.335560    1.462982
      9          1           0        0.628137    0.423274    0.976509
     10          1           0        2.811618    2.216768   -0.210470
     11          8           0        1.045531    0.359963   -1.059239
     12          8           0        1.380403   -1.739059   -0.075883
     13          8           0        4.059343   -1.649410   -0.514613
     14          8           0        4.686681    0.804844    0.850408
     15          8           0        2.370077    2.160487    1.815823
     16          6           0        0.095231    2.283929    0.044486
     17          1           0       -0.138315    2.646464    1.053410
     18          1           0       -0.838825    1.960852   -0.448929
     19          8           0        0.667644    3.372290   -0.647616
     20         16           0        0.091161   -2.632147   -0.465657
     21          8           0        0.042186   -3.682424    0.534299
     22          8           0        0.159189   -2.931585   -1.890181
     23          6           0       -1.273802   -1.521919   -0.190576
     24          6           0       -1.773194   -1.388464    1.098163
     25          6           0       -1.781248   -0.804825   -1.265779
     26          6           0       -2.817641   -0.494252    1.305873
     27          1           0       -1.357694   -1.973499    1.919999
     28          6           0       -2.824544    0.080333   -1.025587
     29          1           0       -1.367567   -0.936876   -2.266185
     30          6           0       -3.346788    0.244237    0.253379
     31          1           0       -4.163779    0.945096    0.428815
     32          6           0        4.127895   -2.459736   -1.677345
     33          1           0        3.170491   -2.973883   -1.868589
     34          1           0        4.401245   -1.859845   -2.562067
     35          1           0        4.902305   -3.213731   -1.499336
     36          6           0        5.479865   -0.014702    1.697450
     37          1           0        6.449362    0.485362    1.808468
     38          1           0        5.010955   -0.114577    2.690828
     39          1           0        5.625850   -1.013241    1.262636
     40          6           0        3.056655    3.404386    1.854032
     41          1           0        2.935950    3.808116    2.866366
     42          1           0        4.126504    3.263844    1.638213
     43          1           0        2.618990    4.105191    1.124249
     44          6           0        0.790242    3.165364   -2.046599
     45          1           0        0.965950    4.145863   -2.505310
     46          1           0       -0.135994    2.728795   -2.456735
     47          1           0        1.629505    2.494253   -2.288698
     48          6           0       -3.420978   -0.361018    2.680647
     49          9           0       -2.519332   -0.643199    3.639753
     50          9           0       -4.460678   -1.202942    2.845621
     51          9           0       -3.881060    0.887458    2.891159
     52          6           0       -3.344296    0.933526   -2.152271
     53          9           0       -2.670277    2.105626   -2.224752
     54          9           0       -4.643937    1.236169   -1.982913
     55          9           0       -3.203931    0.320845   -3.341096
 ---------------------------------------------------------------------
 Rotational constants (GHZ):           0.1520621           0.0860679           0.0835960
 Leave Link  202 at Wed Jun  5 17:44:52 2019, MaxMem=  6442450944 cpu:               4.9 elap:               0.2
 (Enter /home/ekwan/sw/g16/l301.exe)
 Standard basis: 6-31G(d) (6D, 7F)
 Ernie: Thresh=  0.10000D-02 Tol=  0.10000D-05 Strict=F.
 There are   543 symmetry adapted cartesian basis functions of A   symmetry.
 There are   543 symmetry adapted basis functions of A   symmetry.
   543 basis functions,  1036 primitive gaussians,   543 cartesian basis functions
   132 alpha electrons      132 beta electrons
       nuclear repulsion energy      4365.6541484536 Hartrees.
 IExCor= 5042 DFT=T Ex+Corr=M11 ExCW=0 ScaHFX=  1.000000
 ScaDFX=  1.000000  1.000000  1.000000  1.000000 ScalE2=  1.000000  1.000000
 IRadAn=      5 IRanWt=     -1 IRanGd=            0 ICorTp=0 IEmpDi=  4
 HFx  wShort=  0.000000 wLong=  0.250000 cFull=  0.428000 cShort=  0.000000 cLong=  0.572000
 DFx  wShort=  0.000000 wLong=  0.250000 cFull=  0.000000 cShort=  0.000000 cLong=  1.000000
 NAtoms=   55 NActive=   55 NUniq=   55 SFac= 1.00D+00 NAtFMM=   60 NAOKFM=F Big=F
 Integral buffers will be    131072 words long.
 Raffenetti 2 integral format.
 Two-electron integral symmetry is turned on.
 ------------------------------------------------------------------------------
 Polarizable Continuum Model (PCM)
 =================================
 Model                : PCM.
 Atomic radii         : UFF (Universal Force Field).
 Polarization charges : Total charges.
 Charge compensation  : None.
 Solution method      : On-the-fly selection.
 Cavity type          : Scaled VdW (van der Waals Surface) (Alpha=1.100).
 Cavity algorithm     : GePol (No added spheres)
                        Default sphere list used, NSphG=   55.
                        Lebedev-Laikov grids with approx.  5.0 points / Ang**2.
                        Smoothing algorithm: York/Karplus (Gamma=1.0000).
                        Polarization charges: spherical gaussians, with
                                              point-specific exponents (IZeta= 3).
                        Self-potential: point-specific (ISelfS= 7).
                        Self-field    : sphere-specific E.n sum rule (ISelfD= 2).
 1st derivatives      : Analytical E(r).r(x)/FMM algorithm (CHGder, D1EAlg=3).
                        Cavity 1st derivative terms included.
 Solvent              : TetraHydroFuran, Eps=   7.425700 Eps(inf)=   1.974025
 ------------------------------------------------------------------------------
 GePol: Number of generator spheres                  =      55
 GePol: Total number of spheres                      =      55
 GePol: Number of exposed spheres                    =      55 (100.00%)
 GePol: Number of points                             =    3873
 GePol: Average weight of points                     =       0.13
 GePol: Minimum weight of points                     =   0.40D-10
 GePol: Maximum weight of points                     =    0.20577
 GePol: Number of points with low weight             =     251
 GePol: Fraction of low-weight points (<1% of avg)   =       6.48%
 GePol: Cavity surface area                          =    485.732 Ang**2
 GePol: Cavity volume                                =    571.773 Ang**3
 Leave Link  301 at Wed Jun  5 17:44:53 2019, MaxMem=  6442450944 cpu:              10.0 elap:               0.4
 (Enter /home/ekwan/sw/g16/l302.exe)
 NPDir=0 NMtPBC=     1 NCelOv=     1 NCel=       1 NClECP=     1 NCelD=      1
         NCelK=      1 NCelE2=     1 NClLst=     1 CellRange=     0.0.
 One-electron integrals computed using PRISM.
 One-electron integral symmetry used in STVInt
 NBasis=   543 RedAO= T EigKep=  4.13D-04  NBF=   543
 NBsUse=   543 1.00D-06 EigRej= -1.00D+00 NBFU=   543
 Precomputing XC quadrature grid using
 IXCGrd= 4 IRadAn=           5 IRanWt=          -1 IRanGd=           0 AccXCQ= 0.00D+00.
 Generated NRdTot=       0 NPtTot=           0 NUsed=           0 NTot=          32
 NSgBfM=   533   532   532   532   533 MxSgAt=    55 MxSgA2=    55.
 Leave Link  302 at Wed Jun  5 17:45:01 2019, MaxMem=  6442450944 cpu:             222.5 elap:               7.8
 (Enter /home/ekwan/sw/g16/l303.exe)
 DipDrv:  MaxL=1.
 Leave Link  303 at Wed Jun  5 17:45:01 2019, MaxMem=  6442450944 cpu:              10.5 elap:               0.6
 (Enter /home/ekwan/sw/g16/l401.exe)
 ExpMin= 1.17D-01 ExpMax= 2.19D+04 ExpMxC= 3.30D+03 IAcc=3 IRadAn=         5 AccDes= 0.00D+00
 Harris functional with IExCor= 1009 and IRadAn=       5 diagonalized for initial guess.
 HarFok:  IExCor= 1009 AccDes= 0.00D+00 IRadAn=         5 IDoV= 1 UseB2=F ITyADJ=14
 ICtDFT=  3500011 ScaDFX=  1.000000  1.000000  1.000000  1.000000
 FoFCou: FMM=F IPFlag=           0 FMFlag=      100000 FMFlg1=           0
         NFxFlg=           0 DoJE=T BraDBF=F KetDBF=T FulRan=T
         wScrn=  0.000000 ICntrl=       500 IOpCl=  0 I1Cent=   200000004 NGrid=           0
         NMat0=    1 NMatS0=      1 NMatT0=    0 NMatD0=    1 NMtDS0=    0 NMtDT0=    0
 Petite list used in FoFCou.
 Harris En= -2257.84121932671    
 JPrj=0 DoOrth=F DoCkMO=F.
 Leave Link  401 at Wed Jun  5 17:45:12 2019, MaxMem=  6442450944 cpu:             321.3 elap:              10.9
 (Enter /home/ekwan/sw/g16/l502.exe)
 Integral symmetry usage will be decided dynamically.
 Closed shell SCF:
 Using DIIS extrapolation, IDIIS=  1040.
 NGot=  6442450944 LenX=  6441838015 LenY=  6441542623
 Requested convergence on RMS density matrix=1.00D-08 within 128 cycles.
 Requested convergence on MAX density matrix=1.00D-06.
 Requested convergence on             energy=1.00D-06.
 No special actions if energy rises.
 Fock matrices will be formed incrementally for  20 cycles.

 Cycle   1  Pass 1  IDiag  1:
 FoFJK:  IHMeth= 1 ICntrl=       0 DoSepK=T KAlg= 0 I1Cent=           0 FoldK=F
 IRaf=         1 NMat=       1 IRICut=       1 DoRegI=T DoRafI=F ISym2E= 0 IDoP0=0 IntGTp=1.
 FoFCou: FMM=F IPFlag=           0 FMFlag=      100000 FMFlg1=           0
         NFxFlg=           0 DoJE=T BraDBF=F KetDBF=F FulRan=T
         wScrn=  0.000000 ICntrl=       500 IOpCl=  0 I1Cent=           0 NGrid=           0
         NMat0=    1 NMatS0=      1 NMatT0=    0 NMatD0=    1 NMtDS0=    0 NMtDT0=    0
 Symmetry not used in FoFCou.
 Inv3:  Mode=1 IEnd=    45000387.
 Iteration    1 A*A^-1 deviation from unit magnitude is 5.11D-15 for   3865.
 Iteration    1 A*A^-1 deviation from orthogonality  is 4.69D-15 for   3853   2789.
 Iteration    1 A^-1*A deviation from unit magnitude is 5.33D-15 for   3865.
 Iteration    1 A^-1*A deviation from orthogonality  is 1.83D-14 for   3344   3313.
 E= -2296.83587486754    
 DIIS: error= 1.63D-02 at cycle   1 NSaved=   1.
 NSaved= 1 IEnMin= 1 EnMin= -2296.83587486754     IErMin= 1 ErrMin= 1.63D-02
 ErrMax= 1.63D-02  0.00D+00 EMaxC= 1.00D-01 BMatC= 5.59D-01 BMatP= 5.59D-01
 IDIUse=3 WtCom= 8.37D-01 WtEn= 1.63D-01
 Coeff-Com:  0.100D+01
 Coeff-En:   0.100D+01
 Coeff:      0.100D+01
 Gap=     0.371 Goal=   None    Shift=    0.000
 GapD=    0.371 DampG=1.000 DampE=0.500 DampFc=0.5000 IDamp=-1.
 Damping current iteration by 5.00D-01
 RMSDP=2.38D-03 MaxDP=3.20D-01              OVMax= 1.05D-01

 Cycle   2  Pass 1  IDiag  1:
 RMSU=  1.19D-03    CP:  1.00D+00
 E= -2297.06736012583     Delta-E=       -0.231485258289 Rises=F Damp=T
 DIIS: error= 5.13D-03 at cycle   2 NSaved=   2.
 NSaved= 2 IEnMin= 2 EnMin= -2297.06736012583     IErMin= 2 ErrMin= 5.13D-03
 ErrMax= 5.13D-03  0.00D+00 EMaxC= 1.00D-01 BMatC= 4.07D-02 BMatP= 5.59D-01
 IDIUse=3 WtCom= 9.49D-01 WtEn= 5.13D-02
 Coeff-Com: -0.512D-01 0.105D+01
 Coeff-En:   0.000D+00 0.100D+01
 Coeff:     -0.486D-01 0.105D+01
 Gap=     0.379 Goal=   None    Shift=    0.000
 RMSDP=7.33D-04 MaxDP=4.00D-02 DE=-2.31D-01 OVMax= 7.08D-02

 Cycle   3  Pass 1  IDiag  1:
 RMSU=  7.02D-04    CP:  1.00D+00  1.18D+00
 E= -2297.29518198699     Delta-E=       -0.227821861165 Rises=F Damp=F
 DIIS: error= 4.72D-03 at cycle   3 NSaved=   3.
 NSaved= 3 IEnMin= 3 EnMin= -2297.29518198699     IErMin= 3 ErrMin= 4.72D-03
 ErrMax= 4.72D-03  0.00D+00 EMaxC= 1.00D-01 BMatC= 1.73D-02 BMatP= 4.07D-02
 IDIUse=3 WtCom= 9.53D-01 WtEn= 4.72D-02
 Coeff-Com: -0.798D-01 0.405D+00 0.674D+00
 Coeff-En:   0.000D+00 0.000D+00 0.100D+01
 Coeff:     -0.760D-01 0.386D+00 0.690D+00
 Gap=     0.350 Goal=   None    Shift=    0.000
 RMSDP=2.63D-04 MaxDP=2.10D-02 DE=-2.28D-01 OVMax= 2.36D-02

 Cycle   4  Pass 1  IDiag  1:
 RMSU=  2.20D-04    CP:  1.00D+00  1.25D+00  8.35D-01
 E= -2297.30620530089     Delta-E=       -0.011023313896 Rises=F Damp=F
 DIIS: error= 1.33D-03 at cycle   4 NSaved=   4.
 NSaved= 4 IEnMin= 4 EnMin= -2297.30620530089     IErMin= 4 ErrMin= 1.33D-03
 ErrMax= 1.33D-03  0.00D+00 EMaxC= 1.00D-01 BMatC= 2.37D-03 BMatP= 1.73D-02
 IDIUse=3 WtCom= 9.87D-01 WtEn= 1.33D-02
 Coeff-Com: -0.222D-01 0.282D-01 0.285D+00 0.709D+00
 Coeff-En:   0.000D+00 0.000D+00 0.212D-01 0.979D+00
 Coeff:     -0.219D-01 0.278D-01 0.282D+00 0.713D+00
 Gap=     0.353 Goal=   None    Shift=    0.000
 RMSDP=9.36D-05 MaxDP=5.87D-03 DE=-1.10D-02 OVMax= 7.60D-03

 Cycle   5  Pass 1  IDiag  1:
 RMSU=  5.68D-05    CP:  1.00D+00  1.25D+00  9.15D-01  7.86D-01
 E= -2297.30801420693     Delta-E=       -0.001808906044 Rises=F Damp=F
 DIIS: error= 4.11D-04 at cycle   5 NSaved=   5.
 NSaved= 5 IEnMin= 5 EnMin= -2297.30801420693     IErMin= 5 ErrMin= 4.11D-04
 ErrMax= 4.11D-04  0.00D+00 EMaxC= 1.00D-01 BMatC= 1.52D-04 BMatP= 2.37D-03
 IDIUse=3 WtCom= 9.96D-01 WtEn= 4.11D-03
 Coeff-Com: -0.412D-02-0.808D-02 0.668D-01 0.270D+00 0.675D+00
 Coeff-En:   0.000D+00 0.000D+00 0.000D+00 0.000D+00 0.100D+01
 Coeff:     -0.410D-02-0.805D-02 0.665D-01 0.269D+00 0.677D+00
 Gap=     0.353 Goal=   None    Shift=    0.000
 RMSDP=2.41D-05 MaxDP=2.35D-03 DE=-1.81D-03 OVMax= 2.07D-03

 Cycle   6  Pass 1  IDiag  1:
 RMSU=  2.01D-05    CP:  1.00D+00  1.26D+00  9.23D-01  8.32D-01  9.53D-01
 E= -2297.30813274727     Delta-E=       -0.000118540334 Rises=F Damp=F
 DIIS: error= 1.74D-04 at cycle   6 NSaved=   6.
 NSaved= 6 IEnMin= 6 EnMin= -2297.30813274727     IErMin= 6 ErrMin= 1.74D-04
 ErrMax= 1.74D-04  0.00D+00 EMaxC= 1.00D-01 BMatC= 1.89D-05 BMatP= 1.52D-04
 IDIUse=3 WtCom= 9.98D-01 WtEn= 1.74D-03
 Coeff-Com:  0.139D-02-0.684D-02-0.179D-01-0.631D-02 0.244D+00 0.786D+00
 Coeff-En:   0.000D+00 0.000D+00 0.000D+00 0.000D+00 0.000D+00 0.100D+01
 Coeff:      0.139D-02-0.682D-02-0.178D-01-0.630D-02 0.243D+00 0.786D+00
 Gap=     0.353 Goal=   None    Shift=    0.000
 RMSDP=1.10D-05 MaxDP=7.14D-04 DE=-1.19D-04 OVMax= 9.94D-04

 Cycle   7  Pass 1  IDiag  1:
 RMSU=  7.50D-06    CP:  1.00D+00  1.26D+00  9.26D-01  8.49D-01  1.07D+00
                    CP:  1.01D+00
 E= -2297.30815174618     Delta-E=       -0.000018998913 Rises=F Damp=F
 DIIS: error= 4.77D-05 at cycle   7 NSaved=   7.
 NSaved= 7 IEnMin= 7 EnMin= -2297.30815174618     IErMin= 7 ErrMin= 4.77D-05
 ErrMax= 4.77D-05  0.00D+00 EMaxC= 1.00D-01 BMatC= 1.46D-06 BMatP= 1.89D-05
 IDIUse=1 WtCom= 1.00D+00 WtEn= 0.00D+00
 Coeff-Com:  0.831D-03-0.137D-02-0.131D-01-0.310D-01-0.475D-02 0.209D+00
 Coeff-Com:  0.840D+00
 Coeff:      0.831D-03-0.137D-02-0.131D-01-0.310D-01-0.475D-02 0.209D+00
 Coeff:      0.840D+00
 Gap=     0.353 Goal=   None    Shift=    0.000
 RMSDP=4.30D-06 MaxDP=1.89D-04 DE=-1.90D-05 OVMax= 6.13D-04

 Cycle   8  Pass 1  IDiag  1:
 RMSU=  2.65D-06    CP:  1.00D+00  1.26D+00  9.27D-01  8.51D-01  1.11D+00
                    CP:  1.13D+00  1.05D+00
 E= -2297.30815399246     Delta-E=       -0.000002246275 Rises=F Damp=F
 DIIS: error= 1.75D-05 at cycle   8 NSaved=   8.
 NSaved= 8 IEnMin= 8 EnMin= -2297.30815399246     IErMin= 8 ErrMin= 1.75D-05
 ErrMax= 1.75D-05  0.00D+00 EMaxC= 1.00D-01 BMatC= 3.56D-07 BMatP= 1.46D-06
 IDIUse=1 WtCom= 1.00D+00 WtEn= 0.00D+00
 Coeff-Com:  0.174D-03 0.333D-03-0.324D-02-0.118D-01-0.320D-01-0.771D-02
 Coeff-Com:  0.361D+00 0.693D+00
 Coeff:      0.174D-03 0.333D-03-0.324D-02-0.118D-01-0.320D-01-0.771D-02
 Coeff:      0.361D+00 0.693D+00
 Gap=     0.353 Goal=   None    Shift=    0.000
 RMSDP=1.52D-06 MaxDP=6.98D-05 DE=-2.25D-06 OVMax= 3.01D-04

 Cycle   9  Pass 1  IDiag  1:
 RMSU=  9.74D-07    CP:  1.00D+00  1.26D+00  9.26D-01  8.52D-01  1.12D+00
                    CP:  1.16D+00  1.17D+00  9.85D-01
 E= -2297.30815443800     Delta-E=       -0.000000445548 Rises=F Damp=F
 DIIS: error= 1.16D-05 at cycle   9 NSaved=   9.
 NSaved= 9 IEnMin= 9 EnMin= -2297.30815443800     IErMin= 9 ErrMin= 1.16D-05
 ErrMax= 1.16D-05  0.00D+00 EMaxC= 1.00D-01 BMatC= 3.42D-08 BMatP= 3.56D-07
 IDIUse=1 WtCom= 1.00D+00 WtEn= 0.00D+00
 Coeff-Com: -0.669D-04 0.290D-03 0.141D-02 0.224D-02-0.923D-02-0.380D-01
 Coeff-Com: -0.502D-01 0.152D+00 0.942D+00
 Coeff:     -0.669D-04 0.290D-03 0.141D-02 0.224D-02-0.923D-02-0.380D-01
 Coeff:     -0.502D-01 0.152D+00 0.942D+00
 Gap=     0.353 Goal=   None    Shift=    0.000
 RMSDP=8.07D-07 MaxDP=3.21D-05 DE=-4.46D-07 OVMax= 1.48D-04

 Cycle  10  Pass 1  IDiag  1:
 RMSU=  3.98D-07    CP:  1.00D+00  1.26D+00  9.26D-01  8.52D-01  1.12D+00
                    CP:  1.17D+00  1.22D+00  1.15D+00  1.17D+00
 E= -2297.30815451711     Delta-E=       -0.000000079105 Rises=F Damp=F
 DIIS: error= 2.36D-06 at cycle  10 NSaved=  10.
 NSaved=10 IEnMin=10 EnMin= -2297.30815451711     IErMin=10 ErrMin= 2.36D-06
 ErrMax= 2.36D-06  0.00D+00 EMaxC= 1.00D-01 BMatC= 6.04D-09 BMatP= 3.42D-08
 IDIUse=1 WtCom= 1.00D+00 WtEn= 0.00D+00
 Coeff-Com: -0.259D-04-0.237D-04 0.890D-03 0.254D-02 0.235D-02-0.813D-02
 Coeff-Com: -0.707D-01-0.723D-01 0.295D+00 0.850D+00
 Coeff:     -0.259D-04-0.237D-04 0.890D-03 0.254D-02 0.235D-02-0.813D-02
 Coeff:     -0.707D-01-0.723D-01 0.295D+00 0.850D+00
 Gap=     0.353 Goal=   None    Shift=    0.000
 RMSDP=2.84D-07 MaxDP=1.16D-05 DE=-7.91D-08 OVMax= 6.47D-05

 Cycle  11  Pass 1  IDiag  1:
 RMSU=  1.48D-07    CP:  1.00D+00  1.26D+00  9.26D-01  8.52D-01  1.12D+00
                    CP:  1.17D+00  1.23D+00  1.20D+00  1.34D+00  1.05D+00
 E= -2297.30815452836     Delta-E=       -0.000000011252 Rises=F Damp=F
 DIIS: error= 9.31D-07 at cycle  11 NSaved=  11.
 NSaved=11 IEnMin=11 EnMin= -2297.30815452836     IErMin=11 ErrMin= 9.31D-07
 ErrMax= 9.31D-07  0.00D+00 EMaxC= 1.00D-01 BMatC= 8.27D-10 BMatP= 6.04D-09
 IDIUse=1 WtCom= 1.00D+00 WtEn= 0.00D+00
 Coeff-Com:  0.915D-06-0.415D-04 0.184D-03 0.652D-03 0.155D-02 0.681D-03
 Coeff-Com: -0.184D-01-0.395D-01 0.822D-02 0.291D+00 0.756D+00
 Coeff:      0.915D-06-0.415D-04 0.184D-03 0.652D-03 0.155D-02 0.681D-03
 Coeff:     -0.184D-01-0.395D-01 0.822D-02 0.291D+00 0.756D+00
 Gap=     0.353 Goal=   None    Shift=    0.000
 RMSDP=8.54D-08 MaxDP=5.31D-06 DE=-1.13D-08 OVMax= 1.89D-05

 Cycle  12  Pass 1  IDiag  1:
 RMSU=  6.06D-08    CP:  1.00D+00  1.26D+00  9.26D-01  8.52D-01  1.12D+00
                    CP:  1.17D+00  1.23D+00  1.21D+00  1.38D+00  1.16D+00
                    CP:  1.05D+00
 E= -2297.30815452946     Delta-E=       -0.000000001095 Rises=F Damp=F
 DIIS: error= 5.72D-07 at cycle  12 NSaved=  12.
 NSaved=12 IEnMin=12 EnMin= -2297.30815452946     IErMin=12 ErrMin= 5.72D-07
 ErrMax= 5.72D-07  0.00D+00 EMaxC= 1.00D-01 BMatC= 2.22D-10 BMatP= 8.27D-10
 IDIUse=1 WtCom= 1.00D+00 WtEn= 0.00D+00
 Coeff-Com:  0.733D-05-0.143D-04-0.115D-03-0.297D-03 0.128D-03 0.213D-02
 Coeff-Com:  0.862D-02-0.117D-02-0.698D-01-0.654D-01 0.362D+00 0.764D+00
 Coeff:      0.733D-05-0.143D-04-0.115D-03-0.297D-03 0.128D-03 0.213D-02
 Coeff:      0.862D-02-0.117D-02-0.698D-01-0.654D-01 0.362D+00 0.764D+00
 Gap=     0.353 Goal=   None    Shift=    0.000
 RMSDP=4.38D-08 MaxDP=2.28D-06 DE=-1.10D-09 OVMax= 7.17D-06

 Cycle  13  Pass 1  IDiag  1:
 RMSU=  1.93D-08    CP:  1.00D+00  1.26D+00  9.26D-01  8.52D-01  1.12D+00
                    CP:  1.17D+00  1.23D+00  1.21D+00  1.39D+00  1.21D+00
                    CP:  1.24D+00  9.17D-01
 E= -2297.30815452974     Delta-E=       -0.000000000282 Rises=F Damp=F
 DIIS: error= 8.03D-08 at cycle  13 NSaved=  13.
 NSaved=13 IEnMin=13 EnMin= -2297.30815452974     IErMin=13 ErrMin= 8.03D-08
 ErrMax= 8.03D-08  0.00D+00 EMaxC= 1.00D-01 BMatC= 9.64D-12 BMatP= 2.22D-10
 IDIUse=1 WtCom= 1.00D+00 WtEn= 0.00D+00
 Coeff-Com:  0.122D-05 0.139D-05-0.382D-04-0.121D-03-0.119D-03 0.350D-03
 Coeff-Com:  0.372D-02 0.380D-02-0.167D-01-0.414D-01 0.131D-01 0.176D+00
 Coeff-Com:  0.861D+00
 Coeff:      0.122D-05 0.139D-05-0.382D-04-0.121D-03-0.119D-03 0.350D-03
 Coeff:      0.372D-02 0.380D-02-0.167D-01-0.414D-01 0.131D-01 0.176D+00
 Coeff:      0.861D+00
 Gap=     0.353 Goal=   None    Shift=    0.000
 RMSDP=1.26D-08 MaxDP=4.86D-07 DE=-2.82D-10 OVMax= 1.59D-06

 Cycle  14  Pass 1  IDiag  1:
 RMSU=  6.84D-09    CP:  1.00D+00  1.26D+00  9.26D-01  8.52D-01  1.12D+00
                    CP:  1.17D+00  1.23D+00  1.21D+00  1.39D+00  1.23D+00
                    CP:  1.28D+00  1.00D+00  1.10D+00
 E= -2297.30815452975     Delta-E=       -0.000000000013 Rises=F Damp=F
 DIIS: error= 3.14D-08 at cycle  14 NSaved=  14.
 NSaved=14 IEnMin=14 EnMin= -2297.30815452975     IErMin=14 ErrMin= 3.14D-08
 ErrMax= 3.14D-08  0.00D+00 EMaxC= 1.00D-01 BMatC= 1.73D-12 BMatP= 9.64D-12
 IDIUse=1 WtCom= 1.00D+00 WtEn= 0.00D+00
 Coeff-Com: -0.574D-06 0.219D-05 0.602D-06-0.519D-05-0.630D-04-0.165D-03
 Coeff-Com:  0.264D-03 0.156D-02 0.246D-02-0.692D-02-0.390D-01-0.312D-01
 Coeff-Com:  0.297D+00 0.776D+00
 Coeff:     -0.574D-06 0.219D-05 0.602D-06-0.519D-05-0.630D-04-0.165D-03
 Coeff:      0.264D-03 0.156D-02 0.246D-02-0.692D-02-0.390D-01-0.312D-01
 Coeff:      0.297D+00 0.776D+00
 Gap=     0.353 Goal=   None    Shift=    0.000
 RMSDP=4.19D-09 MaxDP=2.00D-07 DE=-1.27D-11 OVMax= 7.73D-07

 Error on total polarization charges =  0.00893
 SCF Done:  E(RM11) =  -2297.30815453     A.U. after   14 cycles
            NFock= 14  Conv=0.42D-08     -V/T= 2.0084
 KE= 2.278134818762D+03 PE=-1.413325680635D+04 EE= 5.192159684608D+03
 Leave Link  502 at Wed Jun  5 17:58:15 2019, MaxMem=  6442450944 cpu:           24434.9 elap:             783.0
 (Enter /home/ekwan/sw/g16/l701.exe)
 ... and contract with generalized density number  0.
 Compute integral first derivatives.
 D1PCM: PCM CHGder 1st derivatives, ID1Alg=3 FixD1E=F DoIter=F DoCFld=F I1PDM=0.
 GePol: Maximum number of non-zero 1st derivatives   =     212
 Leave Link  701 at Wed Jun  5 17:58:27 2019, MaxMem=  6442450944 cpu:             345.4 elap:              12.0
 (Enter /home/ekwan/sw/g16/l702.exe)
 L702 exits ... SP integral derivatives will be done elsewhere.
 Leave Link  702 at Wed Jun  5 17:58:27 2019, MaxMem=  6442450944 cpu:               3.2 elap:               0.2
 (Enter /home/ekwan/sw/g16/l703.exe)
 Integral derivatives from FoFJK, PRISM(SPDF).
 Compute integral first derivatives, UseDBF=F ICtDFT=           0.
 Calling FoFJK, ICntrl=      2127 FMM=F ISym2X=0 I1Cent= 0 IOpClX= 0 NMat=1 NMatS=1 NMatT=0.
 FoFJK:  IHMeth= 1 ICntrl=    2127 DoSepK=T KAlg= 0 I1Cent=           0 FoldK=F
 IRaf=         1 NMat=       1 IRICut=       1 DoRegI=T DoRafI=F ISym2E= 0 IDoP0=0 IntGTp=1.
 FoFCou: FMM=F IPFlag=           0 FMFlag=      100000 FMFlg1=         800
         NFxFlg=           0 DoJE=F BraDBF=F KetDBF=F FulRan=T
         wScrn=  0.000000 ICntrl=      2527 IOpCl=  0 I1Cent=           0 NGrid=           0
         NMat0=    1 NMatS0=      1 NMatT0=    0 NMatD0=    1 NMtDS0=    0 NMtDT0=    0
 Symmetry not used in FoFCou.
 Leave Link  703 at Wed Jun  5 18:01:19 2019, MaxMem=  6442450944 cpu:            5143.3 elap:             171.1
 (Enter /home/ekwan/sw/g16/l716.exe)
 Dipole        = 3.19407787D-01 1.01211235D+00-7.04625811D-01
 ***** Axes restored to original set *****
 -------------------------------------------------------------------
 Center     Atomic                   Forces (Hartrees/Bohr)
 Number     Number              X              Y              Z
 -------------------------------------------------------------------
      1        6          -0.000008490    0.000006509    0.000004789
      2        6           0.000006336   -0.000001711    0.000004255
      3        6          -0.000006294    0.000016835   -0.000015177
      4        6          -0.000000134    0.000001284    0.000005338
      5        6           0.000004153   -0.000002992   -0.000011618
      6        1           0.000003844   -0.000000427    0.000002919
      7        1          -0.000000658    0.000000139    0.000000918
      8        1           0.000000547    0.000000507   -0.000000831
      9        1           0.000000399   -0.000000380   -0.000001620
     10        1          -0.000001988    0.000000619    0.000000353
     11        8           0.000002144   -0.000011470   -0.000002895
     12        8          -0.000008396   -0.000015711    0.000008501
     13        8          -0.000000166    0.000002977    0.000001762
     14        8           0.000005555    0.000000913   -0.000003836
     15        8          -0.000001225    0.000004425    0.000007374
     16        6          -0.000000671    0.000008998    0.000000011
     17        1          -0.000001562   -0.000001610   -0.000003830
     18        1          -0.000001773   -0.000003079   -0.000001110
     19        8          -0.000000883   -0.000006206    0.000000577
     20       16           0.000009385    0.000004295    0.000001843
     21        8           0.000001231   -0.000000163    0.000002512
     22        8           0.000002416   -0.000000421    0.000002853
     23        6           0.000001920    0.000001569    0.000002269
     24        6           0.000003155   -0.000001846    0.000000894
     25        6          -0.000002390   -0.000000517   -0.000001890
     26        6           0.000000192   -0.000000323    0.000000055
     27        1           0.000000293    0.000002221    0.000000403
     28        6           0.000004080   -0.000005071   -0.000002112
     29        1           0.000000486   -0.000001991    0.000002615
     30        6          -0.000003207    0.000001132    0.000002570
     31        1           0.000000832   -0.000003599   -0.000001431
     32        6           0.000001898    0.000000657   -0.000001363
     33        1           0.000001887   -0.000000121    0.000001833
     34        1           0.000000272   -0.000000413    0.000002323
     35        1           0.000000744    0.000000694    0.000002415
     36        6          -0.000001188    0.000002706    0.000002828
     37        1          -0.000000910    0.000002851   -0.000000204
     38        1           0.000000771    0.000003029   -0.000000650
     39        1           0.000000702    0.000002891    0.000000814
     40        6          -0.000000865    0.000004098   -0.000005821
     41        1          -0.000000209    0.000001428   -0.000001335
     42        1          -0.000001814    0.000001971   -0.000000767
     43        1          -0.000001405    0.000000210    0.000000259
     44        6          -0.000002444   -0.000000333   -0.000001946
     45        1          -0.000001955   -0.000001973   -0.000002094
     46        1          -0.000000024   -0.000001437   -0.000001158
     47        1          -0.000001001   -0.000000967   -0.000001230
     48        6           0.000003173   -0.000003695    0.000004313
     49        9          -0.000001407    0.000001282   -0.000001338
     50        9          -0.000000793   -0.000000325   -0.000000654
     51        9          -0.000000790    0.000002777   -0.000000152
     52        6          -0.000002683   -0.000003007   -0.000002034
     53        9          -0.000000927   -0.000003188    0.000000026
     54        9          -0.000000315   -0.000002468   -0.000001227
     55        9           0.000000152   -0.000001577    0.000000700
 -------------------------------------------------------------------
 Cartesian Forces:  Max     0.000016835 RMS     0.000003756
 Leave Link  716 at Wed Jun  5 18:01:19 2019, MaxMem=  6442450944 cpu:               3.5 elap:               0.2
 (Enter /home/ekwan/sw/g16/l103.exe)

 GradGradGradGradGradGradGradGradGradGradGradGradGradGradGradGradGradGrad
 Berny optimization.
 FormGI is forming the generalized inverse of G from B-inverse, IUseBI=4.
 GSVD:  received Info=                   1 from GESDD.
 Internal  Forces:  Max     0.000012022 RMS     0.000001898
 Search for a local minimum.
 Step number   1 out of a maximum of  291
 All quantities printed in internal units (Hartrees-Bohrs-Radians)
 RMS Force = .18982D-05 SwitMx=.10000D-02 MixMth= 2
 Mixed Optimization -- En-DIIS/RFO-DIIS
 Second derivative matrix not updated -- first step.
 ITU=  0
     Eigenvalues ---    0.00434   0.00580   0.00624   0.00670   0.00689
     Eigenvalues ---    0.00699   0.00911   0.01408   0.01410   0.01418
     Eigenvalues ---    0.01434   0.01442   0.01536   0.01542   0.01545
     Eigenvalues ---    0.01576   0.01638   0.01644   0.01646   0.02211
     Eigenvalues ---    0.02214   0.02223   0.02227   0.02237   0.02239
     Eigenvalues ---    0.02406   0.02947   0.03348   0.04537   0.04662
     Eigenvalues ---    0.04797   0.04864   0.04925   0.05207   0.05265
     Eigenvalues ---    0.05820   0.06011   0.06550   0.06973   0.07044
     Eigenvalues ---    0.07184   0.07770   0.09314   0.10080   0.10112
     Eigenvalues ---    0.10136   0.10214   0.10522   0.10551   0.10579
     Eigenvalues ---    0.10589   0.10621   0.10792   0.10886   0.10923
     Eigenvalues ---    0.10936   0.11007   0.11339   0.11753   0.11979
     Eigenvalues ---    0.14059   0.14710   0.16000   0.16000   0.16000
     Eigenvalues ---    0.16000   0.16000   0.16000   0.16000   0.16000
     Eigenvalues ---    0.16000   0.16000   0.16000   0.16000   0.16000
     Eigenvalues ---    0.16000   0.16000   0.16359   0.16836   0.17359
     Eigenvalues ---    0.18597   0.19542   0.19776   0.20762   0.22147
     Eigenvalues ---    0.23479   0.23490   0.23505   0.24952   0.24979
     Eigenvalues ---    0.24995   0.25000   0.25000   0.25000   0.25000
     Eigenvalues ---    0.25000   0.25000   0.25000   0.25000   0.25000
     Eigenvalues ---    0.25000   0.25000   0.25000   0.27207   0.27686
     Eigenvalues ---    0.28721   0.29117   0.29278   0.29884   0.31630
     Eigenvalues ---    0.31774   0.32833   0.33066   0.33166   0.33171
     Eigenvalues ---    0.33245   0.33306   0.33317   0.33347   0.33350
     Eigenvalues ---    0.33419   0.33514   0.33637   0.33810   0.33991
     Eigenvalues ---    0.34054   0.34068   0.34072   0.34087   0.34196
     Eigenvalues ---    0.34695   0.34741   0.34745   0.37083   0.38174
     Eigenvalues ---    0.42263   0.42361   0.42535   0.42627   0.43053
     Eigenvalues ---    0.43171   0.43729   0.43795   0.43830   0.45024
     Eigenvalues ---    0.46284   0.47190   0.47351   0.47403   0.47555
     Eigenvalues ---    0.48232   0.54175   0.55455   0.55643   0.55820
     Eigenvalues ---    0.56073   0.56151   0.92776   0.95496
 RFO step:  Lambda= 0.00000000D+00 EMin= 4.34454417D-03
 Linear search not attempted -- first point.
 Iteration  1 RMS(Cart)=  0.00036918 RMS(Int)=  0.00000001
 Iteration  2 RMS(Cart)=  0.00000003 RMS(Int)=  0.00000000
 ITry= 1 IFail=0 DXMaxC= 1.37D-03 DCOld= 1.00D+10 DXMaxT= 3.00D-01 DXLimC= 3.00D+00 Rises=F
 Variable       Old X    -DE/DX   Delta X   Delta X   Delta X     New X
                                 (Linear)    (Quad)   (Total)
    R1        2.88891   0.00000   0.00000   0.00000   0.00000   2.88890
    R2        2.88102   0.00000   0.00000  -0.00001  -0.00001   2.88101
    R3        2.08936   0.00000   0.00000   0.00000   0.00000   2.08936
    R4        2.66781   0.00000   0.00000   0.00001   0.00001   2.66781
    R5        2.90472   0.00000   0.00000   0.00001   0.00001   2.90473
    R6        2.09347   0.00000   0.00000   0.00000   0.00000   2.09346
    R7        2.65248   0.00000   0.00000   0.00000   0.00000   2.65248
    R8        2.07184   0.00000   0.00000  -0.00001  -0.00001   2.07184
    R9        2.61689  -0.00001   0.00000  -0.00002  -0.00002   2.61687
   R10        2.75721   0.00001   0.00000   0.00003   0.00003   2.75724
   R11        2.88711   0.00000   0.00000   0.00001   0.00001   2.88711
   R12        2.08761   0.00000   0.00000   0.00000   0.00000   2.08761
   R13        2.72145   0.00000   0.00000   0.00001   0.00001   2.72146
   R14        2.88195   0.00000   0.00000   0.00000   0.00000   2.88195
   R15        2.08624   0.00000   0.00000   0.00000   0.00000   2.08623
   R16        2.66701   0.00001   0.00000   0.00002   0.00002   2.66703
   R17        3.05393  -0.00001   0.00000  -0.00002  -0.00002   3.05390
   R18        2.68133   0.00000   0.00000   0.00000   0.00000   2.68133
   R19        2.68466   0.00000   0.00000   0.00000   0.00000   2.68466
   R20        2.68589   0.00000   0.00000   0.00000   0.00000   2.68590
   R21        2.07346   0.00000   0.00000  -0.00001  -0.00001   2.07345
   R22        2.08753   0.00000   0.00000   0.00001   0.00001   2.08753
   R23        2.66658  -0.00001   0.00000  -0.00001  -0.00001   2.66657
   R24        2.68248   0.00000   0.00000   0.00000   0.00000   2.68248
   R25        2.74199   0.00000   0.00000   0.00000   0.00000   2.74199
   R26        2.75379   0.00000   0.00000   0.00000   0.00000   2.75379
   R27        3.36530   0.00000   0.00000   0.00001   0.00001   3.36532
   R28        2.62397   0.00000   0.00000   0.00000   0.00000   2.62397
   R29        2.62379   0.00000   0.00000   0.00001   0.00001   2.62379
   R30        2.62776   0.00000   0.00000   0.00000   0.00000   2.62776
   R31        2.06173   0.00000   0.00000  -0.00001  -0.00001   2.06172
   R32        2.62506   0.00000   0.00000   0.00000   0.00000   2.62506
   R33        2.06091   0.00000   0.00000  -0.00001  -0.00001   2.06091
   R34        2.62740   0.00000   0.00000   0.00000   0.00000   2.62740
   R35        2.84827   0.00000   0.00000   0.00000   0.00000   2.84827
   R36        2.62893   0.00000   0.00000   0.00000   0.00000   2.62894
   R37        2.84559   0.00000   0.00000   0.00001   0.00001   2.84560
   R38        2.06098   0.00000   0.00000  -0.00001  -0.00001   2.06097
   R39        2.08517   0.00000   0.00000   0.00000   0.00000   2.08517
   R40        2.08498   0.00000   0.00000   0.00000   0.00000   2.08498
   R41        2.07001   0.00000   0.00000   0.00000   0.00000   2.07001
   R42        2.07209   0.00000   0.00000   0.00000   0.00000   2.07208
   R43        2.08440   0.00000   0.00000   0.00000   0.00000   2.08440
   R44        2.07651   0.00000   0.00000   0.00000   0.00000   2.07651
   R45        2.07215   0.00000   0.00000   0.00000   0.00000   2.07215
   R46        2.07948   0.00000   0.00000   0.00000   0.00000   2.07948
   R47        2.08321   0.00000   0.00000  -0.00001  -0.00001   2.08321
   R48        2.07239   0.00000   0.00000   0.00000   0.00000   2.07239
   R49        2.08446   0.00000   0.00000   0.00000   0.00000   2.08446
   R50        2.08159   0.00000   0.00000   0.00000   0.00000   2.08159
   R51        2.54410   0.00000   0.00000   0.00000   0.00000   2.54410
   R52        2.54730   0.00000   0.00000   0.00000   0.00000   2.54730
   R53        2.54565   0.00000   0.00000   0.00001   0.00001   2.54566
   R54        2.55873   0.00000   0.00000   0.00000   0.00000   2.55873
   R55        2.54190   0.00000   0.00000   0.00000   0.00000   2.54190
   R56        2.54123   0.00000   0.00000   0.00000   0.00000   2.54123
    A1        1.91901   0.00000   0.00000   0.00000   0.00000   1.91902
    A2        1.89952   0.00000   0.00000  -0.00001  -0.00001   1.89951
    A3        1.93322   0.00000   0.00000  -0.00002  -0.00002   1.93320
    A4        1.90109   0.00000   0.00000   0.00000   0.00000   1.90110
    A5        1.88178   0.00000   0.00000   0.00002   0.00002   1.88181
    A6        1.92900   0.00000   0.00000   0.00000   0.00000   1.92900
    A7        1.93422   0.00000   0.00000   0.00001   0.00001   1.93423
    A8        1.89468   0.00000   0.00000  -0.00001  -0.00001   1.89467
    A9        1.88829   0.00000   0.00000   0.00001   0.00001   1.88830
   A10        1.85595   0.00000   0.00000  -0.00001  -0.00001   1.85594
   A11        1.95640   0.00000   0.00000   0.00000   0.00000   1.95640
   A12        1.93375   0.00000   0.00000   0.00000   0.00000   1.93375
   A13        1.96025   0.00000   0.00000  -0.00001  -0.00001   1.96024
   A14        1.97811   0.00000   0.00000   0.00002   0.00002   1.97812
   A15        1.83880   0.00000   0.00000  -0.00001  -0.00001   1.83879
   A16        1.86416   0.00000   0.00000   0.00002   0.00002   1.86418
   A17        1.88697   0.00000   0.00000   0.00001   0.00001   1.88699
   A18        1.93476   0.00000   0.00000  -0.00004  -0.00004   1.93472
   A19        1.90495   0.00000   0.00000   0.00000   0.00000   1.90495
   A20        1.92066   0.00000   0.00000  -0.00001  -0.00001   1.92065
   A21        1.94351   0.00000   0.00000   0.00002   0.00002   1.94354
   A22        1.89982   0.00000   0.00000  -0.00001  -0.00001   1.89982
   A23        1.89347   0.00000   0.00000   0.00000   0.00000   1.89347
   A24        1.90074   0.00000   0.00000  -0.00001  -0.00001   1.90073
   A25        1.93611   0.00000   0.00000  -0.00002  -0.00002   1.93609
   A26        1.89954   0.00000   0.00000   0.00002   0.00002   1.89956
   A27        1.92686   0.00000   0.00000  -0.00002  -0.00002   1.92683
   A28        1.89545   0.00000   0.00000   0.00001   0.00001   1.89546
   A29        1.87648   0.00000   0.00000   0.00002   0.00002   1.87650
   A30        1.92930   0.00000   0.00000   0.00000   0.00000   1.92930
   A31        2.00037   0.00000   0.00000  -0.00001  -0.00001   2.00035
   A32        2.05131  -0.00001   0.00000  -0.00003  -0.00003   2.05127
   A33        1.99364   0.00000   0.00000   0.00000   0.00000   1.99364
   A34        1.99498   0.00000   0.00000  -0.00001  -0.00001   1.99497
   A35        1.97936   0.00000   0.00000  -0.00001  -0.00001   1.97935
   A36        1.88056   0.00000   0.00000   0.00001   0.00001   1.88057
   A37        1.90408   0.00000   0.00000  -0.00002  -0.00002   1.90407
   A38        1.98743   0.00000   0.00000  -0.00001  -0.00001   1.98742
   A39        1.90432   0.00000   0.00000   0.00000   0.00000   1.90431
   A40        1.85720   0.00000   0.00000   0.00002   0.00002   1.85722
   A41        1.92783   0.00000   0.00000   0.00000   0.00000   1.92783
   A42        1.98885   0.00000   0.00000  -0.00001  -0.00001   1.98884
   A43        1.83457   0.00000   0.00000   0.00000   0.00000   1.83457
   A44        1.88818   0.00000   0.00000  -0.00001  -0.00001   1.88818
   A45        1.80255   0.00000   0.00000  -0.00001  -0.00001   1.80254
   A46        2.12530   0.00000   0.00000   0.00000   0.00000   2.12530
   A47        1.89540   0.00000   0.00000   0.00001   0.00001   1.89541
   A48        1.89113   0.00000   0.00000   0.00000   0.00000   1.89113
   A49        2.07025   0.00000   0.00000   0.00000   0.00000   2.07025
   A50        2.07429   0.00000   0.00000   0.00000   0.00000   2.07430
   A51        2.13844   0.00000   0.00000   0.00000   0.00000   2.13844
   A52        2.06074   0.00000   0.00000   0.00000   0.00000   2.06074
   A53        2.10671   0.00000   0.00000   0.00000   0.00000   2.10671
   A54        2.11573   0.00000   0.00000  -0.00001  -0.00001   2.11572
   A55        2.05974   0.00000   0.00000   0.00000   0.00000   2.05974
   A56        2.10504   0.00000   0.00000  -0.00001  -0.00001   2.10503
   A57        2.11841   0.00000   0.00000   0.00000   0.00000   2.11841
   A58        2.11104   0.00000   0.00000   0.00000   0.00000   2.11104
   A59        2.08719   0.00000   0.00000   0.00001   0.00001   2.08720
   A60        2.08423   0.00000   0.00000  -0.00001  -0.00001   2.08422
   A61        2.11295   0.00000   0.00000   0.00000   0.00000   2.11295
   A62        2.08392   0.00000   0.00000   0.00001   0.00001   2.08393
   A63        2.08466   0.00000   0.00000  -0.00001  -0.00001   2.08464
   A64        2.08345   0.00000   0.00000   0.00000   0.00000   2.08345
   A65        2.09978   0.00000   0.00000   0.00000   0.00000   2.09978
   A66        2.09996   0.00000   0.00000   0.00000   0.00000   2.09996
   A67        1.94573   0.00000   0.00000   0.00000   0.00000   1.94573
   A68        1.93752   0.00000   0.00000   0.00000   0.00000   1.93752
   A69        1.86930   0.00000   0.00000   0.00000   0.00000   1.86930
   A70        1.90639   0.00000   0.00000   0.00000   0.00000   1.90639
   A71        1.89742   0.00000   0.00000   0.00000   0.00000   1.89741
   A72        1.90647   0.00000   0.00000   0.00001   0.00001   1.90648
   A73        1.86600   0.00000   0.00000   0.00000   0.00000   1.86599
   A74        1.93034   0.00000   0.00000   0.00000   0.00000   1.93035
   A75        1.94171   0.00000   0.00000   0.00000   0.00000   1.94171
   A76        1.90285   0.00000   0.00000   0.00000   0.00000   1.90285
   A77        1.91455   0.00000   0.00000   0.00000   0.00000   1.91455
   A78        1.90770   0.00000   0.00000   0.00000   0.00000   1.90770
   A79        1.86907   0.00000   0.00000  -0.00001  -0.00001   1.86907
   A80        1.93114   0.00000   0.00000   0.00000   0.00000   1.93114
   A81        1.92494   0.00000   0.00000   0.00001   0.00001   1.92494
   A82        1.91252   0.00000   0.00000  -0.00001  -0.00001   1.91251
   A83        1.91071   0.00000   0.00000   0.00000   0.00000   1.91071
[...]
 0.00000977,-0.00015458,-0.00027735,0.00000557,0.00000294,0.00002883,0.
 00001907,0.00004746,0.00002015,-0.00000814,-0.00001000,0.00001534,-0.0
 0001894,0.00007405,0.00013924,0.00081294,0.00001169,0.00006091,-0.0000
 8067,-0.00015044,0.00002825,0.00003220,0.00001497,-0.00007000,-0.00003
 195,0.00200028,0.00038469,-0.00498636,0.00005895,-0.00015729,0.0017005
 0,-0.00133689,-0.00066038,0.00120819,-0.00065245,0.00055998,0.00139523
 ,0.01162862,-0.02677661,0.59276313,0.00007197,-0.00014616,0.00000654,0
 .00007344,-0.00003602,-0.00005072,0.00012576,-0.00066262,0.00020346,-0
 .00016504,-0.00069059,-0.00023008,0.00006028,0.00025553,0.00014205,-0.
 00001957,0.00002665,-0.00000450,0.00001732,0.00000923,-0.00000136,-0.0
 0000952,0.00001268,-0.00001235,-0.00001874,0.00005106,-0.00004085,0.00
 006033,-0.00000893,0.00000790,-0.00023928,0.00054577,0.00002714,0.0004
 0912,0.00043720,-0.00014379,-0.00009097,0.00013223,0.00002512,-0.00019
 942,0.00008071,-0.00008598,-0.00016132,-0.00005397,-0.00012240,0.00180
 956,0.00126412,0.00044835,-0.00026499,-0.00002145,-0.00020745,-0.00127
 306,-0.00041319,-0.00020414,-0.00084567,-0.00075564,-0.00064898,-0.000
 69599,-0.00010635,0.00016174,0.00016045,-0.00007150,0.00000538,0.00016
 470,0.00001627,-0.00006016,0.00070065,-0.00060163,0.00053082,0.0003259
 6,-0.00025358,-0.00044247,-0.00063382,-0.00083126,0.00109481,-0.000449
 12,0.00020232,-0.00019175,0.00000710,-0.00002472,0.00000486,0.00916992
 ,-0.00226907,-0.00217891,-0.00018468,-0.00017475,0.00001722,0.00016053
 ,0.00068998,0.00045484,-0.00008283,0.00009347,-0.00044941,-0.00000059,
 -0.00003856,-0.00004937,0.00000398,-0.00000029,0.00001155,0.00000919,0
 .00000242,0.00000497,-0.00000896,0.00000986,0.00000290,0.00004335,-0.0
 0006116,0.00007821,-0.00001533,0.00000405,-0.00001011,0.00000226,0.000
 00720,-0.00001275,-0.00000556,0.00001418,-0.00000560,0.00009158,0.0000
 9391,0.00004708,-0.00000761,-0.00001377,-0.00002582,-0.00002733,-0.000
 01111,-0.00000104,0.00002279,0.00003556,0.00001362,0.00138182,0.000717
 49,0.00120939,-0.00027315,-0.00018252,-0.00004563,-0.00157315,-0.00018
 190,-0.00062216,-0.00041931,-0.00015325,-0.00008111,-0.00013824,-0.000
 10711,-0.00020266,0.00007672,0.00001142,0.00008580,0.00000546,0.000008
 18,0.00005053,0.00001824,0.00004040,0.00006282,-0.10513340,-0.07208135
 ,0.01132573,0.15714828,-0.00002343,-0.00017633,-0.00006728,-0.00010383
 ,0.00000451,-0.00005765,-0.00027476,-0.00086624,0.00055353,-0.00023585
 ,-0.00086785,-0.00028567,-0.00000320,0.00013500,0.00002762,-0.00004761
 ,0.00004536,-0.00001746,0.00006794,0.00002167,-0.00000192,-0.00001864,
 0.00001849,-0.00002682,-0.00009876,0.00004441,-0.00010878,0.00009477,0
 .00000772,0.00001297,0.00023871,0.00088336,0.00006775,0.00139511,0.000
 64808,-0.00027080,0.00006688,0.00007401,-0.00000409,-0.00002538,0.0001
 0773,-0.00000598,-0.00006985,0.00013333,-0.00000440,0.00118221,0.00058
 797,0.00063731,-0.00015553,0.00000865,-0.00013963,0.00037898,-0.000975
 60,0.00073577,-0.00053779,-0.00004873,-0.00077168,-0.00304701,0.001512
 40,0.00051421,0.00073243,-0.00089023,0.00020978,0.00081472,-0.00055741
 ,-0.00047763,0.00130499,0.00072727,0.00069402,0.00005179,-0.00054307,0
 .00093518,-0.00128370,0.00047825,0.00206070,0.00168812,0.00058071,0.00
 159964,-0.00021002,-0.00009109,-0.00011048,-0.01873572,-0.03530144,0.0
 1224819,-0.00086203,-0.00056146,-0.00038836,0.00227566,-0.00244784,-0.
 00127661,-0.00088380,-0.00073939,-0.00018082,-0.00006366,-0.00002858,0
 .00001466,-0.00000215,0.00002002,0.00001173,0.00000872,0.00001168,-0.0
 0000956,0.00000964,0.00000185,0.00000374,0.00000059,-0.00002278,0.0000
 2925,0.00000152,0.00000443,-0.00000226,0.00000174,-0.00000229,-0.00000
 622,-0.00001081,0.00000733,-0.00000250,0.00003443,-0.00004459,0.000054
 52,0.00000072,0.00000046,-0.00001050,-0.00001518,0.00000200,-0.0000058
 4,0.00002520,0.00004689,-0.00000387,0.00130818,0.00092753,0.00132012,-
 0.00021598,-0.00013694,-0.00005851,0.00028394,-0.00039844,-0.00074783,
 -0.00051625,-0.00016614,-0.00011795,0.00127960,-0.00057510,-0.00215942
 ,0.00003480,-0.00000927,0.00103076,-0.00057551,-0.00019340,0.00052514,
 -0.00034016,0.00053612,0.00057855,-0.07300480,-0.22695823,0.02847127,0
 .13884589,0.31183838,0.00005565,-0.00003896,0.00002103,0.00011073,-0.0
 0002856,-0.00001288,0.00025639,0.00014869,-0.00028813,-0.00003716,-0.0
 0021962,-0.00020207,0.00004291,0.00016965,0.00007638,-0.00000464,0.000
 01444,0.00000691,-0.00004036,-0.00001140,0.00000317,0.00000716,-0.0000
 0289,0.00001329,0.00005101,0.00000878,0.00006065,-0.00002321,-0.000020
 17,-0.00000083,-0.00030304,-0.00010413,0.00014522,-0.00071931,-0.00011
 614,0.00017627,-0.00009936,0.00005354,0.00005699,-0.00013905,0.0000102
 2,-0.00004351,-0.00009243,-0.00009250,-0.00004783,0.00084264,0.0010799
 4,-0.00008302,-0.00011840,-0.00003984,-0.00005040,-0.00114851,0.000041
 58,-0.00115846,-0.00035801,-0.00052364,0.00057441,0.00151750,-0.001188
 79,-0.00063353,-0.00037929,0.00056172,-0.00007117,-0.00038966,0.000359
 03,0.00042291,-0.00114271,-0.00029077,-0.00125262,-0.00069981,0.000802
 33,-0.00009190,0.00185296,-0.00012407,-0.00180567,-0.00073908,-0.00086
 638,0.00021526,0.00011497,0.00004237,0.00009722,0.00890536,0.02987144,
 0.00223634,0.00019935,0.00066175,0.00000986,-0.00112633,-0.00029265,0.
 00085765,0.00041554,0.00015235,0.00018088,0.00003656,-0.00001500,-0.00
 006873,0.00000799,-0.00000909,-0.00000300,-0.00000674,-0.00000992,0.00
 001393,-0.00001008,0.00000489,0.00000291,0.00002896,-0.00003080,0.0000
 3273,-0.00001224,0.00000041,-0.00000705,-0.00000059,0.00000572,-0.0000
 0223,0.00000092,0.00000777,-0.00000370,0.00005223,0.00009454,0.0000008
 0,-0.00000216,-0.00000995,-0.00000728,-0.00001553,-0.00000747,0.000002
 23,0.00000450,-0.00000413,0.00000699,-0.00012698,-0.00015000,-0.000505
 40,0.00003188,0.00000332,0.00005747,0.00015253,0.00006271,-0.00002139,
 0.00006226,0.00004566,0.00004736,-0.00059330,0.00006565,0.00114908,0.0
 0000877,0.00002429,-0.00044871,0.00032536,0.00015791,-0.00028355,0.000
 17100,-0.00017363,-0.00030367,0.01125800,0.02824976,-0.07671832,-0.008
 85720,-0.01073517,0.07319228,0.00012597,-0.00002418,0.00007930,0.00020
 342,-0.00007967,0.00000310,0.00040382,-0.00001495,-0.00027225,0.000062
 02,-0.00001065,0.00006937,0.00009371,0.00016283,0.00017556,0.00002241,
 -0.00001051,0.00001179,-0.00004284,-0.00000861,-0.00000444,0.00000315,
 0.00000277,0.00000617,0.00005292,0.00003350,0.00004206,0.00000663,-0.0
 0001530,-0.00000196,-0.00050838,-0.00004940,-0.00007432,-0.00089024,-0
 .00006407,0.00006851,-0.00018850,0.00012455,0.00003539,-0.00024728,0.0
 0001473,-0.00012099,-0.00014903,-0.00016965,-0.00016949,0.00078680,0.0
 0055760,0.00023384,-0.00011015,-0.00002941,-0.00010487,-0.00000559,-0.
 00012550,0.00022692,-0.00043919,-0.00039646,-0.00018621,0.00208122,-0.
 00157309,-0.00052235,-0.00062138,0.00108116,-0.00035539,-0.00055318,0.
 00060498,0.00041041,-0.00074785,0.00141374,0.00091605,-0.00012111,-0.0
 0001363,-0.00060813,-0.00057591,0.00163266,-0.00656227,0.00021414,0.00
 074270,-0.00088744,0.00007250,-0.00013898,-0.00003031,-0.03399171,0.01
 344684,0.00245484,0.00038240,-0.00074365,0.00010502,-0.00101816,0.0008
 9636,0.00362622,-0.00031507,-0.00066598,-0.00188192,0.00005913,-0.0000
 3209,-0.00008016,0.00000971,-0.00002033,0.00000616,0.00000624,-0.00000
 561,0.00001439,-0.00002423,0.00001233,0.00000014,0.00006417,-0.0000689
 9,0.00008711,-0.00002160,0.00000130,-0.00001160,0.00000204,0.00001186,
 -0.00001414,0.00000195,0.00001338,-0.00000447,0.00009126,0.00014395,0.
 00002368,-0.00000815,-0.00001871,-0.00002490,-0.00002398,-0.00001437,0
 .00000437,0.00000815,0.00001025,0.00001688,0.00060488,0.00036673,0.000
 45859,-0.00012415,-0.00010615,-0.00000768,0.00010825,-0.00003458,-0.00
 030903,-0.00015662,-0.00004949,-0.00003530,-0.00126231,0.00031257,0.00
 142620,0.00008963,0.00000411,-0.00055610,0.00059164,0.00021857,-0.0003
 9472,0.00035858,-0.00037623,-0.00038419,-0.26894934,0.06175166,-0.0018
 1660,-0.06694837,-0.03114087,0.00915730,0.39486466,-0.00004918,-0.0000
 4334,-0.00004602,-0.00009959,0.00002548,-0.00001837,-0.00021701,-0.000
 27297,0.00027256,-0.00009668,-0.00024877,-0.00009774,-0.00003059,-0.00
 001880,-0.00005362,-0.00002093,0.00001461,-0.00000942,0.00003584,0.000
 01053,0.00000044,-0.00000680,0.00000448,-0.00001093,-0.00004994,0.0000
 0302,-0.00005053,0.00002709,0.00000802,0.00000460,0.00022516,0.0002768
 4,0.00004319,0.00070870,0.00023054,-0.00009952,0.00008270,-0.00001632,
 -0.00001401,0.00007499,0.00002835,0.00003764,0.00002801,0.00009927,0.0
 0005565,0.00008776,-0.00003955,0.00007760,-0.00001089,0.00001389,-0.00
 000393,0.00003825,-0.00019756,0.00013583,-0.00003318,0.00012033,-0.000
 17193,-0.00180123,0.00084440,0.00036838,0.00053877,-0.00066808,0.00021
 237,0.00044089,-0.00035016,-0.00030655,-0.00002733,-0.00159070,0.00016
 682,0.00061912,-0.00038499,0.00010576,0.00039065,0.00015459,0.00368013
 ,-0.00029543,-0.00013596,0.00001651,-0.00002263,0.00007539,-0.00000985
 ,0.03048028,-0.00050444,0.00067172,-0.00006517,0.00064744,-0.00009065,
 0.00048991,-0.00112371,-0.00049060,0.00014549,-0.00022747,0.00091420,-
 0.00004049,0.00000035,0.00003138,-0.00000393,0.00001282,0.00000223,0.0
 0000132,0.00000603,-0.00000806,0.00001059,-0.00000342,0.00000093,-0.00
 002061,0.00001530,-0.00001960,0.00000779,0.00000093,0.00000323,-0.0000
 0009,-0.00000475,0.00000262,-0.00000408,-0.00000215,0.00000091,-0.0000
 2036,-0.00006353,0.00000890,0.00000332,0.00000646,0.00000535,0.0000032
 6,0.00000549,-0.00000314,0.00000485,0.00001101,-0.00000735,0.00020873,
 0.00012325,0.00024615,-0.00002147,-0.00000257,-0.00001509,0.00009685,-
 0.00004859,-0.00012850,-0.00009116,-0.00002768,-0.00002048,0.00067063,
 -0.00027150,-0.00112748,-0.00001038,0.00000725,0.00042107,-0.00030655,
 -0.00009036,0.00027871,-0.00021380,0.00029151,0.00030222,0.05775633,-0
 .08967846,0.00315712,-0.04707428,0.00461452,0.00394912,-0.07132844,0.0
 9327955,0.00004029,0.00001731,0.00002227,0.00007778,-0.00002367,0.0000
 1088,0.00018039,0.00021901,-0.00027160,0.00007953,0.00011307,0.0000116
 4,0.00002813,0.00002311,0.00003724,0.00000355,0.00000084,0.00000714,-0
 .00003351,-0.00001062,0.00000032,0.00000565,-0.00000345,0.00001103,0.0
 0003957,0.00000022,0.00004688,-0.00001901,-0.00000973,-0.00000202,-0.0
 0017312,-0.00016854,0.00004988,-0.00065346,-0.00015473,0.00014256,-0.0
 0006676,0.00002756,0.00003660,-0.00006631,-0.00001084,-0.00002093,-0.0
 0003541,-0.00005852,-0.00002574,0.00001991,0.00009673,-0.00005620,0.00
 001793,-0.00000618,0.00001453,0.00001080,0.00006635,-0.00006333,-0.000
 04648,-0.00009049,0.00019169,0.00152724,-0.00086854,-0.00060411,-0.000
 44223,0.00058857,-0.00012526,-0.00034824,0.00029608,0.00041065,-0.0008
 1373,0.00152705,0.00005141,-0.00054278,0.00044599,-0.00014259,-0.00017
 990,0.00034195,-0.00386629,-0.00050782,0.00005658,0.00091253,-0.000038
 67,0.00004020,0.00005970,-0.02384156,0.01008534,0.00803367,-0.00036044
 ,0.00006353,-0.00003808,-0.00065802,-0.00020102,-0.00225878,-0.0015084
 3,0.00118640,-0.00033648,0.00002869,-0.00000906,-0.00004584,0.00000644
 ,-0.00000776,-0.00000401,-0.00000559,-0.00000771,0.00000952,-0.0000075
 5,0.00000264,0.00000122,0.00001771,-0.00001444,0.00001248,-0.00000633,
 -0.00000082,-0.00000331,-0.00000084,0.00000323,-0.00000013,0.00000198,
 0.00000351,-0.00000127,0.00002155,0.00004430,-0.00000479,0.00000015,-0
 .00000423,-0.00000164,-0.00000667,-0.00000275,0.00000173,0.00000008,-0
 .00000548,0.00000258,-0.00008975,-0.00006975,-0.00018870,0.00001053,-0
 .00000242,0.00001339,0.00000632,0.00002714,0.00003499,0.00002642,0.000
 01980,0.00001035,-0.00041049,-0.00012498,0.00117907,-0.00005728,0.0000
 4599,-0.00041212,0.00028832,0.00015109,-0.00026757,0.00012603,-0.00010
 948,-0.00031608,0.00725022,0.00015106,-0.07822446,0.01132213,0.0028822
 3,0.01111652,-0.04100083,0.00909242,0.08383158,0.00003590,-0.00000005,
 0.00002971,0.00006108,-0.00002580,-0.00000124,0.00012782,-0.00003746,-
 0.00002959,0.00000601,0.00003301,0.00007075,0.00002925,0.00004072,0.00
 004384,0.00001650,-0.00001177,0.00000204,-0.00000770,0.00000008,-0.000
 00181,0.00000043,0.00000062,-0.00000049,0.00001047,0.00000798,0.000000
 71,0.00000288,-0.00000206,-0.00000085,-0.00013405,-0.00002281,-0.00007
 631,-0.00020391,0.00002121,-0.00002435,-0.00005624,0.00003806,0.000001
 28,-0.00007041,0.00000216,-0.00003945,-0.00004079,-0.00005206,-0.00005
 419,0.00015911,0.00012084,0.00005248,-0.00002405,-0.00000916,-0.000026
 62,0.00000490,-0.00005642,0.00008324,-0.00008998,-0.00009128,-0.000073
 89,0.00051557,-0.00055355,0.00017630,-0.00009055,0.00021673,-0.0001167
 9,-0.00016576,0.00021163,0.00002211,0.00049374,-0.00054234,-0.00026997
 ,-0.00001587,0.00007927,-0.00022580,-0.00181982,0.00026311,-0.00041716
 ,0.00032843,-0.00026507,-0.00087828,0.00006065,-0.00000636,-0.00005231
 ,0.01045065,-0.00150574,-0.00938144,0.00026938,-0.00014115,-0.00148292
 ,-0.00127344,0.00154908,-0.00066846,0.00009722,0.00005459,-0.00040952,
 0.00001630,-0.00000934,-0.00001700,0.00000203,-0.00000691,0.00000353,0
 .00000469,-0.00000002,0.00000272,-0.00000800,0.00000396,-0.00000100,0.
 00001952,-0.00002080,0.00002715,-0.00000614,0.00000039,-0.00000320,0.0
 0000085,0.00000347,-0.00000495,0.00000074,0.00000363,-0.00000086,0.000
 02454,0.00004031,0.00000617,-0.00000233,-0.00000563,-0.00000731,-0.000
 00619,-0.00000421,0.00000168,0.00000139,0.00000243,0.00000482,0.000126
 02,0.00006826,0.00009995,-0.00002862,-0.00002907,-0.00000424,-0.000010
 15,0.00002846,-0.00001885,-0.00001116,-0.00000509,-0.00000243,-0.00044
 584,0.00012787,0.00042659,0.00000552,0.00000456,-0.00024908,0.00020149
 ,0.00007695,-0.00013135,0.00010699,-0.00010874,-0.00010524,-0.07424904
 ,0.00773105,0.01097953,0.00776429,-0.01962501,-0.01848523,-0.02332706,
 0.02878494,0.05078386,0.08114273,0.00000141,-0.00006351,-0.00002501,-0
 .00001906,-0.00000095,-0.00001787,-0.00004885,-0.00027758,0.00009789,-
 0.00005527,-0.00028956,-0.00013308,0.00000969,0.00005172,0.00001711,-0
 .00002571,0.00002102,-0.00000257,0.00001303,0.00000438,-0.00000016,-0.
 00000446,0.00000476,-0.00000531,-0.00002090,0.00001254,-0.00001602,0.0
 0002289,-0.00000150,0.00000310,-0.00000027,0.00029016,0.00008118,0.000
 29702,0.00020139,0.00000183,0.00000516,0.00004124,0.00002070,-0.000025
 33,0.00003893,-0.00000120,-0.00003748,0.00003866,0.00000241,0.00047217
 ,0.00027466,0.00017121,-0.00005516,-0.00000141,-0.00003784,0.00008619,
 -0.00029411,0.00018863,-0.00024487,-0.00005110,-0.00010427,-0.00069088
 ,0.00024881,-0.00035960,0.00012508,-0.00011762,0.00010677,0.00023198,-
 0.00012087,0.00009109,-0.00058266,0.00081866,-0.00022378,-0.00035055,0
 .00018402,0.00075448,0.00231845,-0.00169408,0.00077745,0.00001101,-0.0
 0095123,0.00072890,-0.00007462,0.00002480,0.00005684,0.00075620,0.0098
 0463,0.00956329,-0.00070355,0.00002428,0.00116831,0.00114842,0.0000994
 0,-0.00023074,0.00002504,0.00016857,0.00031183,-0.00001875,-0.00001857
 ,-0.00001793,0.00000284,0.00000681,0.00000162,-0.00000075,0.00000075,0
 .00000055,0.00000228,0.00000118,0.00000268,0.00000416,-0.00001145,0.00
 001009,-0.00000082,0.00000130,-0.00000172,-0.00000005,-0.00000034,-0.0
 0000092,-0.00000388,0.00000404,-0.00000142,0.00001812,-0.00000584,0.00
 001677,0.00000132,-0.00000062,-0.00000251,-0.00000801,0.00000029,-0.00
 000175,0.00000933,0.00001432,-0.00000213,0.00035549,0.00017245,0.00022
 343,-0.00004745,-0.00003164,-0.00000709,0.00012990,-0.00004909,-0.0001
 7200,-0.00014181,-0.00003128,-0.00002729,0.00025787,-0.00037672,-0.000
 46818,-0.00000467,0.00003024,0.00013154,-0.00014741,0.00000977,0.00014
 657,-0.00010495,0.00017905,0.00010326,0.00630320,-0.10131970,-0.073237
 14,-0.01658106,-0.05142767,-0.05154390,0.02376844,-0.00491582,-0.02565
 407,-0.01637747,0.14927942,0.00009810,-0.00002926,0.00002522,0.0001615
 0,-0.00004325,-0.00001045,0.00040496,0.00014780,-0.00047478,0.00012385
 ,-0.00003744,-0.00013199,0.00007942,0.00011549,0.00011702,-0.00001298,
 0.00002487,0.00000880,-0.00005948,-0.00001896,0.00000279,0.00000850,-0
 .00000325,0.00001994,0.00008541,0.00001495,0.00009779,-0.00002223,-0.0
 0002531,-0.00000142,-0.00049718,-0.00009971,0.00020249,-0.00107532,-0.
 00008040,0.00025489,-0.00015271,0.00010326,0.00010229,-0.00018627,0.00
 001370,-0.00005176,-0.00012684,-0.00011104,-0.00006668,0.00062088,0.00
 054288,0.00006366,-0.00003366,-0.00001621,-0.00002164,0.00002620,-0.00
 003901,0.00002155,-0.00039467,-0.00032372,0.00032451,0.00246981,-0.001
 97067,-0.00099866,-0.00063622,0.00088343,-0.00010046,-0.00059765,0.000
 61595,0.00082201,0.00018294,0.00103946,-0.00004185,-0.00035366,0.00015
 461,-0.00073990,0.00253327,-0.00123493,-0.00097509,0.00172472,0.000475
 95,-0.00204953,-0.00006594,-0.00006750,0.00010138,0.00423893,-0.020682
 94,-0.04699167,-0.00187149,0.00061560,-0.00101899,-0.00632955,0.005134
 70,-0.00282973,-0.00025900,-0.00049847,0.00072653,0.00004857,-0.000036
 46,-0.00012205,0.00001630,-0.00001095,-0.00000657,-0.00001318,-0.00001
 693,0.00002268,-0.00001478,0.00000746,0.00000558,0.00004568,-0.0000452
 8,0.00004081,-0.00001635,-0.00000044,-0.00000962,-0.00000183,0.0000076
 4,-0.00000134,0.00000079,0.00001227,-0.00000484,0.00007250,0.00010934,
 0.00000632,-0.00000013,-0.00001131,-0.00000866,-0.00002389,-0.00000779
 ,0.00000224,0.00000938,0.00000135,0.00000655,0.00020045,0.00006274,-0.
 00015185,-0.00003966,-0.00004825,0.00002254,0.00013265,-0.00003371,-0.
 00014520,-0.00010051,0.00000385,-0.00000930,-0.00157079,0.00057326,0.0
 0230499,-0.00014628,0.00004685,-0.00121188,0.00085555,0.00034049,-0.00
 061748,0.00032968,-0.00032968,-0.00059817,0.00528201,-0.06411566,-0.26
 176571,-0.01235620,-0.03716296,-0.00666169,0.03676269,-0.02146240,-0.0
 1898273,-0.02955629,0.13751599,0.34149911\\0.00000853,-0.00000650,-0.0
 0000478,-0.00000631,0.00000169,-0.00000426,0.00000618,-0.00001672,0.00
 001520,0.00000013,-0.00000134,-0.00000537,-0.00000417,0.00000299,0.000
 01165,-0.00000383,0.00000041,-0.00000293,0.00000066,-0.00000014,-0.000
 00092,-0.00000055,-0.00000051,0.00000083,-0.00000039,0.00000039,0.0000
 0163,0.00000199,-0.00000061,-0.00000036,-0.00000210,0.00001144,0.00000
 287,0.00000837,0.00001565,-0.00000850,0.00000017,-0.00000298,-0.000001
 77,-0.00000556,-0.00000092,0.00000384,0.00000123,-0.00000443,-0.000007
 38,0.00000066,-0.00000897,0.,0.00000156,0.00000160,0.00000382,0.000001
 78,0.00000308,0.00000111,0.00000089,0.00000620,-0.00000058,-0.00000930
 ,-0.00000428,-0.00000177,-0.00000124,0.00000016,-0.00000251,-0.0000024
 2,0.00000042,-0.00000291,-0.00000189,-0.00000159,-0.00000232,-0.000003
 25,0.00000191,-0.00000078,0.00000234,0.00000057,0.00000185,-0.00000020
 ,0.00000035,-0.00000014,-0.00000028,-0.00000223,-0.00000041,-0.0000041
 5,0.00000510,0.00000224,-0.00000047,0.00000198,-0.00000262,0.00000329,
 -0.00000119,-0.00000263,-0.00000082,0.00000359,0.00000143,-0.00000189,
 -0.00000064,0.00000139,-0.00000190,0.00000012,-0.00000183,-0.00000027,
 0.00000042,-0.00000233,-0.00000074,-0.00000070,-0.00000242,0.00000117,
 -0.00000269,-0.00000285,0.00000091,-0.00000285,0.00000021,-0.00000077,
 -0.00000303,0.00000066,-0.00000070,-0.00000290,-0.00000081,0.00000087,
 -0.00000407,0.00000583,0.00000021,-0.00000143,0.00000133,0.00000182,-0
 .00000198,0.00000076,0.00000140,-0.00000022,-0.00000026,0.00000244,0.0
 0000035,0.00000196,0.00000195,0.00000196,0.00000209,0.00000002,0.00000
 143,0.00000116,0.00000101,0.00000096,0.00000123,-0.00000310,0.00000366
 ,-0.00000434,0.00000139,-0.00000128,0.00000134,0.00000077,0.00000032,0
 .00000066,0.00000078,-0.00000276,0.00000016,0.00000275,0.00000293,0.00
 000205,0.00000092,0.00000320,-0.00000003,0.00000030,0.00000248,0.00000
 122,-0.00000016,0.00000160,-0.00000069\\\@


 ONE BIG VICE IN A MAN IS APT TO KEEP OUT MANY SMALLER ONES.

                           -- BRET HARTE
 Job cpu time:       2 days 20 hours 28 minutes  8.5 seconds.
 Elapsed time:       0 days  2 hours 11 minutes 39.4 seconds.
 File lengths (MBytes):  RWF=   2245 Int=      0 D2E=      0 Chk=     40 Scr=      1
 Normal termination of Gaussian 16 at Wed Jun  5 20:13:20 2019.
