 Entering Gaussian System, Link 0=g16
 Input=clay_new-glu_gluC6-bisCF3-sm-b97d-631gd-pcm_thf.gjf
 Output=clay_new-glu_gluC6-bisCF3-sm-b97d-631gd-pcm_thf.out
 Initial command:
 /home/ekwan/sw/g16/l1.exe "/scratch/users/ekwan/clay_new-glu_gluC6-bisCF3-sm-b97d-631gd-pcm_thf/Gau-60125.inp" -scrdir="/scratch/users/ekwan/clay_new-glu_gluC6-bisCF3-sm-b97d-631gd-pcm_thf/"
 Entering Link 1 = /home/ekwan/sw/g16/l1.exe PID=     60126.
  
 Copyright (c) 1988,1990,1992,1993,1995,1998,2003,2009,2016,
            Gaussian, Inc.  All Rights Reserved.
  
 This is part of the Gaussian(R) 16 program.  It is based on
 the Gaussian(R) 09 system (copyright 2009, Gaussian, Inc.),
 the Gaussian(R) 03 system (copyright 2003, Gaussian, Inc.),
 the Gaussian(R) 98 system (copyright 1998, Gaussian, Inc.),
 the Gaussian(R) 94 system (copyright 1995, Gaussian, Inc.),
 the Gaussian 92(TM) system (copyright 1992, Gaussian, Inc.),
 the Gaussian 90(TM) system (copyright 1990, Gaussian, Inc.),
 the Gaussian 88(TM) system (copyright 1988, Gaussian, Inc.),
 the Gaussian 86(TM) system (copyright 1986, Carnegie Mellon
 University), and the Gaussian 82(TM) system (copyright 1983,
 Carnegie Mellon University). Gaussian is a federally registered
 trademark of Gaussian, Inc.
  
 This software contains proprietary and confidential information,
 including trade secrets, belonging to Gaussian, Inc.
  
 This software is provided under written license and may be
 used, copied, transmitted, or stored only in accord with that
 written license.
  
 The following legend is applicable only to US Government
 contracts under FAR:
  
                    RESTRICTED RIGHTS LEGEND
  
 Use, reproduction and disclosure by the US Government is
 subject to restrictions as set forth in subparagraphs (a)
 and (c) of the Commercial Computer Software - Restricted
 Rights clause in FAR 52.227-19.
  
 Gaussian, Inc.
 340 Quinnipiac St., Bldg. 40, Wallingford CT 06492
  
  
 ---------------------------------------------------------------
 Warning -- This program may not be used in any manner that
 competes with the business of Gaussian, Inc. or will provide
 assistance to any competitor of Gaussian, Inc.  The licensee
 of this program is prohibited from giving any competitor of
 Gaussian, Inc. access to this program.  By using this program,
 the user acknowledges that Gaussian, Inc. is engaged in the
 business of creating and licensing software in the field of
 computational chemistry and represents and warrants to the
 licensee that it is not a competitor of Gaussian, Inc. and that
 it will not use this program in any manner prohibited above.
 ---------------------------------------------------------------
  

 Cite this work as:
 Gaussian 16, Revision A.03,
 M. J. Frisch, G. W. Trucks, H. B. Schlegel, G. E. Scuseria, 
 M. A. Robb, J. R. Cheeseman, G. Scalmani, V. Barone, 
 G. A. Petersson, H. Nakatsuji, X. Li, M. Caricato, A. V. Marenich, 
 J. Bloino, B. G. Janesko, R. Gomperts, B. Mennucci, H. P. Hratchian, 
 J. V. Ortiz, A. F. Izmaylov, J. L. Sonnenberg, D. Williams-Young, 
 F. Ding, F. Lipparini, F. Egidi, J. Goings, B. Peng, A. Petrone, 
 T. Henderson, D. Ranasinghe, V. G. Zakrzewski, J. Gao, N. Rega, 
 G. Zheng, W. Liang, M. Hada, M. Ehara, K. Toyota, R. Fukuda, 
 J. Hasegawa, M. Ishida, T. Nakajima, Y. Honda, O. Kitao, H. Nakai, 
 T. Vreven, K. Throssell, J. A. Montgomery, Jr., J. E. Peralta, 
 F. Ogliaro, M. J. Bearpark, J. J. Heyd, E. N. Brothers, K. N. Kudin, 
 V. N. Staroverov, T. A. Keith, R. Kobayashi, J. Normand, 
 K. Raghavachari, A. P. Rendell, J. C. Burant, S. S. Iyengar, 
 J. Tomasi, M. Cossi, J. M. Millam, M. Klene, C. Adamo, R. Cammi, 
 J. W. Ochterski, R. L. Martin, K. Morokuma, O. Farkas, 
 J. B. Foresman, and D. J. Fox, Gaussian, Inc., Wallingford CT, 2016.
 
 ******************************************
 Gaussian 16:  AS64L-G16RevA.03 25-Dec-2016
                10-Jun-2019 
 ******************************************
 %nprocshared=64
 Will use up to   64 processors via shared memory.
 %mem=96GB
 ----------------------------------------------------------------------
 #p opt freq=noraman 6-31g(d) scrf=(solvent=tetrahydrofuran,pcm) pop=no
 ne b97d
 ----------------------------------------------------------------------
 1/18=20,19=15,26=3,38=1/1,3;
 2/9=110,12=2,17=6,18=5,40=1/2;
 3/5=1,6=6,7=1,11=2,25=1,30=1,70=2201,71=1,72=20,74=-42/1,2,3;
 4//1;
 5/5=2,38=5,53=20/2;
 7//1,2,3,16;
 1/18=20,19=15,26=3/3(2);
 2/9=110/2;
 99//99;
 2/9=110/2;
 3/5=1,6=6,7=1,11=2,25=1,30=1,70=2205,71=1,72=20,74=-42/1,2,3;
 4/5=5,16=3,69=1/1;
 5/5=2,38=5,53=20/2;
 7//1,2,3,16;
 1/18=20,19=15,26=3/3(-5);
 2/9=110/2;
 99/9=1/99;
 Leave Link    1 at Mon Jun 10 05:35:10 2019, MaxMem= 12884901888 cpu:              18.2 elap:               0.3
 (Enter /home/ekwan/sw/g16/l101.exe)
 -----
 title
 -----
 Symbolic Z-matrix:
 Charge =  0 Multiplicity = 1
 C                     3.33543  -0.61026  -0.05431 
 C                     3.20845   0.8035    0.54713 
 C                     1.74038   1.30433   0.49808 
 C                     0.86248  -0.93279   0.46331 
 C                     2.27085  -1.54636   0.5429 
 H                     1.61157   2.24119   1.05167 
 H                     3.4599    0.74243   1.62484 
 H                     3.17857  -0.55185  -1.14569 
 H                     0.57453  -0.84312  -0.59663 
 H                     2.51284  -1.72524   1.60287 
 O                     0.84263   0.39572   1.06166 
 O                     1.45024   1.55938  -0.92474 
 O                     4.10941   1.66654  -0.12427 
 O                     4.60948  -1.17895   0.24559 
 O                     2.23496  -2.77162  -0.18935 
 C                    -0.19983  -1.79261   1.1639 
 H                    -0.39465  -2.65646   0.51573 
 H                    -1.1266   -1.19979   1.26061 
 O                     0.18499  -2.32758   2.4261 
 S                     0.15243   2.53658  -1.27858 
 O                     0.24785   2.73614  -2.72974 
 O                     0.12119   3.67094  -0.3386 
 C                    -1.23807   1.4433   -0.9203 
 C                    -1.47409   0.3665   -1.78122 
 C                    -1.97998   1.64123   0.24819 
 C                    -2.48834  -0.54367  -1.44974 
 H                    -0.87916   0.23233  -2.68281 
 C                    -2.99878   0.7288    0.55168 
 H                    -1.75929   2.47703   0.9079 
 C                    -3.25228  -0.36616  -0.2884 
 H                    -4.03319  -1.07997  -0.03381 
 C                     4.26347   2.94085   0.50977 
 H                     3.35645   3.56252   0.40274 
 H                     4.4969    2.82401   1.5851 
 H                     5.10097   3.43933   0.0038 
 C                     5.58514  -1.00846  -0.78851 
 H                     6.48016  -1.55605  -0.45981 
 H                     5.22515  -1.43769  -1.7428 
 H                     5.83095   0.05445  -0.94041 
 C                     2.76949  -3.88285   0.53969 
 H                     2.66474  -4.76116  -0.11345 
 H                     3.8341   -3.72111   0.77866 
 H                     2.20173  -4.04525   1.47335 
 C                     0.20139  -1.35495   3.47792 
 H                     0.312    -1.9151    4.41748 
 H                    -0.74323  -0.78082   3.49671 
 H                     1.04045  -0.64743   3.36829 
 C                    -2.66659  -1.79481  -2.28543 
 F                    -2.351    -1.58599  -3.5893 
 F                    -3.93844  -2.26706  -2.23409 
 F                    -1.84703  -2.78755  -1.82576 
 C                    -3.74992   0.83723   1.86241 
 F                    -3.19327   0.00763   2.79735 
 F                    -5.05049   0.46756   1.73042 
 F                    -3.72254   2.09442   2.37109 
 
 ITRead=  0  0  0  0  0  0  0  0  0  0  0  0  0  0  0  0  0  0  0  0
 ITRead=  0  0  0  0  0  0  0  0  0  0  0  0  0  0  0  0  0  0  0  0
 ITRead=  0  0  0  0  0  0  0  0  0  0  0  0  0  0  0
 MicOpt= -1 -1 -1 -1 -1 -1 -1 -1 -1 -1 -1 -1 -1 -1 -1 -1 -1 -1 -1 -1
 MicOpt= -1 -1 -1 -1 -1 -1 -1 -1 -1 -1 -1 -1 -1 -1 -1 -1 -1 -1 -1 -1
 MicOpt= -1 -1 -1 -1 -1 -1 -1 -1 -1 -1 -1 -1 -1 -1 -1
 NAtoms=     55 NQM=       55 NQMF=       0 NMMI=      0 NMMIF=      0
                NMic=       0 NMicF=      0.
                    Isotopes and Nuclear Properties:
 (Nuclear quadrupole moments (NQMom) in fm**2, nuclear magnetic moments (NMagM)
  in nuclear magnetons)

  Atom         1           2           3           4           5           6           7           8           9          10
 IAtWgt=          12          12          12          12          12           1           1           1           1           1
 AtmWgt=  12.0000000  12.0000000  12.0000000  12.0000000  12.0000000   1.0078250   1.0078250   1.0078250   1.0078250   1.0078250
 NucSpn=           0           0           0           0           0           1           1           1           1           1
 AtZEff=   0.0000000   0.0000000   0.0000000   0.0000000   0.0000000   0.0000000   0.0000000   0.0000000   0.0000000   0.0000000
 NQMom=    0.0000000   0.0000000   0.0000000   0.0000000   0.0000000   0.0000000   0.0000000   0.0000000   0.0000000   0.0000000
 NMagM=    0.0000000   0.0000000   0.0000000   0.0000000   0.0000000   2.7928460   2.7928460   2.7928460   2.7928460   2.7928460
 AtZNuc=   6.0000000   6.0000000   6.0000000   6.0000000   6.0000000   1.0000000   1.0000000   1.0000000   1.0000000   1.0000000

  Atom        11          12          13          14          15          16          17          18          19          20
 IAtWgt=          16          16          16          16          16          12           1           1          16          32
 AtmWgt=  15.9949146  15.9949146  15.9949146  15.9949146  15.9949146  12.0000000   1.0078250   1.0078250  15.9949146  31.9720718
 NucSpn=           0           0           0           0           0           0           1           1           0           0
 AtZEff=   0.0000000   0.0000000   0.0000000   0.0000000   0.0000000   0.0000000   0.0000000   0.0000000   0.0000000   0.0000000
 NQMom=    0.0000000   0.0000000   0.0000000   0.0000000   0.0000000   0.0000000   0.0000000   0.0000000   0.0000000   0.0000000
 NMagM=    0.0000000   0.0000000   0.0000000   0.0000000   0.0000000   0.0000000   2.7928460   2.7928460   0.0000000   0.0000000
 AtZNuc=   8.0000000   8.0000000   8.0000000   8.0000000   8.0000000   6.0000000   1.0000000   1.0000000   8.0000000  16.0000000

  Atom        21          22          23          24          25          26          27          28          29          30
 IAtWgt=          16          16          12          12          12          12           1          12           1          12
 AtmWgt=  15.9949146  15.9949146  12.0000000  12.0000000  12.0000000  12.0000000   1.0078250  12.0000000   1.0078250  12.0000000
 NucSpn=           0           0           0           0           0           0           1           0           1           0
 AtZEff=   0.0000000   0.0000000   0.0000000   0.0000000   0.0000000   0.0000000   0.0000000   0.0000000   0.0000000   0.0000000
 NQMom=    0.0000000   0.0000000   0.0000000   0.0000000   0.0000000   0.0000000   0.0000000   0.0000000   0.0000000   0.0000000
 NMagM=    0.0000000   0.0000000   0.0000000   0.0000000   0.0000000   0.0000000   2.7928460   0.0000000   2.7928460   0.0000000
 AtZNuc=   8.0000000   8.0000000   6.0000000   6.0000000   6.0000000   6.0000000   1.0000000   6.0000000   1.0000000   6.0000000

  Atom        31          32          33          34          35          36          37          38          39          40
 IAtWgt=           1          12           1           1           1          12           1           1           1          12
 AtmWgt=   1.0078250  12.0000000   1.0078250   1.0078250   1.0078250  12.0000000   1.0078250   1.0078250   1.0078250  12.0000000
 NucSpn=           1           0           1           1           1           0           1           1           1           0
 AtZEff=   0.0000000   0.0000000   0.0000000   0.0000000   0.0000000   0.0000000   0.0000000   0.0000000   0.0000000   0.0000000
 NQMom=    0.0000000   0.0000000   0.0000000   0.0000000   0.0000000   0.0000000   0.0000000   0.0000000   0.0000000   0.0000000
 NMagM=    2.7928460   0.0000000   2.7928460   2.7928460   2.7928460   0.0000000   2.7928460   2.7928460   2.7928460   0.0000000
 AtZNuc=   1.0000000   6.0000000   1.0000000   1.0000000   1.0000000   6.0000000   1.0000000   1.0000000   1.0000000   6.0000000

  Atom        41          42          43          44          45          46          47          48          49          50
 IAtWgt=           1           1           1          12           1           1           1          12          19          19
 AtmWgt=   1.0078250   1.0078250   1.0078250  12.0000000   1.0078250   1.0078250   1.0078250  12.0000000  18.9984033  18.9984033
 NucSpn=           1           1           1           0           1           1           1           0           1           1
 AtZEff=   0.0000000   0.0000000   0.0000000   0.0000000   0.0000000   0.0000000   0.0000000   0.0000000   0.0000000   0.0000000
 NQMom=    0.0000000   0.0000000   0.0000000   0.0000000   0.0000000   0.0000000   0.0000000   0.0000000   0.0000000   0.0000000
 NMagM=    2.7928460   2.7928460   2.7928460   0.0000000   2.7928460   2.7928460   2.7928460   0.0000000   2.6288670   2.6288670
 AtZNuc=   1.0000000   1.0000000   1.0000000   6.0000000   1.0000000   1.0000000   1.0000000   6.0000000   9.0000000   9.0000000

  Atom        51          52          53          54          55
 IAtWgt=          19          12          19          19          19
 AtmWgt=  18.9984033  12.0000000  18.9984033  18.9984033  18.9984033
 NucSpn=           1           0           1           1           1
 AtZEff=   0.0000000   0.0000000   0.0000000   0.0000000   0.0000000
 NQMom=    0.0000000   0.0000000   0.0000000   0.0000000   0.0000000
 NMagM=    2.6288670   0.0000000   2.6288670   2.6288670   2.6288670
 AtZNuc=   9.0000000   6.0000000   9.0000000   9.0000000   9.0000000
 Leave Link  101 at Mon Jun 10 05:35:11 2019, MaxMem= 12884901888 cpu:              37.1 elap:               0.6
 (Enter /home/ekwan/sw/g16/l103.exe)

 GradGradGradGradGradGradGradGradGradGradGradGradGradGradGradGradGradGrad
 Berny optimization.
 Initialization pass.
                           ----------------------------
                           !    Initial Parameters    !
                           ! (Angstroms and Degrees)  !
 --------------------------                            --------------------------
 ! Name  Definition              Value          Derivative Info.                !
 --------------------------------------------------------------------------------
 ! R1    R(1,2)                  1.5416         estimate D2E/DX2                !
 ! R2    R(1,5)                  1.5383         estimate D2E/DX2                !
 ! R3    R(1,8)                  1.1041         estimate D2E/DX2                !
 ! R4    R(1,14)                 1.4271         estimate D2E/DX2                !
 ! R5    R(2,3)                  1.5519         estimate D2E/DX2                !
 ! R6    R(2,7)                  1.1083         estimate D2E/DX2                !
 ! R7    R(2,13)                 1.4168         estimate D2E/DX2                !
 ! R8    R(3,6)                  1.0958         estimate D2E/DX2                !
 ! R9    R(3,11)                 1.3961         estimate D2E/DX2                !
 ! R10   R(3,12)                 1.4743         estimate D2E/DX2                !
 ! R11   R(4,5)                  1.5383         estimate D2E/DX2                !
 ! R12   R(4,9)                  1.102          estimate D2E/DX2                !
 ! R13   R(4,11)                 1.4572         estimate D2E/DX2                !
 ! R14   R(4,16)                 1.5358         estimate D2E/DX2                !
 ! R15   R(5,10)                 1.1019         estimate D2E/DX2                !
 ! R16   R(5,15)                 1.4278         estimate D2E/DX2                !
 ! R17   R(12,20)                1.6627         estimate D2E/DX2                !
 ! R18   R(13,32)                1.4317         estimate D2E/DX2                !
 ! R19   R(14,36)                1.4319         estimate D2E/DX2                !
 ! R20   R(15,40)                1.4325         estimate D2E/DX2                !
 ! R21   R(16,17)                1.0974         estimate D2E/DX2                !
 ! R22   R(16,18)                1.1044         estimate D2E/DX2                !
 ! R23   R(16,19)                1.4239         estimate D2E/DX2                !
 ! R24   R(19,44)                1.4327         estimate D2E/DX2                !
 ! R25   R(20,21)                1.4679         estimate D2E/DX2                !
 ! R26   R(20,22)                1.4735         estimate D2E/DX2                !
 ! R27   R(20,23)                1.8047         estimate D2E/DX2                !
 ! R28   R(23,24)                1.3987         estimate D2E/DX2                !
 ! R29   R(23,25)                1.3982         estimate D2E/DX2                !
 ! R30   R(24,26)                1.4025         estimate D2E/DX2                !
 ! R31   R(24,27)                1.0885         estimate D2E/DX2                !
 ! R32   R(25,28)                1.4009         estimate D2E/DX2                !
 ! R33   R(25,29)                1.0874         estimate D2E/DX2                !
 ! R34   R(26,30)                1.4014         estimate D2E/DX2                !
 ! R35   R(26,48)                1.5151         estimate D2E/DX2                !
 ! R36   R(28,30)                1.4032         estimate D2E/DX2                !
 ! R37   R(28,52)                1.5146         estimate D2E/DX2                !
 ! R38   R(30,31)                1.0882         estimate D2E/DX2                !
 ! R39   R(32,33)                1.1048         estimate D2E/DX2                !
 ! R40   R(32,34)                1.1066         estimate D2E/DX2                !
 ! R41   R(32,35)                1.0981         estimate D2E/DX2                !
 ! R42   R(36,37)                1.0995         estimate D2E/DX2                !
 ! R43   R(36,38)                1.1066         estimate D2E/DX2                !
 ! R44   R(36,39)                1.1015         estimate D2E/DX2                !
 ! R45   R(40,41)                1.0995         estimate D2E/DX2                !
 ! R46   R(40,42)                1.103          estimate D2E/DX2                !
 ! R47   R(40,43)                1.1047         estimate D2E/DX2                !
 ! R48   R(44,45)                1.0994         estimate D2E/DX2                !
 ! R49   R(44,46)                1.1056         estimate D2E/DX2                !
 ! R50   R(44,47)                1.103          estimate D2E/DX2                !
 ! R51   R(48,49)                1.3577         estimate D2E/DX2                !
 ! R52   R(48,50)                1.3577         estimate D2E/DX2                !
 ! R53   R(48,51)                1.3669         estimate D2E/DX2                !
 ! R54   R(52,53)                1.3683         estimate D2E/DX2                !
 ! R55   R(52,54)                1.3585         estimate D2E/DX2                !
 ! R56   R(52,55)                1.3565         estimate D2E/DX2                !
 ! A1    A(2,1,5)              110.463          estimate D2E/DX2                !
 ! A2    A(2,1,8)              108.9908         estimate D2E/DX2                !
 ! A3    A(2,1,14)             110.9159         estimate D2E/DX2                !
 ! A4    A(5,1,8)              108.5194         estimate D2E/DX2                !
 ! A5    A(5,1,14)             107.0832         estimate D2E/DX2                !
 ! A6    A(8,1,14)             110.8321         estimate D2E/DX2                !
 ! A7    A(1,2,3)              111.1947         estimate D2E/DX2                !
 ! A8    A(1,2,7)              108.0677         estimate D2E/DX2                !
 ! A9    A(1,2,13)             108.7456         estimate D2E/DX2                !
 ! A10   A(3,2,7)              105.2557         estimate D2E/DX2                !
 ! A11   A(3,2,13)             112.9539         estimate D2E/DX2                !
 ! A12   A(7,2,13)             110.4923         estimate D2E/DX2                !
 ! A13   A(2,3,6)              111.7863         estimate D2E/DX2                !
 ! A14   A(2,3,11)             112.6749         estimate D2E/DX2                !
 ! A15   A(2,3,12)             105.8127         estimate D2E/DX2                !
 ! A16   A(6,3,11)             106.0749         estimate D2E/DX2                !
 ! A17   A(6,3,12)             108.4519         estimate D2E/DX2                !
 ! A18   A(11,3,12)            112.0619         estimate D2E/DX2                !
 ! A19   A(5,4,9)              108.7507         estimate D2E/DX2                !
 ! A20   A(5,4,11)             110.7856         estimate D2E/DX2                !
 ! A21   A(5,4,16)             112.7295         estimate D2E/DX2                !
 ! A22   A(9,4,11)             108.4936         estimate D2E/DX2                !
 ! A23   A(9,4,16)             107.6732         estimate D2E/DX2                !
 ! A24   A(11,4,16)            108.281          estimate D2E/DX2                !
 ! A25   A(1,5,4)              111.7651         estimate D2E/DX2                !
 ! A26   A(1,5,10)             108.6798         estimate D2E/DX2                !
 ! A27   A(1,5,15)             109.9068         estimate D2E/DX2                !
 ! A28   A(4,5,10)             108.3971         estimate D2E/DX2                !
 ! A29   A(4,5,15)             107.0212         estimate D2E/DX2                !
 ! A30   A(10,5,15)            111.0728         estimate D2E/DX2                !
 ! A31   A(3,11,4)             114.7607         estimate D2E/DX2                !
 ! A32   A(3,12,20)            117.4303         estimate D2E/DX2                !
 ! A33   A(2,13,32)            113.6255         estimate D2E/DX2                !
 ! A34   A(1,14,36)            114.1477         estimate D2E/DX2                !
 ! A35   A(5,15,40)            113.2841         estimate D2E/DX2                !
 ! A36   A(4,16,17)            107.1011         estimate D2E/DX2                !
 ! A37   A(4,16,18)            108.6562         estimate D2E/DX2                !
 ! A38   A(4,16,19)            115.3273         estimate D2E/DX2                !
 ! A39   A(17,16,18)           108.9825         estimate D2E/DX2                !
 ! A40   A(17,16,19)           106.0093         estimate D2E/DX2                !
 ! A41   A(18,16,19)           110.5392         estimate D2E/DX2                !
 ! A42   A(16,19,44)           113.5043         estimate D2E/DX2                !
 ! A43   A(12,20,21)           103.8597         estimate D2E/DX2                !
 ! A44   A(12,20,22)           109.4655         estimate D2E/DX2                !
 ! A45   A(12,20,23)           101.7193         estimate D2E/DX2                !
 ! A46   A(21,20,22)           121.826          estimate D2E/DX2                !
 ! A47   A(21,20,23)           109.1897         estimate D2E/DX2                !
 ! A48   A(22,20,23)           108.867          estimate D2E/DX2                !
 ! A49   A(20,23,24)           118.3057         estimate D2E/DX2                !
 ! A50   A(20,23,25)           119.2735         estimate D2E/DX2                !
 ! A51   A(24,23,25)           122.2645         estimate D2E/DX2                !
 ! A52   A(23,24,26)           118.4352         estimate D2E/DX2                !
 ! A53   A(23,24,27)           120.8302         estimate D2E/DX2                !
 ! A54   A(26,24,27)           120.7323         estimate D2E/DX2                !
 ! A55   A(23,25,28)           118.3418         estimate D2E/DX2                !
 ! A56   A(23,25,29)           120.5379         estimate D2E/DX2                !
 ! A57   A(28,25,29)           121.1158         estimate D2E/DX2                !
 ! A58   A(24,26,30)           120.5234         estimate D2E/DX2                !
 ! A59   A(24,26,48)           119.3819         estimate D2E/DX2                !
 ! A60   A(30,26,48)           119.8393         estimate D2E/DX2                !
 ! A61   A(25,28,30)           120.6587         estimate D2E/DX2                !
 ! A62   A(25,28,52)           120.1            estimate D2E/DX2                !
 ! A63   A(30,28,52)           118.9719         estimate D2E/DX2                !
 ! A64   A(26,30,28)           119.7694         estimate D2E/DX2                !
 ! A65   A(26,30,31)           120.1323         estimate D2E/DX2                !
 ! A66   A(28,30,31)           120.0958         estimate D2E/DX2                !
 ! A67   A(13,32,33)           111.6909         estimate D2E/DX2                !
 ! A68   A(13,32,34)           111.0441         estimate D2E/DX2                !
 ! A69   A(13,32,35)           106.3831         estimate D2E/DX2                !
 ! A70   A(33,32,34)           109.0711         estimate D2E/DX2                !
 ! A71   A(33,32,35)           109.0299         estimate D2E/DX2                !
 ! A72   A(34,32,35)           109.5608         estimate D2E/DX2                !
 ! A73   A(14,36,37)           106.2271         estimate D2E/DX2                !
 ! A74   A(14,36,38)           110.791          estimate D2E/DX2                !
 ! A75   A(14,36,39)           111.5031         estimate D2E/DX2                !
 ! A76   A(37,36,38)           109.2344         estimate D2E/DX2                !
 ! A77   A(37,36,39)           109.8858         estimate D2E/DX2                !
 ! A78   A(38,36,39)           109.1463         estimate D2E/DX2                !
 ! A79   A(15,40,41)           106.3671         estimate D2E/DX2                !
 ! A80   A(15,40,42)           110.8953         estimate D2E/DX2                !
 ! A81   A(15,40,43)           110.633          estimate D2E/DX2                !
 ! A82   A(41,40,42)           109.7413         estimate D2E/DX2                !
 ! A83   A(41,40,43)           109.6114         estimate D2E/DX2                !
 ! A84   A(42,40,43)           109.5414         estimate D2E/DX2                !
 ! A85   A(19,44,45)           106.4192         estimate D2E/DX2                !
 ! A86   A(19,44,46)           110.8091         estimate D2E/DX2                !
 ! A87   A(19,44,47)           111.7897         estimate D2E/DX2                !
 ! A88   A(45,44,46)           109.6344         estimate D2E/DX2                !
 ! A89   A(45,44,47)           109.5853         estimate D2E/DX2                !
 ! A90   A(46,44,47)           108.5745         estimate D2E/DX2                !
 ! A91   A(26,48,49)           112.0464         estimate D2E/DX2                !
 ! A92   A(26,48,50)           112.1231         estimate D2E/DX2                !
 ! A93   A(26,48,51)           110.1026         estimate D2E/DX2                !
 ! A94   A(49,48,50)           107.9131         estimate D2E/DX2                !
 ! A95   A(49,48,51)           107.175          estimate D2E/DX2                !
 ! A96   A(50,48,51)           107.2372         estimate D2E/DX2                !
 ! A97   A(28,52,53)           110.2527         estimate D2E/DX2                !
 ! A98   A(28,52,54)           111.7914         estimate D2E/DX2                !
 ! A99   A(28,52,55)           112.3878         estimate D2E/DX2                !
 ! A100  A(53,52,54)           106.9098         estimate D2E/DX2                !
 ! A101  A(53,52,55)           107.3061         estimate D2E/DX2                !
 ! A102  A(54,52,55)           107.9356         estimate D2E/DX2                !
 ! D1    D(5,1,2,3)            -49.0589         estimate D2E/DX2                !
 ! D2    D(5,1,2,7)             65.9877         estimate D2E/DX2                !
 ! D3    D(5,1,2,13)          -174.0403         estimate D2E/DX2                !
 ! D4    D(8,1,2,3)             70.0815         estimate D2E/DX2                !
 ! D5    D(8,1,2,7)           -174.8719         estimate D2E/DX2                !
 ! D6    D(8,1,2,13)           -54.8999         estimate D2E/DX2                !
 ! D7    D(14,1,2,3)          -167.6316         estimate D2E/DX2                !
 ! D8    D(14,1,2,7)           -52.585          estimate D2E/DX2                !
 ! D9    D(14,1,2,13)           67.387          estimate D2E/DX2                !
 ! D10   D(2,1,5,4)             50.7399         estimate D2E/DX2                !
 ! D11   D(2,1,5,10)           -68.8448         estimate D2E/DX2                !
 ! D12   D(2,1,5,15)           169.413          estimate D2E/DX2                !
 ! D13   D(8,1,5,4)            -68.686          estimate D2E/DX2                !
 ! D14   D(8,1,5,10)           171.7293         estimate D2E/DX2                !
 ! D15   D(8,1,5,15)            49.9871         estimate D2E/DX2                !
 ! D16   D(14,1,5,4)           171.6241         estimate D2E/DX2                !
 ! D17   D(14,1,5,10)           52.0394         estimate D2E/DX2                !
 ! D18   D(14,1,5,15)          -69.7028         estimate D2E/DX2                !
 ! D19   D(2,1,14,36)          -95.5636         estimate D2E/DX2                !
 ! D20   D(5,1,14,36)          143.8398         estimate D2E/DX2                !
 ! D21   D(8,1,14,36)           25.6455         estimate D2E/DX2                !
 ! D22   D(1,2,3,6)            171.6793         estimate D2E/DX2                !
 ! D23   D(1,2,3,11)            52.3281         estimate D2E/DX2                !
 ! D24   D(1,2,3,12)           -70.4512         estimate D2E/DX2                !
 ! D25   D(7,2,3,6)             54.9003         estimate D2E/DX2                !
 ! D26   D(7,2,3,11)           -64.4509         estimate D2E/DX2                !
 ! D27   D(7,2,3,12)           172.7697         estimate D2E/DX2                !
 ! D28   D(13,2,3,6)           -65.7356         estimate D2E/DX2                !
 ! D29   D(13,2,3,11)          174.9132         estimate D2E/DX2                !
 ! D30   D(13,2,3,12)           52.1338         estimate D2E/DX2                !
 ! D31   D(1,2,13,32)         -168.9191         estimate D2E/DX2                !
 ! D32   D(3,2,13,32)           67.139          estimate D2E/DX2                !
 ! D33   D(7,2,13,32)          -50.4638         estimate D2E/DX2                !
 ! D34   D(2,3,11,4)           -57.0611         estimate D2E/DX2                !
 ! D35   D(6,3,11,4)          -179.6763         estimate D2E/DX2                !
 ! D36   D(12,3,11,4)           62.1466         estimate D2E/DX2                !
 ! D37   D(2,3,12,20)         -161.3743         estimate D2E/DX2                !
 ! D38   D(6,3,12,20)          -41.2984         estimate D2E/DX2                !
 ! D39   D(11,3,12,20)          75.4575         estimate D2E/DX2                !
 ! D40   D(9,4,5,1)             65.7425         estimate D2E/DX2                !
 ! D41   D(9,4,5,10)          -174.5064         estimate D2E/DX2                !
 ! D42   D(9,4,5,15)           -54.6321         estimate D2E/DX2                !
 ! D43   D(11,4,5,1)           -53.411          estimate D2E/DX2                !
 ! D44   D(11,4,5,10)           66.3401         estimate D2E/DX2                !
 ! D45   D(11,4,5,15)         -173.7857         estimate D2E/DX2                !
 ! D46   D(16,4,5,1)          -174.9296         estimate D2E/DX2                !
 ! D47   D(16,4,5,10)          -55.1785         estimate D2E/DX2                !
 ! D48   D(16,4,5,15)           64.6957         estimate D2E/DX2                !
 ! D49   D(5,4,11,3)            57.4409         estimate D2E/DX2                !
 ! D50   D(9,4,11,3)           -61.8674         estimate D2E/DX2                !
 ! D51   D(16,4,11,3)         -178.459          estimate D2E/DX2                !
 ! D52   D(5,4,16,17)          -74.5733         estimate D2E/DX2                !
 ! D53   D(5,4,16,18)          167.8408         estimate D2E/DX2                !
 ! D54   D(5,4,16,19)           43.1269         estimate D2E/DX2                !
 ! D55   D(9,4,16,17)           45.3776         estimate D2E/DX2                !
 ! D56   D(9,4,16,18)          -72.2082         estimate D2E/DX2                !
 ! D57   D(9,4,16,19)          163.0779         estimate D2E/DX2                !
 ! D58   D(11,4,16,17)         162.4981         estimate D2E/DX2                !
 ! D59   D(11,4,16,18)          44.9123         estimate D2E/DX2                !
 ! D60   D(11,4,16,19)         -79.8016         estimate D2E/DX2                !
 ! D61   D(1,5,15,40)          108.6937         estimate D2E/DX2                !
 ! D62   D(4,5,15,40)         -129.7528         estimate D2E/DX2                !
 ! D63   D(10,5,15,40)         -11.6098         estimate D2E/DX2                !
 ! D64   D(3,12,20,21)         172.5289         estimate D2E/DX2                !
 ! D65   D(3,12,20,22)          40.9779         estimate D2E/DX2                !
 ! D66   D(3,12,20,23)         -74.0839         estimate D2E/DX2                !
 ! D67   D(2,13,32,33)         -70.6896         estimate D2E/DX2                !
 ! D68   D(2,13,32,34)          51.3029         estimate D2E/DX2                !
 ! D69   D(2,13,32,35)         170.4485         estimate D2E/DX2                !
 ! D70   D(1,14,36,37)        -175.7085         estimate D2E/DX2                !
 ! D71   D(1,14,36,38)         -57.186          estimate D2E/DX2                !
 ! D72   D(1,14,36,39)          64.5938         estimate D2E/DX2                !
 ! D73   D(5,15,40,41)         178.6762         estimate D2E/DX2                !
 ! D74   D(5,15,40,42)         -62.0526         estimate D2E/DX2                !
 ! D75   D(5,15,40,43)          59.7047         estimate D2E/DX2                !
 ! D76   D(4,16,19,44)          74.3436         estimate D2E/DX2                !
 ! D77   D(17,16,19,44)       -167.3458         estimate D2E/DX2                !
 ! D78   D(18,16,19,44)        -49.3845         estimate D2E/DX2                !
 ! D79   D(16,19,44,45)        168.9831         estimate D2E/DX2                !
 ! D80   D(16,19,44,46)         49.8566         estimate D2E/DX2                !
 ! D81   D(16,19,44,47)        -71.4029         estimate D2E/DX2                !
 ! D82   D(12,20,23,24)        -70.619          estimate D2E/DX2                !
 ! D83   D(12,20,23,25)        104.9407         estimate D2E/DX2                !
 ! D84   D(21,20,23,24)         38.7247         estimate D2E/DX2                !
 ! D85   D(21,20,23,25)       -145.7156         estimate D2E/DX2                !
 ! D86   D(22,20,23,24)        173.8788         estimate D2E/DX2                !
 ! D87   D(22,20,23,25)        -10.5615         estimate D2E/DX2                !
 ! D88   D(20,23,24,26)        175.1572         estimate D2E/DX2                !
 ! D89   D(20,23,24,27)         -4.3032         estimate D2E/DX2                !
 ! D90   D(25,23,24,26)         -0.2619         estimate D2E/DX2                !
 ! D91   D(25,23,24,27)       -179.7223         estimate D2E/DX2                !
 ! D92   D(20,23,25,28)       -175.8604         estimate D2E/DX2                !
 ! D93   D(20,23,25,29)          3.3813         estimate D2E/DX2                !
 ! D94   D(24,23,25,28)         -0.4841         estimate D2E/DX2                !
 ! D95   D(24,23,25,29)        178.7576         estimate D2E/DX2                !
 ! D96   D(23,24,26,30)          0.5861         estimate D2E/DX2                !
 ! D97   D(23,24,26,48)       -173.5995         estimate D2E/DX2                !
 ! D98   D(27,24,26,30)       -179.9529         estimate D2E/DX2                !
 ! D99   D(27,24,26,48)          5.8614         estimate D2E/DX2                !
 ! D100  D(23,25,28,30)          0.9188         estimate D2E/DX2                !
 ! D101  D(23,25,28,52)        174.8963         estimate D2E/DX2                !
 ! D102  D(29,25,28,30)       -178.3183         estimate D2E/DX2                !
 ! D103  D(29,25,28,52)         -4.3408         estimate D2E/DX2                !
 ! D104  D(24,26,30,28)         -0.1607         estimate D2E/DX2                !
 ! D105  D(24,26,30,31)       -179.5866         estimate D2E/DX2                !
 ! D106  D(48,26,30,28)        173.9984         estimate D2E/DX2                !
 ! D107  D(48,26,30,31)         -5.4275         estimate D2E/DX2                !
 ! D108  D(24,26,48,49)        -32.7775         estimate D2E/DX2                !
 ! D109  D(24,26,48,50)       -154.3006         estimate D2E/DX2                !
 ! D110  D(24,26,48,51)         86.397          estimate D2E/DX2                !
 ! D111  D(30,26,48,49)        152.9964         estimate D2E/DX2                !
 ! D112  D(30,26,48,50)         31.4734         estimate D2E/DX2                !
 ! D113  D(30,26,48,51)        -87.829          estimate D2E/DX2                !
 ! D114  D(25,28,30,26)         -0.6094         estimate D2E/DX2                !
 ! D115  D(25,28,30,31)        178.8167         estimate D2E/DX2                !
 ! D116  D(52,28,30,26)       -174.654          estimate D2E/DX2                !
 ! D117  D(52,28,30,31)          4.7721         estimate D2E/DX2                !
 ! D118  D(25,28,52,53)        -95.1929         estimate D2E/DX2                !
 ! D119  D(25,28,52,54)        146.0297         estimate D2E/DX2                !
 ! D120  D(25,28,52,55)         24.4713         estimate D2E/DX2                !
 ! D121  D(30,28,52,53)         78.8858         estimate D2E/DX2                !
 ! D122  D(30,28,52,54)        -39.8917         estimate D2E/DX2                !
 ! D123  D(30,28,52,55)       -161.45           estimate D2E/DX2                !
 --------------------------------------------------------------------------------
 Trust Radius=3.00D-01 FncErr=1.00D-07 GrdErr=1.00D-06 EigMax=2.50D+02 EigMin=1.00D-04
 Number of steps in this run=    291 maximum allowed number of steps=    330.
 GradGradGradGradGradGradGradGradGradGradGradGradGradGradGradGradGradGrad

 Leave Link  103 at Mon Jun 10 05:35:11 2019, MaxMem= 12884901888 cpu:               5.2 elap:               0.1
 (Enter /home/ekwan/sw/g16/l202.exe)
 Stoichiometry    C18H22F6O8S
 Framework group  C1[X(C18H22F6O8S)]
 Deg. of freedom   159
 Full point group                 C1      NOp   1
 Largest Abelian subgroup         C1      NOp   1
 Largest concise Abelian subgroup C1      NOp   1
                         Standard orientation:                         
 ---------------------------------------------------------------------
 Center     Atomic      Atomic             Coordinates (Angstroms)
 Number     Number       Type             X           Y           Z
 ---------------------------------------------------------------------
      1          6           0       -3.335425    0.610259   -0.054313
      2          6           0       -3.208450   -0.803497    0.547130
      3          6           0       -1.740384   -1.304331    0.498082
      4          6           0       -0.862480    0.932794    0.463307
      5          6           0       -2.270845    1.546359    0.542901
      6          1           0       -1.611570   -2.241194    1.051675
      7          1           0       -3.459901   -0.742427    1.624841
      8          1           0       -3.178567    0.551850   -1.145693
      9          1           0       -0.574532    0.843117   -0.596634
     10          1           0       -2.512835    1.725237    1.602872
     11          8           0       -0.842629   -0.395716    1.061659
     12          8           0       -1.450237   -1.559383   -0.924743
     13          8           0       -4.109414   -1.666540   -0.124273
     14          8           0       -4.609481    1.178954    0.245587
     15          8           0       -2.234956    2.771617   -0.189352
     16          6           0        0.199827    1.792605    1.163902
     17          1           0        0.394648    2.656461    0.515728
     18          1           0        1.126601    1.199791    1.260611
     19          8           0       -0.184994    2.327580    2.426096
     20         16           0       -0.152428   -2.536576   -1.278582
     21          8           0       -0.247854   -2.736138   -2.729735
     22          8           0       -0.121193   -3.670941   -0.338604
     23          6           0        1.238071   -1.443300   -0.920300
     24          6           0        1.474085   -0.366503   -1.781215
     25          6           0        1.979984   -1.641225    0.248192
     26          6           0        2.488335    0.543674   -1.449740
     27          1           0        0.879160   -0.232330   -2.682808
     28          6           0        2.998777   -0.728799    0.551682
     29          1           0        1.759288   -2.477029    0.907896
     30          6           0        3.252279    0.366160   -0.288397
     31          1           0        4.033193    1.079970   -0.033807
     32          6           0       -4.263474   -2.940853    0.509773
     33          1           0       -3.356454   -3.562518    0.402740
     34          1           0       -4.496895   -2.824005    1.585098
     35          1           0       -5.100972   -3.439331    0.003804
     36          6           0       -5.585135    1.008458   -0.788513
     37          1           0       -6.480156    1.556047   -0.459814
     38          1           0       -5.225155    1.437688   -1.742799
     39          1           0       -5.830950   -0.054452   -0.940412
     40          6           0       -2.769488    3.882852    0.539689
     41          1           0       -2.664736    4.761161   -0.113453
     42          1           0       -3.834100    3.721111    0.778659
     43          1           0       -2.201728    4.045252    1.473353
     44          6           0       -0.201386    1.354950    3.477918
     45          1           0       -0.311998    1.915104    4.417480
     46          1           0        0.743228    0.780815    3.496711
     47          1           0       -1.040448    0.647434    3.368292
     48          6           0        2.666591    1.794813   -2.285431
     49          9           0        2.351000    1.585989   -3.589304
     50          9           0        3.938438    2.267060   -2.234090
     51          9           0        1.847031    2.787552   -1.825757
     52          6           0        3.749917   -0.837233    1.862407
     53          9           0        3.193273   -0.007631    2.797352
     54          9           0        5.050494   -0.467563    1.730424
     55          9           0        3.722541   -2.094419    2.371092
 ---------------------------------------------------------------------
 Rotational constants (GHZ):           0.1501997           0.0912255           0.0843217
 Leave Link  202 at Mon Jun 10 05:35:11 2019, MaxMem= 12884901888 cpu:               8.8 elap:               0.2
 (Enter /home/ekwan/sw/g16/l301.exe)
 Standard basis: 6-31G(d) (6D, 7F)
 Ernie: Thresh=  0.10000D-02 Tol=  0.10000D-05 Strict=F.
 There are   543 symmetry adapted cartesian basis functions of A   symmetry.
 There are   543 symmetry adapted basis functions of A   symmetry.
   543 basis functions,  1036 primitive gaussians,   543 cartesian basis functions
   132 alpha electrons      132 beta electrons
       nuclear repulsion energy      4364.8054173676 Hartrees.
 IExCor= 3630 DFT=T Ex+Corr=B97D ExCW=0 ScaHFX=  0.000000
 ScaDFX=  1.000000  1.000000  1.000000  1.000000 ScalE2=  1.000000  1.000000
 IRadAn=      5 IRanWt=     -1 IRanGd=            0 ICorTp=0 IEmpDi=121
 NAtoms=   55 NActive=   55 NUniq=   55 SFac= 1.00D+00 NAtFMM=   60 NAOKFM=F Big=F
 Integral buffers will be    131072 words long.
 Raffenetti 2 integral format.
 Two-electron integral symmetry is turned on.
 R6Disp:  Grimme-D2 Dispersion energy=       -0.1157994064 Hartrees.
 Nuclear repulsion after empirical dispersion term =     4364.6896179612 Hartrees.
 ------------------------------------------------------------------------------
 Polarizable Continuum Model (PCM)
 =================================
 Model                : PCM.
 Atomic radii         : UFF (Universal Force Field).
 Polarization charges : Total charges.
 Charge compensation  : None.
 Solution method      : On-the-fly selection.
 Cavity type          : Scaled VdW (van der Waals Surface) (Alpha=1.100).
 Cavity algorithm     : GePol (No added spheres)
                        Default sphere list used, NSphG=   55.
                        Lebedev-Laikov grids with approx.  5.0 points / Ang**2.
                        Smoothing algorithm: York/Karplus (Gamma=1.0000).
                        Polarization charges: spherical gaussians, with
                                              point-specific exponents (IZeta= 3).
                        Self-potential: point-specific (ISelfS= 7).
                        Self-field    : sphere-specific E.n sum rule (ISelfD= 2).
 1st derivatives      : Analytical E(r).r(x)/FMM algorithm (CHGder, D1EAlg=3).
                        Cavity 1st derivative terms included.
 Solvent              : TetraHydroFuran, Eps=   7.425700 Eps(inf)=   1.974025
 ------------------------------------------------------------------------------
 GePol: Number of generator spheres                  =      55
 GePol: Total number of spheres                      =      55
 GePol: Number of exposed spheres                    =      55 (100.00%)
 GePol: Number of points                             =    3849
 GePol: Average weight of points                     =       0.13
 GePol: Minimum weight of points                     =   0.48D-10
 GePol: Maximum weight of points                     =    0.20577
 GePol: Number of points with low weight             =     246
 GePol: Fraction of low-weight points (<1% of avg)   =       6.39%
 GePol: Cavity surface area                          =    485.734 Ang**2
 GePol: Cavity volume                                =    577.915 Ang**3
 Leave Link  301 at Mon Jun 10 05:35:12 2019, MaxMem= 12884901888 cpu:              14.4 elap:               0.3
 (Enter /home/ekwan/sw/g16/l302.exe)
 NPDir=0 NMtPBC=     1 NCelOv=     1 NCel=       1 NClECP=     1 NCelD=      1
         NCelK=      1 NCelE2=     1 NClLst=     1 CellRange=     0.0.
 One-electron integrals computed using PRISM.
 One-electron integral symmetry used in STVInt
 NBasis=   543 RedAO= T EigKep=  4.38D-04  NBF=   543
 NBsUse=   543 1.00D-06 EigRej= -1.00D+00 NBFU=   543
 Precomputing XC quadrature grid using
 IXCGrd= 4 IRadAn=           5 IRanWt=          -1 IRanGd=           0 AccXCQ= 0.00D+00.
 Generated NRdTot=       0 NPtTot=           0 NUsed=           0 NTot=          32
 NSgBfM=   534   534   534   534   534 MxSgAt=    55 MxSgA2=    55.
 Leave Link  302 at Mon Jun 10 05:35:19 2019, MaxMem= 12884901888 cpu:             416.8 elap:               6.9
 (Enter /home/ekwan/sw/g16/l303.exe)
 DipDrv:  MaxL=1.
 Leave Link  303 at Mon Jun 10 05:35:19 2019, MaxMem= 12884901888 cpu:              21.6 elap:               0.5
 (Enter /home/ekwan/sw/g16/l401.exe)
 ExpMin= 1.17D-01 ExpMax= 2.19D+04 ExpMxC= 3.30D+03 IAcc=3 IRadAn=         5 AccDes= 0.00D+00
 Harris functional with IExCor= 3630 and IRadAn=       5 diagonalized for initial guess.
 HarFok:  IExCor= 3630 AccDes= 0.00D+00 IRadAn=         5 IDoV= 1 UseB2=F ITyADJ=14
 ICtDFT=  3500011 ScaDFX=  1.000000  1.000000  1.000000  1.000000
 FoFCou: FMM=F IPFlag=           0 FMFlag=      100000 FMFlg1=           0
         NFxFlg=           0 DoJE=T BraDBF=F KetDBF=T FulRan=T
         wScrn=  0.000000 ICntrl=       500 IOpCl=  0 I1Cent=   200000004 NGrid=           0
         NMat0=    1 NMatS0=      1 NMatT0=    0 NMatD0=    1 NMtDS0=    0 NMtDT0=    0
 Petite list used in FoFCou.
 Harris En= -2297.17491649414    
 JPrj=0 DoOrth=F DoCkMO=F.
 Leave Link  401 at Mon Jun 10 05:35:23 2019, MaxMem= 12884901888 cpu:             254.6 elap:               4.1
 (Enter /home/ekwan/sw/g16/l502.exe)
 Integral symmetry usage will be decided dynamically.
 Closed shell SCF:
 Using DIIS extrapolation, IDIIS=  1040.
 NGot= 12884901888 LenX= 12884271583 LenY= 12883976191
 Requested convergence on RMS density matrix=1.00D-08 within 128 cycles.
 Requested convergence on MAX density matrix=1.00D-06.
 Requested convergence on             energy=1.00D-06.
 No special actions if energy rises.
 Fock matrices will be formed incrementally for  20 cycles.

 Cycle   1  Pass 1  IDiag  1:
 FoFJK:  IHMeth= 1 ICntrl=     500 DoSepK=F KAlg= 0 I1Cent=           0 FoldK=F
 IRaf= 710000000 NMat=       1 IRICut=       1 DoRegI=T DoRafI=F ISym2E= 0 IDoP0=0 IntGTp=1.
 FoFCou: FMM=F IPFlag=           0 FMFlag=      100000 FMFlg1=           0
         NFxFlg=           0 DoJE=T BraDBF=F KetDBF=F FulRan=T
         wScrn=  0.000000 ICntrl=       500 IOpCl=  0 I1Cent=           0 NGrid=           0
         NMat0=    1 NMatS0=      1 NMatT0=    0 NMatD0=    1 NMtDS0=    0 NMtDT0=    0
 Symmetry not used in FoFCou.
 Inv3:  Mode=1 IEnd=    44444403.
 Iteration    1 A*A^-1 deviation from unit magnitude is 5.33D-15 for   3845.
 Iteration    1 A*A^-1 deviation from orthogonality  is 2.37D-15 for   3820   2499.
 Iteration    1 A^-1*A deviation from unit magnitude is 5.33D-15 for   3845.
 Iteration    1 A^-1*A deviation from orthogonality  is 7.60D-14 for   3843   3121.
 E= -2296.21121361783    
 DIIS: error= 2.51D-02 at cycle   1 NSaved=   1.
 NSaved= 1 IEnMin= 1 EnMin= -2296.21121361783     IErMin= 1 ErrMin= 2.51D-02
 ErrMax= 2.51D-02  0.00D+00 EMaxC= 1.00D-01 BMatC= 8.79D-01 BMatP= 8.79D-01
 IDIUse=3 WtCom= 7.49D-01 WtEn= 2.51D-01
 Coeff-Com:  0.100D+01
 Coeff-En:   0.100D+01
 Coeff:      0.100D+01
 Gap=     0.078 Goal=   None    Shift=    0.000
 GapD=    0.078 DampG=0.500 DampE=0.500 DampFc=0.2500 IDamp=-1.
 Damping current iteration by 2.50D-01
 RMSDP=5.04D-03 MaxDP=7.41D-01              OVMax= 2.57D-01

 Cycle   2  Pass 1  IDiag  1:
 RMSU=  1.26D-03    CP:  1.00D+00
 E= -2296.45934894453     Delta-E=       -0.248135326699 Rises=F Damp=T
 DIIS: error= 9.67D-03 at cycle   2 NSaved=   2.
 NSaved= 2 IEnMin= 2 EnMin= -2296.45934894453     IErMin= 2 ErrMin= 9.67D-03
 ErrMax= 9.67D-03  0.00D+00 EMaxC= 1.00D-01 BMatC= 1.08D-01 BMatP= 8.79D-01
 IDIUse=3 WtCom= 9.03D-01 WtEn= 9.67D-02
 Coeff-Com: -0.341D+00 0.134D+01
 Coeff-En:   0.659D-02 0.993D+00
 Coeff:     -0.307D+00 0.131D+01
 Gap=     0.129 Goal=   None    Shift=    0.000
 RMSDP=1.21D-03 MaxDP=6.01D-02 DE=-2.48D-01 OVMax= 2.14D-01

 Cycle   3  Pass 1  IDiag  1:
 RMSU=  1.20D-03    CP:  9.98D-01  1.10D+00
 E= -2296.81236090203     Delta-E=       -0.353011957500 Rises=F Damp=F
 DIIS: error= 1.25D-02 at cycle   3 NSaved=   3.
 NSaved= 3 IEnMin= 3 EnMin= -2296.81236090203     IErMin= 2 ErrMin= 9.67D-03
 ErrMax= 1.25D-02  0.00D+00 EMaxC= 1.00D-01 BMatC= 1.46D-01 BMatP= 1.08D-01
 IDIUse=2 WtCom= 0.00D+00 WtEn= 1.00D+00
 Coeff-En:   0.000D+00 0.000D+00 0.100D+01
 Coeff:      0.000D+00 0.000D+00 0.100D+01
 Gap=     0.083 Goal=   None    Shift=    0.000
 RMSDP=3.01D-03 MaxDP=2.62D-01 DE=-3.53D-01 OVMax= 3.03D-01

 Cycle   4  Pass 1  IDiag  1:
 RMSU=  1.30D-03    CP:  1.01D+00  2.21D+00 -9.27D-01
 E= -2295.84958102195     Delta-E=        0.962779880079 Rises=F Damp=F
 DIIS: error= 4.20D-02 at cycle   4 NSaved=   4.
 NSaved= 4 IEnMin= 3 EnMin= -2296.81236090203     IErMin= 2 ErrMin= 9.67D-03
 ErrMax= 4.20D-02  0.00D+00 EMaxC= 1.00D-01 BMatC= 1.31D+00 BMatP= 1.08D-01
 IDIUse=2 WtCom= 0.00D+00 WtEn= 1.00D+00
 Coeff-En:   0.000D+00 0.000D+00 0.835D+00 0.165D+00
 Coeff:      0.000D+00 0.000D+00 0.835D+00 0.165D+00
 Gap=     0.138 Goal=   None    Shift=    0.000
 RMSDP=1.76D-03 MaxDP=1.63D-01 DE= 9.63D-01 OVMax= 2.07D-01

 Cycle   5  Pass 1  IDiag  1:
 RMSU=  3.71D-04    CP:  1.00D+00  1.42D+00  5.05D-02  4.07D-01
 E= -2296.84758434861     Delta-E=       -0.998003326661 Rises=F Damp=F
 DIIS: error= 9.99D-03 at cycle   5 NSaved=   5.
 NSaved= 5 IEnMin= 5 EnMin= -2296.84758434861     IErMin= 2 ErrMin= 9.67D-03
 ErrMax= 9.99D-03  0.00D+00 EMaxC= 1.00D-01 BMatC= 1.12D-01 BMatP= 1.08D-01
 IDIUse=3 WtCom= 9.00D-01 WtEn= 9.99D-02
 Coeff-Com: -0.489D-01 0.130D+00 0.390D+00-0.597D-01 0.589D+00
 Coeff-En:   0.000D+00 0.000D+00 0.444D+00 0.000D+00 0.556D+00
 Coeff:     -0.440D-01 0.117D+00 0.395D+00-0.538D-01 0.586D+00
 Gap=     0.104 Goal=   None    Shift=    0.000
 RMSDP=6.42D-04 MaxDP=5.00D-02 DE=-9.98D-01 OVMax= 6.00D-02

 Cycle   6  Pass 1  IDiag  1:
 RMSU=  1.18D-04    CP:  1.00D+00  1.26D+00  4.77D-01  1.96D-01  6.36D-01
 E= -2296.94229812992     Delta-E=       -0.094713781311 Rises=F Damp=F
 DIIS: error= 1.29D-03 at cycle   6 NSaved=   6.
 NSaved= 6 IEnMin= 6 EnMin= -2296.94229812992     IErMin= 6 ErrMin= 1.29D-03
 ErrMax= 1.29D-03  0.00D+00 EMaxC= 1.00D-01 BMatC= 1.64D-03 BMatP= 1.08D-01
 IDIUse=3 WtCom= 9.87D-01 WtEn= 1.29D-02
 Coeff-Com: -0.295D-01 0.646D-01 0.232D+00-0.549D-01 0.419D+00 0.369D+00
 Coeff-En:   0.000D+00 0.000D+00 0.000D+00 0.000D+00 0.000D+00 0.100D+01
 Coeff:     -0.291D-01 0.638D-01 0.229D+00-0.542D-01 0.413D+00 0.377D+00
 Gap=     0.104 Goal=   None    Shift=    0.000
 RMSDP=8.69D-05 MaxDP=6.42D-03 DE=-9.47D-02 OVMax= 9.47D-03

 Cycle   7  Pass 1  IDiag  1:
 RMSU=  4.10D-05    CP:  1.00D+00  1.26D+00  4.77D-01  1.96D-01  6.96D-01
                    CP:  3.78D-01
 E= -2296.94349880353     Delta-E=       -0.001200673608 Rises=F Damp=F
 DIIS: error= 5.09D-04 at cycle   7 NSaved=   7.
 NSaved= 7 IEnMin= 7 EnMin= -2296.94349880353     IErMin= 7 ErrMin= 5.09D-04
 ErrMax= 5.09D-04  0.00D+00 EMaxC= 1.00D-01 BMatC= 1.75D-04 BMatP= 1.64D-03
 IDIUse=3 WtCom= 9.95D-01 WtEn= 5.09D-03
 Coeff-Com: -0.114D-01 0.232D-01 0.906D-01-0.255D-01 0.171D+00 0.251D+00
 Coeff-Com:  0.501D+00
 Coeff-En:   0.000D+00 0.000D+00 0.000D+00 0.000D+00 0.000D+00 0.991D-01
 Coeff-En:   0.901D+00
 Coeff:     -0.113D-01 0.230D-01 0.901D-01-0.254D-01 0.170D+00 0.250D+00
 Coeff:      0.503D+00
 Gap=     0.105 Goal=   None    Shift=    0.000
 RMSDP=2.93D-05 MaxDP=2.29D-03 DE=-1.20D-03 OVMax= 3.40D-03

 Cycle   8  Pass 1  IDiag  1:
 RMSU=  1.59D-05    CP:  1.00D+00  1.26D+00  4.79D-01  1.95D-01  6.91D-01
                    CP:  4.80D-01  5.02D-01
 E= -2296.94361334499     Delta-E=       -0.000114541461 Rises=F Damp=F
 DIIS: error= 1.50D-04 at cycle   8 NSaved=   8.
 NSaved= 8 IEnMin= 8 EnMin= -2296.94361334499     IErMin= 8 ErrMin= 1.50D-04
 ErrMax= 1.50D-04  0.00D+00 EMaxC= 1.00D-01 BMatC= 2.90D-05 BMatP= 1.75D-04
 IDIUse=3 WtCom= 9.98D-01 WtEn= 1.50D-03
 Coeff-Com: -0.119D-02 0.219D-02 0.230D-01-0.615D-02 0.392D-01 0.104D+00
 Coeff-Com:  0.345D+00 0.494D+00
 Coeff-En:   0.000D+00 0.000D+00 0.000D+00 0.000D+00 0.000D+00 0.000D+00
 Coeff-En:   0.142D+00 0.858D+00
 Coeff:     -0.119D-02 0.218D-02 0.230D-01-0.614D-02 0.392D-01 0.104D+00
 Coeff:      0.345D+00 0.494D+00
 Gap=     0.105 Goal=   None    Shift=    0.000
 RMSDP=1.10D-05 MaxDP=6.37D-04 DE=-1.15D-04 OVMax= 9.56D-04

 Cycle   9  Pass 1  IDiag  1:
 RMSU=  5.16D-06    CP:  1.00D+00  1.26D+00  4.81D-01  1.94D-01  6.87D-01
                    CP:  4.73D-01  6.10D-01  4.83D-01
 E= -2296.94363607593     Delta-E=       -0.000022730943 Rises=F Damp=F
 DIIS: error= 4.15D-05 at cycle   9 NSaved=   9.
 NSaved= 9 IEnMin= 9 EnMin= -2296.94363607593     IErMin= 9 ErrMin= 4.15D-05
 ErrMax= 4.15D-05  0.00D+00 EMaxC= 1.00D-01 BMatC= 2.45D-06 BMatP= 2.90D-05
 IDIUse=1 WtCom= 1.00D+00 WtEn= 0.00D+00
 Coeff-Com:  0.416D-03-0.931D-03 0.717D-02-0.156D-02 0.974D-02 0.438D-01
 Coeff-Com:  0.174D+00 0.313D+00 0.454D+00
 Coeff:      0.416D-03-0.931D-03 0.717D-02-0.156D-02 0.974D-02 0.438D-01
 Coeff:      0.174D+00 0.313D+00 0.454D+00
 Gap=     0.105 Goal=   None    Shift=    0.000
 RMSDP=3.46D-06 MaxDP=2.05D-04 DE=-2.27D-05 OVMax= 2.63D-04

 Cycle  10  Pass 1  IDiag  1:
 RMSU=  1.56D-06    CP:  1.00D+00  1.26D+00  4.82D-01  1.94D-01  6.87D-01
                    CP:  4.74D-01  6.09D-01  5.33D-01  4.50D-01
 E= -2296.94363797335     Delta-E=       -0.000001897424 Rises=F Damp=F
 DIIS: error= 1.24D-05 at cycle  10 NSaved=  10.
 NSaved=10 IEnMin=10 EnMin= -2296.94363797335     IErMin=10 ErrMin= 1.24D-05
 ErrMax= 1.24D-05  0.00D+00 EMaxC= 1.00D-01 BMatC= 2.47D-07 BMatP= 2.45D-06
 IDIUse=1 WtCom= 1.00D+00 WtEn= 0.00D+00
 Coeff-Com:  0.306D-03-0.545D-03 0.188D-02-0.329D-03 0.142D-02 0.155D-01
 Coeff-Com:  0.694D-01 0.143D+00 0.284D+00 0.485D+00
 Coeff:      0.306D-03-0.545D-03 0.188D-02-0.329D-03 0.142D-02 0.155D-01
 Coeff:      0.694D-01 0.143D+00 0.284D+00 0.485D+00
 Gap=     0.105 Goal=   None    Shift=    0.000
 RMSDP=1.12D-06 MaxDP=8.87D-05 DE=-1.90D-06 OVMax= 1.37D-04

 Cycle  11  Pass 1  IDiag  1:
 RMSU=  6.80D-07    CP:  1.00D+00  1.26D+00  4.82D-01  1.94D-01  6.87D-01
                    CP:  4.74D-01  6.10D-01  5.33D-01  5.13D-01  4.73D-01
 E= -2296.94363814632     Delta-E=       -0.000000172967 Rises=F Damp=F
 DIIS: error= 4.89D-06 at cycle  11 NSaved=  11.
 NSaved=11 IEnMin=11 EnMin= -2296.94363814632     IErMin=11 ErrMin= 4.89D-06
 ErrMax= 4.89D-06  0.00D+00 EMaxC= 1.00D-01 BMatC= 3.60D-08 BMatP= 2.47D-07
 IDIUse=1 WtCom= 1.00D+00 WtEn= 0.00D+00
 Coeff-Com:  0.135D-03-0.210D-03 0.510D-03-0.971D-04 0.910D-05 0.561D-02
 Coeff-Com:  0.267D-01 0.611D-01 0.141D+00 0.338D+00 0.427D+00
 Coeff:      0.135D-03-0.210D-03 0.510D-03-0.971D-04 0.910D-05 0.561D-02
 Coeff:      0.267D-01 0.611D-01 0.141D+00 0.338D+00 0.427D+00
 Gap=     0.105 Goal=   None    Shift=    0.000
 RMSDP=4.13D-07 MaxDP=2.66D-05 DE=-1.73D-07 OVMax= 7.40D-05

 Cycle  12  Pass 1  IDiag  1:
 RMSU=  1.74D-07    CP:  1.00D+00  1.26D+00  4.82D-01  1.94D-01  6.87D-01
                    CP:  4.74D-01  6.11D-01  5.36D-01  5.15D-01  5.34D-01
                    CP:  5.04D-01
 E= -2296.94363818143     Delta-E=       -0.000000035108 Rises=F Damp=F
 DIIS: error= 9.37D-07 at cycle  12 NSaved=  12.
 NSaved=12 IEnMin=12 EnMin= -2296.94363818143     IErMin=12 ErrMin= 9.37D-07
 ErrMax= 9.37D-07  0.00D+00 EMaxC= 1.00D-01 BMatC= 1.47D-09 BMatP= 3.60D-08
 IDIUse=1 WtCom= 1.00D+00 WtEn= 0.00D+00
 Coeff-Com:  0.525D-04-0.783D-04 0.530D-04 0.834D-06-0.226D-03 0.136D-02
 Coeff-Com:  0.680D-02 0.181D-01 0.467D-01 0.136D+00 0.225D+00 0.566D+00
 Coeff:      0.525D-04-0.783D-04 0.530D-04 0.834D-06-0.226D-03 0.136D-02
 Coeff:      0.680D-02 0.181D-01 0.467D-01 0.136D+00 0.225D+00 0.566D+00
 Gap=     0.105 Goal=   None    Shift=    0.000
 RMSDP=1.01D-07 MaxDP=6.78D-06 DE=-3.51D-08 OVMax= 1.38D-05

 Cycle  13  Pass 1  IDiag  1:
 RMSU=  6.00D-08    CP:  1.00D+00  1.26D+00  4.82D-01  1.94D-01  6.87D-01
                    CP:  4.75D-01  6.11D-01  5.36D-01  5.15D-01  5.50D-01
                    CP:  5.41D-01  5.92D-01
 E= -2296.94363818255     Delta-E=       -0.000000001117 Rises=F Damp=F
 DIIS: error= 4.27D-07 at cycle  13 NSaved=  13.
 NSaved=13 IEnMin=13 EnMin= -2296.94363818255     IErMin=13 ErrMin= 4.27D-07
 ErrMax= 4.27D-07  0.00D+00 EMaxC= 1.00D-01 BMatC= 2.79D-10 BMatP= 1.47D-09
 IDIUse=1 WtCom= 1.00D+00 WtEn= 0.00D+00
 Coeff-Com:  0.161D-04-0.205D-04 0.148D-05 0.539D-05-0.103D-03 0.311D-03
 Coeff-Com:  0.150D-02 0.497D-02 0.147D-01 0.510D-01 0.941D-01 0.355D+00
 Coeff-Com:  0.478D+00
 Coeff:      0.161D-04-0.205D-04 0.148D-05 0.539D-05-0.103D-03 0.311D-03
 Coeff:      0.150D-02 0.497D-02 0.147D-01 0.510D-01 0.941D-01 0.355D+00
 Coeff:      0.478D+00
 Gap=     0.105 Goal=   None    Shift=    0.000
 RMSDP=3.55D-08 MaxDP=1.96D-06 DE=-1.12D-09 OVMax= 5.83D-06

 Cycle  14  Pass 1  IDiag  1:
 RMSU=  1.52D-08    CP:  1.00D+00  1.26D+00  4.82D-01  1.94D-01  6.87D-01
                    CP:  4.75D-01  6.11D-01  5.36D-01  5.15D-01  5.49D-01
                    CP:  5.35D-01  6.59D-01  5.17D-01
 E= -2296.94363818276     Delta-E=       -0.000000000211 Rises=F Damp=F
 DIIS: error= 1.16D-07 at cycle  14 NSaved=  14.
 NSaved=14 IEnMin=14 EnMin= -2296.94363818276     IErMin=14 ErrMin= 1.16D-07
 ErrMax= 1.16D-07  0.00D+00 EMaxC= 1.00D-01 BMatC= 1.26D-11 BMatP= 2.79D-10
 IDIUse=1 WtCom= 1.00D+00 WtEn= 0.00D+00
 Coeff-Com:  0.452D-05-0.516D-05-0.823D-06 0.188D-05-0.314D-04 0.690D-04
 Coeff-Com:  0.296D-03 0.127D-02 0.436D-02 0.170D-01 0.327D-01 0.143D+00
 Coeff-Com:  0.249D+00 0.552D+00
 Coeff:      0.452D-05-0.516D-05-0.823D-06 0.188D-05-0.314D-04 0.690D-04
 Coeff:      0.296D-03 0.127D-02 0.436D-02 0.170D-01 0.327D-01 0.143D+00
 Coeff:      0.249D+00 0.552D+00
 Gap=     0.105 Goal=   None    Shift=    0.000
 RMSDP=1.00D-08 MaxDP=7.54D-07 DE=-2.11D-10 OVMax= 2.09D-06

 Cycle  15  Pass 1  IDiag  1:
 RMSU=  6.69D-09    CP:  1.00D+00  1.26D+00  4.82D-01  1.94D-01  6.87D-01
                    CP:  4.75D-01  6.10D-01  5.37D-01  5.15D-01  5.49D-01
                    CP:  5.36D-01  6.63D-01  5.42D-01  5.48D-01
 E= -2296.94363818281     Delta-E=       -0.000000000051 Rises=F Damp=F
 DIIS: error= 6.64D-08 at cycle  15 NSaved=  15.
 NSaved=15 IEnMin=15 EnMin= -2296.94363818281     IErMin=15 ErrMin= 6.64D-08
 ErrMax= 6.64D-08  0.00D+00 EMaxC= 1.00D-01 BMatC= 3.79D-12 BMatP= 1.26D-11
 IDIUse=1 WtCom= 1.00D+00 WtEn= 0.00D+00
 Coeff-Com:  0.127D-05-0.143D-05-0.695D-06 0.571D-06-0.806D-05 0.924D-05
 Coeff-Com:  0.251D-04 0.244D-03 0.113D-02 0.503D-02 0.102D-01 0.508D-01
 Coeff-Com:  0.108D+00 0.382D+00 0.443D+00
 Coeff:      0.127D-05-0.143D-05-0.695D-06 0.571D-06-0.806D-05 0.924D-05
 Coeff:      0.251D-04 0.244D-03 0.113D-02 0.503D-02 0.102D-01 0.508D-01
 Coeff:      0.108D+00 0.382D+00 0.443D+00
 Gap=     0.105 Goal=   None    Shift=    0.000
 RMSDP=4.40D-09 MaxDP=2.48D-07 DE=-5.09D-11 OVMax= 8.22D-07

 Error on total polarization charges =  0.00875
 SCF Done:  E(RB97D) =  -2296.94363818     A.U. after   15 cycles
            NFock= 15  Conv=0.44D-08     -V/T= 2.0067
 KE= 2.281629417490D+03 PE=-1.413915894441D+04 EE= 5.195896270776D+03
 Leave Link  502 at Mon Jun 10 05:38:30 2019, MaxMem= 12884901888 cpu:           11280.9 elap:             186.7
 (Enter /home/ekwan/sw/g16/l701.exe)
 ... and contract with generalized density number  0.
 Compute integral first derivatives.
 R6Disp: Adding Grimme-D2 dispersion energy 1st derivatives to the gradient.
 D1PCM: PCM CHGder 1st derivatives, ID1Alg=3 FixD1E=F DoIter=F DoCFld=F I1PDM=0.
 GePol: Maximum number of non-zero 1st derivatives   =     222
 Leave Link  701 at Mon Jun 10 05:38:39 2019, MaxMem= 12884901888 cpu:             553.8 elap:               9.3
 (Enter /home/ekwan/sw/g16/l702.exe)
 L702 exits ... SP integral derivatives will be done elsewhere.
 Leave Link  702 at Mon Jun 10 05:38:39 2019, MaxMem= 12884901888 cpu:               5.7 elap:               0.2
 (Enter /home/ekwan/sw/g16/l703.exe)
 Integral derivatives from FoFJK, PRISM(SPDF).
 Compute integral first derivatives, UseDBF=F ICtDFT=           0.
 Calling FoFJK, ICntrl=      2527 FMM=F ISym2X=0 I1Cent= 0 IOpClX= 0 NMat=1 NMatS=1 NMatT=0.
 FoFJK:  IHMeth= 1 ICntrl=    2527 DoSepK=F KAlg= 0 I1Cent=           0 FoldK=F
 IRaf=         0 NMat=       1 IRICut=       1 DoRegI=T DoRafI=F ISym2E= 0 IDoP0=0 IntGTp=1.
 FoFCou: FMM=F IPFlag=           0 FMFlag=      100000 FMFlg1=         800
         NFxFlg=           0 DoJE=F BraDBF=F KetDBF=F FulRan=T
         wScrn=  0.000000 ICntrl=      2527 IOpCl=  0 I1Cent=           0 NGrid=           0
         NMat0=    1 NMatS0=      1 NMatT0=    0 NMatD0=    1 NMtDS0=    0 NMtDT0=    0
 Symmetry not used in FoFCou.
 Leave Link  703 at Mon Jun 10 05:39:02 2019, MaxMem= 12884901888 cpu:            1389.8 elap:              22.1
 (Enter /home/ekwan/sw/g16/l716.exe)
 Dipole        =-7.36787503D-02 3.58516339D-01 1.13397142D+00
 ***** Axes restored to original set *****
 -------------------------------------------------------------------
 Center     Atomic                   Forces (Hartrees/Bohr)
 Number     Number              X              Y              Z
 -------------------------------------------------------------------
      1        6           0.000001165   -0.000007092    0.000001414
      2        6           0.000003418    0.000001862    0.000002158
      3        6           0.000005446    0.000006364   -0.000016121
      4        6          -0.000002111    0.000007160   -0.000000310
      5        6           0.000002947   -0.000005283   -0.000001562
      6        1          -0.000002671    0.000001512   -0.000000195
      7        1          -0.000001726    0.000000618   -0.000000673
      8        1          -0.000000407   -0.000000735   -0.000000351
      9        1           0.000002763   -0.000000166    0.000001156
     10        1           0.000001851   -0.000000448   -0.000001420
     11        8          -0.000007535   -0.000001960    0.000003201
     12        8           0.000000879   -0.000003988    0.000009545
     13        8          -0.000008021    0.000004670    0.000000389
     14        8           0.000000248    0.000006519   -0.000000203
     15        8           0.000002963    0.000003061    0.000002979
     16        6           0.000000620   -0.000000504   -0.000005530
     17        1          -0.000002227    0.000001324    0.000000814
     18        1          -0.000000153   -0.000001925    0.000001072
     19        8           0.000002043   -0.000000561    0.000005879
     20       16          -0.000003151    0.000003691   -0.000000798
     21        8           0.000000298    0.000000206    0.000001946
     22        8          -0.000002240   -0.000001539   -0.000003204
     23        6          -0.000000777    0.000003219    0.000002682
     24        6          -0.000001798   -0.000004532    0.000001478
     25        6           0.000004564   -0.000003240   -0.000001618
     26        6           0.000005524    0.000005873   -0.000009571
     27        1           0.000000191   -0.000000195   -0.000000117
     28        6          -0.000000862    0.000000348    0.000002131
     29        1          -0.000004059    0.000000916   -0.000001742
     30        6          -0.000000490   -0.000000789    0.000006806
     31        1          -0.000000642   -0.000000797    0.000000479
     32        6           0.000002074   -0.000005303    0.000002354
     33        1          -0.000001534    0.000002658    0.000000615
     34        1          -0.000000784    0.000001518    0.000000056
     35        1          -0.000002528    0.000001747   -0.000000811
     36        6          -0.000000590   -0.000002516    0.000004194
     37        1           0.000000364    0.000000381   -0.000000664
     38        1           0.000001096    0.000002211   -0.000000612
     39        1           0.000000945    0.000001792   -0.000000114
     40        6          -0.000001852    0.000000668    0.000000750
     41        1           0.000002456   -0.000000305    0.000000312
     42        1           0.000002688    0.000000869    0.000000208
     43        1           0.000001677    0.000001460   -0.000001236
     44        6           0.000001271   -0.000002272   -0.000000379
     45        1           0.000000344    0.000000668    0.000000033
     46        1           0.000000739    0.000000038    0.000000202
     47        1          -0.000001488   -0.000000676    0.000001340
     48        6          -0.000010793   -0.000002432    0.000002436
     49        9           0.000004261   -0.000000834    0.000001177
     50        9           0.000003559   -0.000001197    0.000000946
     51        9           0.000003023   -0.000003574   -0.000002051
     52        6          -0.000007235   -0.000010426    0.000000245
     53        9           0.000001634    0.000002835   -0.000005971
     54        9          -0.000001420   -0.000005311   -0.000004623
     55        9           0.000006043    0.000004412    0.000000881
 -------------------------------------------------------------------
 Cartesian Forces:  Max     0.000016121 RMS     0.000003428
 Leave Link  716 at Mon Jun 10 05:39:02 2019, MaxMem= 12884901888 cpu:               6.2 elap:               0.1
 (Enter /home/ekwan/sw/g16/l103.exe)

 GradGradGradGradGradGradGradGradGradGradGradGradGradGradGradGradGradGrad
 Berny optimization.
 FormGI is forming the generalized inverse of G from B-inverse, IUseBI=4.
 Internal  Forces:  Max     0.000012626 RMS     0.000002502
 Search for a local minimum.
 Step number   1 out of a maximum of  291
 All quantities printed in internal units (Hartrees-Bohrs-Radians)
 RMS Force = .25020D-05 SwitMx=.10000D-02 MixMth= 2
 Mixed Optimization -- En-DIIS/RFO-DIIS
 Second derivative matrix not updated -- first step.
 ITU=  0
     Eigenvalues ---    0.00293   0.00308   0.00462   0.00521   0.00566
     Eigenvalues ---    0.00573   0.00708   0.01259   0.01262   0.01270
     Eigenvalues ---    0.01273   0.01275   0.01323   0.01333   0.01376
     Eigenvalues ---    0.01412   0.01469   0.01489   0.01516   0.01790
     Eigenvalues ---    0.02057   0.02061   0.02071   0.02081   0.02094
     Eigenvalues ---    0.02105   0.02784   0.03185   0.04268   0.04455
     Eigenvalues ---    0.04536   0.04728   0.04810   0.05173   0.05216
     Eigenvalues ---    0.05680   0.05952   0.06491   0.06914   0.06975
     Eigenvalues ---    0.07110   0.07763   0.09120   0.10002   0.10029
     Eigenvalues ---    0.10045   0.10111   0.10527   0.10527   0.10546
     Eigenvalues ---    0.10560   0.10574   0.10574   0.10584   0.10653
     Eigenvalues ---    0.11023   0.11036   0.11385   0.11834   0.12033
     Eigenvalues ---    0.14137   0.14844   0.15998   0.15999   0.15999
     Eigenvalues ---    0.16000   0.16000   0.16000   0.16000   0.16000
     Eigenvalues ---    0.16000   0.16000   0.16000   0.16000   0.16000
     Eigenvalues ---    0.16000   0.16000   0.16431   0.16539   0.17458
     Eigenvalues ---    0.18634   0.19695   0.19750   0.20466   0.22171
     Eigenvalues ---    0.23440   0.23441   0.23471   0.24852   0.24879
     Eigenvalues ---    0.24927   0.25000   0.25000   0.25000   0.25000
     Eigenvalues ---    0.25000   0.25000   0.25000   0.25000   0.25000
     Eigenvalues ---    0.25000   0.25000   0.25000   0.25746   0.26269
     Eigenvalues ---    0.27648   0.27982   0.28272   0.28897   0.30844
     Eigenvalues ---    0.30894   0.32776   0.32966   0.32968   0.33074
     Eigenvalues ---    0.33156   0.33163   0.33201   0.33228   0.33350
     Eigenvalues ---    0.33352   0.33461   0.33477   0.33518   0.33733
     Eigenvalues ---    0.33734   0.33743   0.33890   0.33969   0.34151
     Eigenvalues ---    0.34988   0.35022   0.35112   0.35226   0.36100
     Eigenvalues ---    0.40605   0.40632   0.40718   0.40753   0.40788
     Eigenvalues ---    0.41301   0.41411   0.41541   0.41644   0.41882
     Eigenvalues ---    0.42944   0.44453   0.45218   0.45360   0.45596
     Eigenvalues ---    0.45810   0.51307   0.51570   0.53248   0.53420
     Eigenvalues ---    0.53423   0.53666   0.86152   0.88365
 RFO step:  Lambda=-2.40594770D-08 EMin= 2.92714492D-03
 Linear search not attempted -- first point.
 Iteration  1 RMS(Cart)=  0.00068515 RMS(Int)=  0.00000004
 Iteration  2 RMS(Cart)=  0.00000010 RMS(Int)=  0.00000000
 ITry= 1 IFail=0 DXMaxC= 2.92D-03 DCOld= 1.00D+10 DXMaxT= 3.00D-01 DXLimC= 3.00D+00 Rises=F
 Variable       Old X    -DE/DX   Delta X   Delta X   Delta X     New X
                                 (Linear)    (Quad)   (Total)
    R1        2.91322   0.00000   0.00000   0.00001   0.00001   2.91323
    R2        2.90691   0.00000   0.00000  -0.00001  -0.00001   2.90690
    R3        2.08652   0.00000   0.00000   0.00000   0.00000   2.08652
    R4        2.69680   0.00000   0.00000   0.00000   0.00000   2.69680
    R5        2.93271   0.00000   0.00000  -0.00001  -0.00001   2.93270
    R6        2.09446   0.00000   0.00000   0.00000   0.00000   2.09446
    R7        2.67739   0.00000   0.00000  -0.00001  -0.00001   2.67738
    R8        2.07076   0.00000   0.00000   0.00000   0.00000   2.07076
    R9        2.63829   0.00001   0.00000   0.00002   0.00002   2.63831
   R10        2.78609  -0.00001   0.00000  -0.00002  -0.00002   2.78607
   R11        2.90692   0.00001   0.00000   0.00003   0.00003   2.90695
   R12        2.08250   0.00000   0.00000  -0.00001  -0.00001   2.08250
   R13        2.75366   0.00000   0.00000   0.00001   0.00001   2.75367
   R14        2.90219   0.00000   0.00000   0.00001   0.00001   2.90221
   R15        2.08221   0.00000   0.00000   0.00000   0.00000   2.08221
   R16        2.69823   0.00000   0.00000  -0.00001  -0.00001   2.69823
   R17        3.14196   0.00001   0.00000   0.00001   0.00001   3.14197
   R18        2.70543   0.00000   0.00000  -0.00001  -0.00001   2.70542
   R19        2.70590   0.00000   0.00000   0.00000   0.00000   2.70589
   R20        2.70704   0.00000   0.00000   0.00000   0.00000   2.70704
   R21        2.07382   0.00000   0.00000   0.00000   0.00000   2.07382
   R22        2.08701   0.00000   0.00000   0.00000   0.00000   2.08701
   R23        2.69073   0.00001   0.00000   0.00002   0.00002   2.69075
   R24        2.70740   0.00000   0.00000   0.00000   0.00000   2.70739
   R25        2.77396   0.00000   0.00000   0.00000   0.00000   2.77396
   R26        2.78459   0.00000   0.00000   0.00000   0.00000   2.78458
   R27        3.41047   0.00000   0.00000  -0.00001  -0.00001   3.41047
   R28        2.64316   0.00000   0.00000   0.00001   0.00001   2.64317
   R29        2.64223   0.00000   0.00000  -0.00001  -0.00001   2.64222
   R30        2.65034   0.00000   0.00000  -0.00001  -0.00001   2.65033
   R31        2.05695   0.00000   0.00000   0.00000   0.00000   2.05695
   R32        2.64735   0.00000   0.00000   0.00000   0.00000   2.64735
   R33        2.05493   0.00000   0.00000   0.00000   0.00000   2.05493
   R34        2.64821   0.00000   0.00000   0.00001   0.00001   2.64821
   R35        2.86311   0.00000   0.00000   0.00000   0.00000   2.86311
   R36        2.65164  -0.00001   0.00000  -0.00001  -0.00001   2.65162
   R37        2.86215  -0.00001   0.00000  -0.00002  -0.00002   2.86213
   R38        2.05639   0.00000   0.00000   0.00000   0.00000   2.05639
   R39        2.08779   0.00000   0.00000   0.00000   0.00000   2.08780
   R40        2.09108   0.00000   0.00000   0.00000   0.00000   2.09108
   R41        2.07516   0.00000   0.00000   0.00000   0.00000   2.07516
   R42        2.07780   0.00000   0.00000   0.00000   0.00000   2.07781
   R43        2.09110   0.00000   0.00000   0.00000   0.00000   2.09111
   R44        2.08151   0.00000   0.00000   0.00000   0.00000   2.08151
   R45        2.07783   0.00000   0.00000   0.00000   0.00000   2.07784
   R46        2.08442   0.00000   0.00000   0.00000   0.00000   2.08442
   R47        2.08766   0.00000   0.00000  -0.00001  -0.00001   2.08765
   R48        2.07765   0.00000   0.00000   0.00000   0.00000   2.07765
   R49        2.08922   0.00000   0.00000   0.00000   0.00000   2.08922
   R50        2.08438   0.00000   0.00000  -0.00001  -0.00001   2.08437
   R51        2.56564   0.00000   0.00000   0.00000   0.00000   2.56564
   R52        2.56561   0.00000   0.00000   0.00000   0.00000   2.56561
   R53        2.58313   0.00000   0.00000   0.00000   0.00000   2.58314
   R54        2.58569  -0.00001   0.00000  -0.00001  -0.00001   2.58568
   R55        2.56723   0.00000   0.00000   0.00000   0.00000   2.56723
   R56        2.56337   0.00001   0.00000   0.00001   0.00001   2.56338
    A1        1.92794   0.00000   0.00000  -0.00001  -0.00001   1.92793
    A2        1.90225   0.00000   0.00000   0.00002   0.00002   1.90227
    A3        1.93585   0.00000   0.00000   0.00000   0.00000   1.93585
    A4        1.89402   0.00000   0.00000  -0.00001  -0.00001   1.89401
    A5        1.86895   0.00000   0.00000  -0.00002  -0.00002   1.86893
    A6        1.93438   0.00000   0.00000   0.00001   0.00001   1.93440
    A7        1.94071   0.00000   0.00000   0.00001   0.00001   1.94072
    A8        1.88614   0.00000   0.00000  -0.00001  -0.00001   1.88613
    A9        1.89797   0.00000   0.00000   0.00002   0.00002   1.89799
   A10        1.83706   0.00000   0.00000   0.00001   0.00001   1.83707
   A11        1.97142  -0.00001   0.00000  -0.00003  -0.00003   1.97138
   A12        1.92845   0.00000   0.00000   0.00001   0.00001   1.92846
   A13        1.95104   0.00000   0.00000   0.00001   0.00001   1.95104
   A14        1.96655   0.00000   0.00000  -0.00002  -0.00002   1.96652
   A15        1.84678   0.00000   0.00000  -0.00001  -0.00001   1.84677
   A16        1.85136   0.00000   0.00000   0.00000   0.00000   1.85135
   A17        1.89284   0.00000   0.00000  -0.00001  -0.00001   1.89283
   A18        1.95585   0.00001   0.00000   0.00004   0.00004   1.95589
   A19        1.89806   0.00000   0.00000  -0.00001  -0.00001   1.89805
   A20        1.93357   0.00000   0.00000   0.00005   0.00005   1.93363
   A21        1.96750   0.00000   0.00000  -0.00003  -0.00003   1.96747
   A22        1.89357   0.00000   0.00000  -0.00003  -0.00003   1.89354
   A23        1.87925   0.00000   0.00000   0.00001   0.00001   1.87927
   A24        1.88986   0.00000   0.00000   0.00000   0.00000   1.88986
   A25        1.95067   0.00000   0.00000   0.00003   0.00003   1.95069
   A26        1.89682   0.00000   0.00000  -0.00002  -0.00002   1.89680
   A27        1.91824   0.00000   0.00000  -0.00002  -0.00002   1.91821
   A28        1.89189   0.00000   0.00000   0.00001   0.00001   1.89190
   A29        1.86787   0.00000   0.00000   0.00002   0.00002   1.86789
   A30        1.93859   0.00000   0.00000  -0.00001  -0.00001   1.93857
   A31        2.00295   0.00000   0.00000   0.00000   0.00000   2.00295
   A32        2.04954   0.00001   0.00000   0.00005   0.00005   2.04960
   A33        1.98314   0.00000   0.00000  -0.00001  -0.00001   1.98313
   A34        1.99225   0.00001   0.00000   0.00003   0.00003   1.99228
   A35        1.97718   0.00000   0.00000   0.00000   0.00000   1.97718
   A36        1.86927   0.00000   0.00000   0.00001   0.00001   1.86927
   A37        1.89641   0.00000   0.00000   0.00002   0.00002   1.89642
   A38        2.01284   0.00000   0.00000   0.00001   0.00001   2.01285
   A39        1.90210   0.00000   0.00000  -0.00002  -0.00002   1.90208
   A40        1.85021   0.00000   0.00000  -0.00002  -0.00002   1.85020
   A41        1.92927   0.00000   0.00000   0.00000   0.00000   1.92928
   A42        1.98102   0.00001   0.00000   0.00003   0.00003   1.98106
   A43        1.81269   0.00000   0.00000  -0.00001  -0.00001   1.81268
   A44        1.91053   0.00000   0.00000   0.00002   0.00002   1.91055
   A45        1.77534   0.00000   0.00000   0.00002   0.00002   1.77535
   A46        2.12627   0.00000   0.00000  -0.00001  -0.00001   2.12625
   A47        1.90572   0.00000   0.00000   0.00000   0.00000   1.90572
   A48        1.90009   0.00000   0.00000   0.00000   0.00000   1.90009
   A49        2.06482   0.00000   0.00000   0.00000   0.00000   2.06482
   A50        2.08171   0.00000   0.00000   0.00000   0.00000   2.08172
   A51        2.13392   0.00000   0.00000   0.00000   0.00000   2.13392
   A52        2.06708   0.00000   0.00000   0.00000   0.00000   2.06709
   A53        2.10889   0.00000   0.00000   0.00000   0.00000   2.10888
   A54        2.10718   0.00000   0.00000   0.00000   0.00000   2.10718
   A55        2.06545   0.00000   0.00000   0.00000   0.00000   2.06545
   A56        2.10378   0.00000   0.00000   0.00001   0.00001   2.10379
   A57        2.11387   0.00000   0.00000   0.00000   0.00000   2.11387
   A58        2.10353   0.00000   0.00000   0.00000   0.00000   2.10353
   A59        2.08361   0.00001   0.00000   0.00002   0.00002   2.08363
   A60        2.09159   0.00000   0.00000  -0.00002  -0.00002   2.09157
   A61        2.10589   0.00000   0.00000   0.00001   0.00001   2.10590
   A62        2.09614   0.00000   0.00000   0.00002   0.00002   2.09616
   A63        2.07645  -0.00001   0.00000  -0.00002  -0.00002   2.07643
   A64        2.09037   0.00000   0.00000   0.00000   0.00000   2.09037
   A65        2.09670   0.00000   0.00000   0.00001   0.00001   2.09671
   A66        2.09607   0.00000   0.00000  -0.00001  -0.00001   2.09606
   A67        1.94937   0.00000   0.00000   0.00001   0.00001   1.94939
[...]
 5164,0.00001923,0.00001102,-0.00000982,-0.00001492,0.00001938,0.000003
 31,-0.00002094,0.00002536,0.00008542,-0.00028624,0.00026499,-0.0000086
 5,0.00004623,-0.00000881,-0.00004271,0.00002327,-0.00003995,-0.0000025
 8,0.00004480,-0.00006877,-0.00154936,0.00184125,0.00116490,0.00023132,
 -0.00016272,-0.00008145,-0.00028166,-0.00028672,-0.00069717,0.00041546
 ,-0.00021885,0.00003816,-0.00066701,-0.00622214,-0.00340823,-0.0002025
 6,0.00131602,0.00213189,0.00105851,0.00166211,0.00078039,-0.00075810,0
 .00245363,0.00033999,-0.04204030,0.02756592,0.51028819,0.00008239,0.00
 005788,-0.00004932,0.00007744,0.00004732,0.00000945,0.00019054,0.00025
 716,-0.00025221,-0.00001251,0.00035375,-0.00007718,0.00006407,-0.00018
 312,-0.00000090,-0.00000871,-0.00001448,0.00000758,0.00000227,-0.00000
 157,0.00000864,-0.00000968,-0.00000299,0.00000985,0.00000458,-0.000023
 01,0.00002396,0.00003562,0.00000513,-0.00000282,-0.00021478,-0.0002253
 8,0.00010056,0.00004705,-0.00016415,0.00019285,-0.00009446,-0.00008666
 ,0.00002162,-0.00015455,0.00000729,0.00005820,-0.00010269,0.00009720,0
 .00002937,0.00121638,-0.00087076,0.00026951,-0.00015283,0.00006859,0.0
 0007259,-0.00062036,0.00043979,-0.00021401,-0.00046791,0.00068890,0.00
 014086,0.00006696,0.00032811,-0.00025259,-0.00000764,-0.00005062,0.000
 07854,-0.00001253,-0.00011623,0.00001881,0.00029296,0.00038315,-0.0004
 7769,-0.00001381,0.00029837,0.00033785,0.00001556,0.00001092,-0.000871
 46,-0.00050816,0.00012342,-0.00001317,0.00004048,-0.00002275,-0.000009
 30,0.01008233,-0.00107420,0.00579831,-0.00003517,-0.00003523,0.0000664
 2,-0.00003777,-0.00095548,0.00045508,-0.00004852,0.00019247,0.00034801
 ,0.00001131,0.00004907,0.00002694,0.00000586,-0.00000319,-0.00000787,0
 .00000293,-0.00000480,-0.00000595,-0.00001039,-0.00000937,0.00000177,0
 .00004513,0.00000366,-0.00007308,-0.00001596,0.00000323,0.00000632,-0.
 00000006,0.00000071,0.00001416,-0.00000729,-0.00000924,0.00001057,0.00
 005799,-0.00008662,0.00002379,-0.00000632,0.00002222,0.00000999,-0.000
 02234,0.00000979,-0.00000914,0.00001311,-0.00002475,0.00000350,0.00125
 999,-0.00101291,-0.00053428,-0.00024420,0.00015219,-0.00005577,-0.0018
 4496,0.00054725,-0.00000332,-0.00030387,0.00010726,-0.00003006,-0.0002
 9935,-0.00025246,-0.00029408,0.00002666,0.00003521,0.00009274,0.000137
 20,0.00008672,0.00004217,0.00004440,0.00007461,0.00006441,-0.08026991,
 0.02383876,-0.03232185,0.11393804,-0.00002018,-0.00010876,0.00003193,0
 .00003821,-0.00003467,-0.00002540,-0.00000950,-0.00021979,0.00044315,0
 .00003628,-0.00051200,0.00019589,0.00000125,0.00010751,-0.00006334,0.0
 0002679,0.00002183,-0.00002479,-0.00002905,0.00000889,-0.00001492,0.00
 001209,0.00000281,-0.00001674,0.00005046,0.00002776,-0.00010169,-0.000
 06550,0.00000828,-0.00000263,0.00001548,0.00035515,-0.00021605,-0.0004
 5333,0.00020639,-0.00030700,0.00000266,0.00005209,-0.00001932,0.000060
 90,0.00003704,-0.00004168,0.00006307,0.00004193,-0.00002913,-0.0010299
 1,0.00076369,-0.00007694,0.00012840,-0.00006598,-0.00006101,0.00030932
 ,-0.00047678,0.00049234,0.00041077,-0.00041596,-0.00029739,0.00110655,
 0.00031044,-0.00010746,-0.00027855,-0.00014655,0.00020300,-0.00028680,
 -0.00016752,-0.00000179,-0.00015532,0.00014727,-0.00045735,0.00040767,
 0.00055125,0.00036851,-0.00000486,0.00050881,0.00000937,-0.00129681,0.
 00084746,0.00102948,0.00007745,-0.00002777,0.00006369,0.00441047,0.002
 14245,0.01442823,0.00062994,-0.00005763,-0.00013220,-0.00068214,-0.001
 93596,-0.00000911,0.00062504,-0.00005688,0.00043036,0.00002192,-0.0000
 2134,0.00000384,-0.00000420,0.00000937,0.00000374,-0.00000341,0.000003
 05,-0.00000517,0.00000022,0.00000395,0.00000081,-0.00001365,-0.0000016
 4,0.00003802,0.00000431,0.00000037,-0.00000404,-0.00000089,-0.00000241
 ,-0.00000590,0.00000827,0.00000537,-0.00000561,-0.00003776,0.00001304,
 0.00003390,0.00000088,-0.00000700,-0.00000706,0.00001502,-0.00000257,-
 0.00000091,-0.00001242,0.00002733,-0.00002121,-0.00108413,0.00106074,0
 .00041282,0.00017466,-0.00011387,0.00003861,0.00018378,-0.00037737,-0.
 00023930,0.00035355,-0.00011515,0.00003047,-0.00029538,-0.00107520,-0.
 00025318,-0.00000056,0.00021115,0.00026579,0.00016305,0.00025386,0.000
 06318,-0.00014466,0.00049923,-0.00005321,0.02586996,-0.11206453,0.0630
 1943,-0.06531547,0.16449858,-0.00008467,0.00011120,0.00000710,-0.00023
 110,-0.00000471,0.00004813,-0.00026555,0.00015122,-0.00099026,-0.00006
 172,0.00028292,-0.00035423,-0.00010269,0.00008955,0.00009047,-0.000015
 94,0.00000964,0.00005040,0.00009344,-0.00002615,0.00003482,-0.00001719
 ,0.00000397,0.00003308,-0.00012676,-0.00000060,0.00022726,0.00010621,-
 0.00003882,0.00002170,0.00029135,-0.00036785,0.00047083,0.00147227,-0.
 00014785,0.00067182,0.00015408,0.00006284,0.00005393,0.00012699,-0.000
 07648,0.00000611,0.00003387,-0.00019930,0.00004249,0.00025039,0.000098
 68,-0.00060986,-0.00006562,0.00004504,0.00007536,0.00044603,-0.0000699
 2,-0.00071994,-0.00020567,0.00030708,0.00103701,-0.00307357,-0.0023184
 8,0.00034717,0.00079538,0.00063848,-0.00068792,0.00073228,0.00086424,0
 .00020687,0.00220588,-0.00100023,-0.00041775,0.00055136,0.00037122,-0.
 00087030,-0.00279636,-0.00245195,-0.00264513,0.00130762,-0.00084180,0.
 00006765,-0.00015401,0.00010951,-0.00007474,-0.00811439,0.02697091,-0.
 03620832,-0.00072606,0.00063371,-0.00037357,0.00151595,0.00278824,0.00
 060835,-0.00080930,0.00048159,-0.00035266,-0.00006723,-0.00007155,-0.0
 0008853,-0.00000882,-0.00001152,-0.00000643,0.00001226,-0.00000264,0.0
 0003506,0.00001322,0.00000896,0.00000084,-0.00004081,-0.00000850,0.000
 02623,0.00001704,-0.00000697,-0.00000252,0.00000367,0.00000637,-0.0000
 0430,-0.00000456,0.00000503,-0.00000689,-0.00001672,0.00010160,-0.0001
 1208,0.00000296,-0.00001382,0.00000647,0.00000936,-0.00000779,0.000015
 03,0.00000494,-0.00002864,0.00003407,0.00114888,-0.00134115,-0.0006852
 7,-0.00018353,0.00013028,0.00001089,-0.00001398,0.00041774,0.00044439,
 -0.00036730,0.00015581,-0.00002718,0.00056172,0.00262709,0.00131554,0.
 00001674,-0.00049651,-0.00078081,-0.00047254,-0.00068434,-0.00027732,0
 .00029964,-0.00105287,-0.00007116,-0.03596749,0.06463297,-0.15851622,0
 .07594749,-0.10901977,0.18779285,0.00016154,-0.00005405,-0.00006945,0.
 00028224,0.00006294,-0.00006168,0.00036000,0.00015708,0.00039874,0.000
 04607,-0.00006995,0.00008137,0.00012708,-0.00026530,-0.00010436,0.0000
 1638,-0.00000655,-0.00003026,-0.00006372,0.00002081,-0.00000716,-0.000
 00186,-0.00000389,-0.00000436,0.00008388,-0.00001646,-0.00008390,-0.00
 002292,0.00002611,-0.00000670,-0.00044480,0.00009944,-0.00011158,-0.00
 097527,0.00000261,-0.00023370,-0.00023309,-0.00013935,0.00001415,-0.00
 027904,0.00008199,0.00007901,-0.00013461,0.00027843,0.00003029,0.00058
 129,-0.00050030,0.00018961,-0.00005924,0.00005106,0.00003619,-0.000061
 81,-0.00003243,-0.00006974,-0.00033257,0.00039965,-0.00016185,0.002392
 30,0.00189540,-0.00030149,-0.00079210,-0.00069214,0.00092902,-0.000572
 37,-0.00076592,-0.00007705,-0.00073761,-0.00193192,0.00053982,-0.00033
 939,0.00026716,0.00030761,-0.00146591,0.00435430,0.00507808,0.00029013
 ,-0.00006866,0.00123001,-0.00001038,0.00013983,-0.00004770,-0.03630213
 ,-0.01333245,0.00238452,0.00030285,0.00046688,-0.00061112,-0.00158521,
 -0.00269156,-0.00018708,-0.00084762,0.00182787,0.00083929,0.00006808,0
 .00009859,0.00007981,0.00001040,0.00000804,-0.00001124,-0.00000064,-0.
 00000679,-0.00002546,-0.00002724,-0.00001744,0.00000513,0.00009201,0.0
 0000918,-0.00012019,-0.00003144,0.00000884,0.00000897,-0.00000189,-0.0
 0000158,0.00002592,-0.00000436,-0.00001512,0.00001653,0.00007820,-0.00
 016514,0.00009348,-0.00000966,0.00003904,0.00000941,-0.00003046,0.0000
 1561,-0.00002120,0.00000695,-0.00001161,-0.00001710,0.00055029,-0.0004
 3116,-0.00010812,-0.00010925,0.00008783,-0.00007508,0.00006526,0.00003
 892,0.00022937,-0.00010815,0.00002777,-0.00000175,-0.00077877,-0.00187
 130,-0.00111521,0.00002142,0.00038010,0.00062341,0.00057494,0.00054928
 ,0.00021662,-0.00011669,0.00071083,0.00015652,-0.22721976,-0.03759706,
 0.01149900,-0.04967549,0.01403246,-0.03342551,0.33067480,0.00001905,-0
 .00002381,-0.00000875,0.00003976,0.00000132,-0.00000646,0.00004563,-0.
 00000939,0.00006051,-0.00001303,-0.00007783,0.00004197,0.00001957,-0.0
 0003070,-0.00002820,0.00001013,0.00000656,-0.00000587,-0.00000790,0.00
 000243,-0.00000167,0.00000090,0.00000039,-0.00000135,0.00001666,0.0000
 0590,-0.00002921,-0.00001448,0.00000431,0.00000005,-0.00005350,0.00007
 185,-0.00002208,-0.00010781,0.00004307,-0.00002622,-0.00002912,-0.0000
 0038,0.00000559,-0.00002991,0.00001962,0.00000690,-0.00000733,0.000057
 08,0.00000186,-0.00001849,-0.00002066,0.00003712,-0.00000551,0.0000079
 5,0.00000301,-0.00004991,-0.00005031,0.00006918,0.00002276,0.00003407,
 -0.00006700,0.00039206,0.00007476,-0.00012529,-0.00012252,-0.00005299,
 0.00012177,-0.00010237,-0.00004555,0.00004665,0.00046301,0.00001919,0.
 00033325,-0.00001748,0.00008713,-0.00005381,0.00008133,0.00035354,-0.0
 0024064,0.00034575,0.00031760,0.00086753,0.00001485,0.00010721,-0.0000
 3837,-0.00749000,0.00801533,-0.00012941,0.00030331,0.00039212,-0.00046
 087,0.00080283,-0.00207069,-0.00124838,0.00080836,0.00093491,-0.000367
 40,0.00001369,-0.00000009,0.00000516,-0.00000162,0.00000358,-0.0000026
 4,0.00000075,-0.00000087,-0.00000203,-0.00000389,-0.00000118,0.0000016
 5,0.00001000,-0.00000072,-0.00001257,-0.00000390,0.00000111,0.00000060
 ,-0.00000003,-0.00000023,0.00000376,0.00000107,-0.00000066,0.00000118,
 0.00000417,-0.00002663,0.00002174,-0.00000253,0.00000628,0.00000136,-0
 .00000055,0.00000253,-0.00000376,-0.00000135,0.00000234,-0.00000833,-0
 .00009404,0.00006026,0.00003554,0.00000548,-0.00000187,-0.00000621,-0.
 00006318,0.00000835,-0.00005446,0.00004427,-0.00000832,0.00000253,-0.0
 0022982,-0.00034425,0.00001519,0.00001714,0.00009156,0.00004568,0.0001
 3082,0.00009188,-0.00000188,-0.00001057,0.00012139,-0.00000246,-0.0404
 3110,-0.07925834,-0.00035178,0.02291757,0.01160440,0.00717806,0.071034
 13,0.09250756,-0.00005410,0.00004770,0.00001027,-0.00013068,-0.0000091
 1,0.00003079,-0.00014069,0.00002989,-0.00046433,-0.00004152,0.00013135
 ,-0.00014436,-0.00005070,0.00006609,0.00005447,-0.00000633,0.00001014,
 0.00002289,0.00004664,-0.00001489,0.00001631,-0.00000654,0.00000263,0.
 00001396,-0.00006749,0.00000636,0.00009351,0.00004278,-0.00001794,0.00
 000915,0.00016313,-0.00015135,0.00019693,0.00066641,-0.00006749,0.0002
 9508,0.00009106,0.00005103,0.00002129,0.00008464,-0.00003758,-0.000006
 74,0.00002994,-0.00010558,0.00001226,0.00009421,0.00003508,-0.00017810
 ,-0.00003655,0.00001830,0.00002497,0.00000027,0.00003834,-0.00020131,-
 0.00002893,0.00007122,0.00035891,-0.00172915,-0.00112849,-0.00009899,0
 .00058252,0.00042384,-0.00046436,0.00037147,0.00049614,0.00016799,0.00
 039254,0.00124044,-0.00128449,0.00065823,0.00032850,-0.00028419,0.0009
 5518,-0.00301385,-0.00242242,-0.00014572,0.00058152,0.00032392,0.00005
 973,0.00001449,0.00002669,0.02774473,0.00756665,0.00499180,0.00028625,
 -0.00009768,0.00025762,0.00241016,-0.00113474,-0.00215234,0.00127110,0
 .00010829,-0.00098475,-0.00003402,-0.00004698,-0.00004883,-0.00000634,
 -0.00000442,-0.00000252,0.00000585,-0.00000062,0.00001845,0.00000818,0
 .00000611,0.00000023,-0.00002767,-0.00000560,0.00002415,0.00001052,-0.
 00000394,-0.00000218,0.00000199,0.00000296,-0.00000427,-0.00000086,0.0
 0000423,-0.00000508,-0.00001730,0.00005706,-0.00005225,0.00000169,-0.0
 0000924,0.00000163,0.00000838,-0.00000449,0.00000792,0.00000038,-0.000
 00874,0.00001364,0.00032396,-0.00037917,-0.00023166,-0.00004541,0.0000
 2946,0.00001595,0.00004883,0.00006554,0.00012544,-0.00008874,0.0000461
 7,-0.00000981,0.00008735,0.00119552,0.00079057,0.00002997,-0.00022385,
 -0.00038514,-0.00019329,-0.00031622,-0.00015872,0.00015862,-0.00047899
 ,-0.00007130,0.00637136,-0.00179225,-0.07281768,-0.04506612,0.00489474
 ,-0.00560498,0.02641548,0.00969363,0.07453533,0.00005310,-0.00002416,-
 0.00002113,0.00009418,0.00002453,-0.00001702,0.00014767,0.00004234,0.0
 0011625,0.00002942,-0.00006355,0.00001359,0.00004095,-0.00007909,-0.00
 002641,0.00001286,0.00000348,-0.00001025,-0.00001915,0.00000548,-0.000
 00160,-0.00000026,-0.00000043,-0.00000175,0.00003191,-0.00000323,-0.00
 001974,-0.00000782,0.00000810,-0.00000267,-0.00014876,0.00005347,-0.00
 003998,-0.00031926,-0.00000620,-0.00004659,-0.00007913,-0.00004615,0.0
 0000533,-0.00009208,0.00002900,0.00002507,-0.00004543,0.00009193,0.000
 00797,0.00014223,-0.00013931,0.00007151,-0.00001052,0.00001077,0.00000
 757,0.00000925,-0.00001191,-0.00001237,-0.00008707,0.00009694,-0.00008
 246,0.00085604,0.00057713,-0.00041659,-0.00019508,-0.00015626,0.000258
 75,-0.00021289,-0.00025434,0.00002638,0.00054614,0.00043874,-0.0000563
 4,-0.00009563,0.00019142,0.00029221,-0.00238549,0.00042874,0.00196978,
 0.00034752,0.00107709,0.00070462,0.00001556,0.00006016,0.00003763,0.00
 841666,0.01375754,0.00894160,-0.00114214,0.00110513,0.00201791,-0.0022
 1128,-0.00127293,0.00210026,0.00002356,0.00026463,0.00019870,0.0000233
 9,0.00003253,0.00002571,0.00000360,0.00000331,-0.00000464,0.00000055,-
 0.00000255,-0.00000817,-0.00000977,-0.00000568,0.00000222,0.00003157,0
 .00000337,-0.00003950,-0.00001042,0.00000304,0.00000279,-0.00000068,-0
 .00000060,0.00000845,-0.00000123,-0.00000518,0.00000530,0.00002536,-0.
 00005352,0.00003169,-0.00000261,0.00001227,0.00000254,-0.00001014,0.00
 000487,-0.00000716,0.00000184,-0.00000262,-0.00000577,0.00010231,-0.00
 006501,0.00000597,-0.00002139,0.00002262,-0.00002292,0.00000049,-0.000
 01268,0.00004060,-0.00000322,-0.00000377,0.00000238,-0.00043996,-0.000
 87502,-0.00041166,0.00000474,0.00019384,0.00039382,0.00020884,0.000220
 38,0.00009077,-0.00007254,0.00036820,0.00005157,-0.07257174,0.00487779
 ,0.00709248,0.00744099,0.02198361,-0.00070194,-0.01341063,-0.04865310,
 -0.02150542,0.07499555,-0.00008373,-0.00003865,0.00003125,-0.00011909,
 -0.00003617,0.00000264,-0.00022181,-0.00023550,-0.00014320,-0.00003496
 ,-0.00024579,-0.00008065,-0.00007550,0.00014772,0.00004346,0.00002604,
 0.00003771,0.00000817,0.00003098,-0.00000900,0.00000796,0.00000182,0.0
 0000528,0.00000484,-0.00004724,0.00002470,0.00006804,0.00000665,-0.000
 01771,0.00000983,0.00029809,0.00019136,0.00008047,0.00045188,0.0001852
 4,0.00007878,0.00011835,0.00012593,0.00001641,0.00014717,-0.00000540,-
 0.00003824,0.00009188,-0.00008009,-0.00000787,-0.00057883,0.00043982,-
 0.00015541,0.00002937,-0.00001179,-0.00001343,-0.00001057,-0.00007572,
 0.00013727,0.00033698,-0.00016272,0.00019017,-0.00098968,-0.00139984,-
 0.00005622,0.00032151,0.00035527,-0.00026390,0.00018570,0.00056808,0.0
 0024754,0.00053296,0.00092945,-0.00078599,0.00026415,0.00018901,0.0000
 3025,-0.00334716,-0.00187074,0.00060992,-0.00087996,-0.00119585,-0.000
 33110,0.00010925,0.00009880,0.00008409,-0.00020175,-0.01870322,-0.0128
 0267,0.00157166,0.00122552,0.00040536,0.00364522,0.00188522,-0.0028302
 0,-0.00003535,0.00042070,0.00062490,-0.00001527,-0.00009394,-0.0000641
 5,-0.00001576,0.00000625,-0.00000218,0.00000569,0.00000161,0.00002032,
 0.00000870,0.00001186,0.00000271,-0.00004407,-0.00001091,0.00005579,0.
 00001533,-0.00000438,-0.00000593,0.00000215,0.00000212,-0.00000764,0.0
 0000706,0.00001050,-0.00001103,-0.00005256,0.00007302,-0.00003272,0.00
 000112,-0.00001451,-0.00000225,0.00002472,-0.00000720,0.00000852,-0.00
 000925,0.00001108,-0.00000415,-0.00044491,0.00022894,-0.00000038,0.000
 06652,-0.00004481,0.00004577,-0.00013768,-0.00011196,-0.00017756,0.000
 16831,-0.00002047,0.00000600,0.00039986,0.00124740,0.00071004,0.000043
 30,-0.00029224,-0.00073763,-0.00018042,-0.00026888,-0.00018785,0.00013
 920,-0.00044586,-0.00008099,0.00987538,-0.20084220,-0.07521241,0.01933
 774,-0.06632415,0.01100626,-0.03648402,-0.03303208,-0.01821024,0.00574
 481,0.31717916,-0.00008484,0.00002692,0.00002030,-0.00016759,-0.000023
 28,0.00001917,-0.00024747,-0.00005968,-0.00049939,-0.00005495,0.000007
 32,-0.00019146,-0.00007946,0.00012536,0.00007176,0.00000500,0.00002650
 ,0.00002268,0.00005580,-0.00001678,0.00002001,-0.00000583,0.00000494,0
 .00001652,-0.00009135,0.00001428,0.00012434,0.00004505,-0.00002521,0.0
 0001407,0.00029216,-0.00005458,0.00025120,0.00082101,0.00001471,0.0002
 8148,0.00013197,0.00009627,0.00003137,0.00013908,-0.00003686,-0.000019
 51,0.00006616,-0.00013351,0.00001125,-0.00015072,0.00019878,-0.0002390
 3,-0.00002573,0.00001880,0.00001565,0.00004901,0.00004188,-0.00019107,
 0.00012350,-0.00001290,0.00043871,-0.00200431,-0.00153828,0.00033215,0
 .00052396,0.00041553,-0.00042882,0.00045887,0.00065303,0.00017384,-0.0
 0033468,0.00026670,-0.00028675,0.00017012,-0.00049674,-0.00045026,0.00
 078075,-0.00146767,-0.00219821,-0.00099244,-0.00125719,-0.00181704,0.0
 0006479,-0.00001194,0.00002963,0.00188950,-0.03743587,-0.01269709,0.00
 200907,-0.00018977,-0.00161422,0.00587995,0.00198232,-0.00302959,-0.00
 002139,0.00000126,0.00056368,-0.00003925,-0.00008058,-0.00007381,-0.00
 001204,-0.00000180,-0.00000401,0.00000867,-0.00000043,0.00002665,0.000
 01060,0.00001042,0.00000172,-0.00004310,-0.00000962,0.00004341,0.00001
 628,-0.00000559,-0.00000439,0.00000283,0.00000402,-0.00000642,0.000001
 97,0.00000810,-0.00000939,-0.00003806,0.00008619,-0.00006549,0.0000022
 0,-0.00001444,0.00000062,0.00001830,-0.00000748,0.00001116,-0.00000357
 ,-0.00000417,0.00001219,0.00009731,-0.00025059,-0.00020826,-0.00000915
 ,0.00000778,0.00003677,-0.00003004,0.00004056,0.00002099,-0.00000535,0
 .00003335,-0.00000498,0.00049409,0.00224119,0.00080522,0.00007794,-0.0
 0054511,-0.00098665,-0.00036008,-0.00049328,-0.00021659,0.00023859,-0.
 00076220,-0.00007844,0.00951317,-0.06892546,-0.11184658,-0.00366971,0.
 02511998,0.01670645,-0.01442732,-0.01529437,0.00561866,-0.00108929,0.0
 9770921,0.11144582\\0.00000126,-0.00000446,-0.00000091,0.00000259,0.00
 000116,-0.00000157,0.,-0.00000316,0.00000444,-0.00000123,0.00000379,-0
 .00000074,-0.00000074,-0.00000428,-0.00000003,-0.00000004,0.00000035,-
 0.00000102,-0.00000011,-0.00000170,-0.00000032,-0.00000051,-0.00000115
 ,-0.00000058,-0.00000043,0.00000145,-0.00000044,0.00000122,-0.00000096
 ,-0.00000208,0.00000075,0.00000205,0.00000612,0.00000072,-0.00000098,-
 0.00000042,-0.00000078,-0.00000176,0.00000044,-0.00000140,0.00000240,0
 .00000050,0.00000301,0.00000182,0.00000100,-0.00000187,-0.00000261,-0.
 00000147,-0.00000556,-0.00000117,-0.00000264,0.00000199,-0.00000194,0.
 00000238,0.00000031,0.00000287,0.00000201,0.00000160,-0.00000066,0.000
 00202,0.00000044,0.00000046,0.00000070,-0.00000021,0.00000055,-0.00000
 137,-0.00000139,0.00000314,-0.00000065,0.00000189,0.00000008,0.0000017
 2,0.00000320,-0.00000065,0.00000029,0.00000084,0.00000446,-0.00000284,
 -0.00000020,0.00000119,0.00000075,-0.00000017,0.00000295,0.00000081,-0
 .00000154,0.00000122,-0.00000116,-0.00000031,0.00000218,0.00000392,-0.
 00000108,0.00000228,0.00000074,0.00000136,-0.00000252,0.00000036,0.000
 00133,0.00000015,0.00000001,0.00000116,-0.00000071,0.00000019,0.000000
 61,-0.00000134,-0.00000017,-0.00000165,-0.00000353,0.00000055,-0.00000
 043,-0.00000159,-0.00000094,-0.00000013,-0.00000105,-0.00000076,0.0000
 0004,-0.00000021,-0.00000057,-0.00000405,-0.00000151,0.00000132,-0.000
 00039,-0.00000122,-0.00000076,0.00000064,-0.00000071,-0.00000109,-0.00
 000033,0.00000058,-0.00000263,-0.00000377,-0.00000037,-0.00000480,0.00
 000039,0.00000102,-0.00000058,0.00000164,-0.00000041,0.00000017,0.0000
 0203,0.00000134,-0.00000196,-0.00000267,-0.00000394,0.00000262,0.00000
 141,0.00000189,0.00000028,-0.00000082,0.00000127,0.00000192,-0.0000007
 1,0.00000155,-0.00000039,-0.00000297,-0.00000159,-0.00000069,0.0000005
 5,0.00000276,-0.00000207,-0.00000050,-0.00000164,-0.00000143,0.0000049
 8,0.00000289,0.00000182\\\@


 Not by the face shall a man be known, but by the mask.
                               -- Karen Blixen
 Job cpu time:       0 days 20 hours 33 minutes 29.2 seconds.
 Elapsed time:       0 days  0 hours 19 minutes 57.3 seconds.
 File lengths (MBytes):  RWF=   2242 Int=      0 D2E=      0 Chk=     37 Scr=      1
 Normal termination of Gaussian 16 at Mon Jun 10 06:09:58 2019.
