 Entering Gaussian System, Link 0=g16
 Input=clay_new-glu_gluC6-bisCF3-sm-pbe0_d3bj-631gd-pcm_thf.gjf
 Output=clay_new-glu_gluC6-bisCF3-sm-pbe0_d3bj-631gd-pcm_thf.out
 Initial command:
 /home/ekwan/sw/g16/l1.exe "/scratch/users/ekwan/clay_new-glu_gluC6-bisCF3-sm-pbe0_d3bj-631gd-pcm_thf/Gau-55447.inp" -scrdir="/scratch/users/ekwan/clay_new-glu_gluC6-bisCF3-sm-pbe0_d3bj-631gd-pcm_thf/"
 Entering Link 1 = /home/ekwan/sw/g16/l1.exe PID=     55448.
  
 Copyright (c) 1988,1990,1992,1993,1995,1998,2003,2009,2016,
            Gaussian, Inc.  All Rights Reserved.
  
 This is part of the Gaussian(R) 16 program.  It is based on
 the Gaussian(R) 09 system (copyright 2009, Gaussian, Inc.),
 the Gaussian(R) 03 system (copyright 2003, Gaussian, Inc.),
 the Gaussian(R) 98 system (copyright 1998, Gaussian, Inc.),
 the Gaussian(R) 94 system (copyright 1995, Gaussian, Inc.),
 the Gaussian 92(TM) system (copyright 1992, Gaussian, Inc.),
 the Gaussian 90(TM) system (copyright 1990, Gaussian, Inc.),
 the Gaussian 88(TM) system (copyright 1988, Gaussian, Inc.),
 the Gaussian 86(TM) system (copyright 1986, Carnegie Mellon
 University), and the Gaussian 82(TM) system (copyright 1983,
 Carnegie Mellon University). Gaussian is a federally registered
 trademark of Gaussian, Inc.
  
 This software contains proprietary and confidential information,
 including trade secrets, belonging to Gaussian, Inc.
  
 This software is provided under written license and may be
 used, copied, transmitted, or stored only in accord with that
 written license.
  
 The following legend is applicable only to US Government
 contracts under FAR:
  
                    RESTRICTED RIGHTS LEGEND
  
 Use, reproduction and disclosure by the US Government is
 subject to restrictions as set forth in subparagraphs (a)
 and (c) of the Commercial Computer Software - Restricted
 Rights clause in FAR 52.227-19.
  
 Gaussian, Inc.
 340 Quinnipiac St., Bldg. 40, Wallingford CT 06492
  
  
 ---------------------------------------------------------------
 Warning -- This program may not be used in any manner that
 competes with the business of Gaussian, Inc. or will provide
 assistance to any competitor of Gaussian, Inc.  The licensee
 of this program is prohibited from giving any competitor of
 Gaussian, Inc. access to this program.  By using this program,
 the user acknowledges that Gaussian, Inc. is engaged in the
 business of creating and licensing software in the field of
 computational chemistry and represents and warrants to the
 licensee that it is not a competitor of Gaussian, Inc. and that
 it will not use this program in any manner prohibited above.
 ---------------------------------------------------------------
  

 Cite this work as:
 Gaussian 16, Revision A.03,
 M. J. Frisch, G. W. Trucks, H. B. Schlegel, G. E. Scuseria, 
 M. A. Robb, J. R. Cheeseman, G. Scalmani, V. Barone, 
 G. A. Petersson, H. Nakatsuji, X. Li, M. Caricato, A. V. Marenich, 
 J. Bloino, B. G. Janesko, R. Gomperts, B. Mennucci, H. P. Hratchian, 
 J. V. Ortiz, A. F. Izmaylov, J. L. Sonnenberg, D. Williams-Young, 
 F. Ding, F. Lipparini, F. Egidi, J. Goings, B. Peng, A. Petrone, 
 T. Henderson, D. Ranasinghe, V. G. Zakrzewski, J. Gao, N. Rega, 
 G. Zheng, W. Liang, M. Hada, M. Ehara, K. Toyota, R. Fukuda, 
 J. Hasegawa, M. Ishida, T. Nakajima, Y. Honda, O. Kitao, H. Nakai, 
 T. Vreven, K. Throssell, J. A. Montgomery, Jr., J. E. Peralta, 
 F. Ogliaro, M. J. Bearpark, J. J. Heyd, E. N. Brothers, K. N. Kudin, 
 V. N. Staroverov, T. A. Keith, R. Kobayashi, J. Normand, 
 K. Raghavachari, A. P. Rendell, J. C. Burant, S. S. Iyengar, 
 J. Tomasi, M. Cossi, J. M. Millam, M. Klene, C. Adamo, R. Cammi, 
 J. W. Ochterski, R. L. Martin, K. Morokuma, O. Farkas, 
 J. B. Foresman, and D. J. Fox, Gaussian, Inc., Wallingford CT, 2016.
 
 ******************************************
 Gaussian 16:  AS64L-G16RevA.03 25-Dec-2016
                 9-Jun-2019 
 ******************************************
 %nprocshared=64
 Will use up to   64 processors via shared memory.
 %mem=96GB
 ----------------------------------------------------------------------
 #p opt freq=noraman 6-31g(d) scrf=(solvent=tetrahydrofuran,pcm) pop=no
 ne empiricaldispersion=gd3bj pbe1pbe
 ----------------------------------------------------------------------
 1/18=20,19=15,26=3,38=1/1,3;
 2/9=110,12=2,17=6,18=5,40=1/2;
 3/5=1,6=6,7=1,11=2,25=1,30=1,70=2201,71=1,72=20,74=-13,124=41/1,2,3;
 4//1;
 5/5=2,38=5,53=20/2;
 7//1,2,3,16;
 1/18=20,19=15,26=3/3(2);
 2/9=110/2;
 99//99;
 2/9=110/2;
 3/5=1,6=6,7=1,11=2,25=1,30=1,70=2205,71=1,72=20,74=-13,124=41/1,2,3;
 4/5=5,16=3,69=1/1;
 5/5=2,38=5,53=20/2;
 7//1,2,3,16;
 1/18=20,19=15,26=3/3(-5);
 2/9=110/2;
 99/9=1/99;
 Leave Link    1 at Sun Jun  9 21:27:05 2019, MaxMem= 12884901888 cpu:              14.4 elap:               0.2
 (Enter /home/ekwan/sw/g16/l101.exe)
 -----
 title
 -----
 Symbolic Z-matrix:
 Charge =  0 Multiplicity = 1
 C                     3.39899   0.36208   0.58062 
 C                     3.29819  -0.51697  -0.66104 
 C                     1.83613  -0.82022  -1.00246 
 C                     1.04809   1.12664   0.10084 
 C                     2.46497   1.5586    0.46156 
 H                     1.73738  -1.32717  -1.96383 
 H                     3.6977    0.05254  -1.51695 
 H                     3.10043  -0.22655   1.46043 
 H                     0.63127   0.54227   0.93363 
 H                     2.83678   2.22     -0.33244 
 O                     1.05433   0.31541  -1.08112 
 O                     1.36671  -1.71631   0.03332 
 O                     4.05145  -1.67696  -0.44719 
 O                     4.70858   0.85628   0.73953 
 O                     2.39715   2.24484   1.69034 
 C                     0.12763   2.31294  -0.13374 
 H                    -0.05133   2.77998   0.83849 
 H                    -0.83211   1.94969  -0.52795 
 O                     0.65743   3.31829  -0.96113 
 S                     0.08959  -2.65372  -0.29513 
 O                     0.07634  -3.63108   0.77361 
 O                     0.14697  -3.05095  -1.69268 
 C                    -1.28189  -1.55085  -0.07938 
 C                    -1.7461   -1.30229   1.20591 
 C                    -1.82939  -0.92997  -1.19527 
 C                    -2.79054  -0.39775   1.3709 
 H                    -1.30237  -1.80505   2.05857 
 C                    -2.87093  -0.03042  -1.00682 
 H                    -1.44675  -1.145    -2.18606 
 C                    -3.35348   0.24038   0.27109 
 H                    -4.16364   0.94842   0.40915 
 C                     4.25991  -2.45531  -1.60675 
 H                     3.34333  -2.96604  -1.93148 
 H                     4.64057  -1.84195  -2.43565 
 H                     5.00502  -3.21046  -1.34899 
 C                     5.51184   0.10529   1.62643 
 H                     6.47485   0.61843   1.68675 
 H                     5.06496   0.06965   2.63017 
 H                     5.66478  -0.9173    1.2658 
 C                     3.09055   3.47623   1.69362 
 H                     2.95342   3.91198   2.68648 
 H                     4.16037   3.32958   1.50594 
 H                     2.67896   4.16143   0.94023 
 C                     0.60116   3.02576  -2.34247 
 H                     0.83803   3.95257  -2.87105 
 H                    -0.40492   2.69318  -2.63341 
 H                     1.32082   2.25115  -2.63127 
 C                    -3.34695  -0.1485    2.74559 
 F                    -2.40514  -0.29092   3.6878 
 F                    -4.33408  -1.01057   3.03433 
 F                    -3.8536    1.08748   2.85229 
 C                    -3.43561   0.721    -2.17907 
 F                    -2.89692   1.95347  -2.26374 
 F                    -4.76043   0.88224  -2.06818 
 F                    -3.18848   0.09854  -3.33688 
 
 ITRead=  0  0  0  0  0  0  0  0  0  0  0  0  0  0  0  0  0  0  0  0
 ITRead=  0  0  0  0  0  0  0  0  0  0  0  0  0  0  0  0  0  0  0  0
 ITRead=  0  0  0  0  0  0  0  0  0  0  0  0  0  0  0
 MicOpt= -1 -1 -1 -1 -1 -1 -1 -1 -1 -1 -1 -1 -1 -1 -1 -1 -1 -1 -1 -1
 MicOpt= -1 -1 -1 -1 -1 -1 -1 -1 -1 -1 -1 -1 -1 -1 -1 -1 -1 -1 -1 -1
 MicOpt= -1 -1 -1 -1 -1 -1 -1 -1 -1 -1 -1 -1 -1 -1 -1
 NAtoms=     55 NQM=       55 NQMF=       0 NMMI=      0 NMMIF=      0
                NMic=       0 NMicF=      0.
                    Isotopes and Nuclear Properties:
 (Nuclear quadrupole moments (NQMom) in fm**2, nuclear magnetic moments (NMagM)
  in nuclear magnetons)

  Atom         1           2           3           4           5           6           7           8           9          10
 IAtWgt=          12          12          12          12          12           1           1           1           1           1
 AtmWgt=  12.0000000  12.0000000  12.0000000  12.0000000  12.0000000   1.0078250   1.0078250   1.0078250   1.0078250   1.0078250
 NucSpn=           0           0           0           0           0           1           1           1           1           1
 AtZEff=   0.0000000   0.0000000   0.0000000   0.0000000   0.0000000   0.0000000   0.0000000   0.0000000   0.0000000   0.0000000
 NQMom=    0.0000000   0.0000000   0.0000000   0.0000000   0.0000000   0.0000000   0.0000000   0.0000000   0.0000000   0.0000000
 NMagM=    0.0000000   0.0000000   0.0000000   0.0000000   0.0000000   2.7928460   2.7928460   2.7928460   2.7928460   2.7928460
 AtZNuc=   6.0000000   6.0000000   6.0000000   6.0000000   6.0000000   1.0000000   1.0000000   1.0000000   1.0000000   1.0000000

  Atom        11          12          13          14          15          16          17          18          19          20
 IAtWgt=          16          16          16          16          16          12           1           1          16          32
 AtmWgt=  15.9949146  15.9949146  15.9949146  15.9949146  15.9949146  12.0000000   1.0078250   1.0078250  15.9949146  31.9720718
 NucSpn=           0           0           0           0           0           0           1           1           0           0
 AtZEff=   0.0000000   0.0000000   0.0000000   0.0000000   0.0000000   0.0000000   0.0000000   0.0000000   0.0000000   0.0000000
 NQMom=    0.0000000   0.0000000   0.0000000   0.0000000   0.0000000   0.0000000   0.0000000   0.0000000   0.0000000   0.0000000
 NMagM=    0.0000000   0.0000000   0.0000000   0.0000000   0.0000000   0.0000000   2.7928460   2.7928460   0.0000000   0.0000000
 AtZNuc=   8.0000000   8.0000000   8.0000000   8.0000000   8.0000000   6.0000000   1.0000000   1.0000000   8.0000000  16.0000000

  Atom        21          22          23          24          25          26          27          28          29          30
 IAtWgt=          16          16          12          12          12          12           1          12           1          12
 AtmWgt=  15.9949146  15.9949146  12.0000000  12.0000000  12.0000000  12.0000000   1.0078250  12.0000000   1.0078250  12.0000000
 NucSpn=           0           0           0           0           0           0           1           0           1           0
 AtZEff=   0.0000000   0.0000000   0.0000000   0.0000000   0.0000000   0.0000000   0.0000000   0.0000000   0.0000000   0.0000000
 NQMom=    0.0000000   0.0000000   0.0000000   0.0000000   0.0000000   0.0000000   0.0000000   0.0000000   0.0000000   0.0000000
 NMagM=    0.0000000   0.0000000   0.0000000   0.0000000   0.0000000   0.0000000   2.7928460   0.0000000   2.7928460   0.0000000
 AtZNuc=   8.0000000   8.0000000   6.0000000   6.0000000   6.0000000   6.0000000   1.0000000   6.0000000   1.0000000   6.0000000

  Atom        31          32          33          34          35          36          37          38          39          40
 IAtWgt=           1          12           1           1           1          12           1           1           1          12
 AtmWgt=   1.0078250  12.0000000   1.0078250   1.0078250   1.0078250  12.0000000   1.0078250   1.0078250   1.0078250  12.0000000
 NucSpn=           1           0           1           1           1           0           1           1           1           0
 AtZEff=   0.0000000   0.0000000   0.0000000   0.0000000   0.0000000   0.0000000   0.0000000   0.0000000   0.0000000   0.0000000
 NQMom=    0.0000000   0.0000000   0.0000000   0.0000000   0.0000000   0.0000000   0.0000000   0.0000000   0.0000000   0.0000000
 NMagM=    2.7928460   0.0000000   2.7928460   2.7928460   2.7928460   0.0000000   2.7928460   2.7928460   2.7928460   0.0000000
 AtZNuc=   1.0000000   6.0000000   1.0000000   1.0000000   1.0000000   6.0000000   1.0000000   1.0000000   1.0000000   6.0000000

  Atom        41          42          43          44          45          46          47          48          49          50
 IAtWgt=           1           1           1          12           1           1           1          12          19          19
 AtmWgt=   1.0078250   1.0078250   1.0078250  12.0000000   1.0078250   1.0078250   1.0078250  12.0000000  18.9984033  18.9984033
 NucSpn=           1           1           1           0           1           1           1           0           1           1
 AtZEff=   0.0000000   0.0000000   0.0000000   0.0000000   0.0000000   0.0000000   0.0000000   0.0000000   0.0000000   0.0000000
 NQMom=    0.0000000   0.0000000   0.0000000   0.0000000   0.0000000   0.0000000   0.0000000   0.0000000   0.0000000   0.0000000
 NMagM=    2.7928460   2.7928460   2.7928460   0.0000000   2.7928460   2.7928460   2.7928460   0.0000000   2.6288670   2.6288670
 AtZNuc=   1.0000000   1.0000000   1.0000000   6.0000000   1.0000000   1.0000000   1.0000000   6.0000000   9.0000000   9.0000000

  Atom        51          52          53          54          55
 IAtWgt=          19          12          19          19          19
 AtmWgt=  18.9984033  12.0000000  18.9984033  18.9984033  18.9984033
 NucSpn=           1           0           1           1           1
 AtZEff=   0.0000000   0.0000000   0.0000000   0.0000000   0.0000000
 NQMom=    0.0000000   0.0000000   0.0000000   0.0000000   0.0000000
 NMagM=    2.6288670   0.0000000   2.6288670   2.6288670   2.6288670
 AtZNuc=   9.0000000   6.0000000   9.0000000   9.0000000   9.0000000
 Leave Link  101 at Sun Jun  9 21:27:05 2019, MaxMem= 12884901888 cpu:              38.9 elap:               0.7
 (Enter /home/ekwan/sw/g16/l103.exe)

 GradGradGradGradGradGradGradGradGradGradGradGradGradGradGradGradGradGrad
 Berny optimization.
 Initialization pass.
                           ----------------------------
                           !    Initial Parameters    !
                           ! (Angstroms and Degrees)  !
 --------------------------                            --------------------------
 ! Name  Definition              Value          Derivative Info.                !
 --------------------------------------------------------------------------------
 ! R1    R(1,2)                  1.5247         estimate D2E/DX2                !
 ! R2    R(1,5)                  1.5226         estimate D2E/DX2                !
 ! R3    R(1,8)                  1.0999         estimate D2E/DX2                !
 ! R4    R(1,14)                 1.4087         estimate D2E/DX2                !
 ! R5    R(2,3)                  1.5317         estimate D2E/DX2                !
 ! R6    R(2,7)                  1.103          estimate D2E/DX2                !
 ! R7    R(2,13)                 1.3995         estimate D2E/DX2                !
 ! R8    R(3,6)                  1.0913         estimate D2E/DX2                !
 ! R9    R(3,11)                 1.381          estimate D2E/DX2                !
 ! R10   R(3,12)                 1.4478         estimate D2E/DX2                !
 ! R11   R(4,5)                  1.5245         estimate D2E/DX2                !
 ! R12   R(4,9)                  1.0994         estimate D2E/DX2                !
 ! R13   R(4,11)                 1.4336         estimate D2E/DX2                !
 ! R14   R(4,16)                 1.5197         estimate D2E/DX2                !
 ! R15   R(5,10)                 1.0982         estimate D2E/DX2                !
 ! R16   R(5,15)                 1.409          estimate D2E/DX2                !
 ! R17   R(12,20)                1.6179         estimate D2E/DX2                !
 ! R18   R(13,32)                1.412          estimate D2E/DX2                !
 ! R19   R(14,36)                1.4127         estimate D2E/DX2                !
 ! R20   R(15,40)                1.4132         estimate D2E/DX2                !
 ! R21   R(16,17)                1.0933         estimate D2E/DX2                !
 ! R22   R(16,18)                1.0993         estimate D2E/DX2                !
 ! R23   R(16,19)                1.4057         estimate D2E/DX2                !
 ! R24   R(19,44)                1.4131         estimate D2E/DX2                !
 ! R25   R(20,21)                1.4483         estimate D2E/DX2                !
 ! R26   R(20,22)                1.454          estimate D2E/DX2                !
 ! R27   R(20,23)                1.7731         estimate D2E/DX2                !
 ! R28   R(23,24)                1.389          estimate D2E/DX2                !
 ! R29   R(23,25)                1.3894         estimate D2E/DX2                !
 ! R30   R(24,26)                1.3915         estimate D2E/DX2                !
 ! R31   R(24,27)                1.0848         estimate D2E/DX2                !
 ! R32   R(25,28)                1.3891         estimate D2E/DX2                !
 ! R33   R(25,29)                1.0837         estimate D2E/DX2                !
 ! R34   R(26,30)                1.3906         estimate D2E/DX2                !
 ! R35   R(26,48)                1.5038         estimate D2E/DX2                !
 ! R36   R(28,30)                1.3926         estimate D2E/DX2                !
 ! R37   R(28,52)                1.5025         estimate D2E/DX2                !
 ! R38   R(30,31)                1.0848         estimate D2E/DX2                !
 ! R39   R(32,33)                1.0984         estimate D2E/DX2                !
 ! R40   R(32,34)                1.0992         estimate D2E/DX2                !
 ! R41   R(32,35)                1.0917         estimate D2E/DX2                !
 ! R42   R(36,37)                1.0929         estimate D2E/DX2                !
 ! R43   R(36,38)                1.0993         estimate D2E/DX2                !
 ! R44   R(36,39)                1.0951         estimate D2E/DX2                !
 ! R45   R(40,41)                1.0929         estimate D2E/DX2                !
 ! R46   R(40,42)                1.096          estimate D2E/DX2                !
 ! R47   R(40,43)                1.0984         estimate D2E/DX2                !
 ! R48   R(44,45)                1.0929         estimate D2E/DX2                !
 ! R49   R(44,46)                1.0988         estimate D2E/DX2                !
 ! R50   R(44,47)                1.0961         estimate D2E/DX2                !
 ! R51   R(48,49)                1.3398         estimate D2E/DX2                !
 ! R52   R(48,50)                1.342          estimate D2E/DX2                !
 ! R53   R(48,51)                1.3401         estimate D2E/DX2                !
 ! R54   R(52,53)                1.3477         estimate D2E/DX2                !
 ! R55   R(52,54)                1.3392         estimate D2E/DX2                !
 ! R56   R(52,55)                1.3376         estimate D2E/DX2                !
 ! A1    A(2,1,5)              110.4164         estimate D2E/DX2                !
 ! A2    A(2,1,8)              108.9623         estimate D2E/DX2                !
 ! A3    A(2,1,14)             110.8294         estimate D2E/DX2                !
 ! A4    A(5,1,8)              108.4577         estimate D2E/DX2                !
 ! A5    A(5,1,14)             107.6623         estimate D2E/DX2                !
 ! A6    A(8,1,14)             110.4795         estimate D2E/DX2                !
 ! A7    A(1,2,3)              111.025          estimate D2E/DX2                !
 ! A8    A(1,2,7)              108.0783         estimate D2E/DX2                !
 ! A9    A(1,2,13)             108.5322         estimate D2E/DX2                !
 ! A10   A(3,2,7)              105.9625         estimate D2E/DX2                !
 ! A11   A(3,2,13)             112.5642         estimate D2E/DX2                !
 ! A12   A(7,2,13)             110.5843         estimate D2E/DX2                !
 ! A13   A(2,3,6)              112.0053         estimate D2E/DX2                !
 ! A14   A(2,3,11)             112.9713         estimate D2E/DX2                !
 ! A15   A(2,3,12)             105.8161         estimate D2E/DX2                !
 ! A16   A(6,3,11)             106.2961         estimate D2E/DX2                !
 ! A17   A(6,3,12)             108.2625         estimate D2E/DX2                !
 ! A18   A(11,3,12)            111.48           estimate D2E/DX2                !
 ! A19   A(5,4,9)              108.8878         estimate D2E/DX2                !
 ! A20   A(5,4,11)             110.5711         estimate D2E/DX2                !
 ! A21   A(5,4,16)             112.2252         estimate D2E/DX2                !
 ! A22   A(9,4,11)             108.9892         estimate D2E/DX2                !
 ! A23   A(9,4,16)             107.5896         estimate D2E/DX2                !
 ! A24   A(11,4,16)            108.4876         estimate D2E/DX2                !
 ! A25   A(1,5,4)              111.4671         estimate D2E/DX2                !
 ! A26   A(1,5,10)             108.7912         estimate D2E/DX2                !
 ! A27   A(1,5,15)             110.1245         estimate D2E/DX2                !
 ! A28   A(4,5,10)             108.3132         estimate D2E/DX2                !
 ! A29   A(4,5,15)             107.4335         estimate D2E/DX2                !
 ! A30   A(10,5,15)            110.6998         estimate D2E/DX2                !
 ! A31   A(3,11,4)             114.8883         estimate D2E/DX2                !
 ! A32   A(3,12,20)            117.9888         estimate D2E/DX2                !
 ! A33   A(2,13,32)            114.258          estimate D2E/DX2                !
 ! A34   A(1,14,36)            114.3868         estimate D2E/DX2                !
 ! A35   A(5,15,40)            113.7519         estimate D2E/DX2                !
 ! A36   A(4,16,17)            107.1773         estimate D2E/DX2                !
 ! A37   A(4,16,18)            109.0376         estimate D2E/DX2                !
 ! A38   A(4,16,19)            114.8891         estimate D2E/DX2                !
 ! A39   A(17,16,18)           108.4892         estimate D2E/DX2                !
 ! A40   A(17,16,19)           106.2356         estimate D2E/DX2                !
 ! A41   A(18,16,19)           110.7508         estimate D2E/DX2                !
 ! A42   A(16,19,44)           114.3498         estimate D2E/DX2                !
 ! A43   A(12,20,21)           104.3833         estimate D2E/DX2                !
 ! A44   A(12,20,22)           108.7992         estimate D2E/DX2                !
 ! A45   A(12,20,23)           103.031          estimate D2E/DX2                !
 ! A46   A(21,20,22)           121.6856         estimate D2E/DX2                !
 ! A47   A(21,20,23)           108.8375         estimate D2E/DX2                !
 ! A48   A(22,20,23)           108.506          estimate D2E/DX2                !
 ! A49   A(20,23,24)           118.8435         estimate D2E/DX2                !
 ! A50   A(20,23,25)           119.0142         estimate D2E/DX2                !
 ! A51   A(24,23,25)           122.1085         estimate D2E/DX2                !
 ! A52   A(23,24,26)           118.4835         estimate D2E/DX2                !
 ! A53   A(23,24,27)           120.5115         estimate D2E/DX2                !
 ! A54   A(26,24,27)           121.005          estimate D2E/DX2                !
 ! A55   A(23,25,28)           118.4175         estimate D2E/DX2                !
 ! A56   A(23,25,29)           120.4308         estimate D2E/DX2                !
 ! A57   A(28,25,29)           121.1516         estimate D2E/DX2                !
 ! A58   A(24,26,30)           120.5559         estimate D2E/DX2                !
 ! A59   A(24,26,48)           119.5938         estimate D2E/DX2                !
 ! A60   A(30,26,48)           119.8113         estimate D2E/DX2                !
 ! A61   A(25,28,30)           120.6804         estimate D2E/DX2                !
 ! A62   A(25,28,52)           119.9872         estimate D2E/DX2                !
 ! A63   A(30,28,52)           119.2396         estimate D2E/DX2                !
 ! A64   A(26,30,28)           119.7537         estimate D2E/DX2                !
 ! A65   A(26,30,31)           120.0799         estimate D2E/DX2                !
 ! A66   A(28,30,31)           120.1662         estimate D2E/DX2                !
 ! A67   A(13,32,33)           112.0801         estimate D2E/DX2                !
 ! A68   A(13,32,34)           111.273          estimate D2E/DX2                !
 ! A69   A(13,32,35)           106.7477         estimate D2E/DX2                !
 ! A70   A(33,32,34)           108.9963         estimate D2E/DX2                !
 ! A71   A(33,32,35)           108.5248         estimate D2E/DX2                !
 ! A72   A(34,32,35)           109.127          estimate D2E/DX2                !
 ! A73   A(14,36,37)           106.6232         estimate D2E/DX2                !
 ! A74   A(14,36,38)           111.0583         estimate D2E/DX2                !
 ! A75   A(14,36,39)           111.6586         estimate D2E/DX2                !
 ! A76   A(37,36,38)           108.8467         estimate D2E/DX2                !
 ! A77   A(37,36,39)           109.4857         estimate D2E/DX2                !
 ! A78   A(38,36,39)           109.0991         estimate D2E/DX2                !
 ! A79   A(15,40,41)           106.7357         estimate D2E/DX2                !
 ! A80   A(15,40,42)           111.2194         estimate D2E/DX2                !
 ! A81   A(15,40,43)           110.9841         estimate D2E/DX2                !
 ! A82   A(41,40,42)           109.3526         estimate D2E/DX2                !
 ! A83   A(41,40,43)           109.1093         estimate D2E/DX2                !
 ! A84   A(42,40,43)           109.3769         estimate D2E/DX2                !
 ! A85   A(19,44,45)           106.7735         estimate D2E/DX2                !
 ! A86   A(19,44,46)           110.9735         estimate D2E/DX2                !
 ! A87   A(19,44,47)           112.1928         estimate D2E/DX2                !
 ! A88   A(45,44,46)           109.0899         estimate D2E/DX2                !
 ! A89   A(45,44,47)           109.2426         estimate D2E/DX2                !
 ! A90   A(46,44,47)           108.5115         estimate D2E/DX2                !
 ! A91   A(26,48,49)           111.4171         estimate D2E/DX2                !
 ! A92   A(26,48,50)           111.246          estimate D2E/DX2                !
 ! A93   A(26,48,51)           111.4414         estimate D2E/DX2                !
 ! A94   A(49,48,50)           107.306          estimate D2E/DX2                !
 ! A95   A(49,48,51)           107.9277         estimate D2E/DX2                !
 ! A96   A(50,48,51)           107.2925         estimate D2E/DX2                !
 ! A97   A(28,52,53)           110.863          estimate D2E/DX2                !
 ! A98   A(28,52,54)           111.5545         estimate D2E/DX2                !
 ! A99   A(28,52,55)           111.9108         estimate D2E/DX2                !
 ! A100  A(53,52,54)           106.8887         estimate D2E/DX2                !
 ! A101  A(53,52,55)           107.2984         estimate D2E/DX2                !
 ! A102  A(54,52,55)           108.0883         estimate D2E/DX2                !
 ! D1    D(5,1,2,3)            -49.1175         estimate D2E/DX2                !
 ! D2    D(5,1,2,7)             66.6927         estimate D2E/DX2                !
 ! D3    D(5,1,2,13)          -173.3406         estimate D2E/DX2                !
 ! D4    D(8,1,2,3)             69.9017         estimate D2E/DX2                !
 ! D5    D(8,1,2,7)           -174.288          estimate D2E/DX2                !
 ! D6    D(8,1,2,13)           -54.3213         estimate D2E/DX2                !
 ! D7    D(14,1,2,3)          -168.3264         estimate D2E/DX2                !
 ! D8    D(14,1,2,7)           -52.5161         estimate D2E/DX2                !
 ! D9    D(14,1,2,13)           67.4506         estimate D2E/DX2                !
 ! D10   D(2,1,5,4)             51.3133         estimate D2E/DX2                !
 ! D11   D(2,1,5,10)           -68.0567         estimate D2E/DX2                !
 ! D12   D(2,1,5,15)           170.4545         estimate D2E/DX2                !
 ! D13   D(8,1,5,4)            -68.0121         estimate D2E/DX2                !
 ! D14   D(8,1,5,10)           172.6179         estimate D2E/DX2                !
 ! D15   D(8,1,5,15)            51.1291         estimate D2E/DX2                !
 ! D16   D(14,1,5,4)           172.4254         estimate D2E/DX2                !
 ! D17   D(14,1,5,10)           53.0553         estimate D2E/DX2                !
 ! D18   D(14,1,5,15)          -68.4334         estimate D2E/DX2                !
 ! D19   D(2,1,14,36)          -96.4447         estimate D2E/DX2                !
 ! D20   D(5,1,14,36)          142.7021         estimate D2E/DX2                !
 ! D21   D(8,1,14,36)           24.4335         estimate D2E/DX2                !
 ! D22   D(1,2,3,6)            171.8977         estimate D2E/DX2                !
 ! D23   D(1,2,3,11)            51.8963         estimate D2E/DX2                !
 ! D24   D(1,2,3,12)           -70.3419         estimate D2E/DX2                !
 ! D25   D(7,2,3,6)             54.7861         estimate D2E/DX2                !
 ! D26   D(7,2,3,11)           -65.2153         estimate D2E/DX2                !
 ! D27   D(7,2,3,12)           172.5465         estimate D2E/DX2                !
 ! D28   D(13,2,3,6)           -66.2017         estimate D2E/DX2                !
 ! D29   D(13,2,3,11)          173.7969         estimate D2E/DX2                !
 ! D30   D(13,2,3,12)           51.5587         estimate D2E/DX2                !
 ! D31   D(1,2,13,32)         -168.2227         estimate D2E/DX2                !
 ! D32   D(3,2,13,32)           68.475          estimate D2E/DX2                !
 ! D33   D(7,2,13,32)          -49.8304         estimate D2E/DX2                !
 ! D34   D(2,3,11,4)           -56.9168         estimate D2E/DX2                !
 ! D35   D(6,3,11,4)           179.8588         estimate D2E/DX2                !
 ! D36   D(12,3,11,4)           62.0905         estimate D2E/DX2                !
 ! D37   D(2,3,12,20)         -157.6024         estimate D2E/DX2                !
 ! D38   D(6,3,12,20)          -37.3659         estimate D2E/DX2                !
 ! D39   D(11,3,12,20)          79.2107         estimate D2E/DX2                !
 ! D40   D(9,4,5,1)             65.6656         estimate D2E/DX2                !
 ! D41   D(9,4,5,10)          -174.6809         estimate D2E/DX2                !
 ! D42   D(9,4,5,15)           -55.0647         estimate D2E/DX2                !
 ! D43   D(11,4,5,1)           -54.0526         estimate D2E/DX2                !
 ! D44   D(11,4,5,10)           65.6009         estimate D2E/DX2                !
 ! D45   D(11,4,5,15)         -174.7829         estimate D2E/DX2                !
 ! D46   D(16,4,5,1)          -175.3331         estimate D2E/DX2                !
 ! D47   D(16,4,5,10)          -55.6797         estimate D2E/DX2                !
 ! D48   D(16,4,5,15)           63.9366         estimate D2E/DX2                !
 ! D49   D(5,4,11,3)            57.6462         estimate D2E/DX2                !
 ! D50   D(9,4,11,3)           -62.011          estimate D2E/DX2                !
 ! D51   D(16,4,11,3)         -178.8854         estimate D2E/DX2                !
 ! D52   D(5,4,16,17)          -70.7891         estimate D2E/DX2                !
 ! D53   D(5,4,16,18)          171.9656         estimate D2E/DX2                !
 ! D54   D(5,4,16,19)           46.9871         estimate D2E/DX2                !
 ! D55   D(9,4,16,17)           48.972          estimate D2E/DX2                !
 ! D56   D(9,4,16,18)          -68.2733         estimate D2E/DX2                !
 ! D57   D(9,4,16,19)          166.7481         estimate D2E/DX2                !
 ! D58   D(11,4,16,17)         166.7419         estimate D2E/DX2                !
 ! D59   D(11,4,16,18)          49.4966         estimate D2E/DX2                !
 ! D60   D(11,4,16,19)         -75.482          estimate D2E/DX2                !
 ! D61   D(1,5,15,40)          106.5633         estimate D2E/DX2                !
 ! D62   D(4,5,15,40)         -131.8629         estimate D2E/DX2                !
 ! D63   D(10,5,15,40)         -13.7815         estimate D2E/DX2                !
 ! D64   D(3,12,20,21)         166.5699         estimate D2E/DX2                !
 ! D65   D(3,12,20,22)          35.2618         estimate D2E/DX2                !
 ! D66   D(3,12,20,23)         -79.7583         estimate D2E/DX2                !
 ! D67   D(2,13,32,33)         -71.8363         estimate D2E/DX2                !
 ! D68   D(2,13,32,34)          50.5001         estimate D2E/DX2                !
 ! D69   D(2,13,32,35)         169.4705         estimate D2E/DX2                !
 ! D70   D(1,14,36,37)        -177.6827         estimate D2E/DX2                !
 ! D71   D(1,14,36,38)         -59.2448         estimate D2E/DX2                !
 ! D72   D(1,14,36,39)          62.7712         estimate D2E/DX2                !
 ! D73   D(5,15,40,41)         179.3035         estimate D2E/DX2                !
 ! D74   D(5,15,40,42)         -61.4902         estimate D2E/DX2                !
 ! D75   D(5,15,40,43)          60.5225         estimate D2E/DX2                !
 ! D76   D(4,16,19,44)          78.8285         estimate D2E/DX2                !
 ! D77   D(17,16,19,44)       -162.8647         estimate D2E/DX2                !
 ! D78   D(18,16,19,44)        -45.2489         estimate D2E/DX2                !
 ! D79   D(16,19,44,45)        168.2037         estimate D2E/DX2                !
 ! D80   D(16,19,44,46)         49.4293         estimate D2E/DX2                !
 ! D81   D(16,19,44,47)        -72.1453         estimate D2E/DX2                !
 ! D82   D(12,20,23,24)        -80.7964         estimate D2E/DX2                !
 ! D83   D(12,20,23,25)         97.1352         estimate D2E/DX2                !
 ! D84   D(21,20,23,24)         29.5906         estimate D2E/DX2                !
 ! D85   D(21,20,23,25)       -152.4778         estimate D2E/DX2                !
 ! D86   D(22,20,23,24)        163.9725         estimate D2E/DX2                !
 ! D87   D(22,20,23,25)        -18.096          estimate D2E/DX2                !
 ! D88   D(20,23,24,26)        177.6627         estimate D2E/DX2                !
 ! D89   D(20,23,24,27)         -2.4109         estimate D2E/DX2                !
 ! D90   D(25,23,24,26)         -0.2017         estimate D2E/DX2                !
 ! D91   D(25,23,24,27)        179.7246         estimate D2E/DX2                !
 ! D92   D(20,23,25,28)       -177.642          estimate D2E/DX2                !
 ! D93   D(20,23,25,29)          2.2126         estimate D2E/DX2                !
 ! D94   D(24,23,25,28)          0.2189         estimate D2E/DX2                !
 ! D95   D(24,23,25,29)       -179.9264         estimate D2E/DX2                !
 ! D96   D(23,24,26,30)         -0.002          estimate D2E/DX2                !
 ! D97   D(23,24,26,48)        177.7245         estimate D2E/DX2                !
 ! D98   D(27,24,26,30)       -179.928          estimate D2E/DX2                !
 ! D99   D(27,24,26,48)         -2.2015         estimate D2E/DX2                !
 ! D100  D(23,25,28,30)         -0.0329         estimate D2E/DX2                !
 ! D101  D(23,25,28,52)        176.4373         estimate D2E/DX2                !
 ! D102  D(29,25,28,30)       -179.8864         estimate D2E/DX2                !
 ! D103  D(29,25,28,52)         -3.4162         estimate D2E/DX2                !
 ! D104  D(24,26,30,28)          0.181          estimate D2E/DX2                !
 ! D105  D(24,26,30,31)       -179.6507         estimate D2E/DX2                !
 ! D106  D(48,26,30,28)       -177.5407         estimate D2E/DX2                !
 ! D107  D(48,26,30,31)          2.6276         estimate D2E/DX2                !
 ! D108  D(24,26,48,49)         31.0296         estimate D2E/DX2                !
 ! D109  D(24,26,48,50)        -88.6629         estimate D2E/DX2                !
 ! D110  D(24,26,48,51)        151.6454         estimate D2E/DX2                !
 ! D111  D(30,26,48,49)       -151.2267         estimate D2E/DX2                !
 ! D112  D(30,26,48,50)         89.0808         estimate D2E/DX2                !
 ! D113  D(30,26,48,51)        -30.6109         estimate D2E/DX2                !
 ! D114  D(25,28,30,26)         -0.1633         estimate D2E/DX2                !
 ! D115  D(25,28,30,31)        179.6683         estimate D2E/DX2                !
 ! D116  D(52,28,30,26)       -176.6596         estimate D2E/DX2                !
 ! D117  D(52,28,30,31)          3.172          estimate D2E/DX2                !
 ! D118  D(25,28,52,53)        -97.5251         estimate D2E/DX2                !
 ! D119  D(25,28,52,54)        143.4742         estimate D2E/DX2                !
 ! D120  D(25,28,52,55)         22.2292         estimate D2E/DX2                !
 ! D121  D(30,28,52,53)         78.996          estimate D2E/DX2                !
 ! D122  D(30,28,52,54)        -40.0048         estimate D2E/DX2                !
 ! D123  D(30,28,52,55)       -161.2498         estimate D2E/DX2                !
 --------------------------------------------------------------------------------
 Trust Radius=3.00D-01 FncErr=1.00D-07 GrdErr=1.00D-06 EigMax=2.50D+02 EigMin=1.00D-04
 Number of steps in this run=    291 maximum allowed number of steps=    330.
 GradGradGradGradGradGradGradGradGradGradGradGradGradGradGradGradGradGrad

 Leave Link  103 at Sun Jun  9 21:27:06 2019, MaxMem= 12884901888 cpu:               4.9 elap:               0.1
 (Enter /home/ekwan/sw/g16/l202.exe)
 Stoichiometry    C18H22F6O8S
 Framework group  C1[X(C18H22F6O8S)]
 Deg. of freedom   159
 Full point group                 C1      NOp   1
 Largest Abelian subgroup         C1      NOp   1
 Largest concise Abelian subgroup C1      NOp   1
                         Standard orientation:                         
 ---------------------------------------------------------------------
 Center     Atomic      Atomic             Coordinates (Angstroms)
 Number     Number       Type             X           Y           Z
 ---------------------------------------------------------------------
      1          6           0        3.398989    0.362075    0.580624
      2          6           0        3.298185   -0.516972   -0.661044
      3          6           0        1.836125   -0.820217   -1.002456
      4          6           0        1.048094    1.126641    0.100835
      5          6           0        2.464967    1.558597    0.461560
      6          1           0        1.737375   -1.327170   -1.963833
      7          1           0        3.697702    0.052539   -1.516945
      8          1           0        3.100427   -0.226548    1.460434
      9          1           0        0.631272    0.542265    0.933631
     10          1           0        2.836780    2.219998   -0.332444
     11          8           0        1.054332    0.315412   -1.081115
     12          8           0        1.366712   -1.716312    0.033322
     13          8           0        4.051455   -1.676964   -0.447188
     14          8           0        4.708576    0.856282    0.739526
     15          8           0        2.397148    2.244838    1.690336
     16          6           0        0.127633    2.312943   -0.133740
     17          1           0       -0.051333    2.779976    0.838491
     18          1           0       -0.832112    1.949685   -0.527950
     19          8           0        0.657425    3.318295   -0.961131
     20         16           0        0.089588   -2.653724   -0.295126
     21          8           0        0.076343   -3.631081    0.773607
     22          8           0        0.146969   -3.050949   -1.692676
     23          6           0       -1.281887   -1.550846   -0.079376
     24          6           0       -1.746099   -1.302292    1.205907
     25          6           0       -1.829394   -0.929971   -1.195273
     26          6           0       -2.790542   -0.397751    1.370904
     27          1           0       -1.302367   -1.805054    2.058570
     28          6           0       -2.870934   -0.030421   -1.006824
     29          1           0       -1.446752   -1.145004   -2.186057
     30          6           0       -3.353481    0.240379    0.271092
     31          1           0       -4.163637    0.948419    0.409151
     32          6           0        4.259912   -2.455309   -1.606746
     33          1           0        3.343329   -2.966035   -1.931481
     34          1           0        4.640569   -1.841951   -2.435654
     35          1           0        5.005023   -3.210461   -1.348994
     36          6           0        5.511838    0.105286    1.626431
     37          1           0        6.474849    0.618426    1.686748
     38          1           0        5.064962    0.069647    2.630172
     39          1           0        5.664782   -0.917303    1.265798
     40          6           0        3.090548    3.476232    1.693617
     41          1           0        2.953423    3.911979    2.686475
     42          1           0        4.160370    3.329576    1.505938
     43          1           0        2.678960    4.161430    0.940231
     44          6           0        0.601155    3.025764   -2.342472
     45          1           0        0.838032    3.952571   -2.871050
     46          1           0       -0.404924    2.693182   -2.633414
     47          1           0        1.320815    2.251152   -2.631271
     48          6           0       -3.346952   -0.148504    2.745588
     49          9           0       -2.405144   -0.290916    3.687801
     50          9           0       -4.334079   -1.010568    3.034331
     51          9           0       -3.853604    1.087479    2.852289
     52          6           0       -3.435609    0.721003   -2.179069
     53          9           0       -2.896922    1.953473   -2.263736
     54          9           0       -4.760425    0.882239   -2.068178
     55          9           0       -3.188484    0.098544   -3.336876
 ---------------------------------------------------------------------
 Rotational constants (GHZ):           0.1520942           0.0850718           0.0834581
 Leave Link  202 at Sun Jun  9 21:27:06 2019, MaxMem= 12884901888 cpu:               8.3 elap:               0.2
 (Enter /home/ekwan/sw/g16/l301.exe)
 Standard basis: 6-31G(d) (6D, 7F)
 Ernie: Thresh=  0.10000D-02 Tol=  0.10000D-05 Strict=F.
 There are   543 symmetry adapted cartesian basis functions of A   symmetry.
 There are   543 symmetry adapted basis functions of A   symmetry.
   543 basis functions,  1036 primitive gaussians,   543 cartesian basis functions
   132 alpha electrons      132 beta electrons
       nuclear repulsion energy      4358.6374584825 Hartrees.
 IExCor= 1009 DFT=T Ex+Corr=PBE1PBE ExCW=0 ScaHFX=  0.250000
 ScaDFX=  0.750000  0.750000  1.000000  1.000000 ScalE2=  1.000000  1.000000
 IRadAn=      5 IRanWt=     -1 IRanGd=            0 ICorTp=0 IEmpDi=141
 NAtoms=   55 NActive=   55 NUniq=   55 SFac= 1.00D+00 NAtFMM=   60 NAOKFM=F Big=F
 Integral buffers will be    131072 words long.
 Raffenetti 2 integral format.
 Two-electron integral symmetry is turned on.
 R6Disp:  Grimme-D3(BJ) Dispersion energy=       -0.0667654845 Hartrees.
 Nuclear repulsion after empirical dispersion term =     4358.5706929980 Hartrees.
 ------------------------------------------------------------------------------
 Polarizable Continuum Model (PCM)
 =================================
 Model                : PCM.
 Atomic radii         : UFF (Universal Force Field).
 Polarization charges : Total charges.
 Charge compensation  : None.
 Solution method      : On-the-fly selection.
 Cavity type          : Scaled VdW (van der Waals Surface) (Alpha=1.100).
 Cavity algorithm     : GePol (No added spheres)
                        Default sphere list used, NSphG=   55.
                        Lebedev-Laikov grids with approx.  5.0 points / Ang**2.
                        Smoothing algorithm: York/Karplus (Gamma=1.0000).
                        Polarization charges: spherical gaussians, with
                                              point-specific exponents (IZeta= 3).
                        Self-potential: point-specific (ISelfS= 7).
                        Self-field    : sphere-specific E.n sum rule (ISelfD= 2).
 1st derivatives      : Analytical E(r).r(x)/FMM algorithm (CHGder, D1EAlg=3).
                        Cavity 1st derivative terms included.
 Solvent              : TetraHydroFuran, Eps=   7.425700 Eps(inf)=   1.974025
 ------------------------------------------------------------------------------
 GePol: Number of generator spheres                  =      55
 GePol: Total number of spheres                      =      55
 GePol: Number of exposed spheres                    =      55 (100.00%)
 GePol: Number of points                             =    3889
 GePol: Average weight of points                     =       0.13
 GePol: Minimum weight of points                     =   0.23D-09
 GePol: Maximum weight of points                     =    0.20577
 GePol: Number of points with low weight             =     239
 GePol: Fraction of low-weight points (<1% of avg)   =       6.15%
 GePol: Cavity surface area                          =    491.749 Ang**2
 GePol: Cavity volume                                =    573.557 Ang**3
 Leave Link  301 at Sun Jun  9 21:27:06 2019, MaxMem= 12884901888 cpu:              15.2 elap:               0.3
 (Enter /home/ekwan/sw/g16/l302.exe)
 NPDir=0 NMtPBC=     1 NCelOv=     1 NCel=       1 NClECP=     1 NCelD=      1
         NCelK=      1 NCelE2=     1 NClLst=     1 CellRange=     0.0.
 One-electron integrals computed using PRISM.
 One-electron integral symmetry used in STVInt
 NBasis=   543 RedAO= T EigKep=  4.05D-04  NBF=   543
 NBsUse=   543 1.00D-06 EigRej= -1.00D+00 NBFU=   543
 Precomputing XC quadrature grid using
 IXCGrd= 4 IRadAn=           5 IRanWt=          -1 IRanGd=           0 AccXCQ= 0.00D+00.
 Generated NRdTot=       0 NPtTot=           0 NUsed=           0 NTot=          32
 NSgBfM=   533   532   532   533   533 MxSgAt=    55 MxSgA2=    55.
 Leave Link  302 at Sun Jun  9 21:27:14 2019, MaxMem= 12884901888 cpu:             484.3 elap:               8.0
 (Enter /home/ekwan/sw/g16/l303.exe)
 DipDrv:  MaxL=1.
 Leave Link  303 at Sun Jun  9 21:27:15 2019, MaxMem= 12884901888 cpu:              17.0 elap:               0.4
 (Enter /home/ekwan/sw/g16/l401.exe)
 ExpMin= 1.17D-01 ExpMax= 2.19D+04 ExpMxC= 3.30D+03 IAcc=3 IRadAn=         5 AccDes= 0.00D+00
 Harris functional with IExCor= 1009 and IRadAn=       5 diagonalized for initial guess.
 HarFok:  IExCor= 1009 AccDes= 0.00D+00 IRadAn=         5 IDoV= 1 UseB2=F ITyADJ=14
 ICtDFT=  3500011 ScaDFX=  1.000000  1.000000  1.000000  1.000000
 FoFCou: FMM=F IPFlag=           0 FMFlag=      100000 FMFlg1=           0
         NFxFlg=           0 DoJE=T BraDBF=F KetDBF=T FulRan=T
         wScrn=  0.000000 ICntrl=       500 IOpCl=  0 I1Cent=   200000004 NGrid=           0
         NMat0=    1 NMatS0=      1 NMatT0=    0 NMatD0=    1 NMtDS0=    0 NMtDT0=    0
 Petite list used in FoFCou.
 Harris En= -2296.21452477164    
 JPrj=0 DoOrth=F DoCkMO=F.
 Leave Link  401 at Sun Jun  9 21:27:18 2019, MaxMem= 12884901888 cpu:             243.2 elap:               3.9
 (Enter /home/ekwan/sw/g16/l502.exe)
 Integral symmetry usage will be decided dynamically.
 Closed shell SCF:
 Using DIIS extrapolation, IDIIS=  1040.
 NGot= 12884901888 LenX= 12884271583 LenY= 12883976191
 Requested convergence on RMS density matrix=1.00D-08 within 128 cycles.
 Requested convergence on MAX density matrix=1.00D-06.
 Requested convergence on             energy=1.00D-06.
 No special actions if energy rises.
 Fock matrices will be formed incrementally for  20 cycles.

 Cycle   1  Pass 1  IDiag  1:
 FoFJK:  IHMeth= 1 ICntrl=       0 DoSepK=F KAlg= 0 I1Cent=           0 FoldK=F
 IRaf= 700000000 NMat=       1 IRICut=       1 DoRegI=T DoRafI=F ISym2E= 0 IDoP0=0 IntGTp=1.
 FoFCou: FMM=F IPFlag=           0 FMFlag=      100000 FMFlg1=           0
         NFxFlg=           0 DoJE=F BraDBF=F KetDBF=F FulRan=T
         wScrn=  0.000000 ICntrl=         0 IOpCl=  0 I1Cent=           0 NGrid=           0
         NMat0=    1 NMatS0=      1 NMatT0=    0 NMatD0=    1 NMtDS0=    0 NMtDT0=    0
 Symmetry not used in FoFCou.
 Inv3:  Mode=1 IEnd=    45372963.
 Iteration    1 A*A^-1 deviation from unit magnitude is 6.00D-15 for   3880.
 Iteration    1 A*A^-1 deviation from orthogonality  is 4.54D-15 for   3883   2594.
 Iteration    1 A^-1*A deviation from unit magnitude is 6.00D-15 for   3880.
 Iteration    1 A^-1*A deviation from orthogonality  is 2.13D-14 for   3578   3540.
 E= -2295.39484835796    
 DIIS: error= 2.22D-02 at cycle   1 NSaved=   1.
 NSaved= 1 IEnMin= 1 EnMin= -2295.39484835796     IErMin= 1 ErrMin= 2.22D-02
 ErrMax= 2.22D-02  0.00D+00 EMaxC= 1.00D-01 BMatC= 7.92D-01 BMatP= 7.92D-01
 IDIUse=3 WtCom= 7.78D-01 WtEn= 2.22D-01
 Coeff-Com:  0.100D+01
 Coeff-En:   0.100D+01
 Coeff:      0.100D+01
 Gap=     0.185 Goal=   None    Shift=    0.000
 GapD=    0.185 DampG=1.000 DampE=0.500 DampFc=0.5000 IDamp=-1.
 Damping current iteration by 5.00D-01
 RMSDP=3.41D-03 MaxDP=4.96D-01              OVMax= 1.81D-01

 Cycle   2  Pass 1  IDiag  1:
 RMSU=  1.70D-03    CP:  9.96D-01
 E= -2295.61043825247     Delta-E=       -0.215589894514 Rises=F Damp=T
 DIIS: error= 1.07D-02 at cycle   2 NSaved=   2.
 NSaved= 2 IEnMin= 2 EnMin= -2295.61043825247     IErMin= 2 ErrMin= 1.07D-02
 ErrMax= 1.07D-02  0.00D+00 EMaxC= 1.00D-01 BMatC= 8.56D-02 BMatP= 7.92D-01
 IDIUse=3 WtCom= 8.93D-01 WtEn= 1.07D-01
 Coeff-Com:  0.147D+00 0.853D+00
 Coeff-En:   0.265D+00 0.735D+00
 Coeff:      0.159D+00 0.841D+00
 Gap=     0.215 Goal=   None    Shift=    0.000
 RMSDP=1.01D-03 MaxDP=1.19D-01 DE=-2.16D-01 OVMax= 1.45D-01

 Cycle   3  Pass 1  IDiag  1:
 RMSU=  8.96D-04    CP:  9.90D-01  7.39D-01
 E= -2295.97250280658     Delta-E=       -0.362064554103 Rises=F Damp=F
 DIIS: error= 8.18D-03 at cycle   3 NSaved=   3.
 NSaved= 3 IEnMin= 3 EnMin= -2295.97250280658     IErMin= 3 ErrMin= 8.18D-03
 ErrMax= 8.18D-03  0.00D+00 EMaxC= 1.00D-01 BMatC= 5.30D-02 BMatP= 8.56D-02
 IDIUse=3 WtCom= 9.18D-01 WtEn= 8.18D-02
 Coeff-Com:  0.779D-02 0.430D+00 0.563D+00
 Coeff-En:   0.000D+00 0.000D+00 0.100D+01
 Coeff:      0.716D-02 0.394D+00 0.598D+00
 Gap=     0.188 Goal=   None    Shift=    0.000
 RMSDP=6.13D-04 MaxDP=4.28D-02 DE=-3.62D-01 OVMax= 5.45D-02

 Cycle   4  Pass 1  IDiag  1:
 RMSU=  3.88D-04    CP:  9.94D-01  8.53D-01  5.20D-01
 E= -2296.00536708417     Delta-E=       -0.032864277593 Rises=F Damp=F
 DIIS: error= 3.52D-03 at cycle   4 NSaved=   4.
 NSaved= 4 IEnMin= 4 EnMin= -2296.00536708417     IErMin= 4 ErrMin= 3.52D-03
 ErrMax= 3.52D-03  0.00D+00 EMaxC= 1.00D-01 BMatC= 1.37D-02 BMatP= 5.30D-02
 IDIUse=3 WtCom= 9.65D-01 WtEn= 3.52D-02
 Coeff-Com: -0.170D-01 0.976D-01 0.359D+00 0.561D+00
 Coeff-En:   0.000D+00 0.000D+00 0.224D+00 0.776D+00
 Coeff:     -0.164D-01 0.942D-01 0.354D+00 0.568D+00
 Gap=     0.189 Goal=   None    Shift=    0.000
 RMSDP=2.35D-04 MaxDP=1.72D-02 DE=-3.29D-02 OVMax= 2.39D-02

 Cycle   5  Pass 1  IDiag  1:
 RMSU=  9.08D-05    CP:  9.93D-01  8.30D-01  6.66D-01  5.66D-01
 E= -2296.01614396938     Delta-E=       -0.010776885207 Rises=F Damp=F
 DIIS: error= 1.11D-03 at cycle   5 NSaved=   5.
 NSaved= 5 IEnMin= 5 EnMin= -2296.01614396938     IErMin= 5 ErrMin= 1.11D-03
 ErrMax= 1.11D-03  0.00D+00 EMaxC= 1.00D-01 BMatC= 7.45D-04 BMatP= 1.37D-02
 IDIUse=3 WtCom= 9.89D-01 WtEn= 1.11D-02
 Coeff-Com: -0.833D-02 0.253D-01 0.144D+00 0.296D+00 0.543D+00
 Coeff-En:   0.000D+00 0.000D+00 0.000D+00 0.000D+00 0.100D+01
 Coeff:     -0.824D-02 0.250D-01 0.142D+00 0.293D+00 0.548D+00
 Gap=     0.189 Goal=   None    Shift=    0.000
 RMSDP=5.36D-05 MaxDP=3.56D-03 DE=-1.08D-02 OVMax= 6.28D-03

 Cycle   6  Pass 1  IDiag  1:
 RMSU=  2.98D-05    CP:  9.93D-01  8.36D-01  6.67D-01  6.18D-01  5.79D-01
 E= -2296.01675113166     Delta-E=       -0.000607162287 Rises=F Damp=F
 DIIS: error= 3.39D-04 at cycle   6 NSaved=   6.
 NSaved= 6 IEnMin= 6 EnMin= -2296.01675113166     IErMin= 6 ErrMin= 3.39D-04
 ErrMax= 3.39D-04  0.00D+00 EMaxC= 1.00D-01 BMatC= 4.51D-05 BMatP= 7.45D-04
 IDIUse=3 WtCom= 9.97D-01 WtEn= 3.39D-03
 Coeff-Com: -0.277D-02 0.461D-02 0.391D-01 0.934D-01 0.265D+00 0.600D+00
 Coeff-En:   0.000D+00 0.000D+00 0.000D+00 0.000D+00 0.000D+00 0.100D+01
 Coeff:     -0.276D-02 0.459D-02 0.390D-01 0.930D-01 0.264D+00 0.602D+00
 Gap=     0.189 Goal=   None    Shift=    0.000
 RMSDP=1.46D-05 MaxDP=6.94D-04 DE=-6.07D-04 OVMax= 1.70D-03

 Cycle   7  Pass 1  IDiag  1:
 RMSU=  7.32D-06    CP:  9.93D-01  8.34D-01  6.68D-01  6.21D-01  6.33D-01
                    CP:  6.21D-01
 E= -2296.01678939469     Delta-E=       -0.000038263024 Rises=F Damp=F
 DIIS: error= 5.50D-05 at cycle   7 NSaved=   7.
 NSaved= 7 IEnMin= 7 EnMin= -2296.01678939469     IErMin= 7 ErrMin= 5.50D-05
 ErrMax= 5.50D-05  0.00D+00 EMaxC= 1.00D-01 BMatC= 2.04D-06 BMatP= 4.51D-05
 IDIUse=1 WtCom= 1.00D+00 WtEn= 0.00D+00
 Coeff-Com: -0.857D-03 0.660D-03 0.929D-02 0.255D-01 0.894D-01 0.266D+00
 Coeff-Com:  0.610D+00
 Coeff:     -0.857D-03 0.660D-03 0.929D-02 0.255D-01 0.894D-01 0.266D+00
 Coeff:      0.610D+00
 Gap=     0.190 Goal=   None    Shift=    0.000
 RMSDP=3.50D-06 MaxDP=2.23D-04 DE=-3.83D-05 OVMax= 5.44D-04

 Cycle   8  Pass 1  IDiag  1:
 RMSU=  2.20D-06    CP:  9.93D-01  8.34D-01  6.68D-01  6.22D-01  6.34D-01
                    CP:  6.75D-01  7.08D-01
 E= -2296.01679107043     Delta-E=       -0.000001675741 Rises=F Damp=F
 DIIS: error= 1.81D-05 at cycle   8 NSaved=   8.
 NSaved= 8 IEnMin= 8 EnMin= -2296.01679107043     IErMin= 8 ErrMin= 1.81D-05
 ErrMax= 1.81D-05  0.00D+00 EMaxC= 1.00D-01 BMatC= 2.69D-07 BMatP= 2.04D-06
 IDIUse=1 WtCom= 1.00D+00 WtEn= 0.00D+00
 Coeff-Com: -0.106D-03-0.155D-03-0.141D-03 0.128D-02 0.130D-01 0.609D-01
 Coeff-Com:  0.301D+00 0.624D+00
 Coeff:     -0.106D-03-0.155D-03-0.141D-03 0.128D-02 0.130D-01 0.609D-01
 Coeff:      0.301D+00 0.624D+00
 Gap=     0.189 Goal=   None    Shift=    0.000
 RMSDP=1.17D-06 MaxDP=7.44D-05 DE=-1.68D-06 OVMax= 1.07D-04

 Cycle   9  Pass 1  IDiag  1:
 RMSU=  7.61D-07    CP:  9.93D-01  8.35D-01  6.68D-01  6.22D-01  6.37D-01
                    CP:  6.76D-01  7.68D-01  6.78D-01
 E= -2296.01679127356     Delta-E=       -0.000000203127 Rises=F Damp=F
 DIIS: error= 6.94D-06 at cycle   9 NSaved=   9.
 NSaved= 9 IEnMin= 9 EnMin= -2296.01679127356     IErMin= 9 ErrMin= 6.94D-06
 ErrMax= 6.94D-06  0.00D+00 EMaxC= 1.00D-01 BMatC= 4.15D-08 BMatP= 2.69D-07
 IDIUse=1 WtCom= 1.00D+00 WtEn= 0.00D+00
 Coeff-Com:  0.141D-04-0.104D-03-0.900D-03-0.167D-02-0.135D-02 0.819D-02
 Coeff-Com:  0.108D+00 0.350D+00 0.538D+00
 Coeff:      0.141D-04-0.104D-03-0.900D-03-0.167D-02-0.135D-02 0.819D-02
 Coeff:      0.108D+00 0.350D+00 0.538D+00
 Gap=     0.189 Goal=   None    Shift=    0.000
 RMSDP=4.65D-07 MaxDP=3.75D-05 DE=-2.03D-07 OVMax= 4.67D-05

 Cycle  10  Pass 1  IDiag  1:
 RMSU=  2.54D-07    CP:  9.93D-01  8.35D-01  6.68D-01  6.22D-01  6.37D-01
                    CP:  6.75D-01  7.80D-01  7.50D-01  5.48D-01
 E= -2296.01679130471     Delta-E=       -0.000000031157 Rises=F Damp=F
 DIIS: error= 2.26D-06 at cycle  10 NSaved=  10.
 NSaved=10 IEnMin=10 EnMin= -2296.01679130471     IErMin=10 ErrMin= 2.26D-06
 ErrMax= 2.26D-06  0.00D+00 EMaxC= 1.00D-01 BMatC= 3.75D-09 BMatP= 4.15D-08
 IDIUse=1 WtCom= 1.00D+00 WtEn= 0.00D+00
 Coeff-Com:  0.152D-04-0.394D-04-0.470D-03-0.101D-02-0.197D-02-0.116D-02
 Coeff-Com:  0.291D-01 0.129D+00 0.295D+00 0.552D+00
 Coeff:      0.152D-04-0.394D-04-0.470D-03-0.101D-02-0.197D-02-0.116D-02
 Coeff:      0.291D-01 0.129D+00 0.295D+00 0.552D+00
 Gap=     0.189 Goal=   None    Shift=    0.000
 RMSDP=1.32D-07 MaxDP=9.93D-06 DE=-3.12D-08 OVMax= 1.45D-05

 Cycle  11  Pass 1  IDiag  1:
 RMSU=  8.65D-08    CP:  9.93D-01  8.35D-01  6.68D-01  6.22D-01  6.37D-01
                    CP:  6.76D-01  7.83D-01  7.56D-01  6.22D-01  7.06D-01
 E= -2296.01679130760     Delta-E=       -0.000000002886 Rises=F Damp=F
 DIIS: error= 5.66D-07 at cycle  11 NSaved=  11.
 NSaved=11 IEnMin=11 EnMin= -2296.01679130760     IErMin=11 ErrMin= 5.66D-07
 ErrMax= 5.66D-07  0.00D+00 EMaxC= 1.00D-01 BMatC= 3.79D-10 BMatP= 3.75D-09
 IDIUse=1 WtCom= 1.00D+00 WtEn= 0.00D+00
 Coeff-Com:  0.667D-05-0.954D-05-0.147D-03-0.342D-03-0.956D-03-0.177D-02
 Coeff-Com:  0.109D-02 0.220D-01 0.888D-01 0.291D+00 0.600D+00
 Coeff:      0.667D-05-0.954D-05-0.147D-03-0.342D-03-0.956D-03-0.177D-02
 Coeff:      0.109D-02 0.220D-01 0.888D-01 0.291D+00 0.600D+00
 Gap=     0.189 Goal=   None    Shift=    0.000
 RMSDP=4.28D-08 MaxDP=3.51D-06 DE=-2.89D-09 OVMax= 3.30D-06

 Cycle  12  Pass 1  IDiag  1:
 RMSU=  2.47D-08    CP:  9.93D-01  8.35D-01  6.68D-01  6.22D-01  6.37D-01
                    CP:  6.76D-01  7.83D-01  7.60D-01  6.33D-01  7.56D-01
                    CP:  6.73D-01
 E= -2296.01679130794     Delta-E=       -0.000000000337 Rises=F Damp=F
 DIIS: error= 1.14D-07 at cycle  12 NSaved=  12.
 NSaved=12 IEnMin=12 EnMin= -2296.01679130794     IErMin=12 ErrMin= 1.14D-07
 ErrMax= 1.14D-07  0.00D+00 EMaxC= 1.00D-01 BMatC= 2.44D-11 BMatP= 3.79D-10
 IDIUse=1 WtCom= 1.00D+00 WtEn= 0.00D+00
 Coeff-Com:  0.130D-05 0.173D-06-0.134D-04-0.384D-04-0.216D-03-0.647D-03
 Coeff-Com: -0.257D-02-0.475D-02 0.589D-02 0.620D-01 0.248D+00 0.693D+00
 Coeff:      0.130D-05 0.173D-06-0.134D-04-0.384D-04-0.216D-03-0.647D-03
 Coeff:     -0.257D-02-0.475D-02 0.589D-02 0.620D-01 0.248D+00 0.693D+00
 Gap=     0.189 Goal=   None    Shift=    0.000
 RMSDP=1.29D-08 MaxDP=8.40D-07 DE=-3.37D-10 OVMax= 2.23D-06

 Cycle  13  Pass 1  IDiag  1:
 RMSU=  9.07D-09    CP:  9.93D-01  8.35D-01  6.68D-01  6.22D-01  6.37D-01
                    CP:  6.76D-01  7.84D-01  7.60D-01  6.35D-01  7.69D-01
                    CP:  7.38D-01  7.92D-01
 E= -2296.01679130793     Delta-E=        0.000000000010 Rises=F Damp=F
 DIIS: error= 6.71D-08 at cycle  13 NSaved=  13.
 NSaved=13 IEnMin=12 EnMin= -2296.01679130794     IErMin=13 ErrMin= 6.71D-08
 ErrMax= 6.71D-08  0.00D+00 EMaxC= 1.00D-01 BMatC= 4.48D-12 BMatP= 2.44D-11
 IDIUse=1 WtCom= 1.00D+00 WtEn= 0.00D+00
 Coeff-Com:  0.125D-06 0.701D-06 0.747D-05 0.138D-04-0.171D-04-0.131D-03
 Coeff-Com: -0.126D-02-0.439D-02-0.537D-02 0.242D-02 0.623D-01 0.354D+00
 Coeff-Com:  0.592D+00
 Coeff:      0.125D-06 0.701D-06 0.747D-05 0.138D-04-0.171D-04-0.131D-03
 Coeff:     -0.126D-02-0.439D-02-0.537D-02 0.242D-02 0.623D-01 0.354D+00
 Coeff:      0.592D+00
 Gap=     0.189 Goal=   None    Shift=    0.000
 RMSDP=4.70D-09 MaxDP=3.98D-07 DE= 1.00D-11 OVMax= 6.22D-07

 Error on total polarization charges =  0.00864
 SCF Done:  E(RPBE1PBE) =  -2296.01679131     A.U. after   13 cycles
            NFock= 13  Conv=0.47D-08     -V/T= 2.0068
 KE= 2.280479892930D+03 PE=-1.412270954183D+04 EE= 5.187642164590D+03
 Leave Link  502 at Sun Jun  9 21:30:23 2019, MaxMem= 12884901888 cpu:           10958.8 elap:             184.8
 (Enter /home/ekwan/sw/g16/l701.exe)
 ... and contract with generalized density number  0.
 Compute integral first derivatives.
 R6Disp: Adding Grimme-D3(BJ) dispersion energy 1st derivatives to the gradient.
 D1PCM: PCM CHGder 1st derivatives, ID1Alg=3 FixD1E=F DoIter=F DoCFld=F I1PDM=0.
 GePol: Maximum number of non-zero 1st derivatives   =     223
 Leave Link  701 at Sun Jun  9 21:30:32 2019, MaxMem= 12884901888 cpu:             523.0 elap:               8.8
 (Enter /home/ekwan/sw/g16/l702.exe)
 L702 exits ... SP integral derivatives will be done elsewhere.
 Leave Link  702 at Sun Jun  9 21:30:32 2019, MaxMem= 12884901888 cpu:               5.7 elap:               0.1
 (Enter /home/ekwan/sw/g16/l703.exe)
 Integral derivatives from FoFJK, PRISM(SPDF).
 Compute integral first derivatives, UseDBF=F ICtDFT=           0.
 Calling FoFJK, ICntrl=      2127 FMM=F ISym2X=0 I1Cent= 0 IOpClX= 0 NMat=1 NMatS=1 NMatT=0.
 FoFJK:  IHMeth= 1 ICntrl=    2127 DoSepK=F KAlg= 0 I1Cent=           0 FoldK=F
 IRaf=         0 NMat=       1 IRICut=       1 DoRegI=T DoRafI=F ISym2E= 0 IDoP0=0 IntGTp=1.
 FoFCou: FMM=F IPFlag=           0 FMFlag=      100000 FMFlg1=         800
         NFxFlg=           0 DoJE=F BraDBF=F KetDBF=F FulRan=T
         wScrn=  0.000000 ICntrl=      2127 IOpCl=  0 I1Cent=           0 NGrid=           0
         NMat0=    1 NMatS0=      1 NMatT0=    0 NMatD0=    1 NMtDS0=    0 NMtDT0=    0
 Symmetry not used in FoFCou.
 Leave Link  703 at Sun Jun  9 21:30:55 2019, MaxMem= 12884901888 cpu:            1395.3 elap:              22.2
 (Enter /home/ekwan/sw/g16/l716.exe)
 Dipole        = 2.52165714D-01 9.91228246D-01-7.07526136D-01
 ***** Axes restored to original set *****
 -------------------------------------------------------------------
 Center     Atomic                   Forces (Hartrees/Bohr)
 Number     Number              X              Y              Z
 -------------------------------------------------------------------
      1        6           0.000001456   -0.000002192   -0.000001767
      2        6          -0.000000460   -0.000000532   -0.000001866
      3        6          -0.000000035    0.000006942    0.000006203
      4        6          -0.000004730    0.000000233    0.000007383
      5        6           0.000002605    0.000001922    0.000002876
      6        1          -0.000000495   -0.000001727   -0.000000657
      7        1           0.000001380    0.000001150    0.000000754
      8        1          -0.000000693    0.000001293    0.000001973
      9        1          -0.000000408   -0.000000443   -0.000002111
     10        1          -0.000000274    0.000001420   -0.000000599
     11        8           0.000002676   -0.000001617   -0.000003319
     12        8          -0.000002375   -0.000007991   -0.000004835
     13        8          -0.000001311   -0.000000833    0.000003097
     14        8          -0.000000168    0.000000831    0.000002884
     15        8          -0.000005693    0.000001818   -0.000003821
     16        6           0.000002695   -0.000000380    0.000002315
     17        1           0.000001237    0.000000426   -0.000002565
     18        1          -0.000001731   -0.000001792   -0.000001427
     19        8          -0.000001590    0.000000399   -0.000001565
     20       16           0.000002153    0.000000629    0.000006255
     21        8          -0.000001222    0.000004433   -0.000001586
     22        8           0.000001222    0.000000126    0.000002084
     23        6           0.000002116   -0.000003317    0.000001280
     24        6           0.000002764   -0.000002443   -0.000001909
     25        6          -0.000001320    0.000000399   -0.000001493
     26        6          -0.000006193    0.000005315   -0.000003994
     27        1           0.000000023   -0.000000386   -0.000000616
     28        6           0.000003947   -0.000003344   -0.000002710
     29        1          -0.000000192   -0.000000243   -0.000000014
     30        6           0.000002681   -0.000000927    0.000001090
     31        1          -0.000000416   -0.000000082   -0.000001707
     32        6           0.000001528    0.000000747   -0.000000055
     33        1           0.000000782   -0.000000665    0.000002480
     34        1           0.000000645   -0.000001057    0.000002419
     35        1           0.000001630   -0.000000285    0.000001836
     36        6           0.000000255   -0.000000150   -0.000001000
     37        1          -0.000000847    0.000001178    0.000002234
     38        1          -0.000001238    0.000000436    0.000002141
     39        1          -0.000000800    0.000000308    0.000002089
     40        6           0.000003739    0.000000122    0.000000863
     41        1          -0.000000575    0.000000506    0.000000452
     42        1          -0.000002021    0.000000541    0.000001058
     43        1          -0.000002419   -0.000000449   -0.000000243
     44        6           0.000001464    0.000000502    0.000000765
     45        1           0.000001082    0.000000010   -0.000001566
     46        1           0.000001276   -0.000001610   -0.000001227
     47        1           0.000001379    0.000000223   -0.000001188
     48        6          -0.000005224    0.000000977    0.000003165
     49        9          -0.000000161    0.000000842   -0.000000714
     50        9           0.000001497    0.000000792   -0.000002156
     51        9          -0.000000121   -0.000001301   -0.000002552
     52        6          -0.000002164    0.000001354   -0.000006451
     53        9          -0.000000153   -0.000000616    0.000000558
     54        9           0.000001595   -0.000001697   -0.000001845
     55        9           0.000001202    0.000000206   -0.000000696
 -------------------------------------------------------------------
 Cartesian Forces:  Max     0.000007991 RMS     0.000002308
 Leave Link  716 at Sun Jun  9 21:30:55 2019, MaxMem= 12884901888 cpu:               6.3 elap:               0.1
 (Enter /home/ekwan/sw/g16/l103.exe)

 GradGradGradGradGradGradGradGradGradGradGradGradGradGradGradGradGradGrad
 Berny optimization.
 FormGI is forming the generalized inverse of G from B-inverse, IUseBI=4.
 Internal  Forces:  Max     0.000010117 RMS     0.000001476
 Search for a local minimum.
 Step number   1 out of a maximum of  291
 All quantities printed in internal units (Hartrees-Bohrs-Radians)
 RMS Force = .14760D-05 SwitMx=.10000D-02 MixMth= 2
 Mixed Optimization -- En-DIIS/RFO-DIIS
 Second derivative matrix not updated -- first step.
 ITU=  0
     Eigenvalues ---    0.00505   0.00639   0.00715   0.00715   0.00726
     Eigenvalues ---    0.00732   0.01059   0.01465   0.01517   0.01519
     Eigenvalues ---    0.01523   0.01533   0.01572   0.01576   0.01592
     Eigenvalues ---    0.01616   0.01648   0.01668   0.01698   0.02199
     Eigenvalues ---    0.02204   0.02215   0.02218   0.02231   0.02232
     Eigenvalues ---    0.02382   0.02974   0.03373   0.04495   0.04638
     Eigenvalues ---    0.04714   0.04880   0.04954   0.05278   0.05309
     Eigenvalues ---    0.05818   0.06086   0.06605   0.07024   0.07092
     Eigenvalues ---    0.07223   0.07836   0.09311   0.10036   0.10066
     Eigenvalues ---    0.10098   0.10141   0.10579   0.10594   0.10620
     Eigenvalues ---    0.10625   0.10748   0.10759   0.10868   0.10904
     Eigenvalues ---    0.10961   0.11038   0.11482   0.11869   0.12053
     Eigenvalues ---    0.14147   0.14887   0.16000   0.16000   0.16000
     Eigenvalues ---    0.16000   0.16000   0.16000   0.16000   0.16000
     Eigenvalues ---    0.16000   0.16000   0.16000   0.16000   0.16000
     Eigenvalues ---    0.16000   0.16000   0.16489   0.16845   0.17466
     Eigenvalues ---    0.18686   0.19672   0.19804   0.20734   0.22145
     Eigenvalues ---    0.23476   0.23486   0.23496   0.24952   0.24980
     Eigenvalues ---    0.24984   0.25000   0.25000   0.25000   0.25000
     Eigenvalues ---    0.25000   0.25000   0.25000   0.25000   0.25000
     Eigenvalues ---    0.25000   0.25000   0.25000   0.27573   0.28357
     Eigenvalues ---    0.29064   0.29338   0.29652   0.30392   0.31980
     Eigenvalues ---    0.32111   0.33357   0.33698   0.33743   0.33759
     Eigenvalues ---    0.33759   0.33773   0.33811   0.33859   0.33863
     Eigenvalues ---    0.33877   0.34122   0.34127   0.34235   0.34430
     Eigenvalues ---    0.34477   0.34479   0.34484   0.34613   0.34660
     Eigenvalues ---    0.35424   0.35425   0.35556   0.38532   0.39026
     Eigenvalues ---    0.42940   0.43100   0.43500   0.43517   0.43573
     Eigenvalues ---    0.43682   0.44153   0.44204   0.44689   0.45696
     Eigenvalues ---    0.46916   0.47015   0.47253   0.47317   0.47471
     Eigenvalues ---    0.47903   0.55510   0.56761   0.57194   0.57251
     Eigenvalues ---    0.57387   0.57757   0.94159   0.96699
 RFO step:  Lambda= 0.00000000D+00 EMin= 5.04926788D-03
 Linear search not attempted -- first point.
 Iteration  1 RMS(Cart)=  0.00018210 RMS(Int)=  0.00000001
 Iteration  2 RMS(Cart)=  0.00000001 RMS(Int)=  0.00000000
 ITry= 1 IFail=0 DXMaxC= 1.11D-03 DCOld= 1.00D+10 DXMaxT= 3.00D-01 DXLimC= 3.00D+00 Rises=F
 Variable       Old X    -DE/DX   Delta X   Delta X   Delta X     New X
                                 (Linear)    (Quad)   (Total)
    R1        2.88121   0.00000   0.00000   0.00000   0.00000   2.88121
    R2        2.87725   0.00000   0.00000   0.00001   0.00001   2.87726
    R3        2.07843   0.00000   0.00000   0.00000   0.00000   2.07843
    R4        2.66211   0.00000   0.00000   0.00000   0.00000   2.66211
    R5        2.89451   0.00000   0.00000   0.00000   0.00000   2.89451
    R6        2.08429   0.00000   0.00000   0.00000   0.00000   2.08430
    R7        2.64476   0.00000   0.00000   0.00000   0.00000   2.64476
    R8        2.06231   0.00000   0.00000   0.00001   0.00001   2.06232
    R9        2.60963   0.00000   0.00000   0.00000   0.00000   2.60962
   R10        2.73598   0.00000   0.00000   0.00000   0.00000   2.73598
   R11        2.88097   0.00000   0.00000   0.00000   0.00000   2.88098
   R12        2.07765   0.00000   0.00000   0.00000   0.00000   2.07765
   R13        2.70906   0.00000   0.00000   0.00000   0.00000   2.70907
   R14        2.87188   0.00000   0.00000  -0.00001  -0.00001   2.87187
   R15        2.07538   0.00000   0.00000   0.00000   0.00000   2.07538
   R16        2.66272   0.00000   0.00000   0.00000   0.00000   2.66271
   R17        3.05743   0.00000   0.00000  -0.00001  -0.00001   3.05742
   R18        2.66836   0.00000   0.00000   0.00000   0.00000   2.66837
   R19        2.66969   0.00000   0.00000   0.00000   0.00000   2.66968
   R20        2.67057   0.00000   0.00000   0.00000   0.00000   2.67057
   R21        2.06610   0.00000   0.00000  -0.00001  -0.00001   2.06610
   R22        2.07738   0.00000   0.00000   0.00001   0.00001   2.07739
   R23        2.65639   0.00000   0.00000   0.00001   0.00001   2.65639
   R24        2.67037   0.00000   0.00000   0.00000   0.00000   2.67037
   R25        2.73690   0.00000   0.00000   0.00000   0.00000   2.73690
   R26        2.74773   0.00000   0.00000   0.00000   0.00000   2.74773
   R27        3.35065   0.00000   0.00000  -0.00001  -0.00001   3.35064
   R28        2.62476   0.00000   0.00000   0.00000   0.00000   2.62476
   R29        2.62562   0.00000   0.00000   0.00001   0.00001   2.62562
   R30        2.62956   0.00000   0.00000   0.00001   0.00001   2.62957
   R31        2.04990   0.00000   0.00000   0.00000   0.00000   2.04990
   R32        2.62496   0.00000   0.00000   0.00000   0.00000   2.62496
   R33        2.04781   0.00000   0.00000   0.00000   0.00000   2.04781
   R34        2.62780   0.00000   0.00000  -0.00001  -0.00001   2.62780
   R35        2.84181   0.00000   0.00000   0.00001   0.00001   2.84182
   R36        2.63158   0.00000   0.00000   0.00000   0.00000   2.63158
   R37        2.83941   0.00000   0.00000   0.00001   0.00001   2.83942
   R38        2.04992   0.00000   0.00000   0.00000   0.00000   2.04993
   R39        2.07562   0.00000   0.00000   0.00000   0.00000   2.07562
   R40        2.07715   0.00000   0.00000   0.00000   0.00000   2.07715
   R41        2.06308   0.00000   0.00000   0.00000   0.00000   2.06308
   R42        2.06520   0.00000   0.00000   0.00000   0.00000   2.06520
   R43        2.07738   0.00000   0.00000   0.00000   0.00000   2.07738
   R44        2.06935   0.00000   0.00000   0.00000   0.00000   2.06935
   R45        2.06529   0.00000   0.00000   0.00000   0.00000   2.06530
   R46        2.07117   0.00000   0.00000   0.00000   0.00000   2.07117
   R47        2.07568   0.00000   0.00000   0.00000   0.00000   2.07568
   R48        2.06532   0.00000   0.00000   0.00000   0.00000   2.06532
   R49        2.07651   0.00000   0.00000   0.00000   0.00000   2.07651
   R50        2.07125   0.00000   0.00000   0.00000   0.00000   2.07125
   R51        2.53184   0.00000   0.00000   0.00000   0.00000   2.53185
   R52        2.53600   0.00000   0.00000   0.00000   0.00000   2.53600
   R53        2.53233   0.00000   0.00000   0.00000   0.00000   2.53233
   R54        2.54681   0.00000   0.00000   0.00000   0.00000   2.54681
   R55        2.53070   0.00000   0.00000   0.00000   0.00000   2.53070
   R56        2.52761   0.00000   0.00000   0.00000   0.00000   2.52760
    A1        1.92713   0.00000   0.00000   0.00001   0.00001   1.92714
    A2        1.90175   0.00000   0.00000   0.00000   0.00000   1.90175
    A3        1.93434   0.00000   0.00000   0.00000   0.00000   1.93434
    A4        1.89294   0.00000   0.00000  -0.00001  -0.00001   1.89294
    A5        1.87906   0.00000   0.00000   0.00001   0.00001   1.87907
    A6        1.92823   0.00000   0.00000  -0.00001  -0.00001   1.92822
    A7        1.93775   0.00000   0.00000  -0.00001  -0.00001   1.93774
    A8        1.88632   0.00000   0.00000   0.00000   0.00000   1.88632
    A9        1.89424   0.00000   0.00000  -0.00002  -0.00002   1.89423
   A10        1.84939   0.00000   0.00000   0.00001   0.00001   1.84941
   A11        1.96462   0.00000   0.00000   0.00000   0.00000   1.96462
   A12        1.93006   0.00000   0.00000   0.00001   0.00001   1.93007
   A13        1.95486   0.00000   0.00000   0.00001   0.00001   1.95487
   A14        1.97172   0.00000   0.00000  -0.00001  -0.00001   1.97171
   A15        1.84684   0.00000   0.00000  -0.00001  -0.00001   1.84683
   A16        1.85522   0.00000   0.00000   0.00000   0.00000   1.85521
   A17        1.88954   0.00000   0.00000  -0.00001  -0.00001   1.88953
   A18        1.94569   0.00000   0.00000   0.00002   0.00002   1.94571
   A19        1.90045   0.00000   0.00000   0.00002   0.00002   1.90047
   A20        1.92983   0.00000   0.00000   0.00000   0.00000   1.92983
   A21        1.95870   0.00000   0.00000  -0.00001  -0.00001   1.95869
   A22        1.90222   0.00000   0.00000  -0.00001  -0.00001   1.90221
   A23        1.87779   0.00000   0.00000   0.00001   0.00001   1.87781
   A24        1.89347   0.00000   0.00000  -0.00001  -0.00001   1.89345
   A25        1.94547   0.00000   0.00000   0.00000   0.00000   1.94547
   A26        1.89876   0.00000   0.00000   0.00000   0.00000   1.89877
   A27        1.92204   0.00000   0.00000   0.00001   0.00001   1.92205
   A28        1.89042   0.00000   0.00000   0.00000   0.00000   1.89042
   A29        1.87507   0.00000   0.00000  -0.00002  -0.00002   1.87505
   A30        1.93208   0.00000   0.00000   0.00000   0.00000   1.93208
   A31        2.00518   0.00000   0.00000   0.00000   0.00000   2.00518
   A32        2.05929   0.00001   0.00000   0.00004   0.00004   2.05933
   A33        1.99418   0.00000   0.00000   0.00001   0.00001   1.99419
   A34        1.99643   0.00000   0.00000   0.00000   0.00000   1.99642
   A35        1.98535   0.00000   0.00000   0.00000   0.00000   1.98535
   A36        1.87060   0.00000   0.00000   0.00000   0.00000   1.87060
   A37        1.90307   0.00000   0.00000  -0.00001  -0.00001   1.90305
   A38        2.00519   0.00000   0.00000   0.00001   0.00001   2.00520
   A39        1.89349   0.00000   0.00000   0.00001   0.00001   1.89350
   A40        1.85416   0.00000   0.00000  -0.00002  -0.00002   1.85414
   A41        1.93297   0.00000   0.00000   0.00001   0.00001   1.93298
   A42        1.99578   0.00001   0.00000   0.00003   0.00003   1.99581
   A43        1.82183   0.00000   0.00000  -0.00001  -0.00001   1.82183
   A44        1.89890   0.00000   0.00000   0.00000   0.00000   1.89890
   A45        1.79823   0.00000   0.00000   0.00002   0.00002   1.79825
   A46        2.12381   0.00000   0.00000   0.00000   0.00000   2.12382
   A47        1.89957   0.00000   0.00000  -0.00002  -0.00002   1.89956
   A48        1.89379   0.00000   0.00000   0.00000   0.00000   1.89379
   A49        2.07421   0.00000   0.00000  -0.00001  -0.00001   2.07420
   A50        2.07719   0.00000   0.00000   0.00001   0.00001   2.07720
   A51        2.13120   0.00000   0.00000   0.00000   0.00000   2.13120
   A52        2.06793   0.00000   0.00000   0.00000   0.00000   2.06793
   A53        2.10332   0.00000   0.00000  -0.00001  -0.00001   2.10331
   A54        2.11194   0.00000   0.00000   0.00000   0.00000   2.11194
   A55        2.06677   0.00000   0.00000   0.00000   0.00000   2.06677
   A56        2.10191   0.00000   0.00000   0.00000   0.00000   2.10192
   A57        2.11449   0.00000   0.00000   0.00000   0.00000   2.11449
   A58        2.10410   0.00000   0.00000  -0.00001  -0.00001   2.10409
   A59        2.08731   0.00000   0.00000  -0.00001  -0.00001   2.08730
   A60        2.09110   0.00000   0.00000   0.00001   0.00001   2.09111
   A61        2.10627   0.00000   0.00000   0.00000   0.00000   2.10627
   A62        2.09417   0.00000   0.00000   0.00002   0.00002   2.09419
   A63        2.08112   0.00000   0.00000  -0.00001  -0.00001   2.08111
   A64        2.09010   0.00000   0.00000   0.00001   0.00001   2.09010
   A65        2.09579   0.00000   0.00000   0.00000   0.00000   2.09579
   A66        2.09730   0.00000   0.00000   0.00000   0.00000   2.09729
   A67        1.95617   0.00000   0.00000  -0.00001  -0.00001   1.95616
   A68        1.94208   0.00000   0.00000   0.00000   0.00000   1.94208
   A69        1.86310   0.00000   0.00000   0.00000   0.00000   1.86310
   A70        1.90234   0.00000   0.00000   0.00000   0.00000   1.90235
   A71        1.89412   0.00000   0.00000   0.00000   0.00000   1.89411
   A72        1.90463   0.00000   0.00000   0.00000   0.00000   1.90462
   A73        1.86093   0.00000   0.00000   0.00000   0.00000   1.86093
   A74        1.93833   0.00000   0.00000   0.00000   0.00000   1.93833
   A75        1.94881   0.00000   0.00000   0.00000   0.00000   1.94881
   A76        1.89973   0.00000   0.00000   0.00000   0.00000   1.89973
   A77        1.91089   0.00000   0.00000   0.00001   0.00001   1.91089
   A78        1.90414   0.00000   0.00000   0.00000   0.00000   1.90414
   A79        1.86289   0.00000   0.00000   0.00000   0.00000   1.86289
   A80        1.94115   0.00000   0.00000   0.00000   0.00000   1.94115
   A81        1.93704   0.00000   0.00000  -0.00002  -0.00002   1.93702
   A82        1.90856   0.00000   0.00000   0.00000   0.00000   1.90856
   A83        1.90432   0.00000   0.00000   0.00000   0.00000   1.90432
   A84        1.90899   0.00000   0.00000   0.00001   0.00001   1.90900
   A85        1.86355   0.00000   0.00000   0.00000   0.00000   1.86355
   A86        1.93685   0.00000   0.00000   0.00001   0.00001   1.93686
   A87        1.95813   0.00000   0.00000   0.00000   0.00000   1.95814
   A88        1.90398   0.00000   0.00000   0.00000   0.00000   1.90398
   A89        1.90664   0.00000   0.00000  -0.00001  -0.00001   1.90663
   A90        1.89388   0.00000   0.00000   0.00000   0.00000   1.89388
   A91        1.94460   0.00000   0.00000   0.00000   0.00000   1.94459
   A92        1.94161   0.00000   0.00000   0.00000   0.00000   1.94161
   A93        1.94502   0.00000   0.00000   0.00000   0.00000   1.94502
   A94        1.87284   0.00000   0.00000   0.00000   0.00000   1.87284
   A95        1.88369   0.00000   0.00000   0.00000   0.00000   1.88370
   A96        1.87261   0.00000   0.00000   0.00001   0.00001   1.87262
[...]
 .00000416,0.00003225,0.00001912,0.00005082,0.00002411,-0.00000890,-0.0
 0000268,0.00002973,-0.00001953,0.00020797,0.00018331,0.00080328,-0.000
 00758,0.00004622,-0.00009150,-0.00020696,0.00009848,0.00000796,0.00002
 663,-0.00007073,-0.00001216,0.00207063,-0.00025151,-0.00559155,0.00013
 196,0.00001814,0.00183953,-0.00138838,-0.00058737,0.00151251,-0.000712
 85,0.00075799,0.00144977,0.01291228,-0.01812378,0.60416805,0.00006655,
 -0.00011541,0.00001123,0.00006940,-0.00003758,-0.00003757,0.00012904,-
 0.00046627,0.00015132,-0.00012954,-0.00050974,-0.00013463,0.00006132,0
 .00022079,0.00010409,-0.00001087,0.00002148,-0.00000576,0.00001115,0.0
 0000389,-0.00000230,-0.00000787,0.00000912,-0.00000804,-0.00000419,0.0
 0004027,-0.00002544,0.00004458,-0.00000922,0.00000526,-0.00021367,0.00
 037996,0.00000716,0.00021608,0.00030134,-0.00010860,-0.00008770,0.0001
 0489,0.00001805,-0.00016703,0.00005680,-0.00007381,-0.00012397,-0.0000
 5691,-0.00008554,0.00145039,0.00091206,0.00022006,-0.00018294,-0.00002
 300,-0.00014015,-0.00100831,-0.00037795,-0.00027792,-0.00077127,-0.000
 57888,-0.00058074,-0.00027115,-0.00024516,0.00010116,0.00006681,0.0000
 1702,-0.00001404,0.00005460,0.00006900,-0.00000099,0.00046552,-0.00065
 738,0.00027186,0.00017884,-0.00012450,-0.00044320,-0.00022393,-0.00063
 260,0.00103157,-0.00057638,-0.00004546,-0.00025478,0.00003452,0.000004
 43,0.00001966,0.01063025,0.00128082,-0.00285033,-0.00004101,0.00004276
 ,-0.00000575,0.00003971,0.00102457,0.00040169,0.00000954,0.00007081,-0
 .00035067,0.00000906,-0.00002999,-0.00004672,0.00000370,-0.00000148,0.
 00001056,0.00000443,0.00000210,0.00000841,-0.00000884,0.00000908,0.000
 00249,0.00003679,-0.00004746,0.00006902,-0.00001481,0.00000274,-0.0000
 0893,0.00000100,0.00000619,-0.00001208,-0.00000510,0.00001362,-0.00000
 513,0.00007547,0.00008782,0.00003323,-0.00000519,-0.00001359,-0.000020
 15,-0.00002362,-0.00001039,-0.00000001,0.00000945,0.00001903,0.0000057
 5,0.00141395,0.00036187,0.00108400,-0.00032266,-0.00014094,-0.00003797
 ,-0.00197200,-0.00007078,-0.00012845,-0.00034349,-0.00008018,-0.000027
 30,-0.00026178,-0.00007328,0.00008535,0.00006590,0.00001599,-0.0000407
 5,0.00007063,0.00003648,-0.00001922,0.00004971,-0.00000925,-0.00001273
 ,-0.09270368,-0.05766209,0.00880147,0.13088117,-0.00002472,-0.00019013
 ,-0.00006240,-0.00011524,0.00002097,-0.00007727,-0.00025474,-0.0008694
 9,0.00063750,-0.00022040,-0.00085939,-0.00022134,-0.00000308,0.0001702
 1,0.00001180,-0.00004913,0.00005013,-0.00002112,0.00007538,0.00002224,
 0.00000015,-0.00001885,0.00001593,-0.00002745,-0.00008240,0.00004264,-
 0.00011497,0.00009321,0.00000712,0.00001114,0.00017170,0.00083993,0.00
 001309,0.00143858,0.00064572,-0.00035229,0.00006075,0.00006034,-0.0000
 1048,-0.00002410,0.00010726,-0.00000873,-0.00006155,0.00012964,0.00000
 904,0.00122463,0.00058701,0.00053813,-0.00012282,0.00001107,-0.0001283
 7,0.00017127,-0.00073782,0.00062945,-0.00066441,-0.00007110,-0.0008456
 5,-0.00309175,0.00160687,0.00052319,0.00074797,-0.00086137,0.00027487,
 0.00079366,-0.00053986,-0.00044183,0.00170389,0.00058488,0.00083122,0.
 00006169,-0.00049747,0.00079473,-0.00166225,0.00021437,0.00261921,0.00
 172771,0.00065349,0.00156308,-0.00020687,-0.00012978,-0.00004949,-0.01
 208757,-0.03745332,0.01350705,-0.00100144,-0.00055727,-0.00030919,0.00
 211534,-0.00207553,-0.00142577,-0.00105492,-0.00079632,0.00007537,-0.0
 0005807,-0.00001327,0.00002070,-0.00000013,0.00001336,0.00001470,0.000
 01072,0.00001097,-0.00001097,0.00000604,0.00000041,0.00000298,-0.00000
 190,-0.00001766,0.00003008,0.00000146,0.00000475,-0.00000285,0.0000022
 4,-0.00000316,-0.00000533,-0.00001157,0.00000782,-0.00000295,0.0000319
 4,-0.00004138,0.00005347,0.00000260,-0.00000001,-0.00000781,-0.0000149
 2,0.00000237,-0.00000585,0.00001365,0.00003847,-0.00001428,0.00163493,
 0.00073943,0.00135149,-0.00030008,-0.00013037,-0.00004349,0.00011598,-
 0.00023569,-0.00078118,-0.00053381,-0.00011607,-0.00004169,0.00119907,
 -0.00081274,-0.00216601,0.00005694,0.00010415,0.00098157,-0.00053901,-
 0.00013480,0.00059297,-0.00034963,0.00057629,0.00051902,-0.06136067,-0
 .24185328,0.03048513,0.11965593,0.34349648,0.00005306,-0.00000698,0.00
 002447,0.00011153,-0.00004373,0.00001280,0.00023605,0.00027116,-0.0003
 7149,-0.00000588,-0.00007529,-0.00011185,0.00004456,0.00010617,0.00005
 481,-0.00000104,0.00000866,0.00001252,-0.00004847,-0.00001291,0.000001
 13,0.00000802,-0.00000276,0.00001565,0.00004967,0.00000291,0.00007191,
 -0.00002911,-0.00001755,-0.00000106,-0.00022325,-0.00018689,0.00012734
 ,-0.00087046,-0.00018767,0.00024826,-0.00009293,0.00004574,0.00005236,
 -0.00011140,-0.00000600,-0.00003488,-0.00006334,-0.00008674,-0.0000314
 2,0.00046899,0.00070093,-0.00019459,-0.00004969,-0.00003216,0.00000307
 ,-0.00080892,-0.00005618,-0.00055677,-0.00015905,-0.00030472,0.0005769
 3,0.00176716,-0.00138539,-0.00068844,-0.00043224,0.00059586,-0.0001208
 2,-0.00042807,0.00038719,0.00043946,-0.00156314,-0.00015645,-0.0013082
 5,-0.00077184,0.00086524,-0.00004882,0.00240267,-0.00000076,-0.0022487
 7,-0.00049126,-0.00078744,0.00044521,0.00009216,0.00006008,0.00006928,
 0.00547755,0.03208006,0.00094748,0.00019989,0.00065470,0.00000932,-0.0
 0085793,0.00025416,0.00080855,0.00032243,0.00024699,0.00007117,0.00004
 011,-0.00002249,-0.00006868,0.00000824,-0.00000372,-0.00000501,-0.0000
 1003,-0.00000961,0.00001354,-0.00000774,0.00000548,0.00000342,0.000024
 89,-0.00002411,0.00002583,-0.00001149,-0.00000072,-0.00000571,-0.00000
 183,0.00000567,-0.00000225,0.00000141,0.00000692,-0.00000299,0.0000403
 5,0.00008186,-0.00000629,-0.00000138,-0.00000851,-0.00000461,-0.000012
 72,-0.00000665,0.00000247,0.00000107,-0.00000993,0.00000573,-0.0002960
 5,-0.00012750,-0.00044991,0.00005977,0.00001935,0.00004709,0.00020758,
 -0.00011190,0.00006267,0.00006328,0.00003359,0.00002173,-0.00059055,0.
 00019853,0.00132071,-0.00001480,-0.00002414,-0.00047365,0.00033565,0.0
 0014278,-0.00036265,0.00018715,-0.00022007,-0.00032336,0.00979654,0.03
 172540,-0.07926445,-0.00949438,-0.01521232,0.07350679,0.00013064,-0.00
 001098,0.00008149,0.00021895,-0.00009913,0.00002347,0.00039730,0.00002
 400,-0.00031720,0.00003872,0.00003676,0.00007356,0.00009714,0.00016852
 ,0.00016656,0.00002857,-0.00001070,0.00000855,-0.00004859,-0.00001467,
 -0.00000753,0.00000226,0.00000224,0.00000739,0.00005180,0.00002790,0.0
 0004953,-0.00000255,-0.00001680,-0.00000356,-0.00046567,-0.00008143,-0
 .00004094,-0.00093602,-0.00009410,0.00011967,-0.00019773,0.00013314,0.
 00003360,-0.00024986,0.00000418,-0.00012160,-0.00014406,-0.00018032,-0
 .00015166,0.00067626,0.00042792,0.00014398,-0.00008992,-0.00004407,-0.
 00008019,-0.00000066,-0.00004601,0.00014653,-0.00041630,-0.00034188,-0
 .00016815,0.00235996,-0.00167788,-0.00055341,-0.00072281,0.00110021,-0
 .00044002,-0.00058827,0.00061556,0.00043126,-0.00069035,0.00188830,0.0
 0062733,-0.00021974,-0.00005180,-0.00055718,-0.00071647,0.00040635,-0.
 00666605,0.00027506,0.00079297,-0.00101462,0.00004023,-0.00014724,-0.0
 0004211,-0.03773587,0.01057753,-0.00092363,0.00030275,-0.00089607,0.00
 017933,-0.00084959,0.00154714,0.00346753,-0.00015981,-0.00115895,-0.00
 179809,0.00006333,-0.00004302,-0.00009303,0.00000702,-0.00001527,0.000
 00703,0.00000029,-0.00000338,0.00002278,-0.00002226,0.00001540,0.00000
 081,0.00006712,-0.00006821,0.00009295,-0.00002456,0.00000031,-0.000012
 05,-0.00000003,0.00001246,-0.00001749,0.00000104,0.00001668,-0.0000047
 1,0.00009193,0.00015189,0.00001538,-0.00000701,-0.00002171,-0.00002379
 ,-0.00002672,-0.00001573,0.00000506,0.00000056,0.00000092,0.00001277,0
 .00065443,0.00024147,0.00041906,-0.00014600,-0.00010103,0.00000234,0.0
 0002272,0.00005857,-0.00026872,-0.00012231,-0.00002286,-0.00002211,-0.
 00129706,0.00043230,0.00165103,0.00006146,-0.00004274,-0.00062932,0.00
 061692,0.00020795,-0.00050179,0.00037692,-0.00040923,-0.00040524,-0.28
 219176,0.03873863,-0.00904757,-0.05861265,-0.03751511,0.00705602,0.412
 86656,-0.00003872,-0.00004722,-0.00003610,-0.00008528,0.00002508,-0.00
 002513,-0.00016782,-0.00024564,0.00025805,-0.00006838,-0.00023746,-0.0
 0006564,-0.00002476,0.00000155,-0.00004103,-0.00001980,0.00001357,-0.0
 0000825,0.00003259,0.00001033,0.00000096,-0.00000596,0.00000381,-0.000
 00997,-0.00003873,0.00000661,-0.00004899,0.00002822,0.00000671,0.00000
 426,0.00015660,0.00024903,0.00001054,0.00058266,0.00020010,-0.00011150
 ,0.00006471,-0.00001372,-0.00001155,0.00005446,0.00002889,0.00002603,0
 .00001806,0.00008254,0.00003937,0.00016232,0.00001413,0.00009503,-0.00
 001234,0.00001537,-0.00001538,0.00002926,-0.00019223,0.00014935,-0.000
 09180,0.00007234,-0.00021058,-0.00156029,0.00069487,0.00028002,0.00047
 681,-0.00050588,0.00019955,0.00036477,-0.00027669,-0.00024142,-0.00025
 272,-0.00145528,0.00043235,0.00054092,-0.00029602,0.00011130,0.0001147
 1,0.00074702,0.00248525,-0.00034028,-0.00031021,0.00013001,0.00000851,
 0.00008266,-0.00000012,0.02545544,0.00377378,0.00262832,0.00002858,0.0
 0066062,-0.00014732,0.00049644,-0.00087327,-0.00049005,0.00019234,0.00
 019412,0.00059198,-0.00003242,0.00000547,0.00002821,-0.00000153,0.0000
 0701,0.00000310,0.00000349,0.00000447,-0.00000865,0.00000656,-0.000003
 50,0.00000046,-0.00001622,0.00001086,-0.00001356,0.00000654,0.00000130
 ,0.00000216,0.00000065,-0.00000399,0.00000247,-0.00000358,-0.00000176,
 0.00000053,-0.00001411,-0.00005127,0.00001148,0.00000272,0.00000542,0.
 00000380,0.00000235,0.00000468,-0.00000286,0.00000341,0.00001092,-0.00
 000774,0.00032988,0.00011751,0.00028698,-0.00004748,-0.00001104,-0.000
 01511,0.00008149,0.00000023,-0.00016693,-0.00010934,-0.00002449,-0.000
 00591,0.00054276,-0.00034997,-0.00098919,0.00000499,0.00004660,0.00035
 742,-0.00025396,-0.00005197,0.00026925,-0.00018227,0.00026089,0.000241
 58,0.03716895,-0.07901946,0.00362556,-0.05472089,-0.00501915,0.0032422
 1,-0.03767898,0.08175170,0.00004436,0.00002208,0.00002522,0.00008997,-
 0.00003442,0.00002296,0.00018233,0.00022526,-0.00031445,0.00006723,0.0
 0011960,0.00000712,0.00003071,0.00002367,0.00004340,0.00000466,0.00000
 192,0.00001040,-0.00003873,-0.00001179,-0.00000035,0.00000581,-0.00000
 254,0.00001174,0.00003721,0.00000110,0.00005310,-0.00002131,-0.0000103
 2,-0.00000235,-0.00016578,-0.00017437,0.00005455,-0.00067874,-0.000170
 76,0.00017443,-0.00007383,0.00003619,0.00003661,-0.00007196,-0.0000138
 4,-0.00002437,-0.00003722,-0.00006577,-0.00002870,0.00001813,0.0000911
 2,-0.00006699,0.00000783,-0.00001275,0.00001391,0.00001474,0.00007127,
 -0.00005850,-0.00002330,-0.00008360,0.00020105,0.00168721,-0.00090697,
 -0.00063756,-0.00051959,0.00062294,-0.00018099,-0.00037317,0.00032144,
 0.00041891,-0.00075137,0.00179904,-0.00005568,-0.00060392,0.00046560,-
 0.00012731,-0.00041274,-0.00035349,-0.00431931,-0.00030461,0.00002580,
 0.00081966,-0.00003593,0.00003221,0.00004590,-0.02723749,0.00829447,0.
 00704971,-0.00038972,0.00002089,-0.00002418,-0.00082726,-0.00031117,-0
 .00139824,-0.00110051,0.00073326,-0.00014536,0.00003187,-0.00001855,-0
 .00005229,0.00000674,-0.00000369,-0.00000417,-0.00000734,-0.00000725,0
 .00001045,-0.00000654,0.00000424,0.00000202,0.00001948,-0.00001660,0.0
 0001600,-0.00000768,-0.00000109,-0.00000357,-0.00000155,0.00000413,-0.
 00000153,0.00000188,0.00000448,-0.00000149,0.00002398,0.00005063,-0.00
 000629,-0.00000061,-0.00000529,-0.00000263,-0.00000775,-0.00000392,0.0
 0000185,-0.00000032,-0.00000707,0.00000381,-0.00010458,-0.00005581,-0.
 00017075,0.00001215,-0.00000392,0.00001463,0.00002760,0.00000879,0.000
 02213,0.00001913,0.00001587,0.00000188,-0.00042720,0.00004590,0.001226
 19,-0.00005298,-0.00000412,-0.00040839,0.00027837,0.00012452,-0.000312
 95,0.00014627,-0.00016384,-0.00029824,-0.00276305,0.00240137,-0.079791
 48,0.00982921,0.00295457,0.01246972,-0.02856298,0.00426854,0.08027437,
 0.00003067,0.00000812,0.00002681,0.00005480,-0.00002630,0.00000402,0.0
 0011223,-0.00000429,-0.00003257,0.00001115,0.00006208,0.00007354,0.000
 02352,0.00003208,0.00003415,0.00002018,-0.00001284,-0.00000044,-0.0000
 0732,-0.00000195,-0.00000276,0.00000016,0.00000012,-0.00000011,0.00000
 880,0.00000525,0.00000060,0.00000022,-0.00000174,-0.00000114,-0.000096
 52,-0.00004466,-0.00004985,-0.00019041,-0.00000425,-0.00001497,-0.0000
 4812,0.00002977,-0.00000189,-0.00005780,-0.00000356,-0.00003348,-0.000
 03098,-0.00004911,-0.00004291,0.00008290,0.00005259,0.00002637,-0.0000
 1634,-0.00001120,-0.00001788,0.00000884,0.00000874,0.00005211,-0.00005
 468,-0.00006573,-0.00006398,0.00051751,-0.00048018,0.00022598,-0.00009
 180,0.00018115,-0.00012579,-0.00015519,0.00017427,0.00000304,0.0006155
 8,-0.00053742,-0.00024920,0.00001329,0.00004944,-0.00030064,-0.0021176
 4,0.00069134,-0.00084472,0.00023899,-0.00032673,-0.00084943,0.00005681
 ,-0.00002537,-0.00007523,0.01041363,-0.00136486,-0.00814326,0.00047439
 ,-0.00031596,-0.00171477,-0.00096292,0.00157193,-0.00076517,0.00009732
 ,-0.00003563,-0.00042067,0.00001519,-0.00000757,-0.00001453,0.00000019
 ,-0.00000584,0.00000337,0.00000268,0.00000099,0.00000510,-0.00000643,0
 .00000389,-0.00000113,0.00001696,-0.00001657,0.00002403,-0.00000573,0.
 00000007,-0.00000261,0.00000031,0.00000302,-0.00000521,0.00000072,0.00
 000355,-0.00000061,0.00001957,0.00003584,0.00000257,-0.00000205,-0.000
 00547,-0.00000619,-0.00000509,-0.00000396,0.00000168,-0.00000100,-0.00
 000045,0.00000383,0.00010632,0.00004169,0.00007748,-0.00002423,-0.0000
 2312,-0.00000204,-0.00003739,0.00006340,0.00001943,0.00001719,0.000002
 10,-0.00000299,-0.00046222,0.00013105,0.00040074,0.00000867,-0.0000171
 0,-0.00025388,0.00017205,0.00005902,-0.00013334,0.00010761,-0.00011413
 ,-0.00009006,-0.07922992,0.01447052,0.02562278,0.01194409,-0.01168615,
 -0.01160681,-0.03276533,0.02880643,0.05302286,0.09117657,0.00000366,-0
 .00005873,-0.00001961,-0.00001635,0.00000021,-0.00001802,-0.00003565,-
 0.00024372,0.00009528,-0.00004289,-0.00025010,-0.00009602,0.00000975,0
 .00005289,0.00001233,-0.00002518,0.00002101,-0.00000070,0.00001139,0.0
 0000414,0.00000040,-0.00000380,0.00000380,-0.00000437,-0.00001375,0.00
 001090,-0.00001236,0.00001961,-0.00000190,0.00000270,-0.00002211,0.000
 24306,0.00004953,0.00023593,0.00017408,-0.00000655,-0.00000181,0.00003
 585,0.00001731,-0.00002415,0.00003375,-0.00000294,-0.00003158,0.000031
 93,0.00000501,0.00041010,0.00021088,0.00012161,-0.00003618,-0.00000059
 ,-0.00002765,0.00008024,-0.00022871,0.00014991,-0.00022987,-0.00003232
 ,-0.00011237,-0.00057515,0.00015988,-0.00036642,0.00009729,-0.00007340
 ,0.00010028,0.00018154,-0.00007167,0.00009995,-0.00062997,0.00076231,-
 0.00006218,-0.00024939,0.00019650,0.00063133,0.00257865,-0.00176300,0.
 00096699,0.00000997,-0.00074402,0.00073532,-0.00007307,0.00002848,0.00
 007737,0.00066408,0.00918661,0.00620118,-0.00073568,0.00040655,0.00142
 323,0.00102828,0.00030081,-0.00007020,-0.00002016,0.00018725,0.0002836
 9,-0.00001256,-0.00001576,-0.00001753,0.00000440,0.00000546,0.00000264
 ,-0.00000035,0.00000032,-0.00000043,0.00000096,0.00000117,0.00000262,0
 .00000373,-0.00000948,0.00001005,-0.00000115,0.00000112,-0.00000183,-0
 .00000015,-0.00000021,-0.00000068,-0.00000373,0.00000406,-0.00000150,0
 .00001625,-0.00000292,0.00001449,0.00000172,-0.00000077,-0.00000145,-0
 .00000765,0.00000019,-0.00000161,0.00000458,0.00000989,-0.00000525,0.0
 0041673,0.00012183,0.00022100,-0.00006368,-0.00002949,-0.00000497,0.00
 009679,0.00001003,-0.00015816,-0.00013588,-0.00001825,-0.00000735,0.00
 018101,-0.00039178,-0.00035991,-0.00000280,0.00004079,0.00008393,-0.00
 012804,0.00002400,0.00014103,-0.00009067,0.00015729,0.00006786,0.01330
 347,-0.10680422,-0.07696836,-0.00803044,-0.05674790,-0.05261036,0.0231
 7999,-0.00011998,-0.02034793,-0.03129631,0.15518191,0.00009054,-0.0000
 1722,0.00002450,0.00015879,-0.00005635,0.00001085,0.00036388,0.0001983
 1,-0.00051304,0.00008775,-0.00002280,-0.00012207,0.00007189,0.00010159
 ,0.00010021,-0.00001483,0.00002817,0.00001596,-0.00006387,-0.00001862,
 0.00000238,0.00000866,-0.00000198,0.00002088,0.00007200,0.00000983,0.0
 0010476,-0.00002741,-0.00002430,-0.00000162,-0.00039554,-0.00011875,0.
 00019968,-0.00108905,-0.00010619,0.00029246,-0.00014604,0.00010003,0.0
 0009403,-0.00016488,0.00000465,-0.00004522,-0.00010719,-0.00010349,-0.
 00004700,0.00049271,0.00041822,-0.00002971,-0.00002554,-0.00002457,0.0
 0000086,0.00003100,-0.00000427,-0.00003133,-0.00029876,-0.00023828,0.0
 0035520,0.00252327,-0.00196215,-0.00089466,-0.00064467,0.00080637,-0.0
 0015131,-0.00059826,0.00060719,0.00076741,-0.00001032,0.00107140,-0.00
 011968,-0.00024268,0.00004332,-0.00065688,0.00262792,-0.00169596,-0.00
 097028,0.00180236,-0.00010964,-0.00252354,-0.00008322,-0.00002188,0.00
 008563,0.00831019,-0.02199113,-0.04674701,-0.00201080,0.00090447,-0.00
 092291,-0.00694851,0.00545576,-0.00341372,-0.00015159,-0.00029853,0.00
 079815,0.00005198,-0.00004953,-0.00012198,0.00001752,-0.00000094,-0.00
 000674,-0.00001663,-0.00001538,0.00002047,-0.00001079,0.00000902,0.000
 00725,0.00004061,-0.00003977,0.00003763,-0.00001652,-0.00000124,-0.000
 00874,-0.00000346,0.00000801,-0.00000225,0.00000018,0.00001258,-0.0000
 0476,0.00006483,0.00010422,-0.00000009,0.00000016,-0.00001094,-0.00000
 648,-0.00002323,-0.00000821,0.00000203,0.00000427,-0.00000589,0.000003
 81,0.00017350,0.00000178,-0.00015825,-0.00004103,-0.00003571,0.0000283
 2,0.00013158,-0.00002961,-0.00013534,-0.00010562,0.00001296,-0.0000024
 1,-0.00159429,0.00085635,0.00235594,-0.00019378,-0.00008896,-0.0012744
 4,0.00083674,0.00030025,-0.00072899,0.00032301,-0.00037690,-0.00056620
 ,0.01989222,-0.06957714,-0.26078606,-0.00701851,-0.03665460,-0.0047847
 1,0.03762973,-0.01711317,-0.01459357,-0.05376023,0.13976965,0.33504256
 \\-0.00000141,0.00000225,0.00000175,0.00000046,0.00000050,0.00000189,0
 .00000004,-0.00000666,-0.00000634,0.00000473,-0.00000027,-0.00000749,-
 0.00000259,-0.00000191,-0.00000285,0.00000050,0.00000169,0.00000069,-0
 .00000139,-0.00000115,-0.00000075,0.00000068,-0.00000131,-0.00000195,0
 .00000040,0.00000044,0.00000215,0.00000027,-0.00000143,0.00000060,-0.0
 0000267,0.00000156,0.00000334,0.00000241,0.00000798,0.00000490,0.00000
 133,0.00000082,-0.00000309,0.00000015,-0.00000084,-0.00000288,0.000005
 70,-0.00000180,0.00000383,-0.00000267,0.00000038,-0.00000231,-0.000001
 24,-0.00000041,0.00000258,0.00000173,0.00000179,0.00000143,0.00000158,
 -0.00000042,0.00000157,-0.00000240,-0.00000081,-0.00000639,0.00000125,
 -0.00000439,0.00000158,-0.00000119,-0.00000007,-0.00000197,-0.00000213
 ,0.00000339,-0.00000120,-0.00000262,0.00000232,0.00000177,0.00000158,-
 0.00000062,0.00000153,0.00000628,-0.00000540,0.00000401,-0.00000006,0.
 00000042,0.00000061,-0.00000391,0.00000331,0.00000268,0.00000015,0.000
 00028,0.00000002,-0.00000286,0.00000107,-0.00000098,0.00000041,0.00000
 009,0.00000169,-0.00000152,-0.00000076,0.00000005,-0.00000079,0.000000
 67,-0.00000248,-0.00000065,0.00000106,-0.00000242,-0.00000163,0.000000
 29,-0.00000184,-0.00000026,0.00000016,0.00000099,0.00000085,-0.0000011
 8,-0.00000223,0.00000124,-0.00000044,-0.00000214,0.00000080,-0.0000003
 1,-0.00000209,-0.00000375,-0.00000016,-0.00000086,0.00000058,-0.000000
 50,-0.00000045,0.00000202,-0.00000053,-0.00000106,0.00000242,0.0000004
 6,0.00000024,-0.00000145,-0.00000052,-0.00000078,-0.00000108,0.,0.0000
 0157,-0.00000127,0.00000161,0.00000123,-0.00000139,-0.00000021,0.00000
 119,0.00000514,-0.00000095,-0.00000304,0.00000022,-0.00000085,0.000000
 73,-0.00000152,-0.00000083,0.00000214,0.00000011,0.00000136,0.00000253
 ,0.00000205,-0.00000122,0.00000628,0.00000021,0.00000067,-0.00000053,-
 0.00000167,0.00000169,0.00000188,-0.00000116,-0.00000028,0.00000064\\\
 @


 HIGGLEDY-PIGGLEDY
 NIC'LAUS COPERNICUS
 LOOKED AT THE UNIVERSE,
 SPOKE TO THE THRONG;
 GIVE UP YOUR PTOLOMY,
 RISE UP AND FOLLOW ME,
 HELIOCENTRICALLY
 PTOLEMY'S WRONG.
   -- NANCY L. STARK
 Job cpu time:       1 days  1 hours  8 minutes 23.0 seconds.
 Elapsed time:       0 days  0 hours 24 minutes 24.3 seconds.
 File lengths (MBytes):  RWF=   2247 Int=      0 D2E=      0 Chk=     39 Scr=      1
 Normal termination of Gaussian 16 at Sun Jun  9 21:55:37 2019.
