 Entering Gaussian System, Link 0=g16
 Input=clay_new-glu_gluC6-BCDR-Na2_1Me2O-bisCF3-ts-b971-631gd-pcm_thf.gjf
 Output=clay_new-glu_gluC6-BCDR-Na2_1Me2O-bisCF3-ts-b971-631gd-pcm_thf.out
 Initial command:
 /home/ekwan/sw/g16/l1.exe "/scratch/users/ekwan/clay_new-glu_gluC6-BCDR-Na2_1Me2O-bisCF3-ts-b971-631gd-pcm_thf/Gau-51017.inp" -scrdir="/scratch/users/ekwan/clay_new-glu_gluC6-BCDR-Na2_1Me2O-bisCF3-ts-b971-631gd-pcm_thf/"
 Entering Link 1 = /home/ekwan/sw/g16/l1.exe PID=     51018.
  
 Copyright (c) 1988,1990,1992,1993,1995,1998,2003,2009,2016,
            Gaussian, Inc.  All Rights Reserved.
  
 This is part of the Gaussian(R) 16 program.  It is based on
 the Gaussian(R) 09 system (copyright 2009, Gaussian, Inc.),
 the Gaussian(R) 03 system (copyright 2003, Gaussian, Inc.),
 the Gaussian(R) 98 system (copyright 1998, Gaussian, Inc.),
 the Gaussian(R) 94 system (copyright 1995, Gaussian, Inc.),
 the Gaussian 92(TM) system (copyright 1992, Gaussian, Inc.),
 the Gaussian 90(TM) system (copyright 1990, Gaussian, Inc.),
 the Gaussian 88(TM) system (copyright 1988, Gaussian, Inc.),
 the Gaussian 86(TM) system (copyright 1986, Carnegie Mellon
 University), and the Gaussian 82(TM) system (copyright 1983,
 Carnegie Mellon University). Gaussian is a federally registered
 trademark of Gaussian, Inc.
  
 This software contains proprietary and confidential information,
 including trade secrets, belonging to Gaussian, Inc.
  
 This software is provided under written license and may be
 used, copied, transmitted, or stored only in accord with that
 written license.
  
 The following legend is applicable only to US Government
 contracts under FAR:
  
                    RESTRICTED RIGHTS LEGEND
  
 Use, reproduction and disclosure by the US Government is
 subject to restrictions as set forth in subparagraphs (a)
 and (c) of the Commercial Computer Software - Restricted
 Rights clause in FAR 52.227-19.
  
 Gaussian, Inc.
 340 Quinnipiac St., Bldg. 40, Wallingford CT 06492
  
  
 ---------------------------------------------------------------
 Warning -- This program may not be used in any manner that
 competes with the business of Gaussian, Inc. or will provide
 assistance to any competitor of Gaussian, Inc.  The licensee
 of this program is prohibited from giving any competitor of
 Gaussian, Inc. access to this program.  By using this program,
 the user acknowledges that Gaussian, Inc. is engaged in the
 business of creating and licensing software in the field of
 computational chemistry and represents and warrants to the
 licensee that it is not a competitor of Gaussian, Inc. and that
 it will not use this program in any manner prohibited above.
 ---------------------------------------------------------------
  

 Cite this work as:
 Gaussian 16, Revision A.03,
 M. J. Frisch, G. W. Trucks, H. B. Schlegel, G. E. Scuseria, 
 M. A. Robb, J. R. Cheeseman, G. Scalmani, V. Barone, 
 G. A. Petersson, H. Nakatsuji, X. Li, M. Caricato, A. V. Marenich, 
 J. Bloino, B. G. Janesko, R. Gomperts, B. Mennucci, H. P. Hratchian, 
 J. V. Ortiz, A. F. Izmaylov, J. L. Sonnenberg, D. Williams-Young, 
 F. Ding, F. Lipparini, F. Egidi, J. Goings, B. Peng, A. Petrone, 
 T. Henderson, D. Ranasinghe, V. G. Zakrzewski, J. Gao, N. Rega, 
 G. Zheng, W. Liang, M. Hada, M. Ehara, K. Toyota, R. Fukuda, 
 J. Hasegawa, M. Ishida, T. Nakajima, Y. Honda, O. Kitao, H. Nakai, 
 T. Vreven, K. Throssell, J. A. Montgomery, Jr., J. E. Peralta, 
 F. Ogliaro, M. J. Bearpark, J. J. Heyd, E. N. Brothers, K. N. Kudin, 
 V. N. Staroverov, T. A. Keith, R. Kobayashi, J. Normand, 
 K. Raghavachari, A. P. Rendell, J. C. Burant, S. S. Iyengar, 
 J. Tomasi, M. Cossi, J. M. Millam, M. Klene, C. Adamo, R. Cammi, 
 J. W. Ochterski, R. L. Martin, K. Morokuma, O. Farkas, 
 J. B. Foresman, and D. J. Fox, Gaussian, Inc., Wallingford CT, 2016.
 
 ******************************************
 Gaussian 16:  AS64L-G16RevA.03 25-Dec-2016
                 5-Jun-2019 
 ******************************************
 %nprocshared=32
 Will use up to   32 processors via shared memory.
 %mem=48GB
 ----------------------------------------------------------------------
 #p opt=(ts,calcfc,noeigentest,maxstep=5) freq=noraman pop=none 6-31g* 
 scrf=(pcm,solvent=tetrahydrofuran) b971
 ----------------------------------------------------------------------
 1/5=1,8=5,10=4,11=1,18=20,26=3,38=1/1,3;
 2/9=110,12=2,17=6,18=5,40=1/2;
 3/5=1,6=6,7=1,11=2,25=1,30=1,70=2201,71=2,72=20,74=-20,140=1/1,2,3;
 4//1;
 5/5=2,38=5,53=20/2;
 8/6=4,10=90,11=11/1;
 11/6=1,8=1,9=11,15=111,16=1/1,2,10;
 10/6=1,13=1/2;
 7/10=1,18=20,25=1/1,2,3,16;
 1/5=1,8=5,10=4,11=1,18=20,26=3/3(2);
 2/9=110/2;
 99//99;
 2/9=110/2;
 3/5=1,6=6,7=1,11=2,25=1,30=1,70=2205,71=1,72=20,74=-20/1,2,3;
 4/5=5,16=3,69=1/1;
 5/5=2,38=5,53=20/2;
 7//1,2,3,16;
 1/5=1,8=5,11=1,18=20,26=3/3(-5);
 2/9=110/2;
 99/9=1/99;
 Leave Link    1 at Wed Jun  5 06:09:37 2019, MaxMem=  6442450944 cpu:               5.2 elap:               0.2
 (Enter /home/ekwan/sw/g16/l101.exe)
 -----
 title
 -----
 Symbolic Z-matrix:
 Charge =  0 Multiplicity = 1
 6                    -1.99632   1.57008   2.24519 
 6                    -2.32164   2.35695   0.96597 
 6                    -1.48498   3.64881   0.92119 
 6                     0.3178    2.65544   2.19208 
 6                    -0.47893   1.34788   2.37273 
 1                    -1.61541   4.15537  -0.04847 
 1                    -2.02311   1.75871   0.09133 
 1                    -2.34218   2.15739   3.10804 
 1                     0.10427   3.30318   3.05644 
 1                    -0.17317   0.63068   1.59732 
 8                    -0.10052   3.33428   0.98272 
 8                    -1.89413   4.48571   1.96499 
 8                    -3.69679   2.69755   0.8865 
 8                    -2.67256   0.31376   2.2074 
 8                    -0.19203   0.82511   3.6695 
 6                     1.84975   2.44652   2.08193 
 1                     2.13564   1.91112   3.01596 
 1                     2.28996   3.46853   2.18936 
 8                     2.27135   1.82597   0.9313 
 6                    -4.45685   1.84302   0.04359 
 1                    -4.0895    1.87002  -0.9951 
 1                    -4.44114   0.80433   0.39736 
 1                    -5.48575   2.21829   0.06172 
 6                    -3.38651   0.0001    3.39377 
 1                    -2.72609  -0.01265   4.27221 
 1                    -4.2042    0.71634   3.57201 
 1                    -3.80957  -0.99829   3.24598 
 6                     0.32446  -0.49747   3.67273 
 1                    -0.37174  -1.20172   3.19482 
 1                     1.29954  -0.5607    3.16683 
 1                     0.45224  -0.77986   4.72406 
 6                     4.06198  -1.37357  -1.26614 
 6                     3.31919  -0.0817   -0.87435 
 6                     1.99482  -0.38427  -0.22193 
 6                     2.61075  -2.63598   0.38827 
 6                     4.04957  -2.31829  -0.04846 
 1                     1.23384   0.37213  -0.14777 
 1                     3.87671   0.42252  -0.06332 
 1                     3.54482  -1.84323  -2.11511 
 1                     2.11295  -3.21467  -0.39909 
 1                     4.57943  -1.82714   0.77875 
 8                     1.7994   -1.41589   0.52453 
 8                    -0.38835  -0.19597  -3.93174 
 8                     3.09033   0.83936  -1.9177 
 8                     5.39969  -1.04996  -1.60054 
 8                     4.66004  -3.55512  -0.37294 
 6                     2.4878   -3.38181   1.7066 
 1                     2.91048  -4.39052   1.56696 
 1                     1.41866  -3.49218   1.9565 
 8                     3.17583  -2.66648   2.70841 
 16                   -0.20949  -0.25222  -2.47184 
 8                    -0.21736   1.08008  -1.79491 
 8                     0.95466  -1.10234  -2.03429 
 6                    -1.66139  -1.10213  -1.80216 
 6                    -2.90378  -0.92215  -2.41327 
 6                    -1.53667  -1.87272  -0.64315 
 6                    -4.03725  -1.5124   -1.84101 
 1                    -2.98139  -0.33828  -3.32617 
 6                    -2.67529  -2.46253  -0.08813 
 1                    -0.5647   -2.0086   -0.18027 
 6                    -3.93057  -2.28361  -0.67951 
 1                    -4.81376  -2.74065  -0.24324 
 6                     4.22556   1.63077  -2.2838 
 1                     4.77066   1.97214  -1.39305 
 1                     4.90877   1.07268  -2.93227 
 1                     3.8306    2.49962  -2.81841 
 6                     5.90165  -1.74358  -2.73943 
 1                     5.87133  -2.83063  -2.59383 
 1                     5.33271  -1.48354  -3.64531 
 1                     6.9398   -1.42076  -2.86476 
 6                     5.82784  -3.84499   0.3919 
 1                     6.61615  -3.1022    0.20753 
 1                     5.60253  -3.87447   1.46801 
 1                     6.17401  -4.83065   0.06695 
 6                     3.0719   -3.28559   3.98072 
 1                     3.63346  -2.66418   4.68396 
 1                     2.02263  -3.34925   4.31025 
 1                     3.50063  -4.30034   3.96878 
 6                    -1.33067   5.79104   1.90196 
 1                    -1.78406   6.36829   2.71276 
 1                    -0.2407    5.76815   2.03532 
 1                    -1.56366   6.27283   0.93923 
 11                    1.27656   2.6736   -0.93128 
 8                     2.5741    4.56884  -1.35204 
 6                     2.48997   5.66057  -2.25425 
 1                     3.42933   5.78106  -2.8159 
 1                     1.67613   5.44379  -2.95285 
 1                     2.27235   6.5989   -1.72099 
 6                     3.60564   4.7318   -0.38337 
 1                     3.42914   5.62999   0.22834 
 1                     3.58091   3.83705   0.2477 
 1                     4.5882    4.82128  -0.87285 
 6                    -5.39695  -1.25337  -2.44862 
 9                    -5.93771  -0.1065   -1.97176 
 9                    -6.2694   -2.24246  -2.17213 
 9                    -5.3305   -1.12671  -3.78819 
 6                    -2.55041  -3.35613   1.12404 
 9                    -1.41843  -3.11493   1.82177 
 9                    -2.525    -4.66067   0.77542 
 9                    -3.59121  -3.20066   1.97019 
 
 Add virtual bond connecting atoms H37        and O19        Dist= 3.94D+00.
 Add virtual bond connecting atoms O52        and H37        Dist= 4.36D+00.
 Add virtual bond connecting atoms O52        and Na83       Dist= 4.44D+00.
 Add virtual bond connecting atoms O53        and C34        Dist= 4.18D+00.
 Add virtual bond connecting atoms O84        and Na83       Dist= 4.41D+00.
 Add virtual bond connecting atoms H91        and H18        Dist= 4.46D+00.
 ITRead=  0  0  0  0  0  0  0  0  0  0  0  0  0  0  0  0  0  0  0  0
 ITRead=  0  0  0  0  0  0  0  0  0  0  0  0  0  0  0  0  0  0  0  0
 ITRead=  0  0  0  0  0  0  0  0  0  0  0  0  0  0  0  0  0  0  0  0
 ITRead=  0  0  0  0  0  0  0  0  0  0  0  0  0  0  0  0  0  0  0  0
 ITRead=  0  0  0  0  0  0  0  0  0  0  0  0  0  0  0  0  0  0  0  0
 MicOpt= -1 -1 -1 -1 -1 -1 -1 -1 -1 -1 -1 -1 -1 -1 -1 -1 -1 -1 -1 -1
 MicOpt= -1 -1 -1 -1 -1 -1 -1 -1 -1 -1 -1 -1 -1 -1 -1 -1 -1 -1 -1 -1
 MicOpt= -1 -1 -1 -1 -1 -1 -1 -1 -1 -1 -1 -1 -1 -1 -1 -1 -1 -1 -1 -1
 MicOpt= -1 -1 -1 -1 -1 -1 -1 -1 -1 -1 -1 -1 -1 -1 -1 -1 -1 -1 -1 -1
 MicOpt= -1 -1 -1 -1 -1 -1 -1 -1 -1 -1 -1 -1 -1 -1 -1 -1 -1 -1 -1 -1
 NAtoms=    100 NQM=      100 NQMF=       0 NMMI=      0 NMMIF=      0
                NMic=       0 NMicF=      0.
                    Isotopes and Nuclear Properties:
 (Nuclear quadrupole moments (NQMom) in fm**2, nuclear magnetic moments (NMagM)
  in nuclear magnetons)

  Atom         1           2           3           4           5           6           7           8           9          10
 IAtWgt=          12          12          12          12          12           1           1           1           1           1
 AtmWgt=  12.0000000  12.0000000  12.0000000  12.0000000  12.0000000   1.0078250   1.0078250   1.0078250   1.0078250   1.0078250
 NucSpn=           0           0           0           0           0           1           1           1           1           1
 AtZEff=   0.0000000   0.0000000   0.0000000   0.0000000   0.0000000   0.0000000   0.0000000   0.0000000   0.0000000   0.0000000
 NQMom=    0.0000000   0.0000000   0.0000000   0.0000000   0.0000000   0.0000000   0.0000000   0.0000000   0.0000000   0.0000000
 NMagM=    0.0000000   0.0000000   0.0000000   0.0000000   0.0000000   2.7928460   2.7928460   2.7928460   2.7928460   2.7928460
 AtZNuc=   6.0000000   6.0000000   6.0000000   6.0000000   6.0000000   1.0000000   1.0000000   1.0000000   1.0000000   1.0000000

  Atom        11          12          13          14          15          16          17          18          19          20
 IAtWgt=          16          16          16          16          16          12           1           1          16          12
 AtmWgt=  15.9949146  15.9949146  15.9949146  15.9949146  15.9949146  12.0000000   1.0078250   1.0078250  15.9949146  12.0000000
 NucSpn=           0           0           0           0           0           0           1           1           0           0
 AtZEff=   0.0000000   0.0000000   0.0000000   0.0000000   0.0000000   0.0000000   0.0000000   0.0000000   0.0000000   0.0000000
 NQMom=    0.0000000   0.0000000   0.0000000   0.0000000   0.0000000   0.0000000   0.0000000   0.0000000   0.0000000   0.0000000
 NMagM=    0.0000000   0.0000000   0.0000000   0.0000000   0.0000000   0.0000000   2.7928460   2.7928460   0.0000000   0.0000000
 AtZNuc=   8.0000000   8.0000000   8.0000000   8.0000000   8.0000000   6.0000000   1.0000000   1.0000000   8.0000000   6.0000000

  Atom        21          22          23          24          25          26          27          28          29          30
 IAtWgt=           1           1           1          12           1           1           1          12           1           1
 AtmWgt=   1.0078250   1.0078250   1.0078250  12.0000000   1.0078250   1.0078250   1.0078250  12.0000000   1.0078250   1.0078250
 NucSpn=           1           1           1           0           1           1           1           0           1           1
 AtZEff=   0.0000000   0.0000000   0.0000000   0.0000000   0.0000000   0.0000000   0.0000000   0.0000000   0.0000000   0.0000000
 NQMom=    0.0000000   0.0000000   0.0000000   0.0000000   0.0000000   0.0000000   0.0000000   0.0000000   0.0000000   0.0000000
 NMagM=    2.7928460   2.7928460   2.7928460   0.0000000   2.7928460   2.7928460   2.7928460   0.0000000   2.7928460   2.7928460
 AtZNuc=   1.0000000   1.0000000   1.0000000   6.0000000   1.0000000   1.0000000   1.0000000   6.0000000   1.0000000   1.0000000

  Atom        31          32          33          34          35          36          37          38          39          40
 IAtWgt=           1          12          12          12          12          12           1           1           1           1
 AtmWgt=   1.0078250  12.0000000  12.0000000  12.0000000  12.0000000  12.0000000   1.0078250   1.0078250   1.0078250   1.0078250
 NucSpn=           1           0           0           0           0           0           1           1           1           1
 AtZEff=   0.0000000   0.0000000   0.0000000   0.0000000   0.0000000   0.0000000   0.0000000   0.0000000   0.0000000   0.0000000
 NQMom=    0.0000000   0.0000000   0.0000000   0.0000000   0.0000000   0.0000000   0.0000000   0.0000000   0.0000000   0.0000000
 NMagM=    2.7928460   0.0000000   0.0000000   0.0000000   0.0000000   0.0000000   2.7928460   2.7928460   2.7928460   2.7928460
 AtZNuc=   1.0000000   6.0000000   6.0000000   6.0000000   6.0000000   6.0000000   1.0000000   1.0000000   1.0000000   1.0000000

  Atom        41          42          43          44          45          46          47          48          49          50
 IAtWgt=           1          16          16          16          16          16          12           1           1          16
 AtmWgt=   1.0078250  15.9949146  15.9949146  15.9949146  15.9949146  15.9949146  12.0000000   1.0078250   1.0078250  15.9949146
 NucSpn=           1           0           0           0           0           0           0           1           1           0
 AtZEff=   0.0000000   0.0000000   0.0000000   0.0000000   0.0000000   0.0000000   0.0000000   0.0000000   0.0000000   0.0000000
 NQMom=    0.0000000   0.0000000   0.0000000   0.0000000   0.0000000   0.0000000   0.0000000   0.0000000   0.0000000   0.0000000
 NMagM=    2.7928460   0.0000000   0.0000000   0.0000000   0.0000000   0.0000000   0.0000000   2.7928460   2.7928460   0.0000000
 AtZNuc=   1.0000000   8.0000000   8.0000000   8.0000000   8.0000000   8.0000000   6.0000000   1.0000000   1.0000000   8.0000000

  Atom        51          52          53          54          55          56          57          58          59          60
 IAtWgt=          32          16          16          12          12          12          12           1          12           1
 AtmWgt=  31.9720718  15.9949146  15.9949146  12.0000000  12.0000000  12.0000000  12.0000000   1.0078250  12.0000000   1.0078250
 NucSpn=           0           0           0           0           0           0           0           1           0           1
 AtZEff=   0.0000000   0.0000000   0.0000000   0.0000000   0.0000000   0.0000000   0.0000000   0.0000000   0.0000000   0.0000000
 NQMom=    0.0000000   0.0000000   0.0000000   0.0000000   0.0000000   0.0000000   0.0000000   0.0000000   0.0000000   0.0000000
 NMagM=    0.0000000   0.0000000   0.0000000   0.0000000   0.0000000   0.0000000   0.0000000   2.7928460   0.0000000   2.7928460
 AtZNuc=  16.0000000   8.0000000   8.0000000   6.0000000   6.0000000   6.0000000   6.0000000   1.0000000   6.0000000   1.0000000

  Atom        61          62          63          64          65          66          67          68          69          70
 IAtWgt=          12           1          12           1           1           1          12           1           1           1
 AtmWgt=  12.0000000   1.0078250  12.0000000   1.0078250   1.0078250   1.0078250  12.0000000   1.0078250   1.0078250   1.0078250
 NucSpn=           0           1           0           1           1           1           0           1           1           1
 AtZEff=   0.0000000   0.0000000   0.0000000   0.0000000   0.0000000   0.0000000   0.0000000   0.0000000   0.0000000   0.0000000
 NQMom=    0.0000000   0.0000000   0.0000000   0.0000000   0.0000000   0.0000000   0.0000000   0.0000000   0.0000000   0.0000000
 NMagM=    0.0000000   2.7928460   0.0000000   2.7928460   2.7928460   2.7928460   0.0000000   2.7928460   2.7928460   2.7928460
 AtZNuc=   6.0000000   1.0000000   6.0000000   1.0000000   1.0000000   1.0000000   6.0000000   1.0000000   1.0000000   1.0000000

  Atom        71          72          73          74          75          76          77          78          79          80
 IAtWgt=          12           1           1           1          12           1           1           1          12           1
 AtmWgt=  12.0000000   1.0078250   1.0078250   1.0078250  12.0000000   1.0078250   1.0078250   1.0078250  12.0000000   1.0078250
 NucSpn=           0           1           1           1           0           1           1           1           0           1
 AtZEff=   0.0000000   0.0000000   0.0000000   0.0000000   0.0000000   0.0000000   0.0000000   0.0000000   0.0000000   0.0000000
 NQMom=    0.0000000   0.0000000   0.0000000   0.0000000   0.0000000   0.0000000   0.0000000   0.0000000   0.0000000   0.0000000
 NMagM=    0.0000000   2.7928460   2.7928460   2.7928460   0.0000000   2.7928460   2.7928460   2.7928460   0.0000000   2.7928460
 AtZNuc=   6.0000000   1.0000000   1.0000000   1.0000000   6.0000000   1.0000000   1.0000000   1.0000000   6.0000000   1.0000000

  Atom        81          82          83          84          85          86          87          88          89          90
 IAtWgt=           1           1          23          16          12           1           1           1          12           1
 AtmWgt=   1.0078250   1.0078250  22.9897697  15.9949146  12.0000000   1.0078250   1.0078250   1.0078250  12.0000000   1.0078250
 NucSpn=           1           1           3           0           0           1           1           1           0           1
 AtZEff=   0.0000000   0.0000000   0.0000000   0.0000000   0.0000000   0.0000000   0.0000000   0.0000000   0.0000000   0.0000000
 NQMom=    0.0000000   0.0000000  10.4000000   0.0000000   0.0000000   0.0000000   0.0000000   0.0000000   0.0000000   0.0000000
 NMagM=    2.7928460   2.7928460   2.2175200   0.0000000   0.0000000   2.7928460   2.7928460   2.7928460   0.0000000   2.7928460
 AtZNuc=   1.0000000   1.0000000  11.0000000   8.0000000   6.0000000   1.0000000   1.0000000   1.0000000   6.0000000   1.0000000

  Atom        91          92          93          94          95          96          97          98          99         100
 IAtWgt=           1           1          12          19          19          19          12          19          19          19
 AtmWgt=   1.0078250   1.0078250  12.0000000  18.9984033  18.9984033  18.9984033  12.0000000  18.9984033  18.9984033  18.9984033
 NucSpn=           1           1           0           1           1           1           0           1           1           1
 AtZEff=   0.0000000   0.0000000   0.0000000   0.0000000   0.0000000   0.0000000   0.0000000   0.0000000   0.0000000   0.0000000
 NQMom=    0.0000000   0.0000000   0.0000000   0.0000000   0.0000000   0.0000000   0.0000000   0.0000000   0.0000000   0.0000000
 NMagM=    2.7928460   2.7928460   0.0000000   2.6288670   2.6288670   2.6288670   0.0000000   2.6288670   2.6288670   2.6288670
 AtZNuc=   1.0000000   1.0000000   6.0000000   9.0000000   9.0000000   9.0000000   6.0000000   9.0000000   9.0000000   9.0000000
 Leave Link  101 at Wed Jun  5 06:09:38 2019, MaxMem=  6442450944 cpu:              18.4 elap:               1.0
 (Enter /home/ekwan/sw/g16/l103.exe)

 GradGradGradGradGradGradGradGradGradGradGradGradGradGradGradGradGradGrad
 Berny optimization.
 Initialization pass.
                           ----------------------------
                           !    Initial Parameters    !
                           ! (Angstroms and Degrees)  !
 --------------------------                            --------------------------
 ! Name  Definition              Value          Derivative Info.                !
 --------------------------------------------------------------------------------
 ! R1    R(1,2)                  1.5367         calculate D2E/DX2 analytically  !
 ! R2    R(1,5)                  1.5389         calculate D2E/DX2 analytically  !
 ! R3    R(1,8)                  1.0996         calculate D2E/DX2 analytically  !
 ! R4    R(1,14)                 1.4273         calculate D2E/DX2 analytically  !
 ! R5    R(2,3)                  1.5398         calculate D2E/DX2 analytically  !
 ! R6    R(2,7)                  1.1009         calculate D2E/DX2 analytically  !
 ! R7    R(2,13)                 1.4189         calculate D2E/DX2 analytically  !
 ! R8    R(3,6)                  1.1018         calculate D2E/DX2 analytically  !
 ! R9    R(3,11)                 1.4211         calculate D2E/DX2 analytically  !
 ! R10   R(3,12)                 1.399          calculate D2E/DX2 analytically  !
 ! R11   R(4,5)                  1.5418         calculate D2E/DX2 analytically  !
 ! R12   R(4,9)                  1.101          calculate D2E/DX2 analytically  !
 ! R13   R(4,11)                 1.4486         calculate D2E/DX2 analytically  !
 ! R14   R(4,16)                 1.5501         calculate D2E/DX2 analytically  !
 ! R15   R(5,10)                 1.0996         calculate D2E/DX2 analytically  !
 ! R16   R(5,15)                 1.4273         calculate D2E/DX2 analytically  !
 ! R17   R(12,79)                1.4231         calculate D2E/DX2 analytically  !
 ! R18   R(13,20)                1.4207         calculate D2E/DX2 analytically  !
 ! R19   R(14,24)                1.4197         calculate D2E/DX2 analytically  !
 ! R20   R(15,28)                1.4198         calculate D2E/DX2 analytically  !
 ! R21   R(16,17)                1.1139         calculate D2E/DX2 analytically  !
 ! R22   R(16,18)                1.118          calculate D2E/DX2 analytically  !
 ! R23   R(16,19)                1.3736         calculate D2E/DX2 analytically  !
 ! R24   R(18,91)                2.3606         calculate D2E/DX2 analytically  !
 ! R25   R(19,37)                2.0867         calculate D2E/DX2 analytically  !
 ! R26   R(19,83)                2.2754         calculate D2E/DX2 analytically  !
 ! R27   R(20,21)                1.1021         calculate D2E/DX2 analytically  !
 ! R28   R(20,22)                1.0974         calculate D2E/DX2 analytically  !
 ! R29   R(20,23)                1.0954         calculate D2E/DX2 analytically  !
 ! R30   R(24,25)                1.0991         calculate D2E/DX2 analytically  !
 ! R31   R(24,26)                1.1015         calculate D2E/DX2 analytically  !
 ! R32   R(24,27)                1.0944         calculate D2E/DX2 analytically  !
 ! R33   R(28,29)                1.0996         calculate D2E/DX2 analytically  !
 ! R34   R(28,30)                1.1003         calculate D2E/DX2 analytically  !
 ! R35   R(28,31)                1.0961         calculate D2E/DX2 analytically  !
 ! R36   R(32,33)                1.5408         calculate D2E/DX2 analytically  !
 ! R37   R(32,36)                1.5412         calculate D2E/DX2 analytically  !
 ! R38   R(32,39)                1.0995         calculate D2E/DX2 analytically  !
 ! R39   R(32,45)                1.4163         calculate D2E/DX2 analytically  !
 ! R40   R(33,34)                1.507          calculate D2E/DX2 analytically  !
 ! R41   R(33,38)                1.1058         calculate D2E/DX2 analytically  !
 ! R42   R(33,44)                1.4104         calculate D2E/DX2 analytically  !
 ! R43   R(34,37)                1.0755         calculate D2E/DX2 analytically  !
 ! R44   R(34,42)                1.2883         calculate D2E/DX2 analytically  !
 ! R45   R(34,53)                2.2096         calculate D2E/DX2 analytically  !
 ! R46   R(35,36)                1.5368         calculate D2E/DX2 analytically  !
 ! R47   R(35,40)                1.0966         calculate D2E/DX2 analytically  !
 ! R48   R(35,42)                1.4715         calculate D2E/DX2 analytically  !
 ! R49   R(35,47)                1.5197         calculate D2E/DX2 analytically  !
 ! R50   R(36,41)                1.0983         calculate D2E/DX2 analytically  !
 ! R51   R(36,46)                1.4169         calculate D2E/DX2 analytically  !
 ! R52   R(37,52)                2.3066         calculate D2E/DX2 analytically  !
 ! R53   R(43,51)                1.4719         calculate D2E/DX2 analytically  !
 ! R54   R(44,63)                1.4315         calculate D2E/DX2 analytically  !
 ! R55   R(45,67)                1.4248         calculate D2E/DX2 analytically  !
 ! R56   R(46,71)                1.4257         calculate D2E/DX2 analytically  !
 ! R57   R(47,48)                1.1026         calculate D2E/DX2 analytically  !
 ! R58   R(47,49)                1.1035         calculate D2E/DX2 analytically  !
 ! R59   R(47,50)                1.4102         calculate D2E/DX2 analytically  !
 ! R60   R(50,75)                1.4188         calculate D2E/DX2 analytically  !
 ! R61   R(51,52)                1.4944         calculate D2E/DX2 analytically  !
 ! R62   R(51,53)                1.5065         calculate D2E/DX2 analytically  !
 ! R63   R(51,54)                1.8108         calculate D2E/DX2 analytically  !
 ! R64   R(52,83)                2.3488         calculate D2E/DX2 analytically  !
 ! R65   R(54,55)                1.3962         calculate D2E/DX2 analytically  !
 ! R66   R(54,56)                1.3974         calculate D2E/DX2 analytically  !
 ! R67   R(55,57)                1.4002         calculate D2E/DX2 analytically  !
 ! R68   R(55,58)                1.0864         calculate D2E/DX2 analytically  !
 ! R69   R(56,59)                1.3973         calculate D2E/DX2 analytically  !
 ! R70   R(56,60)                1.0851         calculate D2E/DX2 analytically  !
 ! R71   R(57,61)                1.3983         calculate D2E/DX2 analytically  !
 ! R72   R(57,93)                1.5116         calculate D2E/DX2 analytically  !
 ! R73   R(59,61)                1.3991         calculate D2E/DX2 analytically  !
 ! R74   R(59,97)                1.5111         calculate D2E/DX2 analytically  !
 ! R75   R(61,62)                1.0859         calculate D2E/DX2 analytically  !
 ! R76   R(63,64)                1.0987         calculate D2E/DX2 analytically  !
 ! R77   R(63,65)                1.0949         calculate D2E/DX2 analytically  !
 ! R78   R(63,66)                1.0939         calculate D2E/DX2 analytically  !
 ! R79   R(67,68)                1.0972         calculate D2E/DX2 analytically  !
 ! R80   R(67,69)                1.1009         calculate D2E/DX2 analytically  !
 ! R81   R(67,70)                1.0944         calculate D2E/DX2 analytically  !
 ! R82   R(71,72)                1.0987         calculate D2E/DX2 analytically  !
 ! R83   R(71,73)                1.0998         calculate D2E/DX2 analytically  !
 ! R84   R(71,74)                1.094          calculate D2E/DX2 analytically  !
 ! R85   R(75,76)                1.0936         calculate D2E/DX2 analytically  !
 ! R86   R(75,77)                1.1016         calculate D2E/DX2 analytically  !
 ! R87   R(75,78)                1.1017         calculate D2E/DX2 analytically  !
 ! R88   R(79,80)                1.0937         calculate D2E/DX2 analytically  !
 ! R89   R(79,81)                1.0983         calculate D2E/DX2 analytically  !
 ! R90   R(79,82)                1.1015         calculate D2E/DX2 analytically  !
 ! R91   R(83,84)                2.3351         calculate D2E/DX2 analytically  !
 ! R92   R(84,85)                1.4188         calculate D2E/DX2 analytically  !
 ! R93   R(84,89)                1.4244         calculate D2E/DX2 analytically  !
 ! R94   R(85,86)                1.1011         calculate D2E/DX2 analytically  !
 ! R95   R(85,87)                1.0942         calculate D2E/DX2 analytically  !
 ! R96   R(85,88)                1.101          calculate D2E/DX2 analytically  !
 ! R97   R(89,90)                1.1009         calculate D2E/DX2 analytically  !
 ! R98   R(89,91)                1.0952         calculate D2E/DX2 analytically  !
 ! R99   R(89,92)                1.1014         calculate D2E/DX2 analytically  !
 ! R100  R(93,94)                1.3547         calculate D2E/DX2 analytically  !
 ! R101  R(93,95)                1.3476         calculate D2E/DX2 analytically  !
 ! R102  R(93,96)                1.3472         calculate D2E/DX2 analytically  !
 ! R103  R(97,98)                1.3514         calculate D2E/DX2 analytically  !
 ! R104  R(97,99)                1.3506         calculate D2E/DX2 analytically  !
 ! R105  R(97,100)               1.3503         calculate D2E/DX2 analytically  !
 ! A1    A(2,1,5)              110.5896         calculate D2E/DX2 analytically  !
 ! A2    A(2,1,8)              108.2495         calculate D2E/DX2 analytically  !
 ! A3    A(2,1,14)             109.1707         calculate D2E/DX2 analytically  !
 ! A4    A(5,1,8)              108.7984         calculate D2E/DX2 analytically  !
 ! A5    A(5,1,14)             110.0161         calculate D2E/DX2 analytically  !
 ! A6    A(8,1,14)             109.9926         calculate D2E/DX2 analytically  !
 ! A7    A(1,2,3)              109.8034         calculate D2E/DX2 analytically  !
 ! A8    A(1,2,7)              109.0085         calculate D2E/DX2 analytically  !
 ! A9    A(1,2,13)             112.0062         calculate D2E/DX2 analytically  !
 ! A10   A(3,2,7)              106.5867         calculate D2E/DX2 analytically  !
 ! A11   A(3,2,13)             108.8791         calculate D2E/DX2 analytically  !
 ! A12   A(7,2,13)             110.41           calculate D2E/DX2 analytically  !
 ! A13   A(2,3,6)              110.3051         calculate D2E/DX2 analytically  !
 ! A14   A(2,3,11)             110.0232         calculate D2E/DX2 analytically  !
 ! A15   A(2,3,12)             108.7403         calculate D2E/DX2 analytically  !
 ! A16   A(6,3,11)             104.7858         calculate D2E/DX2 analytically  !
 ! A17   A(6,3,12)             110.3025         calculate D2E/DX2 analytically  !
 ! A18   A(11,3,12)            112.6445         calculate D2E/DX2 analytically  !
 ! A19   A(5,4,9)              107.862          calculate D2E/DX2 analytically  !
 ! A20   A(5,4,11)             110.2439         calculate D2E/DX2 analytically  !
 ! A21   A(5,4,16)             113.8751         calculate D2E/DX2 analytically  !
 ! A22   A(9,4,11)             108.8871         calculate D2E/DX2 analytically  !
 ! A23   A(9,4,16)             109.0718         calculate D2E/DX2 analytically  !
 ! A24   A(11,4,16)            106.8127         calculate D2E/DX2 analytically  !
 ! A25   A(1,5,4)              112.1713         calculate D2E/DX2 analytically  !
 ! A26   A(1,5,10)             108.0543         calculate D2E/DX2 analytically  !
 ! A27   A(1,5,15)             109.0495         calculate D2E/DX2 analytically  !
 ! A28   A(4,5,10)             109.0769         calculate D2E/DX2 analytically  !
 ! A29   A(4,5,15)             108.2521         calculate D2E/DX2 analytically  !
 ! A30   A(10,5,15)            110.2363         calculate D2E/DX2 analytically  !
 ! A31   A(3,11,4)             114.9112         calculate D2E/DX2 analytically  !
 ! A32   A(3,12,79)            113.5683         calculate D2E/DX2 analytically  !
 ! A33   A(2,13,20)            114.0374         calculate D2E/DX2 analytically  !
 ! A34   A(1,14,24)            114.2432         calculate D2E/DX2 analytically  !
 ! A35   A(5,15,28)            114.6046         calculate D2E/DX2 analytically  !
 ! A36   A(4,16,17)            105.0018         calculate D2E/DX2 analytically  !
 ! A37   A(4,16,18)            105.0178         calculate D2E/DX2 analytically  !
 ! A38   A(4,16,19)            115.0724         calculate D2E/DX2 analytically  !
 ! A39   A(17,16,18)           104.9371         calculate D2E/DX2 analytically  !
 ! A40   A(17,16,19)           113.9842         calculate D2E/DX2 analytically  !
 ! A41   A(18,16,19)           111.8785         calculate D2E/DX2 analytically  !
 ! A42   A(16,18,91)           106.201          calculate D2E/DX2 analytically  !
 ! A43   A(16,19,37)           126.535          calculate D2E/DX2 analytically  !
 ! A44   A(16,19,83)           112.5335         calculate D2E/DX2 analytically  !
 ! A45   A(37,19,83)            67.5963         calculate D2E/DX2 analytically  !
 ! A46   A(13,20,21)           111.4761         calculate D2E/DX2 analytically  !
 ! A47   A(13,20,22)           111.7394         calculate D2E/DX2 analytically  !
 ! A48   A(13,20,23)           106.6571         calculate D2E/DX2 analytically  !
 ! A49   A(21,20,22)           108.7988         calculate D2E/DX2 analytically  !
 ! A50   A(21,20,23)           108.6822         calculate D2E/DX2 analytically  !
 ! A51   A(22,20,23)           109.4139         calculate D2E/DX2 analytically  !
 ! A52   A(14,24,25)           111.6091         calculate D2E/DX2 analytically  !
 ! A53   A(14,24,26)           111.3994         calculate D2E/DX2 analytically  !
 ! A54   A(14,24,27)           106.446          calculate D2E/DX2 analytically  !
 ! A55   A(25,24,26)           108.9212         calculate D2E/DX2 analytically  !
 ! A56   A(25,24,27)           109.247          calculate D2E/DX2 analytically  !
 ! A57   A(26,24,27)           109.1527         calculate D2E/DX2 analytically  !
 ! A58   A(15,28,29)           111.4255         calculate D2E/DX2 analytically  !
 ! A59   A(15,28,30)           112.0145         calculate D2E/DX2 analytically  !
 ! A60   A(15,28,31)           106.5337         calculate D2E/DX2 analytically  !
 ! A61   A(29,28,30)           108.9323         calculate D2E/DX2 analytically  !
 ! A62   A(29,28,31)           109.0076         calculate D2E/DX2 analytically  !
 ! A63   A(30,28,31)           108.8374         calculate D2E/DX2 analytically  !
 ! A64   A(33,32,36)           108.008          calculate D2E/DX2 analytically  !
 ! A65   A(33,32,39)           109.1319         calculate D2E/DX2 analytically  !
 ! A66   A(33,32,45)           108.8917         calculate D2E/DX2 analytically  !
 ! A67   A(36,32,39)           110.1474         calculate D2E/DX2 analytically  !
 ! A68   A(36,32,45)           109.5235         calculate D2E/DX2 analytically  !
 ! A69   A(39,32,45)           111.0731         calculate D2E/DX2 analytically  !
 ! A70   A(32,33,34)           111.4314         calculate D2E/DX2 analytically  !
 ! A71   A(32,33,38)           109.0104         calculate D2E/DX2 analytically  !
 ! A72   A(32,33,44)           115.9539         calculate D2E/DX2 analytically  !
 ! A73   A(34,33,38)           102.5384         calculate D2E/DX2 analytically  !
 ! A74   A(34,33,44)           107.9849         calculate D2E/DX2 analytically  !
 ! A75   A(38,33,44)           109.0612         calculate D2E/DX2 analytically  !
 ! A76   A(33,34,37)           120.693          calculate D2E/DX2 analytically  !
 ! A77   A(33,34,42)           123.0196         calculate D2E/DX2 analytically  !
 ! A78   A(33,34,53)            97.1141         calculate D2E/DX2 analytically  !
 ! A79   A(37,34,42)           114.5761         calculate D2E/DX2 analytically  !
 ! A80   A(37,34,53)            87.2504         calculate D2E/DX2 analytically  !
 ! A81   A(42,34,53)            98.2573         calculate D2E/DX2 analytically  !
 ! A82   A(36,35,40)           109.2708         calculate D2E/DX2 analytically  !
 ! A83   A(36,35,42)           111.7843         calculate D2E/DX2 analytically  !
 ! A84   A(36,35,47)           115.0703         calculate D2E/DX2 analytically  !
 ! A85   A(40,35,42)           104.6981         calculate D2E/DX2 analytically  !
 ! A86   A(40,35,47)           109.0949         calculate D2E/DX2 analytically  !
 ! A87   A(42,35,47)           106.3788         calculate D2E/DX2 analytically  !
 ! A88   A(32,36,35)           111.0248         calculate D2E/DX2 analytically  !
 ! A89   A(32,36,41)           108.4854         calculate D2E/DX2 analytically  !
 ! A90   A(32,36,46)           110.5276         calculate D2E/DX2 analytically  !
 ! A91   A(35,36,41)           109.2732         calculate D2E/DX2 analytically  !
 ! A92   A(35,36,46)           106.738          calculate D2E/DX2 analytically  !
 ! A93   A(41,36,46)           110.7918         calculate D2E/DX2 analytically  !
 ! A94   A(19,37,34)           100.0117         calculate D2E/DX2 analytically  !
 ! A95   A(19,37,52)           117.9205         calculate D2E/DX2 analytically  !
 ! A96   A(34,37,52)           127.7187         calculate D2E/DX2 analytically  !
 ! A97   A(34,42,35)           121.7796         calculate D2E/DX2 analytically  !
 ! A98   A(33,44,63)           114.9328         calculate D2E/DX2 analytically  !
 ! A99   A(32,45,67)           114.2191         calculate D2E/DX2 analytically  !
 ! A100  A(36,46,71)           114.0487         calculate D2E/DX2 analytically  !
 ! A101  A(35,47,48)           107.9463         calculate D2E/DX2 analytically  !
 ! A102  A(35,47,49)           108.9011         calculate D2E/DX2 analytically  !
 ! A103  A(35,47,50)           109.1387         calculate D2E/DX2 analytically  !
 ! A104  A(48,47,49)           107.975          calculate D2E/DX2 analytically  !
 ! A105  A(48,47,50)           111.531          calculate D2E/DX2 analytically  !
 ! A106  A(49,47,50)           111.2571         calculate D2E/DX2 analytically  !
 ! A107  A(47,50,75)           112.3328         calculate D2E/DX2 analytically  !
 ! A108  A(43,51,52)           114.4923         calculate D2E/DX2 analytically  !
 ! A109  A(43,51,53)           113.8004         calculate D2E/DX2 analytically  !
 ! A110  A(43,51,54)           106.698          calculate D2E/DX2 analytically  !
 ! A111  A(52,51,53)           112.0616         calculate D2E/DX2 analytically  !
 ! A112  A(52,51,54)           104.2826         calculate D2E/DX2 analytically  !
 ! A113  A(53,51,54)           104.3195         calculate D2E/DX2 analytically  !
 ! A114  A(37,52,51)            92.6668         calculate D2E/DX2 analytically  !
 ! A115  A(37,52,83)            62.9674         calculate D2E/DX2 analytically  !
 ! A116  A(51,52,83)           140.1778         calculate D2E/DX2 analytically  !
 ! A117  A(34,53,51)           114.7479         calculate D2E/DX2 analytically  !
 ! A118  A(51,54,55)           119.4131         calculate D2E/DX2 analytically  !
 ! A119  A(51,54,56)           119.6054         calculate D2E/DX2 analytically  !
 ! A120  A(55,54,56)           120.8997         calculate D2E/DX2 analytically  !
 ! A121  A(54,55,57)           119.1492         calculate D2E/DX2 analytically  !
 ! A122  A(54,55,58)           120.0417         calculate D2E/DX2 analytically  !
 ! A123  A(57,55,58)           120.8065         calculate D2E/DX2 analytically  !
 ! A124  A(54,56,59)           119.3085         calculate D2E/DX2 analytically  !
 ! A125  A(54,56,60)           120.1863         calculate D2E/DX2 analytically  !
 ! A126  A(59,56,60)           120.5052         calculate D2E/DX2 analytically  !
 ! A127  A(55,57,61)           120.6786         calculate D2E/DX2 analytically  !
 ! A128  A(55,57,93)           119.4466         calculate D2E/DX2 analytically  !
 ! A129  A(61,57,93)           119.8028         calculate D2E/DX2 analytically  !
 ! A130  A(56,59,61)           120.6128         calculate D2E/DX2 analytically  !
 ! A131  A(56,59,97)           120.0607         calculate D2E/DX2 analytically  !
 ! A132  A(61,59,97)           119.2642         calculate D2E/DX2 analytically  !
 ! A133  A(57,61,59)           119.3467         calculate D2E/DX2 analytically  !
 ! A134  A(57,61,62)           120.2514         calculate D2E/DX2 analytically  !
 ! A135  A(59,61,62)           120.4017         calculate D2E/DX2 analytically  !
 ! A136  A(44,63,64)           110.9709         calculate D2E/DX2 analytically  !
 ! A137  A(44,63,65)           111.3787         calculate D2E/DX2 analytically  !
 ! A138  A(44,63,66)           106.1273         calculate D2E/DX2 analytically  !
 ! A139  A(64,63,65)           109.2063         calculate D2E/DX2 analytically  !
 ! A140  A(64,63,66)           109.1813         calculate D2E/DX2 analytically  !
 ! A141  A(65,63,66)           109.9193         calculate D2E/DX2 analytically  !
 ! A142  A(45,67,68)           111.5006         calculate D2E/DX2 analytically  !
 ! A143  A(45,67,69)           111.1421         calculate D2E/DX2 analytically  !
 ! A144  A(45,67,70)           106.3875         calculate D2E/DX2 analytically  !
 ! A145  A(68,67,69)           109.2046         calculate D2E/DX2 analytically  !
 ! A146  A(68,67,70)           109.492          calculate D2E/DX2 analytically  !
 ! A147  A(69,67,70)           109.0459         calculate D2E/DX2 analytically  !
 ! A148  A(46,71,72)           111.1132         calculate D2E/DX2 analytically  !
 ! A149  A(46,71,73)           111.256          calculate D2E/DX2 analytically  !
 ! A150  A(46,71,74)           106.4397         calculate D2E/DX2 analytically  !
 ! A151  A(72,71,73)           109.2251         calculate D2E/DX2 analytically  !
 ! A152  A(72,71,74)           109.4032         calculate D2E/DX2 analytically  !
 ! A153  A(73,71,74)           109.3461         calculate D2E/DX2 analytically  !
 ! A154  A(50,75,76)           106.9236         calculate D2E/DX2 analytically  !
 ! A155  A(50,75,77)           111.2993         calculate D2E/DX2 analytically  !
 ! A156  A(50,75,78)           111.3285         calculate D2E/DX2 analytically  !
 ! A157  A(76,75,77)           109.2419         calculate D2E/DX2 analytically  !
 ! A158  A(76,75,78)           109.2999         calculate D2E/DX2 analytically  !
 ! A159  A(77,75,78)           108.7039         calculate D2E/DX2 analytically  !
 ! A160  A(12,79,80)           106.6867         calculate D2E/DX2 analytically  !
 ! A161  A(12,79,81)           111.6179         calculate D2E/DX2 analytically  !
 ! A162  A(12,79,82)           110.8641         calculate D2E/DX2 analytically  !
 ! A163  A(80,79,81)           109.4131         calculate D2E/DX2 analytically  !
 ! A164  A(80,79,82)           109.2326         calculate D2E/DX2 analytically  !
 ! A165  A(81,79,82)           108.9753         calculate D2E/DX2 analytically  !
 ! A166  A(19,83,52)           109.0456         calculate D2E/DX2 analytically  !
 ! A167  A(19,83,84)           101.9415         calculate D2E/DX2 analytically  !
 ! A168  A(52,83,84)           146.9104         calculate D2E/DX2 analytically  !
 ! A169  A(83,84,85)           134.9247         calculate D2E/DX2 analytically  !
 ! A170  A(83,84,89)           111.884          calculate D2E/DX2 analytically  !
 ! A171  A(85,84,89)           112.7902         calculate D2E/DX2 analytically  !
 ! A172  A(84,85,86)           110.977          calculate D2E/DX2 analytically  !
 ! A173  A(84,85,87)           107.3162         calculate D2E/DX2 analytically  !
 ! A174  A(84,85,88)           111.0706         calculate D2E/DX2 analytically  !
 ! A175  A(86,85,87)           109.3014         calculate D2E/DX2 analytically  !
 ! A176  A(86,85,88)           108.8098         calculate D2E/DX2 analytically  !
 ! A177  A(87,85,88)           109.3322         calculate D2E/DX2 analytically  !
 ! A178  A(84,89,90)           110.7988         calculate D2E/DX2 analytically  !
 ! A179  A(84,89,91)           106.382          calculate D2E/DX2 analytically  !
 ! A180  A(84,89,92)           110.6785         calculate D2E/DX2 analytically  !
 ! A181  A(90,89,91)           110.0443         calculate D2E/DX2 analytically  !
 ! A182  A(90,89,92)           108.885          calculate D2E/DX2 analytically  !
 ! A183  A(91,89,92)           110.0356         calculate D2E/DX2 analytically  !
 ! A184  A(18,91,89)           127.8682         calculate D2E/DX2 analytically  !
 ! A185  A(57,93,94)           111.2622         calculate D2E/DX2 analytically  !
 ! A186  A(57,93,95)           111.9693         calculate D2E/DX2 analytically  !
 ! A187  A(57,93,96)           111.8032         calculate D2E/DX2 analytically  !
 ! A188  A(94,93,95)           106.902          calculate D2E/DX2 analytically  !
 ! A189  A(94,93,96)           106.8651         calculate D2E/DX2 analytically  !
 ! A190  A(95,93,96)           107.7554         calculate D2E/DX2 analytically  !
 ! A191  A(59,97,98)           112.1991         calculate D2E/DX2 analytically  !
 ! A192  A(59,97,99)           111.4506         calculate D2E/DX2 analytically  !
 ! A193  A(59,97,100)          111.7695         calculate D2E/DX2 analytically  !
 ! A194  A(98,97,99)           106.8519         calculate D2E/DX2 analytically  !
 ! A195  A(98,97,100)          107.5503         calculate D2E/DX2 analytically  !
 ! A196  A(99,97,100)          106.7061         calculate D2E/DX2 analytically  !
 ! D1    D(5,1,2,3)            -52.8932         calculate D2E/DX2 analytically  !
 ! D2    D(5,1,2,7)             63.5274         calculate D2E/DX2 analytically  !
 ! D3    D(5,1,2,13)          -173.9887         calculate D2E/DX2 analytically  !
 ! D4    D(8,1,2,3)             66.2066         calculate D2E/DX2 analytically  !
 ! D5    D(8,1,2,7)           -177.3728         calculate D2E/DX2 analytically  !
 ! D6    D(8,1,2,13)           -54.889          calculate D2E/DX2 analytically  !
 ! D7    D(14,1,2,3)          -174.0722         calculate D2E/DX2 analytically  !
 ! D8    D(14,1,2,7)           -57.6516         calculate D2E/DX2 analytically  !
 ! D9    D(14,1,2,13)           64.8323         calculate D2E/DX2 analytically  !
 ! D10   D(2,1,5,4)             50.1827         calculate D2E/DX2 analytically  !
 ! D11   D(2,1,5,10)           -70.0853         calculate D2E/DX2 analytically  !
 ! D12   D(2,1,5,15)           170.0842         calculate D2E/DX2 analytically  !
 ! D13   D(8,1,5,4)            -68.5843         calculate D2E/DX2 analytically  !
 ! D14   D(8,1,5,10)           171.1477         calculate D2E/DX2 analytically  !
 ! D15   D(8,1,5,15)            51.3172         calculate D2E/DX2 analytically  !
 ! D16   D(14,1,5,4)           170.8595         calculate D2E/DX2 analytically  !
 ! D17   D(14,1,5,10)           50.5915         calculate D2E/DX2 analytically  !
 ! D18   D(14,1,5,15)          -69.2391         calculate D2E/DX2 analytically  !
 ! D19   D(2,1,14,24)         -131.2152         calculate D2E/DX2 analytically  !
 ! D20   D(5,1,14,24)          107.2576         calculate D2E/DX2 analytically  !
 ! D21   D(8,1,14,24)          -12.5761         calculate D2E/DX2 analytically  !
 ! D22   D(1,2,3,6)            172.8732         calculate D2E/DX2 analytically  !
 ! D23   D(1,2,3,11)            57.7563         calculate D2E/DX2 analytically  !
 ! D24   D(1,2,3,12)           -66.0483         calculate D2E/DX2 analytically  !
 ! D25   D(7,2,3,6)             54.9383         calculate D2E/DX2 analytically  !
 ! D26   D(7,2,3,11)           -60.1786         calculate D2E/DX2 analytically  !
 ! D27   D(7,2,3,12)           176.0168         calculate D2E/DX2 analytically  !
 ! D28   D(13,2,3,6)           -64.1676         calculate D2E/DX2 analytically  !
 ! D29   D(13,2,3,11)         -179.2845         calculate D2E/DX2 analytically  !
 ! D30   D(13,2,3,12)           56.9109         calculate D2E/DX2 analytically  !
 ! D31   D(1,2,13,20)          -99.9653         calculate D2E/DX2 analytically  !
 ! D32   D(3,2,13,20)          138.4068         calculate D2E/DX2 analytically  !
 ! D33   D(7,2,13,20)           21.7176         calculate D2E/DX2 analytically  !
 ! D34   D(2,3,11,4)           -61.6408         calculate D2E/DX2 analytically  !
 ! D35   D(6,3,11,4)           179.7923         calculate D2E/DX2 analytically  !
 ! D36   D(12,3,11,4)           59.8621         calculate D2E/DX2 analytically  !
 ! D37   D(2,3,12,79)         -171.081          calculate D2E/DX2 analytically  !
 ! D38   D(6,3,12,79)          -50.0008         calculate D2E/DX2 analytically  !
 ! D39   D(11,3,12,79)          66.6901         calculate D2E/DX2 analytically  !
 ! D40   D(9,4,5,1)             68.2325         calculate D2E/DX2 analytically  !
 ! D41   D(9,4,5,10)          -172.0952         calculate D2E/DX2 analytically  !
 ! D42   D(9,4,5,15)           -52.1327         calculate D2E/DX2 analytically  !
 ! D43   D(11,4,5,1)           -50.5403         calculate D2E/DX2 analytically  !
 ! D44   D(11,4,5,10)           69.1321         calculate D2E/DX2 analytically  !
 ! D45   D(11,4,5,15)         -170.9054         calculate D2E/DX2 analytically  !
 ! D46   D(16,4,5,1)          -170.565          calculate D2E/DX2 analytically  !
 ! D47   D(16,4,5,10)          -50.8927         calculate D2E/DX2 analytically  !
 ! D48   D(16,4,5,15)           69.0698         calculate D2E/DX2 analytically  !
 ! D49   D(5,4,11,3)            57.564          calculate D2E/DX2 analytically  !
 ! D50   D(9,4,11,3)           -60.5805         calculate D2E/DX2 analytically  !
 ! D51   D(16,4,11,3)         -178.2354         calculate D2E/DX2 analytically  !
 ! D52   D(5,4,16,17)          -57.2352         calculate D2E/DX2 analytically  !
 ! D53   D(5,4,16,18)         -167.6115         calculate D2E/DX2 analytically  !
 ! D54   D(5,4,16,19)           68.9206         calculate D2E/DX2 analytically  !
 ! D55   D(9,4,16,17)           63.2912         calculate D2E/DX2 analytically  !
 ! D56   D(9,4,16,18)          -47.0851         calculate D2E/DX2 analytically  !
 ! D57   D(9,4,16,19)         -170.553          calculate D2E/DX2 analytically  !
 ! D58   D(11,4,16,17)        -179.1755         calculate D2E/DX2 analytically  !
 ! D59   D(11,4,16,18)          70.4481         calculate D2E/DX2 analytically  !
 ! D60   D(11,4,16,19)         -53.0197         calculate D2E/DX2 analytically  !
 ! D61   D(1,5,15,28)          114.58           calculate D2E/DX2 analytically  !
 ! D62   D(4,5,15,28)         -123.1258         calculate D2E/DX2 analytically  !
 ! D63   D(10,5,15,28)          -3.8924         calculate D2E/DX2 analytically  !
 ! D64   D(3,12,79,80)         175.4727         calculate D2E/DX2 analytically  !
 ! D65   D(3,12,79,81)         -65.053          calculate D2E/DX2 analytically  !
 ! D66   D(3,12,79,82)          56.6389         calculate D2E/DX2 analytically  !
 ! D67   D(2,13,20,21)         -60.8856         calculate D2E/DX2 analytically  !
 ! D68   D(2,13,20,22)          61.0983         calculate D2E/DX2 analytically  !
 ! D69   D(2,13,20,23)        -179.3758         calculate D2E/DX2 analytically  !
 ! D70   D(1,14,24,25)         -58.1881         calculate D2E/DX2 analytically  !
 ! D71   D(1,14,24,26)          63.8063         calculate D2E/DX2 analytically  !
 ! D72   D(1,14,24,27)        -177.3063         calculate D2E/DX2 analytically  !
 ! D73   D(5,15,28,29)         -58.7037         calculate D2E/DX2 analytically  !
 ! D74   D(5,15,28,30)          63.6136         calculate D2E/DX2 analytically  !
 ! D75   D(5,15,28,31)        -177.4839         calculate D2E/DX2 analytically  !
 ! D76   D(4,16,18,91)        -123.0335         calculate D2E/DX2 analytically  !
 ! D77   D(17,16,18,91)        126.5436         calculate D2E/DX2 analytically  !
 ! D78   D(19,16,18,91)          2.4547         calculate D2E/DX2 analytically  !
 ! D79   D(4,16,19,37)         -32.6162         calculate D2E/DX2 analytically  !
 ! D80   D(4,16,19,83)          45.4871         calculate D2E/DX2 analytically  !
 ! D81   D(17,16,19,37)         88.7784         calculate D2E/DX2 analytically  !
 ! D82   D(17,16,19,83)        166.8817         calculate D2E/DX2 analytically  !
 ! D83   D(18,16,19,37)       -152.3617         calculate D2E/DX2 analytically  !
 ! D84   D(18,16,19,83)        -74.2584         calculate D2E/DX2 analytically  !
 ! D85   D(16,18,91,89)        134.2645         calculate D2E/DX2 analytically  !
 ! D86   D(16,19,37,34)       -128.1849         calculate D2E/DX2 analytically  !
 ! D87   D(16,19,37,52)         89.0049         calculate D2E/DX2 analytically  !
 ! D88   D(83,19,37,34)        129.6665         calculate D2E/DX2 analytically  !
 ! D89   D(83,19,37,52)        -13.1437         calculate D2E/DX2 analytically  !
 ! D90   D(16,19,83,52)       -109.6938         calculate D2E/DX2 analytically  !
 ! D91   D(16,19,83,84)         82.0826         calculate D2E/DX2 analytically  !
 ! D92   D(37,19,83,52)         12.0484         calculate D2E/DX2 analytically  !
 ! D93   D(37,19,83,84)       -156.1752         calculate D2E/DX2 analytically  !
 ! D94   D(36,32,33,34)        -48.625          calculate D2E/DX2 analytically  !
 ! D95   D(36,32,33,38)         63.8271         calculate D2E/DX2 analytically  !
 ! D96   D(36,32,33,44)       -172.6784         calculate D2E/DX2 analytically  !
 ! D97   D(39,32,33,34)         71.1188         calculate D2E/DX2 analytically  !
 ! D98   D(39,32,33,38)       -176.4291         calculate D2E/DX2 analytically  !
 ! D99   D(39,32,33,44)        -52.9346         calculate D2E/DX2 analytically  !
 ! D100  D(45,32,33,34)       -167.4844         calculate D2E/DX2 analytically  !
 ! D101  D(45,32,33,38)        -55.0322         calculate D2E/DX2 analytically  !
 ! D102  D(45,32,33,44)         68.4622         calculate D2E/DX2 analytically  !
 ! D103  D(33,32,36,35)         58.6994         calculate D2E/DX2 analytically  !
 ! D104  D(33,32,36,41)        -61.3898         calculate D2E/DX2 analytically  !
 ! D105  D(33,32,36,46)        176.9529         calculate D2E/DX2 analytically  !
 ! D106  D(39,32,36,35)        -60.4018         calculate D2E/DX2 analytically  !
 ! D107  D(39,32,36,41)        179.509          calculate D2E/DX2 analytically  !
 ! D108  D(39,32,36,46)         57.8517         calculate D2E/DX2 analytically  !
 ! D109  D(45,32,36,35)        177.156          calculate D2E/DX2 analytically  !
 ! D110  D(45,32,36,41)         57.0669         calculate D2E/DX2 analytically  !
 ! D111  D(45,32,36,46)        -64.5905         calculate D2E/DX2 analytically  !
 ! D112  D(33,32,45,67)       -138.717          calculate D2E/DX2 analytically  !
 ! D113  D(36,32,45,67)        103.3767         calculate D2E/DX2 analytically  !
 ! D114  D(39,32,45,67)        -18.512          calculate D2E/DX2 analytically  !
 ! D115  D(32,33,34,37)       -162.114          calculate D2E/DX2 analytically  !
 ! D116  D(32,33,34,42)         33.6076         calculate D2E/DX2 analytically  !
 ! D117  D(32,33,34,53)        -71.0903         calculate D2E/DX2 analytically  !
 ! D118  D(38,33,34,37)         81.4126         calculate D2E/DX2 analytically  !
 ! D119  D(38,33,34,42)        -82.8658         calculate D2E/DX2 analytically  !
 ! D120  D(38,33,34,53)        172.4362         calculate D2E/DX2 analytically  !
 ! D121  D(44,33,34,37)        -33.671          calculate D2E/DX2 analytically  !
 ! D122  D(44,33,34,42)        162.0506         calculate D2E/DX2 analytically  !
 ! D123  D(44,33,34,53)         57.3527         calculate D2E/DX2 analytically  !
 ! D124  D(32,33,44,63)        -78.0882         calculate D2E/DX2 analytically  !
 ! D125  D(34,33,44,63)        156.0907         calculate D2E/DX2 analytically  !
 ! D126  D(38,33,44,63)         45.3798         calculate D2E/DX2 analytically  !
 ! D127  D(33,34,37,19)        -58.5619         calculate D2E/DX2 analytically  !
 ! D128  D(33,34,37,52)         78.9687         calculate D2E/DX2 analytically  !
 ! D129  D(42,34,37,19)        106.9706         calculate D2E/DX2 analytically  !
 ! D130  D(42,34,37,52)       -115.4988         calculate D2E/DX2 analytically  !
 ! D131  D(53,34,37,19)       -155.2047         calculate D2E/DX2 analytically  !
 ! D132  D(53,34,37,52)        -17.6741         calculate D2E/DX2 analytically  !
 ! D133  D(33,34,42,35)        -25.1637         calculate D2E/DX2 analytically  !
 ! D134  D(37,34,42,35)        169.682          calculate D2E/DX2 analytically  !
 ! D135  D(53,34,42,35)         78.9333         calculate D2E/DX2 analytically  !
 ! D136  D(33,34,53,51)       -115.5181         calculate D2E/DX2 analytically  !
 ! D137  D(37,34,53,51)          5.079          calculate D2E/DX2 analytically  !
 ! D138  D(42,34,53,51)        119.521          calculate D2E/DX2 analytically  !
 ! D139  D(40,35,36,32)         65.9894         calculate D2E/DX2 analytically  !
 ! D140  D(40,35,36,41)       -174.3908         calculate D2E/DX2 analytically  !
 ! D141  D(40,35,36,46)        -54.5333         calculate D2E/DX2 analytically  !
 ! D142  D(42,35,36,32)        -49.4264         calculate D2E/DX2 analytically  !
 ! D143  D(42,35,36,41)         70.1934         calculate D2E/DX2 analytically  !
 ! D144  D(42,35,36,46)       -169.9491         calculate D2E/DX2 analytically  !
 ! D145  D(47,35,36,32)       -170.9073         calculate D2E/DX2 analytically  !
 ! D146  D(47,35,36,41)        -51.2876         calculate D2E/DX2 analytically  !
 ! D147  D(47,35,36,46)         68.5699         calculate D2E/DX2 analytically  !
 ! D148  D(36,35,42,34)         32.2413         calculate D2E/DX2 analytically  !
 ! D149  D(40,35,42,34)        -85.9405         calculate D2E/DX2 analytically  !
 ! D150  D(47,35,42,34)        158.6172         calculate D2E/DX2 analytically  !
 ! D151  D(36,35,47,48)        -67.0259         calculate D2E/DX2 analytically  !
 ! D152  D(36,35,47,49)        175.9884         calculate D2E/DX2 analytically  !
 ! D153  D(36,35,47,50)         54.3563         calculate D2E/DX2 analytically  !
 ! D154  D(40,35,47,48)         56.1711         calculate D2E/DX2 analytically  !
 ! D155  D(40,35,47,49)        -60.8147         calculate D2E/DX2 analytically  !
 ! D156  D(40,35,47,50)        177.5532         calculate D2E/DX2 analytically  !
 ! D157  D(42,35,47,48)        168.6041         calculate D2E/DX2 analytically  !
 ! D158  D(42,35,47,49)         51.6183         calculate D2E/DX2 analytically  !
 ! D159  D(42,35,47,50)        -70.0138         calculate D2E/DX2 analytically  !
 ! D160  D(32,36,46,71)        117.8075         calculate D2E/DX2 analytically  !
 ! D161  D(35,36,46,71)       -121.3519         calculate D2E/DX2 analytically  !
 ! D162  D(41,36,46,71)         -2.4785         calculate D2E/DX2 analytically  !
 ! D163  D(19,37,52,51)        160.2942         calculate D2E/DX2 analytically  !
 ! D164  D(19,37,52,83)         13.2168         calculate D2E/DX2 analytically  !
 ! D165  D(34,37,52,51)         29.1023         calculate D2E/DX2 analytically  !
 ! D166  D(34,37,52,83)       -117.9751         calculate D2E/DX2 analytically  !
 ! D167  D(33,44,63,64)        -42.1051         calculate D2E/DX2 analytically  !
 ! D168  D(33,44,63,65)         79.7911         calculate D2E/DX2 analytically  !
 ! D169  D(33,44,63,66)       -160.6016         calculate D2E/DX2 analytically  !
 ! D170  D(32,45,67,68)        -59.2251         calculate D2E/DX2 analytically  !
 ! D171  D(32,45,67,69)         62.8746         calculate D2E/DX2 analytically  !
 ! D172  D(32,45,67,70)       -178.5434         calculate D2E/DX2 analytically  !
 ! D173  D(36,46,71,72)        -62.8026         calculate D2E/DX2 analytically  !
 ! D174  D(36,46,71,73)         59.1316         calculate D2E/DX2 analytically  !
 ! D175  D(36,46,71,74)        178.1694         calculate D2E/DX2 analytically  !
 ! D176  D(35,47,50,75)        178.2995         calculate D2E/DX2 analytically  !
 ! D177  D(48,47,50,75)        -62.5217         calculate D2E/DX2 analytically  !
 ! D178  D(49,47,50,75)         58.1058         calculate D2E/DX2 analytically  !
 ! D179  D(47,50,75,76)        179.8982         calculate D2E/DX2 analytically  !
 ! D180  D(47,50,75,77)        -60.8692         calculate D2E/DX2 analytically  !
 ! D181  D(47,50,75,78)         60.5786         calculate D2E/DX2 analytically  !
 ! D182  D(43,51,52,37)       -148.7553         calculate D2E/DX2 analytically  !
 ! D183  D(43,51,52,83)        -99.6454         calculate D2E/DX2 analytically  !
 ! D184  D(53,51,52,37)        -17.2171         calculate D2E/DX2 analytically  !
 ! D185  D(53,51,52,83)         31.8928         calculate D2E/DX2 analytically  !
 ! D186  D(54,51,52,37)         95.027          calculate D2E/DX2 analytically  !
 ! D187  D(54,51,52,83)        144.1369         calculate D2E/DX2 analytically  !
 ! D188  D(43,51,53,34)        146.0651         calculate D2E/DX2 analytically  !
 ! D189  D(52,51,53,34)         14.1789         calculate D2E/DX2 analytically  !
 ! D190  D(54,51,53,34)        -98.0421         calculate D2E/DX2 analytically  !
 ! D191  D(43,51,54,55)        -34.4194         calculate D2E/DX2 analytically  !
 ! D192  D(43,51,54,56)        148.8396         calculate D2E/DX2 analytically  !
 ! D193  D(52,51,54,55)         87.1139         calculate D2E/DX2 analytically  !
 ! D194  D(52,51,54,56)        -89.6272         calculate D2E/DX2 analytically  !
 ! D195  D(53,51,54,55)       -155.1764         calculate D2E/DX2 analytically  !
 ! D196  D(53,51,54,56)         28.0826         calculate D2E/DX2 analytically  !
 ! D197  D(37,52,83,19)        -11.3034         calculate D2E/DX2 analytically  !
 ! D198  D(37,52,83,84)        147.2433         calculate D2E/DX2 analytically  !
 ! D199  D(51,52,83,19)        -69.2732         calculate D2E/DX2 analytically  !
 ! D200  D(51,52,83,84)         89.2735         calculate D2E/DX2 analytically  !
 ! D201  D(51,54,55,57)       -175.9311         calculate D2E/DX2 analytically  !
 ! D202  D(51,54,55,58)          4.6452         calculate D2E/DX2 analytically  !
 ! D203  D(56,54,55,57)          0.7667         calculate D2E/DX2 analytically  !
 ! D204  D(56,54,55,58)       -178.657          calculate D2E/DX2 analytically  !
 ! D205  D(51,54,56,59)        176.3197         calculate D2E/DX2 analytically  !
 ! D206  D(51,54,56,60)         -3.5822         calculate D2E/DX2 analytically  !
 ! D207  D(55,54,56,59)         -0.3718         calculate D2E/DX2 analytically  !
 ! D208  D(55,54,56,60)        179.7262         calculate D2E/DX2 analytically  !
 ! D209  D(54,55,57,61)         -0.594          calculate D2E/DX2 analytically  !
 ! D210  D(54,55,57,93)        176.3147         calculate D2E/DX2 analytically  !
 ! D211  D(58,55,57,61)        178.8251         calculate D2E/DX2 analytically  !
 ! D212  D(58,55,57,93)         -4.2662         calculate D2E/DX2 analytically  !
 ! D213  D(54,56,59,61)         -0.2052         calculate D2E/DX2 analytically  !
 ! D214  D(54,56,59,97)        176.902          calculate D2E/DX2 analytically  !
 ! D215  D(60,56,59,61)        179.6965         calculate D2E/DX2 analytically  !
 ! D216  D(60,56,59,97)         -3.1963         calculate D2E/DX2 analytically  !
 ! D217  D(55,57,61,59)          0.0313         calculate D2E/DX2 analytically  !
 ! D218  D(55,57,61,62)       -179.8166         calculate D2E/DX2 analytically  !
 ! D219  D(93,57,61,59)       -176.8664         calculate D2E/DX2 analytically  !
 ! D220  D(93,57,61,62)          3.2857         calculate D2E/DX2 analytically  !
 ! D221  D(55,57,93,94)        -85.1821         calculate D2E/DX2 analytically  !
 ! D222  D(55,57,93,95)        155.2553         calculate D2E/DX2 analytically  !
 ! D223  D(55,57,93,96)         34.2216         calculate D2E/DX2 analytically  !
 ! D224  D(61,57,93,94)         91.7541         calculate D2E/DX2 analytically  !
 ! D225  D(61,57,93,95)        -27.8085         calculate D2E/DX2 analytically  !
 ! D226  D(61,57,93,96)       -148.8423         calculate D2E/DX2 analytically  !
 ! D227  D(56,59,61,57)          0.3727         calculate D2E/DX2 analytically  !
 ! D228  D(56,59,61,62)       -179.7796         calculate D2E/DX2 analytically  !
 ! D229  D(97,59,61,57)       -176.7573         calculate D2E/DX2 analytically  !
 ! D230  D(97,59,61,62)          3.0904         calculate D2E/DX2 analytically  !
 ! D231  D(56,59,97,98)         22.1749         calculate D2E/DX2 analytically  !
 ! D232  D(56,59,97,99)        -97.6103         calculate D2E/DX2 analytically  !
 ! D233  D(56,59,97,100)       143.0829         calculate D2E/DX2 analytically  !
 ! D234  D(61,59,97,98)       -160.679          calculate D2E/DX2 analytically  !
 ! D235  D(61,59,97,99)         79.5359         calculate D2E/DX2 analytically  !
 ! D236  D(61,59,97,100)       -39.7709         calculate D2E/DX2 analytically  !
 ! D237  D(19,83,84,85)       -172.6383         calculate D2E/DX2 analytically  !
 ! D238  D(19,83,84,89)         -0.6692         calculate D2E/DX2 analytically  !
 ! D239  D(52,83,84,85)         28.0552         calculate D2E/DX2 analytically  !
 ! D240  D(52,83,84,89)       -159.9757         calculate D2E/DX2 analytically  !
 ! D241  D(83,84,85,86)       -127.4488         calculate D2E/DX2 analytically  !
 ! D242  D(83,84,85,87)         -8.0859         calculate D2E/DX2 analytically  !
 ! D243  D(83,84,85,88)        111.3683         calculate D2E/DX2 analytically  !
 ! D244  D(89,84,85,86)         60.6348         calculate D2E/DX2 analytically  !
 ! D245  D(89,84,85,87)        179.9977         calculate D2E/DX2 analytically  !
 ! D246  D(89,84,85,88)        -60.5481         calculate D2E/DX2 analytically  !
 ! D247  D(83,84,89,90)       -113.1196         calculate D2E/DX2 analytically  !
 ! D248  D(83,84,89,91)          6.4722         calculate D2E/DX2 analytically  !
 ! D249  D(83,84,89,92)        125.9871         calculate D2E/DX2 analytically  !
 ! D250  D(85,84,89,90)         60.7211         calculate D2E/DX2 analytically  !
 ! D251  D(85,84,89,91)       -179.6871         calculate D2E/DX2 analytically  !
 ! D252  D(85,84,89,92)        -60.1723         calculate D2E/DX2 analytically  !
 ! D253  D(84,89,91,18)        -87.9067         calculate D2E/DX2 analytically  !
 ! D254  D(90,89,91,18)         32.1749         calculate D2E/DX2 analytically  !
 ! D255  D(92,89,91,18)        152.1607         calculate D2E/DX2 analytically  !
 --------------------------------------------------------------------------------
 Trust Radius=5.00D-02 FncErr=1.00D-07 GrdErr=1.00D-06 EigMax=2.50D+02 EigMin=1.00D-04
 Number of steps in this run=    566 maximum allowed number of steps=    600.
 Search for a saddle point of order  1.
 GradGradGradGradGradGradGradGradGradGradGradGradGradGradGradGradGradGrad

 Leave Link  103 at Wed Jun  5 06:09:38 2019, MaxMem=  6442450944 cpu:              13.0 elap:               0.5
 (Enter /home/ekwan/sw/g16/l202.exe)
 Stoichiometry    C30H47F6NaO15S
 Framework group  C1[X(C30H47F6NaO15S)]
 Deg. of freedom   294
 Full point group                 C1      NOp   1
 Largest Abelian subgroup         C1      NOp   1
 Largest concise Abelian subgroup C1      NOp   1
                         Standard orientation:                         
 ---------------------------------------------------------------------
 Center     Atomic      Atomic             Coordinates (Angstroms)
 Number     Number       Type             X           Y           Z
 ---------------------------------------------------------------------
      1          6           0       -1.996323    1.570081    2.245190
      2          6           0       -2.321635    2.356947    0.965971
      3          6           0       -1.484980    3.648813    0.921191
      4          6           0        0.317802    2.655439    2.192080
      5          6           0       -0.478931    1.347878    2.372727
      6          1           0       -1.615410    4.155372   -0.048471
      7          1           0       -2.023110    1.758712    0.091327
      8          1           0       -2.342183    2.157385    3.108042
      9          1           0        0.104268    3.303182    3.056442
     10          1           0       -0.173174    0.630675    1.597323
     11          8           0       -0.100520    3.334276    0.982720
     12          8           0       -1.894125    4.485708    1.964985
     13          8           0       -3.696785    2.697551    0.886497
     14          8           0       -2.672561    0.313760    2.207399
     15          8           0       -0.192031    0.825107    3.669499
     16          6           0        1.849754    2.446521    2.081929
     17          1           0        2.135640    1.911120    3.015959
     18          1           0        2.289960    3.468529    2.189364
     19          8           0        2.271352    1.825972    0.931302
     20          6           0       -4.456852    1.843021    0.043590
     21          1           0       -4.089496    1.870022   -0.995097
     22          1           0       -4.441141    0.804325    0.397357
     23          1           0       -5.485754    2.218295    0.061722
     24          6           0       -3.386514    0.000104    3.393770
     25          1           0       -2.726092   -0.012652    4.272206
     26          1           0       -4.204205    0.716342    3.572013
     27          1           0       -3.809573   -0.998291    3.245980
     28          6           0        0.324458   -0.497466    3.672726
     29          1           0       -0.371738   -1.201715    3.194816
     30          1           0        1.299543   -0.560695    3.166831
     31          1           0        0.452241   -0.779859    4.724056
     32          6           0        4.061982   -1.373566   -1.266138
     33          6           0        3.319189   -0.081701   -0.874350
     34          6           0        1.994821   -0.384273   -0.221925
     35          6           0        2.610750   -2.635975    0.388273
     36          6           0        4.049569   -2.318286   -0.048464
     37          1           0        1.233836    0.372127   -0.147768
     38          1           0        3.876706    0.422523   -0.063324
     39          1           0        3.544821   -1.843233   -2.115113
     40          1           0        2.112947   -3.214672   -0.399085
     41          1           0        4.579431   -1.827135    0.778752
     42          8           0        1.799404   -1.415891    0.524533
     43          8           0       -0.388348   -0.195969   -3.931744
     44          8           0        3.090333    0.839356   -1.917695
     45          8           0        5.399692   -1.049959   -1.600536
     46          8           0        4.660041   -3.555120   -0.372941
     47          6           0        2.487801   -3.381809    1.706596
     48          1           0        2.910479   -4.390519    1.566955
     49          1           0        1.418661   -3.492179    1.956496
     50          8           0        3.175826   -2.666483    2.708412
     51         16           0       -0.209491   -0.252217   -2.471838
     52          8           0       -0.217357    1.080080   -1.794908
     53          8           0        0.954658   -1.102344   -2.034290
     54          6           0       -1.661386   -1.102133   -1.802157
     55          6           0       -2.903783   -0.922145   -2.413271
     56          6           0       -1.536672   -1.872718   -0.643153
     57          6           0       -4.037249   -1.512400   -1.841006
     58          1           0       -2.981389   -0.338283   -3.326165
     59          6           0       -2.675288   -2.462530   -0.088125
     60          1           0       -0.564702   -2.008601   -0.180270
     61          6           0       -3.930570   -2.283607   -0.679513
     62          1           0       -4.813757   -2.740647   -0.243240
     63          6           0        4.225558    1.630771   -2.283799
     64          1           0        4.770659    1.972144   -1.393047
     65          1           0        4.908767    1.072681   -2.932271
     66          1           0        3.830597    2.499624   -2.818406
     67          6           0        5.901649   -1.743581   -2.739426
     68          1           0        5.871325   -2.830632   -2.593831
     69          1           0        5.332714   -1.483541   -3.645313
     70          1           0        6.939804   -1.420756   -2.864762
     71          6           0        5.827836   -3.844991    0.391897
     72          1           0        6.616148   -3.102203    0.207531
     73          1           0        5.602533   -3.874468    1.468009
     74          1           0        6.174007   -4.830649    0.066954
     75          6           0        3.071899   -3.285585    3.980721
     76          1           0        3.633457   -2.664179    4.683962
     77          1           0        2.022634   -3.349250    4.310249
     78          1           0        3.500634   -4.300338    3.968780
     79          6           0       -1.330666    5.791040    1.901956
     80          1           0       -1.784060    6.368290    2.712758
     81          1           0       -0.240700    5.768150    2.035318
     82          1           0       -1.563660    6.272827    0.939234
     83         11           0        1.276557    2.673602   -0.931284
     84          8           0        2.574099    4.568841   -1.352037
     85          6           0        2.489973    5.660566   -2.254251
     86          1           0        3.429327    5.781059   -2.815896
     87          1           0        1.676128    5.443789   -2.952850
     88          1           0        2.272347    6.598896   -1.720990
     89          6           0        3.605637    4.731800   -0.383366
     90          1           0        3.429140    5.629989    0.228342
     91          1           0        3.580911    3.837054    0.247696
     92          1           0        4.588203    4.821282   -0.872849
     93          6           0       -5.396953   -1.253368   -2.448615
     94          9           0       -5.937707   -0.106503   -1.971759
     95          9           0       -6.269400   -2.242459   -2.172135
     96          9           0       -5.330499   -1.126713   -3.788186
     97          6           0       -2.550412   -3.356128    1.124036
     98          9           0       -1.418426   -3.114930    1.821770
     99          9           0       -2.524999   -4.660673    0.775421
    100          9           0       -3.591214   -3.200658    1.970185
 ---------------------------------------------------------------------
 Rotational constants (GHZ):           0.0558534           0.0422346           0.0356405
 Leave Link  202 at Wed Jun  5 06:09:39 2019, MaxMem=  6442450944 cpu:              10.0 elap:               0.5
 (Enter /home/ekwan/sw/g16/l301.exe)
 Standard basis: 6-31G(d) (6D, 7F)
 Ernie: Thresh=  0.10000D-02 Tol=  0.10000D-05 Strict=F.
 There are   897 symmetry adapted cartesian basis functions of A   symmetry.
 There are   897 symmetry adapted basis functions of A   symmetry.
   897 basis functions,  1720 primitive gaussians,   897 cartesian basis functions
   214 alpha electrons      214 beta electrons
       nuclear repulsion energy      9579.9609661218 Hartrees.
 IExCor= 1614 DFT=T Ex+Corr=B971 ExCW=0 ScaHFX=  0.210000
 ScaDFX=  1.000000  1.000000  1.000000  1.000000 ScalE2=  1.000000  1.000000
 IRadAn=      5 IRanWt=     -1 IRanGd=            0 ICorTp=0 IEmpDi=  4
 NAtoms=  100 NActive=  100 NUniq=  100 SFac= 1.00D+00 NAtFMM=   60 NAOKFM=T Big=T
 Integral buffers will be    131072 words long.
 Raffenetti 2 integral format.
 Two-electron integral symmetry is turned on.
 Force inversion solution in PCM.
 ------------------------------------------------------------------------------
 Polarizable Continuum Model (PCM)
 =================================
 Model                : PCM.
 Atomic radii         : UFF (Universal Force Field).
 Polarization charges : Total charges.
 Charge compensation  : None.
 Solution method      : Matrix inversion.
 Cavity type          : Scaled VdW (van der Waals Surface) (Alpha=1.100).
 Cavity algorithm     : GePol (No added spheres)
                        Default sphere list used, NSphG=  100.
                        Lebedev-Laikov grids with approx.  5.0 points / Ang**2.
                        Smoothing algorithm: York/Karplus (Gamma=1.0000).
                        Polarization charges: spherical gaussians, with
                                              point-specific exponents (IZeta= 3).
                        Self-potential: point-specific (ISelfS= 7).
                        Self-field    : sphere-specific E.n sum rule (ISelfD= 2).
 1st derivatives      : Analytical E(r).r(x)/FMM algorithm (CHGder, D1EAlg=3).
                        Cavity 1st derivative terms included.
 2nd derivatives      : Analytical E(r).r(xy)/FMM algorithm (CHGder, D2EAlg=3).
                        Cavity 2nd derivative terms included.
 Solvent              : TetraHydroFuran, Eps=   7.425700 Eps(inf)=   1.974025
 ------------------------------------------------------------------------------
 GePol: Number of generator spheres                  =     100
 GePol: Total number of spheres                      =     100
 GePol: Number of exposed spheres                    =     100 (100.00%)
 GePol: Number of points                             =    6380
 GePol: Average weight of points                     =       0.12
 GePol: Minimum weight of points                     =   0.17D-10
 GePol: Maximum weight of points                     =    0.21593
 GePol: Number of points with low weight             =     473
 GePol: Fraction of low-weight points (<1% of avg)   =       7.41%
 GePol: Cavity surface area                          =    785.699 Ang**2
 GePol: Cavity volume                                =    991.041 Ang**3
 Leave Link  301 at Wed Jun  5 06:09:39 2019, MaxMem=  6442450944 cpu:               8.9 elap:               0.4
 (Enter /home/ekwan/sw/g16/l302.exe)
[...]
 ,0.00005064,0.00007157,-0.00011649,0.00013779,0.00000152,0.00021267,-0
 .00000182,-0.00004804,-0.00011288,0.00003954,-0.00000493,0.00010030,-0
 .00012801,0.00007176,-0.00007623,0.00011116,-0.00007022,0.00348493,0.0
 0134835,-0.00120515,-0.00083036,-0.00111479,-0.00002828,-0.00162279,0.
 00012150,-0.00011377,-0.00050332,0.00085798,0.00227774,0.00011117,-0.0
 0084379,0.00048209,0.00379325,-0.00106625,0.00089575,0.00001310,0.0006
 9760,0.00215878,0.00009917,-0.00018338,-0.00014752,0.00093536,-0.04413
 252,0.00011783,0.00028169,-0.00070007,-0.00087469,-0.00338174,-0.00084
 965,0.00009376,0.00043761,-0.00079722,-0.00082556,0.00010122,0.0000733
 6,-0.00004645,-0.00001709,-0.00000921,-0.00000520,-0.00002547,-0.00000
 372,0.00001447,0.00000252,-0.00000623,0.00000615,0.00002974,-0.0000547
 6,-0.00006674,-0.00000451,0.00001631,0.00000337,0.00000039,0.00000085,
 0.00000676,-0.00000907,0.00000424,0.00000989,0.00005065,-0.00002268,0.
 00003973,-0.00000349,0.00000425,-0.00000653,-0.00000146,-0.00000818,-0
 .00000907,-0.00002105,0.00001296,0.00000177,0.00004467,-0.00007827,0.0
 0007732,0.00000244,0.00000763,-0.00000641,0.00000218,-0.00001518,0.000
 00468,-0.00003197,0.00003216,-0.00000336,0.00004098,0.00011551,-0.0000
 1048,0.00000114,-0.00002084,-0.00000996,-0.00001593,-0.00000988,0.0000
 0393,-0.00000539,-0.00001510,0.00001277,0.00014806,0.00018807,0.000015
 46,-0.00003475,-0.00004499,0.00000658,0.00000829,0.00003226,-0.0000233
 5,-0.00001028,-0.00000381,0.00000580,-0.00000061,0.00000101,-0.0000043
 4,0.00000080,-0.00000695,-0.00000125,0.00002598,0.00000924,0.00001076,
 -0.00000059,-0.00000668,-0.00000213,0.00002121,0.00001381,-0.00000279,
 -0.00001102,-0.00000572,0.00000709,-0.00280237,0.00016786,-0.00096376,
 0.00079521,-0.00048054,0.00008223,0.00088601,0.00032524,0.00017586,0.0
 0069357,-0.00016253,0.00089185,0.00652830,-0.25822233,-0.02510122,-0.0
 3261600,-0.03134844,-0.03053475,-0.00541687,0.36307061,0.00011812,0.00
 019149,-0.00002109,-0.00005242,-0.00001185,-0.00011605,-0.00000136,0.0
 0000044,-0.00000278,-0.00001541,0.00006822,-0.00004525,-0.00001857,0.0
 0005319,-0.00016016,-0.00000274,-0.00002186,0.00000922,0.00000304,-0.0
 0000972,0.00000626,-0.00001385,-0.00002182,0.00000577,-0.00000717,-0.0
 0000262,0.00000880,-0.00000204,0.00001720,-0.00000613,0.00001430,-0.00
 003824,0.00007162,0.00000188,-0.00000559,0.00002528,0.00007637,0.00004
 770,0.00012427,-0.00007848,-0.00038935,0.00010098,-0.00000208,-0.00033
 521,0.00009177,0.00006613,-0.00002033,-0.00010628,0.00000821,-0.000002
 94,0.00003190,-0.00001868,0.00001084,0.00002592,-0.00003935,0.00005889
 ,0.00013133,-0.00003019,-0.00006825,-0.00011008,-0.00001258,-0.0000397
 2,0.00005737,0.00001746,-0.00000499,-0.00006033,-0.00000554,0.00001775
 ,0.00001172,0.00026470,0.00036495,-0.00011537,-0.00003131,-0.00004890,
 0.00001449,-0.00001937,-0.00012716,-0.00000756,-0.00026299,0.00009924,
 0.00026493,0.00022744,0.00042642,0.00012944,-0.00006809,0.00000583,0.0
 0007178,-0.00006101,-0.00004746,-0.00002825,-0.00003220,-0.00003766,-0
 .00003522,-0.00003945,0.00000768,-0.00002265,0.00000133,0.00001073,0.0
 0000392,-0.00021539,-0.00006883,-0.00040814,-0.00007501,0.00004939,-0.
 00009703,0.00000886,-0.00000872,0.00000478,0.00000505,-0.00001280,-0.0
 0001118,0.00001319,-0.00000183,-0.00000971,-0.00000832,0.00000796,0.00
 001396,-0.00000045,0.00000520,0.00000399,0.00001043,0.00000341,-0.0000
 0025,0.00006579,-0.00010268,0.00019017,0.00035236,0.00022224,-0.000332
 11,0.00004462,0.00000872,0.00001712,0.00001906,-0.00000355,0.00002011,
 0.00002030,-0.00001605,0.00002561,0.00020496,0.00004447,-0.00007647,-0
 .00003963,0.00000637,0.00001759,0.00003799,-0.00004826,0.00005370,-0.0
 0009014,-0.00001862,0.00004347,-0.00135386,-0.00066548,0.00027337,0.00
 031023,0.00047887,0.00009354,0.00068579,0.00001899,0.00016702,-0.00008
 309,-0.00072229,-0.00104782,0.00011687,0.00050463,-0.00043604,-0.00175
 933,0.00028970,0.00027920,0.00039300,-0.00062512,-0.00047681,-0.000023
 00,0.00005197,0.00008721,-0.00055990,0.02336253,0.00783692,0.00012259,
 0.00044350,0.00012215,0.00116618,0.00050668,0.00022757,-0.00018241,0.0
 0021272,0.00002543,-0.00002401,-0.00002256,0.00000963,0.00000776,0.000
 00429,0.00000414,0.00000353,0.00000157,-0.00000265,-0.00000191,-0.0000
 0138,-0.00000201,-0.00000622,-0.00000133,-0.00000732,-0.00000139,0.000
 00043,-0.00000245,0.00000117,-0.00000326,0.00000504,0.00000362,0.00000
 139,0.00000003,-0.00001336,0.00000350,-0.00002191,0.00000157,0.0000006
 2,0.00000186,0.00000444,-0.00000118,0.00000806,0.00000020,0.00000079,0
 .00000079,0.00007477,0.00000114,-0.00002925,-0.00000926,-0.00000411,0.
 00000174,-0.00002241,-0.00000064,0.00001792,-0.00001122,0.00000613,0.0
 0000374,0.00000044,0.00001121,-0.00000478,-0.00000088,0.00000150,0.000
 00051,0.00000027,-0.00000008,-0.00000126,0.00000115,-0.00000343,0.0000
 0442,-0.00004184,-0.00006803,-0.00006015,0.00001137,0.00001064,0.00001
 492,-0.00000309,-0.00000492,-0.00000312,0.00000059,-0.00000047,-0.0000
 0033,0.00000276,-0.00000127,0.00000207,-0.00000014,0.00000253,0.000002
 00,-0.00001106,-0.00000192,-0.00001364,0.00000104,0.00000452,0.0000019
 6,-0.00000170,-0.00000326,-0.00000058,0.00000203,0.00000063,0.00000096
 ,0.00108487,-0.00029678,0.00030700,-0.00031239,0.00024244,-0.00000380,
 -0.00033335,-0.00005307,-0.00005097,-0.00026097,0.00009547,-0.00025226
 ,0.00015973,-0.02418518,-0.07654912,-0.02080782,-0.03964130,-0.0089943
 7,-0.00233853,0.08443733,0.09388861,-0.00025381,-0.00033053,0.00000906
 ,-0.00000516,0.00007231,0.00008541,-0.00013752,0.00003903,-0.00000957,
 0.00005928,-0.00000363,-0.00002277,-0.00011402,0.00022051,-0.00004267,
 0.00001740,0.00001936,-0.00000307,-0.00001013,0.00000973,-0.00001732,0
 .00002465,0.00000512,-0.00001065,0.00000116,-0.00002172,-0.00000870,0.
 00003888,-0.00001945,-0.00003786,0.00008139,-0.00005937,0.00001465,0.0
 0004324,-0.00001967,-0.00003530,0.00010097,0.00000899,-0.00006537,0.00
 056425,0.00042975,-0.00028738,0.00016428,-0.00044203,-0.00002048,-0.00
 009605,0.00006588,0.00014924,0.00001653,0.00000436,-0.00002514,0.00001
 645,-0.00005703,-0.00003981,0.00003274,-0.00017733,-0.00016229,-0.0000
 3447,-0.00008626,0.00007793,0.00002242,0.00006034,-0.00006592,-0.00002
 774,0.00001106,0.00005442,0.00001446,-0.00001486,-0.00000297,-0.000878
 92,-0.00103296,0.00054846,0.00011298,0.00025825,0.00006760,0.00009480,
 0.00025976,0.00000785,0.00057336,-0.00039168,-0.00087469,0.00020834,0.
 00057822,0.00017769,-0.00011452,0.00007139,0.00016535,-0.00000431,-0.0
 0001800,-0.00002563,-0.00006340,-0.00006699,-0.00007839,0.00006366,0.0
 0002068,-0.00005096,-0.00001904,0.00004453,-0.00002795,0.00026896,0.00
 052142,0.00002864,0.00005380,0.00000932,-0.00005890,0.00012263,-0.0000
 6265,-0.00000080,-0.00001957,0.00003215,-0.00000409,-0.00000300,0.0000
 0395,0.00002270,0.00000624,-0.00000708,-0.00000893,0.00003486,-0.00001
 417,-0.00004466,-0.00001859,0.00000118,-0.00000101,-0.00021887,-0.0002
 9110,0.00016257,-0.00026197,-0.00020570,0.00049679,-0.00008824,-0.0000
 9552,0.00005438,-0.00012304,-0.00001571,0.00007522,-0.00013258,0.00004
 827,-0.00000420,0.00063962,0.00020721,0.00002733,-0.00010772,-0.000001
 39,0.00001983,0.00009802,-0.00015283,0.00024876,-0.00028968,-0.0000865
 5,-0.00027455,0.00115159,0.00076127,-0.00046927,-0.00026151,-0.0005827
 0,-0.00009148,-0.00049989,-0.00014349,0.00005600,-0.00035921,-0.000579
 60,-0.00028767,0.00033394,0.00006403,0.00017036,0.00152674,-0.00063607
 ,0.00206411,0.00095651,-0.00105095,0.00057881,0.00013391,0.00012704,0.
 00003748,-0.00759552,0.00115754,0.01491474,0.00055629,0.00065557,-0.00
 035473,-0.00279350,-0.00043104,-0.00233175,0.00175664,0.00077257,0.000
 59357,0.00007432,0.00006228,-0.00002162,-0.00001203,-0.00000421,-0.000
 00641,-0.00001417,-0.00000184,0.00000542,-0.00000132,-0.00000873,0.000
 00795,0.00002799,-0.00002811,-0.00005275,0.00000485,0.00000413,0.00000
 307,0.00000164,0.00000534,0.00000688,-0.00001356,-0.00000029,0.0000076
 5,0.00009425,-0.00002052,0.00004768,-0.00001841,-0.00000815,-0.0000025
 6,0.00000512,-0.00000167,-0.00000445,-0.00000752,0.00000855,-0.0000022
 3,0.00006218,-0.00009505,0.00015904,-0.00002349,-0.00000658,-0.0000271
 4,-0.00000224,0.00002356,0.00001349,-0.00000725,0.00003020,-0.00000989
 ,-0.00000878,0.00000140,0.00000119,0.00000133,-0.00000345,-0.00000258,
 0.00000434,0.00000229,0.00000233,-0.00000092,0.00000129,-0.00000051,0.
 00002265,0.00012661,0.00001963,-0.00000379,-0.00003147,0.00000052,-0.0
 0000160,0.00002100,-0.00001098,-0.00000162,-0.00000177,0.00000232,-0.0
 0000115,0.00000154,0.00000076,-0.00000017,-0.00000696,-0.00000204,0.00
 000438,0.00000904,0.00000375,0.00000040,-0.00000761,-0.00000098,0.0000
 1082,0.00001088,-0.00000022,-0.00000189,-0.00000185,0.00000181,-0.0011
 4023,-0.00000577,0.00006267,0.00035951,-0.00022403,-0.00006037,0.00037
 011,0.00015014,-0.00005020,0.00025156,-0.00005260,0.00014775,-0.167785
 59,0.00478489,0.09640513,-0.08020555,-0.00315562,0.01402318,-0.0085492
 0,0.02935564,0.02366950,0.26114604,0.00021740,0.00031964,-0.00002351,-
 0.00006737,0.00001417,-0.00000177,0.00006170,0.00010418,0.00004521,-0.
 00002027,0.00006574,-0.00000007,0.00004521,-0.00003953,0.00008480,-0.0
 0001099,-0.00002724,0.00000383,0.00000844,0.00001519,-0.00000062,-0.00
 002847,-0.00003997,-0.00000166,-0.00000129,-0.00001360,-0.00000745,0.0
 0001535,-0.00000599,-0.00001082,-0.00003935,-0.00004109,-0.00001440,-0
 .00002058,-0.00011026,-0.00002722,-0.00000349,-0.00009848,-0.00001330,
 -0.00009713,-0.00038047,-0.00012580,-0.00010816,0.00005949,-0.00006142
 ,0.00002080,-0.00002123,0.00003747,0.00000028,0.00000587,-0.00001601,-
 0.00002020,-0.00002554,-0.00000865,-0.00005130,-0.00003208,-0.00003496
 ,0.00000361,0.00011124,0.00000493,0.00000192,0.00001389,-0.00000733,-0
 .00003234,-0.00000575,0.00004533,0.00002170,-0.00003011,-0.00000115,0.
 00080895,0.00069489,-0.00023048,-0.00011849,-0.00024990,-0.00008080,-0
 .00015183,-0.00038375,-0.00009555,-0.00065555,-0.00218018,-0.00056766,
 0.00005422,-0.00006907,0.00003006,0.00000818,-0.00002721,-0.00001164,-
 0.00001387,0.00000201,0.00000178,-0.00000804,0.00000279,-0.00002143,0.
 00003793,-0.00002295,-0.00000566,0.00000256,-0.00000442,-0.00002152,0.
 00018404,0.00005171,0.00025584,0.00008153,-0.00014603,0.00002232,0.000
 01969,-0.00001055,0.00000381,0.00000765,0.00001083,-0.00000642,-0.0000
 0750,-0.00000285,0.00001075,0.00000587,-0.00000670,-0.00000586,-0.0000
 0246,-0.00000617,0.00001039,-0.00000014,0.00000158,0.00000069,-0.00010
 898,0.00012114,-0.00010186,-0.00029157,-0.00010897,0.00040444,-0.00005
 847,-0.00001066,0.00001094,-0.00003783,0.00001915,0.00001477,-0.000033
 07,0.00004513,-0.00000493,-0.00001699,-0.00002347,-0.00000575,-0.00001
 707,0.00001128,-0.00000718,0.00002383,-0.00001713,0.00001342,0.0000149
 9,0.00004677,-0.00001537,0.00143508,0.00032193,-0.00047245,-0.00039606
 ,-0.00044638,-0.00003407,-0.00060170,0.00005672,-0.00007206,0.00006609
 ,-0.00142089,0.00031921,-0.00056838,-0.00031357,0.00040045,0.00154454,
 0.00052552,0.00153009,-0.00009030,-0.00005045,-0.00033541,-0.00000882,
 0.00005186,0.00002378,-0.01367486,0.00780746,0.01596562,-0.00004319,0.
 00043719,0.00006810,-0.00019609,-0.00039861,0.00090627,-0.00013466,-0.
 00029540,0.00052426,0.00003383,0.00002488,-0.00001657,-0.00000612,-0.0
 0000369,-0.00000197,-0.00000842,-0.00000130,0.00000518,0.00000153,-0.0
 0000142,0.00000169,0.00000928,-0.00001591,-0.00001755,-0.00000148,0.00
 000505,0.00000147,-0.00000017,0.00000056,0.00000084,-0.00000287,0.0000
 0108,0.00000277,0.00001318,-0.00000679,0.00001445,-0.00000022,0.000001
 68,-0.00000242,-0.00000187,-0.00000225,-0.00000435,-0.00000622,0.00000
 352,0.00000052,-0.00000993,-0.00001994,0.00002362,0.00000544,0.0000036
 1,-0.00000059,0.00000689,-0.00000652,-0.00000420,-0.00000645,0.0000070
 7,-0.00000126,0.00002211,0.00005716,-0.00000389,0.00000021,-0.00001013
 ,-0.00000475,-0.00000873,-0.00000570,0.00000163,-0.00000304,-0.0000082
 8,0.00000622,0.00006595,0.00006906,0.00000376,-0.00001502,-0.00001585,
 0.00000129,0.00000361,0.00001152,-0.00000818,-0.00000400,-0.00000124,0
 .00000227,-0.00000037,0.00000049,-0.00000195,0.00000045,-0.00000230,-0
 .00000051,0.00001121,0.00000310,0.00000558,-0.00000028,-0.00000224,-0.
 00000101,0.00000765,0.00000447,-0.00000106,-0.00000451,-0.00000215,0.0
 0000270,-0.00091784,0.00007126,-0.00044338,0.00026719,-0.00014181,0.00
 004634,0.00030252,0.00009667,0.00007205,0.00019083,-0.00003988,0.00026
 038,0.00546361,-0.07261714,-0.00213421,-0.00375946,0.01164614,0.002052
 31,0.04177202,-0.02633958,-0.04460198,-0.03037520,0.08338610,0.0003063
 4,0.00048273,-0.00000262,-0.00008677,-0.00006990,-0.00021071,0.0000987
 1,-0.00004323,0.00000547,-0.00006894,0.00008162,-0.00004376,0.00006343
 ,-0.00011296,-0.00014601,-0.00001654,-0.00004069,0.00001314,0.00001471
 ,-0.00002206,0.00002275,-0.00003164,-0.00001630,0.00002101,-0.00000945
 ,0.00001373,0.00001867,-0.00003066,0.00003784,0.00002168,-0.00003469,0
 .00000647,0.00007894,-0.00002585,0.00002021,0.00006028,0.00004825,0.00
 007690,0.00020719,-0.00052229,-0.00067899,0.00041042,-0.00012862,-0.00
 001350,0.00013762,0.00014947,-0.00007459,-0.00024378,-0.00000340,-0.00
 000762,0.00005968,-0.00003335,0.00005950,0.00006209,-0.00005989,0.0002
 0681,0.00028833,-0.00002939,-0.00006683,-0.00017835,-0.00002703,-0.000
 08218,0.00010550,0.00003128,-0.00001452,-0.00012000,-0.00001533,0.0000
 3225,0.00001619,0.00146535,0.00127009,-0.00056074,-0.00014699,-0.00024
 815,-0.00001103,-0.00018781,-0.00050211,-0.00003430,-0.00107962,-0.000
 65831,0.00032526,0.00003312,-0.00001966,-0.00000993,0.00004910,-0.0000
 4016,-0.00008190,-0.00005457,-0.00003393,-0.00000610,0.00002856,0.0000
 1948,0.00003481,-0.00010142,0.00000868,0.00001110,0.00001343,-0.000009
 76,0.00003267,-0.00051357,-0.00044554,-0.00063634,-0.00015949,0.000134
 35,-0.00008222,-0.00007422,0.00003148,0.00000186,0.00001497,-0.0000409
 0,-0.00001438,0.00002223,-0.00000472,-0.00003155,-0.00001638,0.0000176
 9,0.00002419,-0.00002117,0.00001758,0.00002583,0.00002208,0.00000216,-
 0.00000002,0.00027139,0.00000510,0.00016875,0.00077831,0.00042514,-0.0
 0108252,0.00013830,0.00007508,-0.00001825,0.00011540,-0.00000437,-0.00
 003262,0.00011775,-0.00006755,0.00003139,-0.00009781,-0.00005132,-0.00
 012257,0.00001922,0.00000346,0.00001462,0.00001199,0.00002279,-0.00002
 586,0.00005853,0.00001230,0.00020707,-0.00339183,-0.00132258,0.0007983
 4,0.00082618,0.00132301,0.00027155,0.00148517,0.00004834,0.00021295,0.
 00176660,0.00200285,-0.00041533,0.00029800,0.00041370,-0.00062764,-0.0
 0466030,0.00156166,-0.00593758,0.00006684,0.00049615,-0.00004267,-0.00
 004537,-0.00007790,-0.00004538,0.03728990,0.00196199,-0.02581278,-0.00
 009737,-0.00052989,0.00003177,0.00170221,0.00024634,-0.00012614,-0.000
 15076,-0.00001270,-0.00159703,-0.00009009,-0.00007779,0.00003384,0.000
 02002,0.00000957,0.00000929,0.00001763,0.00000394,-0.00000893,-0.00000
 215,0.00000491,-0.00000823,-0.00002833,0.00002384,0.00003441,-0.000003
 38,-0.00000469,-0.00000509,0.00000018,-0.00000665,0.00000037,0.0000135
 2,0.00000088,-0.00000619,-0.00007636,0.00001799,-0.00005815,0.00001292
 ,0.00000523,0.00000422,0.00000277,0.00000015,0.00001279,0.00000734,-0.
 00000589,0.00000263,0.00004563,0.00005924,-0.00012719,0.00000408,-0.00
 000034,0.00001751,-0.00002274,-0.00001376,0.00001108,-0.00000771,-0.00
 001218,0.00001048,0.00000355,0.00000515,-0.00000571,-0.00000231,0.0000
 0527,0.00000272,-0.00000131,-0.00000125,-0.00000344,0.00000218,-0.0000
 0430,0.00000503,-0.00008926,-0.00019828,-0.00009706,0.00002060,0.00003
 905,0.00001687,-0.00000348,-0.00002357,0.00000670,0.00000300,0.0000012
 0,-0.00000262,0.00000405,-0.00000286,0.00000251,-0.00000003,0.00000849
 ,0.00000371,-0.00001963,-0.00000900,-0.00002049,0.00000124,0.00001128,
 0.00000328,-0.00001160,-0.00001272,-0.00000040,0.00000507,0.00000265,-
 0.00000075,0.00227247,-0.00045482,0.00066358,-0.00072293,0.00052563,0.
 00000879,-0.00073521,-0.00016284,-0.00010144,-0.00048901,0.00015372,-0
 .00054506,0.08895363,0.00002800,-0.16897398,-0.00048684,0.00129236,0.0
 2169061,0.02541705,-0.03347058,-0.01523236,-0.14939883,0.02645843,0.19
 723567\\0.00000129,0.00000048,0.00000154,0.00000100,0.00000113,0.00000
 179,0.00000129,0.00000025,0.00000207,0.00000148,-0.00000029,0.00000046
 ,0.00000175,-0.00000037,0.00000096,0.00000088,0.00000056,0.00000185,0.
 00000035,0.00000083,0.00000176,0.00000206,0.00000015,0.00000184,0.0000
 0231,-0.00000033,0.00000076,0.00000090,0.00000003,0.00000046,0.0000011
 6,-0.00000076,0.00000059,0.00000158,0.00000068,0.00000256,0.00000136,0
 .00000080,0.00000227,0.00000159,0.00000097,0.00000140,0.00000204,-0.00
 000056,0.00000072,0.00000138,-0.00000063,0.,0.00000197,-0.00000089,-0.
 00000064,0.00000189,-0.00000074,-0.00000044,0.00000085,0.,-0.00000035,
 0.00000048,0.00000167,0.00000309,-0.00000040,0.00000130,0.00000274,0.0
 0000011,0.00000099,0.00000313,0.00000038,0.00000156,0.00000371,0.00000
 144,0.00000042,0.00000233,0.00000211,0.00000013,0.00000167,0.00000188,
 0.00000071,0.00000274,0.00000129,0.00000062,0.00000220,0.00000163,-0.0
 0000047,0.00000003,0.00000114,-0.00000023,0.00000028,0.00000103,-0.000
 00043,-0.00000070,0.00000216,-0.00000078,-0.00000011,-0.00000118,-0.00
 000054,-0.00000238,-0.00000108,-0.00000058,-0.00000135,-0.00000060,-0.
 00000030,-0.00000111,-0.00000154,-0.00000041,-0.00000148,-0.00000056,-
 0.00000131,-0.00000241,-0.00000081,-0.00000044,-0.00000064,-0.00000024
 ,-0.00000088,-0.00000181,-0.00000176,-0.00000023,-0.00000197,-0.000001
 39,-0.00000031,-0.00000150,-0.00000037,-0.00000122,-0.00000256,-0.0000
 0014,-0.00000028,-0.00000097,-0.00000257,0.00000090,0.00000025,-0.0000
 0149,-0.00000015,-0.00000062,-0.00000156,-0.00000067,-0.00000292,-0.00
 000131,-0.00000083,-0.00000307,-0.00000015,-0.00000075,-0.00000161,-0.
 00000054,-0.00000087,-0.00000208,-0.00000018,-0.00000057,-0.00000093,0
 .00000081,-0.00000123,-0.00000190,-0.00000090,0.00000061,0.00000071,-0
 .00000072,0.00000050,0.00000112,-0.00000181,0.00000057,-0.00000063,-0.
 00000150,0.00000102,0.00000095,-0.00000143,0.00000167,0.00000172,-0.00
 000095,0.00000022,0.00000047,-0.00000171,0.00000150,0.00000209,-0.0000
 0243,0.00000162,0.00000187,-0.00000095,0.00000109,0.00000167,-0.000000
 41,0.00000072,-0.00000004,-0.00000162,0.00000122,0.00000181,-0.0000011
 4,0.00000159,0.00000239,-0.00000123,-0.00000028,-0.00000178,-0.0000003
 2,-0.00000082,-0.00000194,-0.00000149,-0.00000075,-0.00000214,-0.00000
 127,-0.00000025,-0.00000128,-0.00000217,-0.00000087,-0.00000334,-0.000
 00247,-0.00000096,-0.00000338,-0.00000263,-0.00000056,-0.00000294,-0.0
 0000218,-0.00000108,-0.00000380,-0.00000103,-0.00000142,-0.00000370,-0
 .00000103,-0.00000160,-0.00000396,-0.00000048,-0.00000161,-0.00000348,
 -0.00000146,-0.00000142,-0.00000401,0.00000108,-0.00000137,-0.00000207
 ,0.00000164,-0.00000162,-0.00000221,0.00000129,-0.00000113,-0.00000152
 ,0.00000084,-0.00000141,-0.00000247,0.00000236,0.00000001,0.00000202,0
 .00000296,0.00000019,0.00000242,0.00000242,-0.00000004,0.00000145,0.00
 000194,0.00000050,0.00000230,0.00000064,0.00000013,-0.00000081,-0.0000
 0018,-0.00000002,-0.00000012,0.00000006,-0.00000016,0.00000003,-0.0000
 0026,-0.00000016,-0.00000056,-0.00000027,0.00000044,0.00000037,0.00000
 057,-0.00000003,0.00000021,0.00000068,-0.00000066,-0.00000091,0.000001
 36,-0.00000074,-0.00000056,0.00000130,-0.00000113,-0.00000112,0.000000
 59,-0.00000092,-0.00000135,-0.00000205,0.00000220,0.00000281,-0.000001
 35,0.00000229,0.00000366,-0.00000198,0.00000225,0.00000335,-0.00000256
 ,0.00000232,0.00000308,-0.00000048,0.00000050,0.00000120,0.00000011,0.
 00000022,0.00000042,-0.00000102,0.00000081,0.00000076,-0.00000009,0.00
 000074,0.00000158\\\@


 If your ship doesn't come in, swim out to it!
                          -- Jonathan Winters
 Job cpu time:       4 days 13 hours 40 minutes 12.6 seconds.
 Elapsed time:       0 days  3 hours 41 minutes 16.0 seconds.
 File lengths (MBytes):  RWF=   9804 Int=      0 D2E=      0 Chk=    109 Scr=      1
 Normal termination of Gaussian 16 at Wed Jun  5 13:46:50 2019.
