 Entering Gaussian System, Link 0=g16
 Input=clay_new-glu_gluC6-BCDR-Na2_1Me2O-bisCF3-ts-cam_b3lyp_d3bj-631gd-pcm_thf.gjf
 Output=clay_new-glu_gluC6-BCDR-Na2_1Me2O-bisCF3-ts-cam_b3lyp_d3bj-631gd-pcm_thf.out
 Initial command:
 /home/ekwan/sw/g16/l1.exe "/scratch/users/ekwan/clay_new-glu_gluC6-BCDR-Na2_1Me2O-bisCF3-ts-cam_b3lyp_d3bj-631gd-pcm_thf/Gau-1458.inp" -scrdir="/scratch/users/ekwan/clay_new-glu_gluC6-BCDR-Na2_1Me2O-bisCF3-ts-cam_b3lyp_d3bj-631gd-pcm_thf/"
 Entering Link 1 = /home/ekwan/sw/g16/l1.exe PID=      1459.
  
 Copyright (c) 1988,1990,1992,1993,1995,1998,2003,2009,2016,
            Gaussian, Inc.  All Rights Reserved.
  
 This is part of the Gaussian(R) 16 program.  It is based on
 the Gaussian(R) 09 system (copyright 2009, Gaussian, Inc.),
 the Gaussian(R) 03 system (copyright 2003, Gaussian, Inc.),
 the Gaussian(R) 98 system (copyright 1998, Gaussian, Inc.),
 the Gaussian(R) 94 system (copyright 1995, Gaussian, Inc.),
 the Gaussian 92(TM) system (copyright 1992, Gaussian, Inc.),
 the Gaussian 90(TM) system (copyright 1990, Gaussian, Inc.),
 the Gaussian 88(TM) system (copyright 1988, Gaussian, Inc.),
 the Gaussian 86(TM) system (copyright 1986, Carnegie Mellon
 University), and the Gaussian 82(TM) system (copyright 1983,
 Carnegie Mellon University). Gaussian is a federally registered
 trademark of Gaussian, Inc.
  
 This software contains proprietary and confidential information,
 including trade secrets, belonging to Gaussian, Inc.
  
 This software is provided under written license and may be
 used, copied, transmitted, or stored only in accord with that
 written license.
  
 The following legend is applicable only to US Government
 contracts under FAR:
  
                    RESTRICTED RIGHTS LEGEND
  
 Use, reproduction and disclosure by the US Government is
 subject to restrictions as set forth in subparagraphs (a)
 and (c) of the Commercial Computer Software - Restricted
 Rights clause in FAR 52.227-19.
  
 Gaussian, Inc.
 340 Quinnipiac St., Bldg. 40, Wallingford CT 06492
  
  
 ---------------------------------------------------------------
 Warning -- This program may not be used in any manner that
 competes with the business of Gaussian, Inc. or will provide
 assistance to any competitor of Gaussian, Inc.  The licensee
 of this program is prohibited from giving any competitor of
 Gaussian, Inc. access to this program.  By using this program,
 the user acknowledges that Gaussian, Inc. is engaged in the
 business of creating and licensing software in the field of
 computational chemistry and represents and warrants to the
 licensee that it is not a competitor of Gaussian, Inc. and that
 it will not use this program in any manner prohibited above.
 ---------------------------------------------------------------
  

 Cite this work as:
 Gaussian 16, Revision A.03,
 M. J. Frisch, G. W. Trucks, H. B. Schlegel, G. E. Scuseria, 
 M. A. Robb, J. R. Cheeseman, G. Scalmani, V. Barone, 
 G. A. Petersson, H. Nakatsuji, X. Li, M. Caricato, A. V. Marenich, 
 J. Bloino, B. G. Janesko, R. Gomperts, B. Mennucci, H. P. Hratchian, 
 J. V. Ortiz, A. F. Izmaylov, J. L. Sonnenberg, D. Williams-Young, 
 F. Ding, F. Lipparini, F. Egidi, J. Goings, B. Peng, A. Petrone, 
 T. Henderson, D. Ranasinghe, V. G. Zakrzewski, J. Gao, N. Rega, 
 G. Zheng, W. Liang, M. Hada, M. Ehara, K. Toyota, R. Fukuda, 
 J. Hasegawa, M. Ishida, T. Nakajima, Y. Honda, O. Kitao, H. Nakai, 
 T. Vreven, K. Throssell, J. A. Montgomery, Jr., J. E. Peralta, 
 F. Ogliaro, M. J. Bearpark, J. J. Heyd, E. N. Brothers, K. N. Kudin, 
 V. N. Staroverov, T. A. Keith, R. Kobayashi, J. Normand, 
 K. Raghavachari, A. P. Rendell, J. C. Burant, S. S. Iyengar, 
 J. Tomasi, M. Cossi, J. M. Millam, M. Klene, C. Adamo, R. Cammi, 
 J. W. Ochterski, R. L. Martin, K. Morokuma, O. Farkas, 
 J. B. Foresman, and D. J. Fox, Gaussian, Inc., Wallingford CT, 2016.
 
 ******************************************
 Gaussian 16:  AS64L-G16RevA.03 25-Dec-2016
                 5-Jun-2019 
 ******************************************
 %nprocshared=32
 Will use up to   32 processors via shared memory.
 %mem=48GB
 ----------------------------------------------------------------------
 #p opt=(ts,calcfc,noeigentest,maxstep=5) freq=noraman pop=none 6-31g* 
 scrf=(pcm,solvent=tetrahydrofuran) cam-b3lyp empiricaldispersion=gd3bj
 ----------------------------------------------------------------------
 1/5=1,8=5,10=4,11=1,18=20,26=3,38=1/1,3;
 2/9=110,12=2,17=6,18=5,40=1/2;
 3/5=1,6=6,7=1,11=2,25=1,30=1,70=2201,71=2,72=20,74=-40,124=41,140=1/1,2,3;
 4//1;
 5/5=2,38=5,53=20/2;
 8/6=4,10=90,11=11/1;
 11/6=1,8=1,9=11,15=111,16=1/1,2,10;
 10/6=1,13=1/2;
 7/10=1,18=20,25=1/1,2,3,16;
 1/5=1,8=5,10=4,11=1,18=20,26=3/3(2);
 2/9=110/2;
 99//99;
 2/9=110/2;
 3/5=1,6=6,7=1,11=2,25=1,30=1,70=2205,71=1,72=20,74=-40,124=41/1,2,3;
 4/5=5,16=3,69=1/1;
 5/5=2,38=5,53=20/2;
 7//1,2,3,16;
 1/5=1,8=5,11=1,18=20,26=3/3(-5);
 2/9=110/2;
 99/9=1/99;
 Leave Link    1 at Wed Jun  5 12:16:37 2019, MaxMem=  6442450944 cpu:               4.9 elap:               0.2
 (Enter /home/ekwan/sw/g16/l101.exe)
 -----
 title
 -----
 Symbolic Z-matrix:
 Charge =  0 Multiplicity = 1
 6                    -1.82334   1.48065   2.22405 
 6                    -2.12263   2.28486   0.96469 
 6                    -1.24504   3.53097   0.90768 
 6                     0.48982   2.49172   2.19755 
 6                    -0.32817   1.20829   2.3353 
 1                    -1.35666   4.03268  -0.06229 
 1                    -1.86514   1.68019   0.08729 
 1                    -2.15048   2.06519   3.09286 
 1                     0.25234   3.1372    3.05202 
 1                    -0.05923   0.51371   1.53353 
 8                     0.11994   3.17195   0.9825 
 8                    -1.615     4.38629   1.94181 
 8                    -3.47447   2.68634   0.91242 
 8                    -2.55083   0.26584   2.15721 
 8                    -0.05288   0.6189    3.59565 
 6                     2.00222   2.2672    2.13991 
 1                     2.26623   1.76678   3.09269 
 1                     2.45408   3.28103   2.21027 
 8                     2.42986   1.59438   1.02258 
 6                    -4.28767   1.86508   0.09855 
 1                    -3.95411   1.88378  -0.94739 
 1                    -4.28947   0.83026   0.45112 
 1                    -5.30107   2.26883   0.14872 
 6                    -3.09147  -0.15636   3.39397 
 1                    -2.30617  -0.32747   4.1359 
 1                    -3.7987    0.58607   3.78748 
 1                    -3.62321  -1.08857   3.20322 
 6                     0.70533  -0.57373   3.51837 
 1                     0.13553  -1.36667   3.02067 
 1                     1.64486  -0.42577   2.97806 
 1                     0.92355  -0.8788    4.54436 
 6                     3.79061  -1.48972  -1.34031 
 6                     3.1786   -0.17305  -0.87426 
 6                     1.83963  -0.38671  -0.24363 
 6                     2.22371  -2.70348   0.21173 
 6                     3.67616  -2.49054  -0.19233 
 1                     1.13156   0.41111  -0.16565 
 1                     3.77605   0.22786  -0.04188 
 1                     3.2491   -1.85373  -2.22054 
 1                     1.67714  -3.16099  -0.61713 
 1                     4.23184  -2.09695   0.66491 
 8                     1.55086  -1.42808   0.44693 
 8                    -0.48663   0.13367  -3.87748 
 8                     3.03374   0.82618  -1.85198 
 8                     5.15247  -1.27572  -1.63609 
 8                     4.18482  -3.74617  -0.58078 
 6                     2.02848  -3.52571   1.45948 
 1                     2.3558   -4.5528    1.24727 
 1                     0.95823  -3.55285   1.70967 
 8                     2.77755  -2.95337   2.50041 
 16                   -0.27865  -0.00526  -2.43545 
 8                    -0.17397   1.2832   -1.69805 
 8                     0.83627  -0.94004  -2.06843 
 6                    -1.73571  -0.79766  -1.76973 
 6                    -2.96921  -0.5933   -2.3696 
 6                    -1.61877  -1.57054  -0.62445 
 6                    -4.09872  -1.16618  -1.79776 
 1                    -3.04203  -0.00068  -3.27392 
 6                    -2.75336  -2.14972  -0.0768 
 1                    -0.65299  -1.72103  -0.16093 
 6                    -3.99908  -1.95035  -0.65496 
 1                    -4.88424  -2.3988   -0.22076 
 6                     4.2487    1.44804  -2.26173 
 1                     4.91932   1.59204  -1.40906 
 1                     4.75911   0.85272  -3.02135 
 1                     3.97345   2.42007  -2.67164 
 6                     5.61234  -1.96553  -2.7861 
 1                     5.46729  -3.04493  -2.68652 
 1                     5.09611  -1.61379  -3.68876 
 1                     6.67754  -1.74677  -2.87714 
 6                     5.2908   -4.18349   0.19367 
 1                     6.14298  -3.50509   0.07673 
 1                     5.02654  -4.25075   1.25552 
 1                     5.56154  -5.17335  -0.17625 
 6                     2.62127  -3.64522   3.72163 
 1                     3.23246  -3.12993   4.46345 
 1                     1.57323  -3.63923   4.04891 
 1                     2.9579   -4.68686   3.63387 
 6                    -0.96743   5.64454   1.88983 
 1                    -1.3993    6.257     2.68209 
 1                     0.11134   5.54746   2.0508 
 1                    -1.14009   6.13126   0.92071 
 11                    1.52284   2.60752  -0.82292 
 8                     3.02988   4.29492  -1.05423 
 6                     3.12364   5.45833  -1.84907 
 1                     4.06801   5.47403  -2.40847 
 1                     2.28836   5.44492  -2.5511 
 1                     3.06347   6.36249  -1.22995 
 6                     4.06762   4.19449  -0.09079 
 1                     4.03431   5.0457    0.60107 
 1                     3.89477   3.25976   0.44813 
 1                     5.04831   4.1753   -0.584 
 6                    -5.44943  -0.87089  -2.37721 
 9                    -5.97263   0.25388  -1.84717 
 9                    -6.3253   -1.85815  -2.13553 
 9                    -5.39449  -0.6863   -3.70435 
 6                    -2.60953  -3.05782   1.10651 
 9                    -1.58425  -2.69499   1.89988 
 9                    -2.37083  -4.32619   0.72792 
 9                    -3.72046  -3.07952   1.86234 
 
 Add virtual bond connecting atoms H37        and H10        Dist= 3.93D+00.
 Add virtual bond connecting atoms H37        and O19        Dist= 4.01D+00.
 Add virtual bond connecting atoms H38        and O19        Dist= 4.15D+00.
 Add virtual bond connecting atoms O52        and H37        Dist= 4.15D+00.
 Add virtual bond connecting atoms O53        and C34        Dist= 4.07D+00.
 Add virtual bond connecting atoms H60        and O42        Dist= 4.36D+00.
 ITRead=  0  0  0  0  0  0  0  0  0  0  0  0  0  0  0  0  0  0  0  0
 ITRead=  0  0  0  0  0  0  0  0  0  0  0  0  0  0  0  0  0  0  0  0
 ITRead=  0  0  0  0  0  0  0  0  0  0  0  0  0  0  0  0  0  0  0  0
 ITRead=  0  0  0  0  0  0  0  0  0  0  0  0  0  0  0  0  0  0  0  0
 ITRead=  0  0  0  0  0  0  0  0  0  0  0  0  0  0  0  0  0  0  0  0
 MicOpt= -1 -1 -1 -1 -1 -1 -1 -1 -1 -1 -1 -1 -1 -1 -1 -1 -1 -1 -1 -1
 MicOpt= -1 -1 -1 -1 -1 -1 -1 -1 -1 -1 -1 -1 -1 -1 -1 -1 -1 -1 -1 -1
 MicOpt= -1 -1 -1 -1 -1 -1 -1 -1 -1 -1 -1 -1 -1 -1 -1 -1 -1 -1 -1 -1
 MicOpt= -1 -1 -1 -1 -1 -1 -1 -1 -1 -1 -1 -1 -1 -1 -1 -1 -1 -1 -1 -1
 MicOpt= -1 -1 -1 -1 -1 -1 -1 -1 -1 -1 -1 -1 -1 -1 -1 -1 -1 -1 -1 -1
 NAtoms=    100 NQM=      100 NQMF=       0 NMMI=      0 NMMIF=      0
                NMic=       0 NMicF=      0.
                    Isotopes and Nuclear Properties:
 (Nuclear quadrupole moments (NQMom) in fm**2, nuclear magnetic moments (NMagM)
  in nuclear magnetons)

  Atom         1           2           3           4           5           6           7           8           9          10
 IAtWgt=          12          12          12          12          12           1           1           1           1           1
 AtmWgt=  12.0000000  12.0000000  12.0000000  12.0000000  12.0000000   1.0078250   1.0078250   1.0078250   1.0078250   1.0078250
 NucSpn=           0           0           0           0           0           1           1           1           1           1
 AtZEff=   0.0000000   0.0000000   0.0000000   0.0000000   0.0000000   0.0000000   0.0000000   0.0000000   0.0000000   0.0000000
 NQMom=    0.0000000   0.0000000   0.0000000   0.0000000   0.0000000   0.0000000   0.0000000   0.0000000   0.0000000   0.0000000
 NMagM=    0.0000000   0.0000000   0.0000000   0.0000000   0.0000000   2.7928460   2.7928460   2.7928460   2.7928460   2.7928460
 AtZNuc=   6.0000000   6.0000000   6.0000000   6.0000000   6.0000000   1.0000000   1.0000000   1.0000000   1.0000000   1.0000000

  Atom        11          12          13          14          15          16          17          18          19          20
 IAtWgt=          16          16          16          16          16          12           1           1          16          12
 AtmWgt=  15.9949146  15.9949146  15.9949146  15.9949146  15.9949146  12.0000000   1.0078250   1.0078250  15.9949146  12.0000000
 NucSpn=           0           0           0           0           0           0           1           1           0           0
 AtZEff=   0.0000000   0.0000000   0.0000000   0.0000000   0.0000000   0.0000000   0.0000000   0.0000000   0.0000000   0.0000000
 NQMom=    0.0000000   0.0000000   0.0000000   0.0000000   0.0000000   0.0000000   0.0000000   0.0000000   0.0000000   0.0000000
 NMagM=    0.0000000   0.0000000   0.0000000   0.0000000   0.0000000   0.0000000   2.7928460   2.7928460   0.0000000   0.0000000
 AtZNuc=   8.0000000   8.0000000   8.0000000   8.0000000   8.0000000   6.0000000   1.0000000   1.0000000   8.0000000   6.0000000

  Atom        21          22          23          24          25          26          27          28          29          30
 IAtWgt=           1           1           1          12           1           1           1          12           1           1
 AtmWgt=   1.0078250   1.0078250   1.0078250  12.0000000   1.0078250   1.0078250   1.0078250  12.0000000   1.0078250   1.0078250
 NucSpn=           1           1           1           0           1           1           1           0           1           1
 AtZEff=   0.0000000   0.0000000   0.0000000   0.0000000   0.0000000   0.0000000   0.0000000   0.0000000   0.0000000   0.0000000
 NQMom=    0.0000000   0.0000000   0.0000000   0.0000000   0.0000000   0.0000000   0.0000000   0.0000000   0.0000000   0.0000000
 NMagM=    2.7928460   2.7928460   2.7928460   0.0000000   2.7928460   2.7928460   2.7928460   0.0000000   2.7928460   2.7928460
 AtZNuc=   1.0000000   1.0000000   1.0000000   6.0000000   1.0000000   1.0000000   1.0000000   6.0000000   1.0000000   1.0000000

  Atom        31          32          33          34          35          36          37          38          39          40
 IAtWgt=           1          12          12          12          12          12           1           1           1           1
 AtmWgt=   1.0078250  12.0000000  12.0000000  12.0000000  12.0000000  12.0000000   1.0078250   1.0078250   1.0078250   1.0078250
 NucSpn=           1           0           0           0           0           0           1           1           1           1
 AtZEff=   0.0000000   0.0000000   0.0000000   0.0000000   0.0000000   0.0000000   0.0000000   0.0000000   0.0000000   0.0000000
 NQMom=    0.0000000   0.0000000   0.0000000   0.0000000   0.0000000   0.0000000   0.0000000   0.0000000   0.0000000   0.0000000
 NMagM=    2.7928460   0.0000000   0.0000000   0.0000000   0.0000000   0.0000000   2.7928460   2.7928460   2.7928460   2.7928460
 AtZNuc=   1.0000000   6.0000000   6.0000000   6.0000000   6.0000000   6.0000000   1.0000000   1.0000000   1.0000000   1.0000000

  Atom        41          42          43          44          45          46          47          48          49          50
 IAtWgt=           1          16          16          16          16          16          12           1           1          16
 AtmWgt=   1.0078250  15.9949146  15.9949146  15.9949146  15.9949146  15.9949146  12.0000000   1.0078250   1.0078250  15.9949146
 NucSpn=           1           0           0           0           0           0           0           1           1           0
 AtZEff=   0.0000000   0.0000000   0.0000000   0.0000000   0.0000000   0.0000000   0.0000000   0.0000000   0.0000000   0.0000000
 NQMom=    0.0000000   0.0000000   0.0000000   0.0000000   0.0000000   0.0000000   0.0000000   0.0000000   0.0000000   0.0000000
 NMagM=    2.7928460   0.0000000   0.0000000   0.0000000   0.0000000   0.0000000   0.0000000   2.7928460   2.7928460   0.0000000
 AtZNuc=   1.0000000   8.0000000   8.0000000   8.0000000   8.0000000   8.0000000   6.0000000   1.0000000   1.0000000   8.0000000

  Atom        51          52          53          54          55          56          57          58          59          60
 IAtWgt=          32          16          16          12          12          12          12           1          12           1
 AtmWgt=  31.9720718  15.9949146  15.9949146  12.0000000  12.0000000  12.0000000  12.0000000   1.0078250  12.0000000   1.0078250
 NucSpn=           0           0           0           0           0           0           0           1           0           1
 AtZEff=   0.0000000   0.0000000   0.0000000   0.0000000   0.0000000   0.0000000   0.0000000   0.0000000   0.0000000   0.0000000
 NQMom=    0.0000000   0.0000000   0.0000000   0.0000000   0.0000000   0.0000000   0.0000000   0.0000000   0.0000000   0.0000000
 NMagM=    0.0000000   0.0000000   0.0000000   0.0000000   0.0000000   0.0000000   0.0000000   2.7928460   0.0000000   2.7928460
 AtZNuc=  16.0000000   8.0000000   8.0000000   6.0000000   6.0000000   6.0000000   6.0000000   1.0000000   6.0000000   1.0000000

  Atom        61          62          63          64          65          66          67          68          69          70
 IAtWgt=          12           1          12           1           1           1          12           1           1           1
 AtmWgt=  12.0000000   1.0078250  12.0000000   1.0078250   1.0078250   1.0078250  12.0000000   1.0078250   1.0078250   1.0078250
 NucSpn=           0           1           0           1           1           1           0           1           1           1
 AtZEff=   0.0000000   0.0000000   0.0000000   0.0000000   0.0000000   0.0000000   0.0000000   0.0000000   0.0000000   0.0000000
 NQMom=    0.0000000   0.0000000   0.0000000   0.0000000   0.0000000   0.0000000   0.0000000   0.0000000   0.0000000   0.0000000
 NMagM=    0.0000000   2.7928460   0.0000000   2.7928460   2.7928460   2.7928460   0.0000000   2.7928460   2.7928460   2.7928460
 AtZNuc=   6.0000000   1.0000000   6.0000000   1.0000000   1.0000000   1.0000000   6.0000000   1.0000000   1.0000000   1.0000000

  Atom        71          72          73          74          75          76          77          78          79          80
 IAtWgt=          12           1           1           1          12           1           1           1          12           1
 AtmWgt=  12.0000000   1.0078250   1.0078250   1.0078250  12.0000000   1.0078250   1.0078250   1.0078250  12.0000000   1.0078250
 NucSpn=           0           1           1           1           0           1           1           1           0           1
 AtZEff=   0.0000000   0.0000000   0.0000000   0.0000000   0.0000000   0.0000000   0.0000000   0.0000000   0.0000000   0.0000000
 NQMom=    0.0000000   0.0000000   0.0000000   0.0000000   0.0000000   0.0000000   0.0000000   0.0000000   0.0000000   0.0000000
 NMagM=    0.0000000   2.7928460   2.7928460   2.7928460   0.0000000   2.7928460   2.7928460   2.7928460   0.0000000   2.7928460
 AtZNuc=   6.0000000   1.0000000   1.0000000   1.0000000   6.0000000   1.0000000   1.0000000   1.0000000   6.0000000   1.0000000

  Atom        81          82          83          84          85          86          87          88          89          90
 IAtWgt=           1           1          23          16          12           1           1           1          12           1
 AtmWgt=   1.0078250   1.0078250  22.9897697  15.9949146  12.0000000   1.0078250   1.0078250   1.0078250  12.0000000   1.0078250
 NucSpn=           1           1           3           0           0           1           1           1           0           1
 AtZEff=   0.0000000   0.0000000   0.0000000   0.0000000   0.0000000   0.0000000   0.0000000   0.0000000   0.0000000   0.0000000
 NQMom=    0.0000000   0.0000000  10.4000000   0.0000000   0.0000000   0.0000000   0.0000000   0.0000000   0.0000000   0.0000000
 NMagM=    2.7928460   2.7928460   2.2175200   0.0000000   0.0000000   2.7928460   2.7928460   2.7928460   0.0000000   2.7928460
 AtZNuc=   1.0000000   1.0000000  11.0000000   8.0000000   6.0000000   1.0000000   1.0000000   1.0000000   6.0000000   1.0000000

  Atom        91          92          93          94          95          96          97          98          99         100
 IAtWgt=           1           1          12          19          19          19          12          19          19          19
 AtmWgt=   1.0078250   1.0078250  12.0000000  18.9984033  18.9984033  18.9984033  12.0000000  18.9984033  18.9984033  18.9984033
 NucSpn=           1           1           0           1           1           1           0           1           1           1
 AtZEff=   0.0000000   0.0000000   0.0000000   0.0000000   0.0000000   0.0000000   0.0000000   0.0000000   0.0000000   0.0000000
 NQMom=    0.0000000   0.0000000   0.0000000   0.0000000   0.0000000   0.0000000   0.0000000   0.0000000   0.0000000   0.0000000
 NMagM=    2.7928460   2.7928460   0.0000000   2.6288670   2.6288670   2.6288670   0.0000000   2.6288670   2.6288670   2.6288670
 AtZNuc=   1.0000000   1.0000000   6.0000000   9.0000000   9.0000000   9.0000000   6.0000000   9.0000000   9.0000000   9.0000000
 Leave Link  101 at Wed Jun  5 12:16:38 2019, MaxMem=  6442450944 cpu:              17.6 elap:               0.7
 (Enter /home/ekwan/sw/g16/l103.exe)

 GradGradGradGradGradGradGradGradGradGradGradGradGradGradGradGradGradGrad
 Berny optimization.
 Initialization pass.
                           ----------------------------
                           !    Initial Parameters    !
                           ! (Angstroms and Degrees)  !
 --------------------------                            --------------------------
 ! Name  Definition              Value          Derivative Info.                !
 --------------------------------------------------------------------------------
 ! R1    R(1,2)                  1.5239         calculate D2E/DX2 analytically  !
 ! R2    R(1,5)                  1.5238         calculate D2E/DX2 analytically  !
 ! R3    R(1,8)                  1.0971         calculate D2E/DX2 analytically  !
 ! R4    R(1,14)                 1.4176         calculate D2E/DX2 analytically  !
 ! R5    R(2,3)                  1.5252         calculate D2E/DX2 analytically  !
 ! R6    R(2,7)                  1.0963         calculate D2E/DX2 analytically  !
 ! R7    R(2,13)                 1.4112         calculate D2E/DX2 analytically  !
 ! R8    R(3,6)                  1.0977         calculate D2E/DX2 analytically  !
 ! R9    R(3,11)                 1.4134         calculate D2E/DX2 analytically  !
 ! R10   R(3,12)                 1.3921         calculate D2E/DX2 analytically  !
 ! R11   R(4,5)                  1.5282         calculate D2E/DX2 analytically  !
 ! R12   R(4,9)                  1.0969         calculate D2E/DX2 analytically  !
 ! R13   R(4,11)                 1.4408         calculate D2E/DX2 analytically  !
 ! R14   R(4,16)                 1.5301         calculate D2E/DX2 analytically  !
 ! R15   R(5,10)                 1.0943         calculate D2E/DX2 analytically  !
 ! R16   R(5,15)                 1.4183         calculate D2E/DX2 analytically  !
 ! R17   R(10,37)                2.0774         calculate D2E/DX2 analytically  !
 ! R18   R(12,79)                1.4161         calculate D2E/DX2 analytically  !
 ! R19   R(13,20)                1.4136         calculate D2E/DX2 analytically  !
 ! R20   R(14,24)                1.4143         calculate D2E/DX2 analytically  !
 ! R21   R(15,28)                1.4154         calculate D2E/DX2 analytically  !
 ! R22   R(16,17)                1.1081         calculate D2E/DX2 analytically  !
 ! R23   R(16,18)                1.1122         calculate D2E/DX2 analytically  !
 ! R24   R(16,19)                1.3726         calculate D2E/DX2 analytically  !
 ! R25   R(19,37)                2.1208         calculate D2E/DX2 analytically  !
 ! R26   R(19,38)                2.1938         calculate D2E/DX2 analytically  !
 ! R27   R(19,83)                2.2924         calculate D2E/DX2 analytically  !
 ! R28   R(20,21)                1.098          calculate D2E/DX2 analytically  !
 ! R29   R(20,22)                1.0932         calculate D2E/DX2 analytically  !
 ! R30   R(20,23)                1.092          calculate D2E/DX2 analytically  !
 ! R31   R(24,25)                1.0938         calculate D2E/DX2 analytically  !
 ! R32   R(24,26)                1.0983         calculate D2E/DX2 analytically  !
 ! R33   R(24,27)                1.09           calculate D2E/DX2 analytically  !
 ! R34   R(28,29)                1.096          calculate D2E/DX2 analytically  !
 ! R35   R(28,30)                1.0939         calculate D2E/DX2 analytically  !
 ! R36   R(28,31)                1.0924         calculate D2E/DX2 analytically  !
 ! R37   R(32,33)                1.5249         calculate D2E/DX2 analytically  !
 ! R38   R(32,36)                1.5273         calculate D2E/DX2 analytically  !
 ! R39   R(32,39)                1.0957         calculate D2E/DX2 analytically  !
 ! R40   R(32,45)                1.4099         calculate D2E/DX2 analytically  !
 ! R41   R(33,34)                1.4954         calculate D2E/DX2 analytically  !
 ! R42   R(33,38)                1.1002         calculate D2E/DX2 analytically  !
 ! R43   R(33,44)                1.4055         calculate D2E/DX2 analytically  !
 ! R44   R(34,37)                1.0696         calculate D2E/DX2 analytically  !
 ! R45   R(34,42)                1.2825         calculate D2E/DX2 analytically  !
 ! R46   R(34,53)                2.1547         calculate D2E/DX2 analytically  !
 ! R47   R(35,36)                1.5226         calculate D2E/DX2 analytically  !
 ! R48   R(35,40)                1.0932         calculate D2E/DX2 analytically  !
 ! R49   R(35,42)                1.4611         calculate D2E/DX2 analytically  !
 ! R50   R(35,47)                1.507          calculate D2E/DX2 analytically  !
 ! R51   R(36,41)                1.0948         calculate D2E/DX2 analytically  !
 ! R52   R(36,46)                1.4093         calculate D2E/DX2 analytically  !
 ! R53   R(37,52)                2.1939         calculate D2E/DX2 analytically  !
 ! R54   R(42,60)                2.3048         calculate D2E/DX2 analytically  !
 ! R55   R(43,51)                1.4636         calculate D2E/DX2 analytically  !
 ! R56   R(44,63)                1.425          calculate D2E/DX2 analytically  !
 ! R57   R(45,67)                1.4177         calculate D2E/DX2 analytically  !
 ! R58   R(46,71)                1.4192         calculate D2E/DX2 analytically  !
 ! R59   R(47,48)                1.0987         calculate D2E/DX2 analytically  !
 ! R60   R(47,49)                1.0994         calculate D2E/DX2 analytically  !
 ! R61   R(47,50)                1.4044         calculate D2E/DX2 analytically  !
 ! R62   R(50,75)                1.4123         calculate D2E/DX2 analytically  !
 ! R63   R(51,52)                1.4882         calculate D2E/DX2 analytically  !
 ! R64   R(51,53)                1.5005         calculate D2E/DX2 analytically  !
 ! R65   R(51,54)                1.7872         calculate D2E/DX2 analytically  !
 ! R66   R(54,55)                1.3868         calculate D2E/DX2 analytically  !
 ! R67   R(54,56)                1.3866         calculate D2E/DX2 analytically  !
 ! R68   R(55,57)                1.3896         calculate D2E/DX2 analytically  !
 ! R69   R(55,58)                1.0836         calculate D2E/DX2 analytically  !
 ! R70   R(56,59)                1.3866         calculate D2E/DX2 analytically  !
 ! R71   R(56,60)                1.0818         calculate D2E/DX2 analytically  !
 ! R72   R(57,61)                1.3895         calculate D2E/DX2 analytically  !
 ! R73   R(57,93)                1.4991         calculate D2E/DX2 analytically  !
 ! R74   R(59,61)                1.3877         calculate D2E/DX2 analytically  !
 ! R75   R(59,97)                1.4985         calculate D2E/DX2 analytically  !
 ! R76   R(61,62)                1.0831         calculate D2E/DX2 analytically  !
 ! R77   R(63,64)                1.0943         calculate D2E/DX2 analytically  !
 ! R78   R(63,65)                1.0918         calculate D2E/DX2 analytically  !
 ! R79   R(63,66)                1.0902         calculate D2E/DX2 analytically  !
 ! R80   R(67,68)                1.0936         calculate D2E/DX2 analytically  !
 ! R81   R(67,69)                1.0977         calculate D2E/DX2 analytically  !
 ! R82   R(67,70)                1.0912         calculate D2E/DX2 analytically  !
 ! R83   R(71,72)                1.0955         calculate D2E/DX2 analytically  !
 ! R84   R(71,73)                1.0963         calculate D2E/DX2 analytically  !
 ! R85   R(71,74)                1.0909         calculate D2E/DX2 analytically  !
 ! R86   R(75,76)                1.0906         calculate D2E/DX2 analytically  !
 ! R87   R(75,77)                1.098          calculate D2E/DX2 analytically  !
 ! R88   R(75,78)                1.0982         calculate D2E/DX2 analytically  !
 ! R89   R(79,80)                1.0905         calculate D2E/DX2 analytically  !
 ! R90   R(79,81)                1.095          calculate D2E/DX2 analytically  !
 ! R91   R(79,82)                1.0981         calculate D2E/DX2 analytically  !
 ! R92   R(83,84)                2.2742         calculate D2E/DX2 analytically  !
 ! R93   R(84,85)                1.4121         calculate D2E/DX2 analytically  !
 ! R94   R(84,89)                1.4196         calculate D2E/DX2 analytically  !
 ! R95   R(85,86)                1.0977         calculate D2E/DX2 analytically  !
 ! R96   R(85,87)                1.0912         calculate D2E/DX2 analytically  !
 ! R97   R(85,88)                1.0975         calculate D2E/DX2 analytically  !
 ! R98   R(89,90)                1.0974         calculate D2E/DX2 analytically  !
 ! R99   R(89,91)                1.0927         calculate D2E/DX2 analytically  !
 ! R100  R(89,92)                1.0979         calculate D2E/DX2 analytically  !
 ! R101  R(93,94)                1.349          calculate D2E/DX2 analytically  !
 ! R102  R(93,95)                1.3417         calculate D2E/DX2 analytically  !
 ! R103  R(93,96)                1.341          calculate D2E/DX2 analytically  !
 ! R104  R(97,98)                1.3462         calculate D2E/DX2 analytically  !
 ! R105  R(97,99)                1.345          calculate D2E/DX2 analytically  !
 ! R106  R(97,100)               1.3438         calculate D2E/DX2 analytically  !
 ! A1    A(2,1,5)              110.3257         calculate D2E/DX2 analytically  !
 ! A2    A(2,1,8)              108.3438         calculate D2E/DX2 analytically  !
 ! A3    A(2,1,14)             108.2095         calculate D2E/DX2 analytically  !
 ! A4    A(5,1,8)              109.2686         calculate D2E/DX2 analytically  !
 ! A5    A(5,1,14)             110.7203         calculate D2E/DX2 analytically  !
 ! A6    A(8,1,14)             109.9336         calculate D2E/DX2 analytically  !
 ! A7    A(1,2,3)              110.4291         calculate D2E/DX2 analytically  !
 ! A8    A(1,2,7)              108.9173         calculate D2E/DX2 analytically  !
 ! A9    A(1,2,13)             111.647          calculate D2E/DX2 analytically  !
 ! A10   A(3,2,7)              106.5937         calculate D2E/DX2 analytically  !
 ! A11   A(3,2,13)             108.5049         calculate D2E/DX2 analytically  !
 ! A12   A(7,2,13)             110.6273         calculate D2E/DX2 analytically  !
 ! A13   A(2,3,6)              110.361          calculate D2E/DX2 analytically  !
 ! A14   A(2,3,11)             110.2539         calculate D2E/DX2 analytically  !
 ! A15   A(2,3,12)             108.7419         calculate D2E/DX2 analytically  !
 ! A16   A(6,3,11)             105.1337         calculate D2E/DX2 analytically  !
 ! A17   A(6,3,12)             110.3996         calculate D2E/DX2 analytically  !
 ! A18   A(11,3,12)            111.926          calculate D2E/DX2 analytically  !
 ! A19   A(5,4,9)              107.9459         calculate D2E/DX2 analytically  !
 ! A20   A(5,4,11)             109.5796         calculate D2E/DX2 analytically  !
 ! A21   A(5,4,16)             114.1577         calculate D2E/DX2 analytically  !
 ! A22   A(9,4,11)             108.8774         calculate D2E/DX2 analytically  !
 ! A23   A(9,4,16)             109.2508         calculate D2E/DX2 analytically  !
 ! A24   A(11,4,16)            106.9335         calculate D2E/DX2 analytically  !
 ! A25   A(1,5,4)              111.6237         calculate D2E/DX2 analytically  !
 ! A26   A(1,5,10)             107.5232         calculate D2E/DX2 analytically  !
 ! A27   A(1,5,15)             109.2443         calculate D2E/DX2 analytically  !
 ! A28   A(4,5,10)             109.6006         calculate D2E/DX2 analytically  !
 ! A29   A(4,5,15)             108.9781         calculate D2E/DX2 analytically  !
 ! A30   A(10,5,15)            109.852          calculate D2E/DX2 analytically  !
 ! A31   A(5,10,37)            140.4857         calculate D2E/DX2 analytically  !
 ! A32   A(3,11,4)             114.3615         calculate D2E/DX2 analytically  !
 ! A33   A(3,12,79)            113.3999         calculate D2E/DX2 analytically  !
 ! A34   A(2,13,20)            114.025          calculate D2E/DX2 analytically  !
 ! A35   A(1,14,24)            114.2538         calculate D2E/DX2 analytically  !
 ! A36   A(5,15,28)            113.9301         calculate D2E/DX2 analytically  !
 ! A37   A(4,16,17)            105.6271         calculate D2E/DX2 analytically  !
 ! A38   A(4,16,18)            105.3931         calculate D2E/DX2 analytically  !
 ! A39   A(4,16,19)            114.2404         calculate D2E/DX2 analytically  !
 ! A40   A(17,16,18)           105.0975         calculate D2E/DX2 analytically  !
 ! A41   A(17,16,19)           113.8491         calculate D2E/DX2 analytically  !
 ! A42   A(18,16,19)           111.8236         calculate D2E/DX2 analytically  !
 ! A43   A(16,19,37)           122.6056         calculate D2E/DX2 analytically  !
 ! A44   A(16,19,38)           153.0632         calculate D2E/DX2 analytically  !
 ! A45   A(16,19,83)           108.3863         calculate D2E/DX2 analytically  !
 ! A46   A(37,19,38)            75.8925         calculate D2E/DX2 analytically  !
 ! A47   A(37,19,83)            63.4684         calculate D2E/DX2 analytically  !
 ! A48   A(38,19,83)            97.3235         calculate D2E/DX2 analytically  !
 ! A49   A(13,20,21)           111.3342         calculate D2E/DX2 analytically  !
 ! A50   A(13,20,22)           111.4207         calculate D2E/DX2 analytically  !
 ! A51   A(13,20,23)           107.0136         calculate D2E/DX2 analytically  !
 ! A52   A(21,20,22)           108.8949         calculate D2E/DX2 analytically  !
 ! A53   A(21,20,23)           108.6255         calculate D2E/DX2 analytically  !
 ! A54   A(22,20,23)           109.4891         calculate D2E/DX2 analytically  !
 ! A55   A(14,24,25)           111.4334         calculate D2E/DX2 analytically  !
 ! A56   A(14,24,26)           110.9586         calculate D2E/DX2 analytically  !
 ! A57   A(14,24,27)           106.7839         calculate D2E/DX2 analytically  !
 ! A58   A(25,24,26)           108.9671         calculate D2E/DX2 analytically  !
 ! A59   A(25,24,27)           109.5813         calculate D2E/DX2 analytically  !
 ! A60   A(26,24,27)           109.0676         calculate D2E/DX2 analytically  !
 ! A61   A(15,28,29)           110.8505         calculate D2E/DX2 analytically  !
 ! A62   A(15,28,30)           111.9076         calculate D2E/DX2 analytically  !
 ! A63   A(15,28,31)           106.9211         calculate D2E/DX2 analytically  !
 ! A64   A(29,28,30)           108.6694         calculate D2E/DX2 analytically  !
 ! A65   A(29,28,31)           109.1667         calculate D2E/DX2 analytically  !
 ! A66   A(30,28,31)           109.276          calculate D2E/DX2 analytically  !
 ! A67   A(33,32,36)           107.8187         calculate D2E/DX2 analytically  !
 ! A68   A(33,32,39)           109.5138         calculate D2E/DX2 analytically  !
 ! A69   A(33,32,45)           108.7059         calculate D2E/DX2 analytically  !
 ! A70   A(36,32,39)           110.4325         calculate D2E/DX2 analytically  !
 ! A71   A(36,32,45)           109.2395         calculate D2E/DX2 analytically  !
 ! A72   A(39,32,45)           111.0547         calculate D2E/DX2 analytically  !
 ! A73   A(32,33,34)           111.3999         calculate D2E/DX2 analytically  !
 ! A74   A(32,33,38)           109.142          calculate D2E/DX2 analytically  !
 ! A75   A(32,33,44)           116.2708         calculate D2E/DX2 analytically  !
 ! A76   A(34,33,38)           102.6642         calculate D2E/DX2 analytically  !
 ! A77   A(34,33,44)           107.6171         calculate D2E/DX2 analytically  !
 ! A78   A(38,33,44)           108.8566         calculate D2E/DX2 analytically  !
 ! A79   A(33,34,37)           121.1276         calculate D2E/DX2 analytically  !
 ! A80   A(33,34,42)           123.0053         calculate D2E/DX2 analytically  !
 ! A81   A(33,34,53)            95.5374         calculate D2E/DX2 analytically  !
 ! A82   A(37,34,42)           114.6686         calculate D2E/DX2 analytically  !
 ! A83   A(37,34,53)            86.8486         calculate D2E/DX2 analytically  !
 ! A84   A(42,34,53)            98.2007         calculate D2E/DX2 analytically  !
 ! A85   A(36,35,40)           109.528          calculate D2E/DX2 analytically  !
 ! A86   A(36,35,42)           111.0975         calculate D2E/DX2 analytically  !
 ! A87   A(36,35,47)           114.8101         calculate D2E/DX2 analytically  !
 ! A88   A(40,35,42)           104.9004         calculate D2E/DX2 analytically  !
 ! A89   A(40,35,47)           109.5513         calculate D2E/DX2 analytically  !
 ! A90   A(42,35,47)           106.459          calculate D2E/DX2 analytically  !
 ! A91   A(32,36,35)           111.26           calculate D2E/DX2 analytically  !
 ! A92   A(32,36,41)           108.3571         calculate D2E/DX2 analytically  !
 ! A93   A(32,36,46)           110.4633         calculate D2E/DX2 analytically  !
 ! A94   A(35,36,41)           109.067          calculate D2E/DX2 analytically  !
 ! A95   A(35,36,46)           107.0283         calculate D2E/DX2 analytically  !
 ! A96   A(41,36,46)           110.6667         calculate D2E/DX2 analytically  !
 ! A97   A(10,37,19)            82.2459         calculate D2E/DX2 analytically  !
 ! A98   A(10,37,34)           118.4211         calculate D2E/DX2 analytically  !
 ! A99   A(10,37,52)           102.1562         calculate D2E/DX2 analytically  !
 ! A100  A(19,37,34)            92.9666         calculate D2E/DX2 analytically  !
 ! A101  A(19,37,52)           122.2664         calculate D2E/DX2 analytically  !
 ! A102  A(34,37,52)           129.7574         calculate D2E/DX2 analytically  !
 ! A103  A(19,38,33)           105.1201         calculate D2E/DX2 analytically  !
 ! A104  A(34,42,35)           121.2278         calculate D2E/DX2 analytically  !
 ! A105  A(34,42,60)           100.1661         calculate D2E/DX2 analytically  !
 ! A106  A(35,42,60)           106.6747         calculate D2E/DX2 analytically  !
 ! A107  A(33,44,63)           114.9858         calculate D2E/DX2 analytically  !
 ! A108  A(32,45,67)           114.182          calculate D2E/DX2 analytically  !
 ! A109  A(36,46,71)           113.9159         calculate D2E/DX2 analytically  !
 ! A110  A(35,47,48)           108.1521         calculate D2E/DX2 analytically  !
 ! A111  A(35,47,49)           109.147          calculate D2E/DX2 analytically  !
 ! A112  A(35,47,50)           108.7988         calculate D2E/DX2 analytically  !
 ! A113  A(48,47,49)           108.1125         calculate D2E/DX2 analytically  !
 ! A114  A(48,47,50)           111.423          calculate D2E/DX2 analytically  !
 ! A115  A(49,47,50)           111.138          calculate D2E/DX2 analytically  !
 ! A116  A(47,50,75)           112.4748         calculate D2E/DX2 analytically  !
 ! A117  A(43,51,52)           114.5829         calculate D2E/DX2 analytically  !
 ! A118  A(43,51,53)           113.9361         calculate D2E/DX2 analytically  !
 ! A119  A(43,51,54)           107.0523         calculate D2E/DX2 analytically  !
 ! A120  A(52,51,53)           111.4625         calculate D2E/DX2 analytically  !
 ! A121  A(52,51,54)           104.8703         calculate D2E/DX2 analytically  !
 ! A122  A(53,51,54)           103.7951         calculate D2E/DX2 analytically  !
 ! A123  A(37,52,51)            92.51           calculate D2E/DX2 analytically  !
 ! A124  A(34,53,51)           113.1509         calculate D2E/DX2 analytically  !
 ! A125  A(51,54,55)           119.9141         calculate D2E/DX2 analytically  !
 ! A126  A(51,54,56)           119.0806         calculate D2E/DX2 analytically  !
 ! A127  A(55,54,56)           120.9596         calculate D2E/DX2 analytically  !
 ! A128  A(54,55,57)           118.962          calculate D2E/DX2 analytically  !
 ! A129  A(54,55,58)           120.0887         calculate D2E/DX2 analytically  !
 ! A130  A(57,55,58)           120.948          calculate D2E/DX2 analytically  !
 ! A131  A(54,56,59)           119.3427         calculate D2E/DX2 analytically  !
 ! A132  A(54,56,60)           120.4468         calculate D2E/DX2 analytically  !
 ! A133  A(59,56,60)           120.2105         calculate D2E/DX2 analytically  !
 ! A134  A(55,57,61)           120.8513         calculate D2E/DX2 analytically  !
 ! A135  A(55,57,93)           119.4779         calculate D2E/DX2 analytically  !
 ! A136  A(61,57,93)           119.5815         calculate D2E/DX2 analytically  !
 ! A137  A(56,59,61)           120.6609         calculate D2E/DX2 analytically  !
 ! A138  A(56,59,97)           119.1084         calculate D2E/DX2 analytically  !
 ! A139  A(61,59,97)           120.1461         calculate D2E/DX2 analytically  !
 ! A140  A(42,60,56)           161.6194         calculate D2E/DX2 analytically  !
 ! A141  A(57,61,59)           119.2147         calculate D2E/DX2 analytically  !
 ! A142  A(57,61,62)           120.3142         calculate D2E/DX2 analytically  !
 ! A143  A(59,61,62)           120.471          calculate D2E/DX2 analytically  !
 ! A144  A(44,63,64)           110.8458         calculate D2E/DX2 analytically  !
 ! A145  A(44,63,65)           111.143          calculate D2E/DX2 analytically  !
 ! A146  A(44,63,66)           106.3749         calculate D2E/DX2 analytically  !
 ! A147  A(64,63,65)           109.1106         calculate D2E/DX2 analytically  !
 ! A148  A(64,63,66)           109.2905         calculate D2E/DX2 analytically  !
 ! A149  A(65,63,66)           110.0352         calculate D2E/DX2 analytically  !
 ! A150  A(45,67,68)           111.3061         calculate D2E/DX2 analytically  !
 ! A151  A(45,67,69)           111.013          calculate D2E/DX2 analytically  !
 ! A152  A(45,67,70)           106.6649         calculate D2E/DX2 analytically  !
 ! A153  A(68,67,69)           109.1937         calculate D2E/DX2 analytically  !
 ! A154  A(68,67,70)           109.5675         calculate D2E/DX2 analytically  !
 ! A155  A(69,67,70)           109.0386         calculate D2E/DX2 analytically  !
 ! A156  A(46,71,72)           110.9241         calculate D2E/DX2 analytically  !
 ! A157  A(46,71,73)           111.0752         calculate D2E/DX2 analytically  !
 ! A158  A(46,71,74)           106.7375         calculate D2E/DX2 analytically  !
 ! A159  A(72,71,73)           109.201          calculate D2E/DX2 analytically  !
 ! A160  A(72,71,74)           109.4306         calculate D2E/DX2 analytically  !
 ! A161  A(73,71,74)           109.4268         calculate D2E/DX2 analytically  !
 ! A162  A(50,75,76)           107.1401         calculate D2E/DX2 analytically  !
 ! A163  A(50,75,77)           111.1434         calculate D2E/DX2 analytically  !
 ! A164  A(50,75,78)           111.2011         calculate D2E/DX2 analytically  !
 ! A165  A(76,75,77)           109.2448         calculate D2E/DX2 analytically  !
 ! A166  A(76,75,78)           109.3135         calculate D2E/DX2 analytically  !
 ! A167  A(77,75,78)           108.7589         calculate D2E/DX2 analytically  !
 ! A168  A(12,79,80)           106.9334         calculate D2E/DX2 analytically  !
 ! A169  A(12,79,81)           111.4898         calculate D2E/DX2 analytically  !
 ! A170  A(12,79,82)           110.7512         calculate D2E/DX2 analytically  !
 ! A171  A(80,79,81)           109.459          calculate D2E/DX2 analytically  !
 ! A172  A(80,79,82)           109.2657         calculate D2E/DX2 analytically  !
 ! A173  A(81,79,82)           108.9006         calculate D2E/DX2 analytically  !
 ! A174  A(19,83,84)            98.4886         calculate D2E/DX2 analytically  !
 ! A175  A(83,84,85)           135.442          calculate D2E/DX2 analytically  !
 ! A176  A(83,84,89)           111.2787         calculate D2E/DX2 analytically  !
 ! A177  A(85,84,89)           113.0638         calculate D2E/DX2 analytically  !
 ! A178  A(84,85,86)           110.8387         calculate D2E/DX2 analytically  !
 ! A179  A(84,85,87)           107.5287         calculate D2E/DX2 analytically  !
 ! A180  A(84,85,88)           110.9522         calculate D2E/DX2 analytically  !
 ! A181  A(86,85,87)           109.3199         calculate D2E/DX2 analytically  !
 ! A182  A(86,85,88)           108.8363         calculate D2E/DX2 analytically  !
 ! A183  A(87,85,88)           109.3353         calculate D2E/DX2 analytically  !
 ! A184  A(84,89,90)           110.537          calculate D2E/DX2 analytically  !
 ! A185  A(84,89,91)           106.2365         calculate D2E/DX2 analytically  !
 ! A186  A(84,89,92)           110.4463         calculate D2E/DX2 analytically  !
 ! A187  A(90,89,91)           110.3509         calculate D2E/DX2 analytically  !
 ! A188  A(90,89,92)           108.8982         calculate D2E/DX2 analytically  !
 ! A189  A(91,89,92)           110.3585         calculate D2E/DX2 analytically  !
 ! A190  A(57,93,94)           111.2113         calculate D2E/DX2 analytically  !
 ! A191  A(57,93,95)           111.9378         calculate D2E/DX2 analytically  !
 ! A192  A(57,93,96)           111.8834         calculate D2E/DX2 analytically  !
 ! A193  A(94,93,95)           106.8311         calculate D2E/DX2 analytically  !
 ! A194  A(94,93,96)           106.8562         calculate D2E/DX2 analytically  !
 ! A195  A(95,93,96)           107.8356         calculate D2E/DX2 analytically  !
 ! A196  A(59,97,98)           112.0333         calculate D2E/DX2 analytically  !
 ! A197  A(59,97,99)           111.4833         calculate D2E/DX2 analytically  !
 ! A198  A(59,97,100)          111.9978         calculate D2E/DX2 analytically  !
 ! A199  A(98,97,99)           106.5521         calculate D2E/DX2 analytically  !
 ! A200  A(98,97,100)          107.607          calculate D2E/DX2 analytically  !
 ! A201  A(99,97,100)          106.8458         calculate D2E/DX2 analytically  !
 ! D1    D(5,1,2,3)            -52.3269         calculate D2E/DX2 analytically  !
 ! D2    D(5,1,2,7)             64.4042         calculate D2E/DX2 analytically  !
 ! D3    D(5,1,2,13)          -173.1382         calculate D2E/DX2 analytically  !
 ! D4    D(8,1,2,3)             67.2485         calculate D2E/DX2 analytically  !
 ! D5    D(8,1,2,7)           -176.0205         calculate D2E/DX2 analytically  !
 ! D6    D(8,1,2,13)           -53.5629         calculate D2E/DX2 analytically  !
 ! D7    D(14,1,2,3)          -173.5953         calculate D2E/DX2 analytically  !
 ! D8    D(14,1,2,7)           -56.8642         calculate D2E/DX2 analytically  !
 ! D9    D(14,1,2,13)           65.5934         calculate D2E/DX2 analytically  !
 ! D10   D(2,1,5,4)             51.6751         calculate D2E/DX2 analytically  !
 ! D11   D(2,1,5,10)           -68.562          calculate D2E/DX2 analytically  !
 ! D12   D(2,1,5,15)           172.2668         calculate D2E/DX2 analytically  !
 ! D13   D(8,1,5,4)            -67.3389         calculate D2E/DX2 analytically  !
 ! D14   D(8,1,5,10)           172.424          calculate D2E/DX2 analytically  !
 ! D15   D(8,1,5,15)            53.2528         calculate D2E/DX2 analytically  !
 ! D16   D(14,1,5,4)           171.4378         calculate D2E/DX2 analytically  !
 ! D17   D(14,1,5,10)           51.2007         calculate D2E/DX2 analytically  !
 ! D18   D(14,1,5,15)          -67.9705         calculate D2E/DX2 analytically  !
 ! D19   D(2,1,14,24)         -141.3922         calculate D2E/DX2 analytically  !
 ! D20   D(5,1,14,24)           97.5839         calculate D2E/DX2 analytically  !
 ! D21   D(8,1,14,24)          -23.2458         calculate D2E/DX2 analytically  !
 ! D22   D(1,2,3,6)            171.9678         calculate D2E/DX2 analytically  !
 ! D23   D(1,2,3,11)            56.261          calculate D2E/DX2 analytically  !
 ! D24   D(1,2,3,12)           -66.7982         calculate D2E/DX2 analytically  !
 ! D25   D(7,2,3,6)             53.8041         calculate D2E/DX2 analytically  !
 ! D26   D(7,2,3,11)           -61.9027         calculate D2E/DX2 analytically  !
 ! D27   D(7,2,3,12)           175.0381         calculate D2E/DX2 analytically  !
 ! D28   D(13,2,3,6)           -65.364          calculate D2E/DX2 analytically  !
 ! D29   D(13,2,3,11)          178.9291         calculate D2E/DX2 analytically  !
 ! D30   D(13,2,3,12)           55.87           calculate D2E/DX2 analytically  !
 ! D31   D(1,2,13,20)          -98.9449         calculate D2E/DX2 analytically  !
 ! D32   D(3,2,13,20)          139.1281         calculate D2E/DX2 analytically  !
 ! D33   D(7,2,13,20)           22.5276         calculate D2E/DX2 analytically  !
 ! D34   D(2,3,11,4)           -61.153          calculate D2E/DX2 analytically  !
 ! D35   D(6,3,11,4)           179.901          calculate D2E/DX2 analytically  !
 ! D36   D(12,3,11,4)           60.0261         calculate D2E/DX2 analytically  !
 ! D37   D(2,3,12,79)         -173.1356         calculate D2E/DX2 analytically  !
 ! D38   D(6,3,12,79)          -51.9253         calculate D2E/DX2 analytically  !
 ! D39   D(11,3,12,79)          64.8154         calculate D2E/DX2 analytically  !
 ! D40   D(9,4,5,1)             64.963          calculate D2E/DX2 analytically  !
 ! D41   D(9,4,5,10)          -176.0267         calculate D2E/DX2 analytically  !
 ! D42   D(9,4,5,15)           -55.7842         calculate D2E/DX2 analytically  !
 ! D43   D(11,4,5,1)           -53.4717         calculate D2E/DX2 analytically  !
 ! D44   D(11,4,5,10)           65.5385         calculate D2E/DX2 analytically  !
 ! D45   D(11,4,5,15)         -174.219          calculate D2E/DX2 analytically  !
 ! D46   D(16,4,5,1)          -173.3622         calculate D2E/DX2 analytically  !
 ! D47   D(16,4,5,10)          -54.352          calculate D2E/DX2 analytically  !
 ! D48   D(16,4,5,15)           65.8906         calculate D2E/DX2 analytically  !
 ! D49   D(5,4,11,3)            59.3872         calculate D2E/DX2 analytically  !
 ! D50   D(9,4,11,3)           -58.468          calculate D2E/DX2 analytically  !
 ! D51   D(16,4,11,3)         -176.3948         calculate D2E/DX2 analytically  !
 ! D52   D(5,4,16,17)          -59.9894         calculate D2E/DX2 analytically  !
 ! D53   D(5,4,16,18)         -170.9382         calculate D2E/DX2 analytically  !
 ! D54   D(5,4,16,19)           65.9119         calculate D2E/DX2 analytically  !
 ! D55   D(9,4,16,17)           60.9635         calculate D2E/DX2 analytically  !
 ! D56   D(9,4,16,18)          -49.9853         calculate D2E/DX2 analytically  !
 ! D57   D(9,4,16,19)         -173.1351         calculate D2E/DX2 analytically  !
 ! D58   D(11,4,16,17)         178.6456         calculate D2E/DX2 analytically  !
 ! D59   D(11,4,16,18)          67.6968         calculate D2E/DX2 analytically  !
 ! D60   D(11,4,16,19)         -55.453          calculate D2E/DX2 analytically  !
 ! D61   D(1,5,10,37)          117.4025         calculate D2E/DX2 analytically  !
 ! D62   D(4,5,10,37)           -4.1074         calculate D2E/DX2 analytically  !
 ! D63   D(15,5,10,37)        -123.8159         calculate D2E/DX2 analytically  !
 ! D64   D(1,5,15,28)          128.6145         calculate D2E/DX2 analytically  !
 ! D65   D(4,5,15,28)         -109.1898         calculate D2E/DX2 analytically  !
 ! D66   D(10,5,15,28)          10.8976         calculate D2E/DX2 analytically  !
 ! D67   D(5,10,37,19)          35.9956         calculate D2E/DX2 analytically  !
 ! D68   D(5,10,37,34)         125.1763         calculate D2E/DX2 analytically  !
 ! D69   D(5,10,37,52)         -85.4581         calculate D2E/DX2 analytically  !
 ! D70   D(3,12,79,80)         174.7743         calculate D2E/DX2 analytically  !
 ! D71   D(3,12,79,81)         -65.6143         calculate D2E/DX2 analytically  !
 ! D72   D(3,12,79,82)          55.8152         calculate D2E/DX2 analytically  !
 ! D73   D(2,13,20,21)         -62.0318         calculate D2E/DX2 analytically  !
 ! D74   D(2,13,20,22)          59.7495         calculate D2E/DX2 analytically  !
 ! D75   D(2,13,20,23)         179.4081         calculate D2E/DX2 analytically  !
 ! D76   D(1,14,24,25)         -60.6114         calculate D2E/DX2 analytically  !
 ! D77   D(1,14,24,26)          61.0083         calculate D2E/DX2 analytically  !
 ! D78   D(1,14,24,27)         179.7539         calculate D2E/DX2 analytically  !
 ! D79   D(5,15,28,29)         -65.9452         calculate D2E/DX2 analytically  !
 ! D80   D(5,15,28,30)          55.5461         calculate D2E/DX2 analytically  !
 ! D81   D(5,15,28,31)         175.1671         calculate D2E/DX2 analytically  !
 ! D82   D(4,16,19,37)         -19.6546         calculate D2E/DX2 analytically  !
 ! D83   D(4,16,19,38)        -147.9803         calculate D2E/DX2 analytically  !
 ! D84   D(4,16,19,83)          50.0924         calculate D2E/DX2 analytically  !
 ! D85   D(17,16,19,37)        101.8155         calculate D2E/DX2 analytically  !
 ! D86   D(17,16,19,38)        -26.5102         calculate D2E/DX2 analytically  !
 ! D87   D(17,16,19,83)        171.5624         calculate D2E/DX2 analytically  !
 ! D88   D(18,16,19,37)       -139.251          calculate D2E/DX2 analytically  !
 ! D89   D(18,16,19,38)         92.4233         calculate D2E/DX2 analytically  !
 ! D90   D(18,16,19,83)        -69.5041         calculate D2E/DX2 analytically  !
 ! D91   D(16,19,37,10)        -17.5349         calculate D2E/DX2 analytically  !
 ! D92   D(16,19,37,34)       -135.8246         calculate D2E/DX2 analytically  !
 ! D93   D(16,19,37,52)         81.9834         calculate D2E/DX2 analytically  !
 ! D94   D(38,19,37,10)        140.9692         calculate D2E/DX2 analytically  !
 ! D95   D(38,19,37,34)         22.6795         calculate D2E/DX2 analytically  !
 ! D96   D(38,19,37,52)       -119.5125         calculate D2E/DX2 analytically  !
 ! D97   D(83,19,37,10)       -113.2247         calculate D2E/DX2 analytically  !
 ! D98   D(83,19,37,34)        128.4857         calculate D2E/DX2 analytically  !
 ! D99   D(83,19,37,52)        -13.7063         calculate D2E/DX2 analytically  !
 ! D100  D(16,19,38,33)        153.9024         calculate D2E/DX2 analytically  !
 ! D101  D(37,19,38,33)         16.8565         calculate D2E/DX2 analytically  !
 ! D102  D(83,19,38,33)        -43.3635         calculate D2E/DX2 analytically  !
 ! D103  D(16,19,83,84)         82.5922         calculate D2E/DX2 analytically  !
 ! D104  D(37,19,83,84)       -159.4561         calculate D2E/DX2 analytically  !
 ! D105  D(38,19,83,84)        -89.2622         calculate D2E/DX2 analytically  !
 ! D106  D(36,32,33,34)        -48.3257         calculate D2E/DX2 analytically  !
 ! D107  D(36,32,33,38)         64.3355         calculate D2E/DX2 analytically  !
 ! D108  D(36,32,33,44)       -172.1016         calculate D2E/DX2 analytically  !
 ! D109  D(39,32,33,34)         71.8697         calculate D2E/DX2 analytically  !
 ! D110  D(39,32,33,38)       -175.4692         calculate D2E/DX2 analytically  !
 ! D111  D(39,32,33,44)        -51.9062         calculate D2E/DX2 analytically  !
 ! D112  D(45,32,33,34)       -166.6367         calculate D2E/DX2 analytically  !
 ! D113  D(45,32,33,38)        -53.9756         calculate D2E/DX2 analytically  !
 ! D114  D(45,32,33,44)         69.5874         calculate D2E/DX2 analytically  !
 ! D115  D(33,32,36,35)         59.2106         calculate D2E/DX2 analytically  !
 ! D116  D(33,32,36,41)        -60.6855         calculate D2E/DX2 analytically  !
 ! D117  D(33,32,36,46)        177.9339         calculate D2E/DX2 analytically  !
 ! D118  D(39,32,36,35)        -60.4043         calculate D2E/DX2 analytically  !
 ! D119  D(39,32,36,41)        179.6997         calculate D2E/DX2 analytically  !
 ! D120  D(39,32,36,46)         58.319          calculate D2E/DX2 analytically  !
 ! D121  D(45,32,36,35)        177.1786         calculate D2E/DX2 analytically  !
 ! D122  D(45,32,36,41)         57.2826         calculate D2E/DX2 analytically  !
 ! D123  D(45,32,36,46)        -64.0981         calculate D2E/DX2 analytically  !
 ! D124  D(33,32,45,67)       -140.5131         calculate D2E/DX2 analytically  !
 ! D125  D(36,32,45,67)        102.0768         calculate D2E/DX2 analytically  !
 ! D126  D(39,32,45,67)        -19.9665         calculate D2E/DX2 analytically  !
 ! D127  D(32,33,34,37)       -158.8704         calculate D2E/DX2 analytically  !
 ! D128  D(32,33,34,42)         34.3117         calculate D2E/DX2 analytically  !
 ! D129  D(32,33,34,53)        -69.2127         calculate D2E/DX2 analytically  !
 ! D130  D(38,33,34,37)         84.4479         calculate D2E/DX2 analytically  !
 ! D131  D(38,33,34,42)        -82.3701         calculate D2E/DX2 analytically  !
 ! D132  D(38,33,34,53)        174.1055         calculate D2E/DX2 analytically  !
 ! D133  D(44,33,34,37)        -30.3182         calculate D2E/DX2 analytically  !
 ! D134  D(44,33,34,42)        162.8639         calculate D2E/DX2 analytically  !
 ! D135  D(44,33,34,53)         59.3395         calculate D2E/DX2 analytically  !
 ! D136  D(32,33,38,19)       -158.2157         calculate D2E/DX2 analytically  !
 ! D137  D(34,33,38,19)        -39.9308         calculate D2E/DX2 analytically  !
 ! D138  D(44,33,38,19)         73.9314         calculate D2E/DX2 analytically  !
 ! D139  D(32,33,44,63)        -72.8096         calculate D2E/DX2 analytically  !
 ! D140  D(34,33,44,63)        161.4816         calculate D2E/DX2 analytically  !
 ! D141  D(38,33,44,63)         50.9011         calculate D2E/DX2 analytically  !
 ! D142  D(33,34,37,10)       -143.4871         calculate D2E/DX2 analytically  !
 ! D143  D(33,34,37,19)        -60.7008         calculate D2E/DX2 analytically  !
 ! D144  D(33,34,37,52)         76.9016         calculate D2E/DX2 analytically  !
 ! D145  D(42,34,37,10)         24.3642         calculate D2E/DX2 analytically  !
 ! D146  D(42,34,37,19)        107.1504         calculate D2E/DX2 analytically  !
 ! D147  D(42,34,37,52)       -115.2472         calculate D2E/DX2 analytically  !
 ! D148  D(53,34,37,10)        121.9446         calculate D2E/DX2 analytically  !
 ! D149  D(53,34,37,19)       -155.2692         calculate D2E/DX2 analytically  !
 ! D150  D(53,34,37,52)        -17.6668         calculate D2E/DX2 analytically  !
 ! D151  D(33,34,42,35)        -27.181          calculate D2E/DX2 analytically  !
 ! D152  D(33,34,42,60)       -143.9006         calculate D2E/DX2 analytically  !
 ! D153  D(37,34,42,35)        165.2238         calculate D2E/DX2 analytically  !
 ! D154  D(37,34,42,60)         48.5042         calculate D2E/DX2 analytically  !
 ! D155  D(53,34,42,35)         74.9333         calculate D2E/DX2 analytically  !
 ! D156  D(53,34,42,60)        -41.7863         calculate D2E/DX2 analytically  !
 ! D157  D(33,34,53,51)       -118.3946         calculate D2E/DX2 analytically  !
 ! D158  D(37,34,53,51)          2.5907         calculate D2E/DX2 analytically  !
 ! D159  D(42,34,53,51)        117.0713         calculate D2E/DX2 analytically  !
 ! D160  D(40,35,36,32)         64.4091         calculate D2E/DX2 analytically  !
 ! D161  D(40,35,36,41)       -176.1166         calculate D2E/DX2 analytically  !
 ! D162  D(40,35,36,46)        -56.3547         calculate D2E/DX2 analytically  !
 ! D163  D(42,35,36,32)        -51.0123         calculate D2E/DX2 analytically  !
 ! D164  D(42,35,36,41)         68.4619         calculate D2E/DX2 analytically  !
 ! D165  D(42,35,36,46)       -171.7762         calculate D2E/DX2 analytically  !
 ! D166  D(47,35,36,32)       -171.8708         calculate D2E/DX2 analytically  !
 ! D167  D(47,35,36,41)        -52.3966         calculate D2E/DX2 analytically  !
 ! D168  D(47,35,36,46)         67.3653         calculate D2E/DX2 analytically  !
 ! D169  D(36,35,42,34)         34.4499         calculate D2E/DX2 analytically  !
 ! D170  D(36,35,42,60)        147.8452         calculate D2E/DX2 analytically  !
 ! D171  D(40,35,42,34)        -83.806          calculate D2E/DX2 analytically  !
 ! D172  D(40,35,42,60)         29.5893         calculate D2E/DX2 analytically  !
 ! D173  D(47,35,42,34)        160.1091         calculate D2E/DX2 analytically  !
 ! D174  D(47,35,42,60)        -86.4956         calculate D2E/DX2 analytically  !
 ! D175  D(36,35,47,48)        -67.1134         calculate D2E/DX2 analytically  !
 ! D176  D(36,35,47,49)        175.4894         calculate D2E/DX2 analytically  !
 ! D177  D(36,35,47,50)         54.061          calculate D2E/DX2 analytically  !
 ! D178  D(40,35,47,48)         56.5942         calculate D2E/DX2 analytically  !
 ! D179  D(40,35,47,49)        -60.803          calculate D2E/DX2 analytically  !
 ! D180  D(40,35,47,50)        177.7686         calculate D2E/DX2 analytically  !
 ! D181  D(42,35,47,48)        169.5145         calculate D2E/DX2 analytically  !
 ! D182  D(42,35,47,49)         52.1172         calculate D2E/DX2 analytically  !
 ! D183  D(42,35,47,50)        -69.3112         calculate D2E/DX2 analytically  !
 ! D184  D(32,36,46,71)        118.7511         calculate D2E/DX2 analytically  !
 ! D185  D(35,36,46,71)       -119.9801         calculate D2E/DX2 analytically  !
 ! D186  D(41,36,46,71)         -1.2506         calculate D2E/DX2 analytically  !
 ! D187  D(10,37,52,51)       -114.0807         calculate D2E/DX2 analytically  !
 ! D188  D(19,37,52,51)        157.4792         calculate D2E/DX2 analytically  !
 ! D189  D(34,37,52,51)         30.2615         calculate D2E/DX2 analytically  !
 ! D190  D(34,42,60,56)         -2.1712         calculate D2E/DX2 analytically  !
 ! D191  D(35,42,60,56)       -129.2954         calculate D2E/DX2 analytically  !
 ! D192  D(33,44,63,64)        -38.6048         calculate D2E/DX2 analytically  !
 ! D193  D(33,44,63,65)         82.9201         calculate D2E/DX2 analytically  !
 ! D194  D(33,44,63,66)       -157.3118         calculate D2E/DX2 analytically  !
 ! D195  D(32,45,67,68)        -58.3596         calculate D2E/DX2 analytically  !
 ! D196  D(32,45,67,69)         63.4995         calculate D2E/DX2 analytically  !
 ! D197  D(32,45,67,70)       -177.8314         calculate D2E/DX2 analytically  !
 ! D198  D(36,46,71,72)        -63.0995         calculate D2E/DX2 analytically  !
 ! D199  D(36,46,71,73)         58.5479         calculate D2E/DX2 analytically  !
 ! D200  D(36,46,71,74)        177.7641         calculate D2E/DX2 analytically  !
 ! D201  D(35,47,50,75)        178.382          calculate D2E/DX2 analytically  !
 ! D202  D(48,47,50,75)        -62.469          calculate D2E/DX2 analytically  !
 ! D203  D(49,47,50,75)         58.178          calculate D2E/DX2 analytically  !
 ! D204  D(47,50,75,76)       -179.8214         calculate D2E/DX2 analytically  !
 ! D205  D(47,50,75,77)        -60.5405         calculate D2E/DX2 analytically  !
 ! D206  D(47,50,75,78)         60.7812         calculate D2E/DX2 analytically  !
 ! D207  D(43,51,52,37)       -150.7026         calculate D2E/DX2 analytically  !
 ! D208  D(53,51,52,37)        -19.4593         calculate D2E/DX2 analytically  !
 ! D209  D(54,51,52,37)         92.2248         calculate D2E/DX2 analytically  !
 ! D210  D(43,51,53,34)        148.5207         calculate D2E/DX2 analytically  !
 ! D211  D(52,51,53,34)         16.9469         calculate D2E/DX2 analytically  !
 ! D212  D(54,51,53,34)        -95.4164         calculate D2E/DX2 analytically  !
 ! D213  D(43,51,54,55)        -30.6588         calculate D2E/DX2 analytically  !
 ! D214  D(43,51,54,56)        151.7749         calculate D2E/DX2 analytically  !
 ! D215  D(52,51,54,55)         91.459          calculate D2E/DX2 analytically  !
 ! D216  D(52,51,54,56)        -86.1074         calculate D2E/DX2 analytically  !
 ! D217  D(53,51,54,55)       -151.4754         calculate D2E/DX2 analytically  !
 ! D218  D(53,51,54,56)         30.9582         calculate D2E/DX2 analytically  !
 ! D219  D(51,54,55,57)       -176.8994         calculate D2E/DX2 analytically  !
 ! D220  D(51,54,55,58)          3.5253         calculate D2E/DX2 analytically  !
 ! D221  D(56,54,55,57)          0.6204         calculate D2E/DX2 analytically  !
 ! D222  D(56,54,55,58)       -178.955          calculate D2E/DX2 analytically  !
 ! D223  D(51,54,56,59)        177.7721         calculate D2E/DX2 analytically  !
 ! D224  D(51,54,56,60)         -2.1971         calculate D2E/DX2 analytically  !
 ! D225  D(55,54,56,59)          0.232          calculate D2E/DX2 analytically  !
 ! D226  D(55,54,56,60)       -179.7372         calculate D2E/DX2 analytically  !
 ! D227  D(54,55,57,61)         -1.0175         calculate D2E/DX2 analytically  !
 ! D228  D(54,55,57,93)        175.5304         calculate D2E/DX2 analytically  !
 ! D229  D(58,55,57,61)        178.5541         calculate D2E/DX2 analytically  !
 ! D230  D(58,55,57,93)         -4.898          calculate D2E/DX2 analytically  !
 ! D231  D(54,56,59,61)         -0.7079         calculate D2E/DX2 analytically  !
 ! D232  D(54,56,59,97)        175.9527         calculate D2E/DX2 analytically  !
 ! D233  D(60,56,59,61)        179.2614         calculate D2E/DX2 analytically  !
 ! D234  D(60,56,59,97)         -4.078          calculate D2E/DX2 analytically  !
 ! D235  D(54,56,60,42)         21.3069         calculate D2E/DX2 analytically  !
 ! D236  D(59,56,60,42)       -158.6621         calculate D2E/DX2 analytically  !
 ! D237  D(55,57,61,59)          0.5548         calculate D2E/DX2 analytically  !
 ! D238  D(55,57,61,62)       -179.5396         calculate D2E/DX2 analytically  !
 ! D239  D(93,57,61,59)       -175.9895         calculate D2E/DX2 analytically  !
 ! D240  D(93,57,61,62)          3.9161         calculate D2E/DX2 analytically  !
 ! D241  D(55,57,93,94)        -86.833          calculate D2E/DX2 analytically  !
 ! D242  D(55,57,93,95)        153.7507         calculate D2E/DX2 analytically  !
 ! D243  D(55,57,93,96)         32.5786         calculate D2E/DX2 analytically  !
 ! D244  D(61,57,93,94)         89.7592         calculate D2E/DX2 analytically  !
 ! D245  D(61,57,93,95)        -29.6571         calculate D2E/DX2 analytically  !
 ! D246  D(61,57,93,96)       -150.8292         calculate D2E/DX2 analytically  !
 ! D247  D(56,59,61,57)          0.3188         calculate D2E/DX2 analytically  !
 ! D248  D(56,59,61,62)       -179.5866         calculate D2E/DX2 analytically  !
 ! D249  D(97,59,61,57)       -176.3071         calculate D2E/DX2 analytically  !
 ! D250  D(97,59,61,62)          3.7874         calculate D2E/DX2 analytically  !
 ! D251  D(56,59,97,98)         32.1773         calculate D2E/DX2 analytically  !
 ! D252  D(56,59,97,99)        -87.1343         calculate D2E/DX2 analytically  !
 ! D253  D(56,59,97,100)       153.2036         calculate D2E/DX2 analytically  !
 ! D254  D(61,59,97,98)       -151.1446         calculate D2E/DX2 analytically  !
 ! D255  D(61,59,97,99)         89.5439         calculate D2E/DX2 analytically  !
 ! D256  D(61,59,97,100)       -30.1182         calculate D2E/DX2 analytically  !
 ! D257  D(19,83,84,85)       -171.2209         calculate D2E/DX2 analytically  !
 ! D258  D(19,83,84,89)          2.8841         calculate D2E/DX2 analytically  !
 ! D259  D(83,84,85,86)       -125.3142         calculate D2E/DX2 analytically  !
 ! D260  D(83,84,85,87)         -5.8777         calculate D2E/DX2 analytically  !
 ! D261  D(83,84,85,88)        113.6434         calculate D2E/DX2 analytically  !
 ! D262  D(89,84,85,86)         60.6564         calculate D2E/DX2 analytically  !
 ! D263  D(89,84,85,87)       -179.9071         calculate D2E/DX2 analytically  !
 ! D264  D(89,84,85,88)        -60.386          calculate D2E/DX2 analytically  !
 ! D265  D(83,84,89,90)       -114.6512         calculate D2E/DX2 analytically  !
 ! D266  D(83,84,89,91)          5.0775         calculate D2E/DX2 analytically  !
 ! D267  D(83,84,89,92)        124.7656         calculate D2E/DX2 analytically  !
 ! D268  D(85,84,89,90)         60.8567         calculate D2E/DX2 analytically  !
 ! D269  D(85,84,89,91)       -179.4146         calculate D2E/DX2 analytically  !
 ! D270  D(85,84,89,92)        -59.7265         calculate D2E/DX2 analytically  !
 --------------------------------------------------------------------------------
 Trust Radius=5.00D-02 FncErr=1.00D-07 GrdErr=1.00D-06 EigMax=2.50D+02 EigMin=1.00D-04
 Number of steps in this run=    587 maximum allowed number of steps=    600.
 Search for a saddle point of order  1.
 GradGradGradGradGradGradGradGradGradGradGradGradGradGradGradGradGradGrad

 Leave Link  103 at Wed Jun  5 12:16:38 2019, MaxMem=  6442450944 cpu:               3.4 elap:               0.2
 (Enter /home/ekwan/sw/g16/l202.exe)
 Stoichiometry    C30H47F6NaO15S
 Framework group  C1[X(C30H47F6NaO15S)]
 Deg. of freedom   294
 Full point group                 C1      NOp   1
 Largest Abelian subgroup         C1      NOp   1
 Largest concise Abelian subgroup C1      NOp   1
                         Standard orientation:                         
 ---------------------------------------------------------------------
 Center     Atomic      Atomic             Coordinates (Angstroms)
 Number     Number       Type             X           Y           Z
 ---------------------------------------------------------------------
      1          6           0       -1.823344    1.480654    2.224049
      2          6           0       -2.122630    2.284862    0.964693
      3          6           0       -1.245036    3.530970    0.907682
      4          6           0        0.489816    2.491724    2.197553
      5          6           0       -0.328173    1.208286    2.335300
      6          1           0       -1.356659    4.032683   -0.062287
      7          1           0       -1.865135    1.680187    0.087292
      8          1           0       -2.150475    2.065189    3.092860
      9          1           0        0.252342    3.137195    3.052019
     10          1           0       -0.059226    0.513712    1.533533
     11          8           0        0.119940    3.171952    0.982500
     12          8           0       -1.614997    4.386288    1.941809
     13          8           0       -3.474473    2.686336    0.912418
     14          8           0       -2.550828    0.265838    2.157205
     15          8           0       -0.052879    0.618900    3.595646
     16          6           0        2.002216    2.267198    2.139906
     17          1           0        2.266226    1.766780    3.092691
     18          1           0        2.454077    3.281030    2.210266
     19          8           0        2.429860    1.594375    1.022578
     20          6           0       -4.287665    1.865075    0.098548
     21          1           0       -3.954111    1.883775   -0.947392
     22          1           0       -4.289469    0.830257    0.451116
     23          1           0       -5.301070    2.268833    0.148720
     24          6           0       -3.091466   -0.156360    3.393966
     25          1           0       -2.306171   -0.327471    4.135904
     26          1           0       -3.798702    0.586069    3.787482
     27          1           0       -3.623210   -1.088568    3.203218
     28          6           0        0.705330   -0.573729    3.518370
     29          1           0        0.135525   -1.366666    3.020669
     30          1           0        1.644862   -0.425769    2.978055
     31          1           0        0.923546   -0.878802    4.544356
     32          6           0        3.790608   -1.489719   -1.340314
     33          6           0        3.178604   -0.173047   -0.874256
     34          6           0        1.839632   -0.386708   -0.243629
     35          6           0        2.223710   -2.703476    0.211730
     36          6           0        3.676162   -2.490541   -0.192330
     37          1           0        1.131557    0.411107   -0.165648
     38          1           0        3.776054    0.227863   -0.041879
     39          1           0        3.249104   -1.853730   -2.220536
     40          1           0        1.677144   -3.160993   -0.617129
     41          1           0        4.231838   -2.096954    0.664909
     42          8           0        1.550857   -1.428078    0.446933
     43          8           0       -0.486629    0.133667   -3.877477
     44          8           0        3.033737    0.826175   -1.851978
     45          8           0        5.152468   -1.275720   -1.636091
     46          8           0        4.184817   -3.746165   -0.580775
     47          6           0        2.028481   -3.525706    1.459475
     48          1           0        2.355799   -4.552798    1.247265
     49          1           0        0.958232   -3.552850    1.709665
     50          8           0        2.777549   -2.953368    2.500411
     51         16           0       -0.278647   -0.005263   -2.435447
     52          8           0       -0.173969    1.283201   -1.698045
     53          8           0        0.836274   -0.940044   -2.068432
     54          6           0       -1.735708   -0.797657   -1.769725
     55          6           0       -2.969214   -0.593297   -2.369602
     56          6           0       -1.618771   -1.570543   -0.624453
     57          6           0       -4.098720   -1.166179   -1.797756
     58          1           0       -3.042026   -0.000681   -3.273924
     59          6           0       -2.753364   -2.149724   -0.076804
     60          1           0       -0.652989   -1.721032   -0.160932
     61          6           0       -3.999076   -1.950353   -0.654959
     62          1           0       -4.884244   -2.398798   -0.220756
     63          6           0        4.248704    1.448040   -2.261734
     64          1           0        4.919321    1.592038   -1.409058
     65          1           0        4.759110    0.852720   -3.021351
     66          1           0        3.973448    2.420070   -2.671642
     67          6           0        5.612338   -1.965530   -2.786101
     68          1           0        5.467294   -3.044932   -2.686515
     69          1           0        5.096113   -1.613787   -3.688759
     70          1           0        6.677537   -1.746768   -2.877144
     71          6           0        5.290796   -4.183494    0.193665
     72          1           0        6.142984   -3.505093    0.076727
     73          1           0        5.026540   -4.250749    1.255523
     74          1           0        5.561535   -5.173353   -0.176245
     75          6           0        2.621271   -3.645223    3.721630
     76          1           0        3.232455   -3.129929    4.463453
     77          1           0        1.573225   -3.639228    4.048905
     78          1           0        2.957895   -4.686862    3.633869
     79          6           0       -0.967427    5.644544    1.889832
     80          1           0       -1.399295    6.257004    2.682085
     81          1           0        0.111340    5.547457    2.050803
     82          1           0       -1.140090    6.131255    0.920705
     83         11           0        1.522843    2.607524   -0.822918
     84          8           0        3.029883    4.294918   -1.054229
     85          6           0        3.123639    5.458327   -1.849065
     86          1           0        4.068012    5.474025   -2.408471
     87          1           0        2.288361    5.444920   -2.551104
     88          1           0        3.063470    6.362492   -1.229948
     89          6           0        4.067619    4.194494   -0.090787
     90          1           0        4.034310    5.045695    0.601071
     91          1           0        3.894774    3.259758    0.448134
     92          1           0        5.048308    4.175298   -0.583996
     93          6           0       -5.449430   -0.870888   -2.377211
     94          9           0       -5.972629    0.253876   -1.847171
     95          9           0       -6.325298   -1.858151   -2.135526
     96          9           0       -5.394486   -0.686304   -3.704352
     97          6           0       -2.609529   -3.057819    1.106506
     98          9           0       -1.584248   -2.694985    1.899877
     99          9           0       -2.370832   -4.326192    0.727917
    100          9           0       -3.720457   -3.079515    1.862342
 ---------------------------------------------------------------------
 Rotational constants (GHZ):           0.0594534           0.0442003           0.0375350
 Leave Link  202 at Wed Jun  5 12:16:38 2019, MaxMem=  6442450944 cpu:               4.5 elap:               0.2
 (Enter /home/ekwan/sw/g16/l301.exe)
 Standard basis: 6-31G(d) (6D, 7F)
 Ernie: Thresh=  0.10000D-02 Tol=  0.10000D-05 Strict=F.
 There are   897 symmetry adapted cartesian basis functions of A   symmetry.
 There are   897 symmetry adapted basis functions of A   symmetry.
   897 basis functions,  1720 primitive gaussians,   897 cartesian basis functions
   214 alpha electrons      214 beta electrons
       nuclear repulsion energy      9805.8680373336 Hartrees.
 IExCor=20419 DFT=T Ex+Corr=CAM-B3LYP ExCW=0 ScaHFX=  1.000000
 ScaDFX=  1.000000  1.000000  1.000000  0.810000 ScalE2=  1.000000  1.000000
 IRadAn=      5 IRanWt=     -1 IRanGd=            0 ICorTp=0 IEmpDi=141
 HFx  wShort=  0.000000 wLong=  0.330000 cFull=  0.190000 cShort=  0.000000 cLong=  0.460000
 DFx  wShort=  0.000000 wLong=  0.330000 cFull=  0.190000 cShort=  0.000000 cLong=  0.460000
 NAtoms=  100 NActive=  100 NUniq=  100 SFac= 1.00D+00 NAtFMM=   60 NAOKFM=T Big=T
 Integral buffers will be    131072 words long.
 Raffenetti 2 integral format.
 Two-electron integral symmetry is turned on.
 R6Disp:  Grimme-D3(BJ) Dispersion energy=       -0.1272568310 Hartrees.
 Nuclear repulsion after empirical dispersion term =     9805.7407805026 Hartrees.
 Force inversion solution in PCM.
 ------------------------------------------------------------------------------
 Polarizable Continuum Model (PCM)
 =================================
 Model                : PCM.
[...]
 10666,0.00016735,0.00001233,0.00016934,-0.00000021,-0.00006513,-0.0001
 5476,0.00005416,0.00000011,0.00011055,-0.00036241,-0.00003594,-0.00003
 792,0.00019724,-0.00004339,0.00334373,0.00118316,-0.00132508,-0.000872
 13,-0.00097578,-0.00002121,-0.00151478,0.00020112,-0.00000882,-0.00028
 459,0.00098865,0.00186890,0.00044489,-0.00085763,0.00057370,0.00295716
 ,-0.00006431,0.00065881,-0.00001266,0.00065444,0.00255521,0.00007967,-
 0.00015866,-0.00017918,0.01073212,-0.04428793,-0.00209642,0.00023610,-
 0.00075071,-0.00088669,-0.00351800,-0.00166973,0.00046552,0.00025081,-
 0.00084398,-0.00086514,0.00011692,0.00006221,-0.00005636,-0.00001837,-
 0.00000613,-0.00000254,-0.00002401,-0.00000075,0.00001703,0.00000037,-
 0.00000820,0.00001039,0.00002647,-0.00005694,-0.00007092,-0.00000382,0
 .00001595,0.00000380,0.00000016,0.00000014,0.00000627,-0.00000806,0.00
 000497,0.00001013,0.00004320,-0.00003106,0.00003977,-0.00000042,0.0000
 0762,-0.00000748,-0.00000121,-0.00001038,-0.00000996,-0.00002230,0.000
 01348,0.00000325,0.00004378,-0.00009797,0.00008477,0.00001045,0.000010
 92,-0.00000505,0.00000184,-0.00004054,0.00000159,-0.00004452,0.0000382
 3,-0.00000084,0.00006507,0.00014925,-0.00001384,-0.00000059,-0.0000268
 1,-0.00001168,-0.00001935,-0.00001059,0.00000406,-0.00000893,-0.000017
 74,0.00001703,0.00018944,0.00017960,-0.00001200,-0.00004701,-0.0000470
 2,0.00000111,0.00001273,0.00003633,-0.00002587,-0.00001003,-0.00000370
 ,0.00000586,0.00000276,0.00000387,-0.00000336,-0.00000027,-0.00000743,
 -0.00000118,0.00002453,0.00000164,0.00001189,-0.00000128,-0.00000647,-
 0.00000099,0.00003427,0.00001781,-0.00000491,-0.00001209,-0.00000562,0
 .00000944,-0.00273576,0.00025345,-0.00088412,0.00074560,-0.00045860,0.
 00005488,0.00085890,0.00028598,0.00020503,0.00071919,-0.00021452,0.000
 89237,0.03625737,-0.26818314,-0.03118906,-0.02553185,-0.03945398,-0.03
 819444,-0.05425405,0.36850556,0.00021960,0.00033608,-0.00004310,-0.000
 08625,-0.00000699,-0.00016419,-0.00000884,0.00000372,0.00000326,-0.000
 02619,0.00009832,-0.00007065,-0.00001860,0.00009103,-0.00017898,-0.000
 00603,-0.00002867,0.00001109,0.00000615,-0.00002236,-0.00000060,-0.000
 02896,-0.00005180,0.00000111,-0.00000716,-0.00000542,0.00000950,0.0000
 0212,0.00002324,-0.00001891,0.00002514,-0.00005215,0.00009801,0.000005
 06,-0.00001481,0.00003041,0.00013251,0.00007117,0.00017239,-0.00000649
 ,-0.00064533,0.00015016,0.00002095,-0.00036288,0.00010196,0.00006620,-
 0.00002913,-0.00010086,0.00001527,0.00000325,0.00003662,-0.00002185,0.
 00000260,0.00002533,-0.00004298,0.00005697,0.00015804,-0.00006144,-0.0
 0009658,-0.00015470,-0.00001040,-0.00005573,0.00007460,0.00000722,-0.0
 0000625,-0.00008754,-0.00000643,0.00002374,0.00001828,0.00023486,0.000
 48498,-0.00000931,-0.00001645,-0.00001896,0.00005918,-0.00003393,-0.00
 018468,-0.00000766,-0.00030221,0.00012730,0.00030513,0.00007898,0.0005
 5729,0.00021804,0.00015989,-0.00014911,0.00000020,-0.00008202,-0.00009
 338,-0.00006379,-0.00004431,-0.00005463,-0.00005239,-0.00004127,0.0000
 0728,-0.00002574,0.00000642,0.00000845,0.00000506,-0.00023110,-0.00005
 930,-0.00043064,-0.00007197,0.00003568,-0.00013794,0.00001141,-0.00001
 357,0.00001384,-0.00001001,-0.00000828,-0.00001886,0.00001415,-0.00000
 514,-0.00001474,-0.00000641,0.00000515,0.00001417,-0.00001788,0.000004
 47,0.00002125,0.00001733,0.00000427,-0.00000140,0.00009786,-0.00009926
 ,0.00020557,0.00032033,0.00020108,-0.00027290,0.00004313,0.00001204,0.
 00002473,0.00001857,-0.00000229,0.00002461,0.00001961,-0.00001460,0.00
 003212,0.00027477,0.00003905,-0.00010446,-0.00006453,0.00001467,0.0000
 2110,0.00005678,-0.00011065,0.00001916,-0.00010978,0.00000792,0.000063
 03,-0.00122716,-0.00062733,0.00026472,0.00030410,0.00042936,0.00011893
 ,0.00062431,0.00002566,0.00014961,-0.00013889,-0.00079476,-0.00059586,
 -0.00018635,0.00045885,-0.00046447,-0.00133551,-0.00000020,0.00011784,
 0.00049798,-0.00058585,-0.00085078,-0.00002862,0.00003428,0.00009720,-
 0.00416911,0.02276776,0.00878920,0.00004409,0.00038793,0.00003388,0.00
 144621,0.00048155,0.00041619,-0.00025925,0.00030412,0.00009613,-0.0000
 2311,-0.00001943,0.00000714,0.00000786,0.00000223,0.00000340,0.0000017
 5,0.00000164,-0.00000130,-0.00000183,-0.00000063,-0.00000394,-0.000005
 53,-0.00000321,-0.00001014,-0.00000204,0.00000171,-0.00000317,0.000000
 43,-0.00000415,0.00000522,0.00000396,0.00000146,0.00000050,-0.00001433
 ,0.00000667,-0.00002654,0.00000237,0.00000109,0.00000229,0.00000556,-0
 .00000384,0.00000829,-0.00000146,0.00000118,0.00000141,0.00009963,-0.0
 0001031,-0.00003234,-0.00001108,-0.00000410,0.00000229,-0.00002402,-0.
 00000891,0.00002952,-0.00001634,0.00001193,0.00000607,0.00000273,0.000
 01843,-0.00000466,-0.00000063,0.00000096,-0.00000011,0.00000034,0.0000
 0002,-0.00000120,0.00000057,-0.00000495,0.00000536,-0.00004573,-0.0000
 5730,-0.00006826,0.00001193,0.00000603,0.00002047,-0.00000239,-0.00000
 205,-0.00000478,-0.00000050,-0.00000057,-0.00000007,0.00000175,-0.0000
 0283,0.00000154,0.00000022,0.00000213,0.00000219,-0.00001066,0.0000011
 7,-0.00001426,0.00000158,0.00000435,0.00000223,0.00000023,-0.00000204,
 -0.00000204,0.00000100,-0.00000061,0.00000204,0.00100146,-0.00029325,0
 .00021852,-0.00027797,0.00021726,0.00001524,-0.00030282,-0.00004304,-0
 .00004351,-0.00025661,0.00010422,-0.00021700,0.00613523,-0.03228396,-0
 .08057154,-0.01540374,-0.04737082,-0.01522378,-0.01723323,0.09462843,0
 .10112336,-0.00019324,-0.00014425,-0.00000852,-0.00004654,0.00009032,0
 .00006808,-0.00013601,0.00010753,0.00000710,0.00006448,0.00004730,-0.0
 0005042,-0.00012029,0.00030594,-0.00002756,0.00001601,0.00000329,0.000
 00054,-0.00000984,0.00001913,-0.00001864,0.00001891,-0.00003117,-0.000
 02554,-0.00000662,-0.00003632,-0.00001050,0.00005242,-0.00000155,-0.00
 005501,0.00008138,-0.00012040,0.00003085,0.00004074,-0.00007870,-0.000
 04716,0.00014244,-0.00002775,-0.00005512,0.00075099,0.00011986,-0.0004
 8208,0.00028853,-0.00059369,-0.00005101,-0.00006370,0.00008650,0.00013
 043,0.00002383,0.00000801,-0.00001458,-0.00000299,-0.00006906,-0.00002
 696,-0.00003283,-0.00024112,-0.00016177,-0.00004869,-0.00007583,0.0000
 7393,0.00002199,0.00007238,-0.00006834,-0.00002517,0.00002157,0.000096
 29,0.00002468,-0.00002927,-0.00000132,-0.00092205,-0.00102137,0.000670
 30,0.00014770,0.00030406,0.00013797,0.00010973,0.00017781,0.00001561,0
 .00008137,-0.00078253,-0.00106547,0.00007519,0.00097655,0.00035466,0.0
 0012190,-0.00015240,0.00011609,-0.00006142,-0.00010799,-0.00008288,-0.
 00009309,-0.00011297,-0.00011703,0.00007706,0.00002118,-0.00006930,-0.
 00001237,0.00006128,-0.00004789,0.00032352,0.00064655,-0.00008696,0.00
 007042,-0.00002015,-0.00013154,0.00015804,-0.00010031,-0.00000276,0.00
 000491,0.00003348,-0.00000710,-0.00000177,0.00000784,0.00003776,0.0000
 0005,-0.00000164,-0.00000515,0.00003781,-0.00001117,-0.00004986,-0.000
 01702,0.00000405,-0.00000047,-0.00029665,-0.00039576,0.00024587,-0.000
 24580,-0.00022235,0.00053068,-0.00012346,-0.00012110,0.00007567,-0.000
 16110,-0.00000863,0.00010514,-0.00017159,0.00008452,0.00000710,0.00084
 456,0.00021344,0.00005437,-0.00016503,0.00001636,0.00003750,0.00009625
 ,-0.00034483,0.00024510,-0.00042057,-0.00002028,-0.00037029,0.00103880
 ,0.00075836,-0.00049913,-0.00025282,-0.00053114,-0.00008166,-0.0004085
 2,-0.00014980,0.00015269,-0.00058031,-0.00039362,-0.00033792,0.0004404
 1,0.00004359,0.00012396,0.00153403,-0.00129372,0.00262055,0.00104692,-
 0.00084485,0.00066265,0.00015790,0.00010382,0.00000274,-0.01028143,-0.
 00070707,0.01378065,0.00054483,0.00062285,-0.00044937,-0.00330878,-0.0
 0000941,-0.00307874,0.00216835,0.00082822,0.00038541,0.00009953,0.0000
 6136,-0.00003113,-0.00001286,-0.00000044,-0.00000353,-0.00001672,-0.00
 000003,0.00000727,-0.00000349,-0.00001193,0.00001128,0.00003250,-0.000
 03756,-0.00007336,0.00000624,0.00000466,0.00000316,0.00000282,0.000004
 57,0.00001019,-0.00001549,0.00000123,0.00000954,0.00011565,-0.00004044
 ,0.00005493,-0.00002134,-0.00000675,-0.00000448,0.00000940,-0.00000568
 ,-0.00000384,-0.00000954,0.00001397,-0.00000053,0.00008883,-0.00015906
 ,0.00021407,-0.00002955,-0.00000340,-0.00003494,-0.00000066,0.00000956
 ,0.00002963,-0.00001139,0.00004589,-0.00000857,0.00000005,0.00002896,-
 0.00000241,0.00000101,-0.00000802,-0.00000442,0.00000216,0.00000067,0.
 00000319,-0.00000216,-0.00000218,0.00000326,0.00004515,0.00014437,-0.0
 0000187,-0.00001020,-0.00004269,0.00000227,0.00000121,0.00003015,-0.00
 001667,-0.00000249,-0.00000298,0.00000300,0.00000112,0.00000219,0.0000
 0189,-0.00000141,-0.00000780,-0.00000219,0.00000340,0.00000781,0.00000
 340,-0.00000014,-0.00000830,-0.00000048,0.00002261,0.00001613,-0.00000
 240,-0.00000294,-0.00000250,0.00000394,-0.00105569,-0.00007964,0.00015
 593,0.00032136,-0.00018151,-0.00006735,0.00035624,0.00016752,-0.000064
 66,0.00023704,-0.00004377,0.00009744,-0.19530248,-0.01559006,0.1045447
 1,-0.07928934,-0.01544136,0.00496015,-0.02389937,0.03218027,0.03029284
 ,0.30594449,0.00023787,0.00039319,0.00004593,-0.00010518,0.00003784,0.
 00001486,0.00007237,0.00014760,0.00005823,-0.00001495,0.00008481,-0.00
 000340,0.00004474,-0.00001584,0.00008456,-0.00001169,-0.00003244,0.000
 00359,0.00001025,0.00002451,-0.00000707,-0.00002498,-0.00003366,-0.000
 01038,-0.00000089,-0.00001755,-0.00000892,0.00002561,-0.00000650,-0.00
 000873,-0.00004634,-0.00007391,-0.00002125,-0.00003135,-0.00015147,-0.
 00003923,0.00001156,-0.00013723,-0.00004111,-0.00007338,-0.00030711,-0
 .00008112,-0.00016639,0.00000383,-0.00007238,0.00002317,-0.00000987,0.
 00005659,0.00000299,0.00000877,-0.00001747,-0.00002593,-0.00003403,-0.
 00000938,-0.00007947,-0.00006892,-0.00006072,0.00000635,0.00013327,0.0
 0001949,0.00000169,0.00003977,-0.00002105,-0.00006125,-0.00001864,0.00
 001845,0.00002965,-0.00004121,-0.00000560,0.00121256,0.00067225,-0.000
 66594,-0.00017242,-0.00029285,-0.00010731,-0.00027218,-0.00053034,-0.0
 0014698,-0.00125698,-0.00290296,-0.00092128,0.00011112,-0.00002620,0.0
 0005467,0.00002303,-0.00000672,0.00002249,-0.00001489,0.00000047,-0.00
 000014,-0.00002227,-0.00000436,-0.00003659,0.00005119,-0.00002770,-0.0
 0001394,0.00000359,0.00000515,-0.00003123,0.00025060,0.00012872,0.0002
 5859,0.00010637,-0.00021048,-0.00000461,0.00004057,-0.00002337,0.00000
 429,0.00003309,0.00001244,-0.00000363,-0.00000772,-0.00000149,0.000018
 65,0.00000443,-0.00000772,-0.00000684,0.00000123,-0.00001523,0.0000095
 7,-0.00000146,0.00000195,0.00000116,-0.00018989,0.00011334,-0.00007304
 ,-0.00035851,-0.00015939,0.00052768,-0.00008799,-0.00002677,0.00002202
 ,-0.00006230,0.00002592,0.00003056,-0.00005473,0.00006862,-0.00000239,
 0.00007089,0.00001401,-0.00000055,-0.00004776,0.00001637,-0.00000295,0
 .00002615,-0.00013443,0.00001870,-0.00002291,0.00006356,-0.00006322,0.
 00170686,0.00042003,-0.00058279,-0.00048356,-0.00050575,-0.00005720,-0
 .00068931,0.00007600,-0.00003490,-0.00029554,-0.00155216,0.00039118,-0
 .00056218,-0.00034525,0.00041360,0.00191782,0.00003477,0.00260147,-0.0
 0013246,-0.00000634,-0.00023089,0.00000563,0.00003807,0.00000521,-0.01
 922201,0.00555382,0.01767532,0.00008677,0.00047052,-0.00004567,-0.0001
 7821,-0.00059236,0.00068147,-0.00006511,-0.00038823,0.00082509,0.00005
 538,0.00003176,-0.00002537,-0.00000913,-0.00000290,-0.00000171,-0.0000
 1061,-0.00000046,0.00000727,0.00000052,-0.00000395,0.00000517,0.000013
 26,-0.00002276,-0.00002974,-0.00000046,0.00000579,0.00000231,0.0000002
 2,0.00000117,0.00000208,-0.00000495,0.00000154,0.00000432,0.00002738,-
 0.00001547,0.00002395,-0.00000227,0.00000177,-0.00000351,-0.00000102,-
 0.00000312,-0.00000551,-0.00000805,0.00000562,0.00000071,-0.00000576,-
 0.00004496,0.00005752,0.00000458,0.00000388,-0.00000504,0.00000702,-0.
 00001000,-0.00000448,-0.00001064,0.00001391,-0.00000245,0.00003310,0.0
 0007434,-0.00000541,-0.00000045,-0.00001345,-0.00000601,-0.00000993,-0
 .00000574,0.00000212,-0.00000500,-0.00000931,0.00000827,0.00009271,0.0
 0008992,-0.00000173,-0.00002205,-0.00002277,-0.00000161,0.00000555,0.0
 0001736,-0.00001152,-0.00000429,-0.00000165,0.00000275,0.00000106,0.00
 000216,-0.00000146,-0.00000014,-0.00000377,-0.00000087,0.00001200,0.00
 000095,0.00000718,-0.00000062,-0.00000353,-0.00000077,0.00001546,0.000
 00821,-0.00000189,-0.00000544,-0.00000239,0.00000403,-0.00108577,0.000
 13596,-0.00046896,0.00031046,-0.00017259,0.00003696,0.00036576,0.00010
 863,0.00008437,0.00023772,-0.00006645,0.00029307,-0.01225048,-0.076544
 65,0.01505598,-0.01660380,0.00886794,0.00213135,0.04560956,-0.01337859
 ,-0.03780403,0.00197319,0.08107649,0.00033299,0.00050518,0.00006248,-0
 .00011673,-0.00007678,-0.00025324,0.00008317,-0.00008194,0.00000442,-0
 .00008518,0.00008873,-0.00005570,0.00006715,-0.00012271,-0.00019309,-0
 .00001971,-0.00003897,0.00001329,0.00002094,-0.00004412,0.00001516,-0.
 00003121,0.00000478,0.00003127,-0.00000313,0.00001913,0.00002011,-0.00
 003533,0.00003373,0.00002022,-0.00001611,0.00002720,0.00010355,-0.0000
 1685,0.00004461,0.00007115,0.00009597,0.00012785,0.00025019,-0.0006433
 5,-0.00070578,0.00069552,-0.00020670,-0.00000442,0.00016522,0.00011873
 ,-0.00009531,-0.00020620,0.00000124,-0.00000257,0.00005341,-0.00002331
 ,0.00005153,0.00004749,-0.00001527,0.00022773,0.00030034,-0.00005969,-
 0.00010854,-0.00021178,-0.00002146,-0.00011068,0.00011701,0.00001791,-
 0.00001645,-0.00015698,-0.00002082,0.00004655,0.00002163,0.00206233,0.
 00141242,-0.00095930,-0.00019241,-0.00030288,-0.00003317,-0.00033969,-
 0.00067795,-0.00006728,-0.00138344,-0.00116645,0.00006702,0.00007170,-
 0.00011980,-0.00004393,0.00001380,-0.00000054,-0.00002686,-0.00003888,
 -0.00000946,0.00000005,0.00002275,0.00002357,0.00002883,-0.00010292,0.
 00001335,0.00001477,0.00001490,-0.00001629,0.00004587,-0.00053939,-0.0
 0044613,-0.00059859,-0.00015881,0.00017542,-0.00006923,-0.00008051,0.0
 0004190,0.00000968,-0.00002581,-0.00003116,-0.00002318,0.00002282,-0.0
 0001076,-0.00004493,-0.00000945,0.00001258,0.00002101,-0.00002928,0.00
 001989,0.00003470,0.00002417,0.00000095,-0.00000157,0.00035416,0.00001
 070,0.00015664,0.00074043,0.00044325,-0.00103978,0.00015213,0.00008296
 ,-0.00001740,0.00012421,-0.00001279,-0.00003987,0.00012245,-0.00008639
 ,0.00002756,-0.00009889,-0.00002676,-0.00014027,0.00001726,-0.00000070
 ,0.00001239,0.00002914,0.00000847,-0.00004680,0.00007567,-0.00000694,0
 .00023463,-0.00314870,-0.00127139,0.00074524,0.00080776,0.00114406,0.0
 0028538,0.00134946,0.00000764,0.00014223,0.00200951,0.00164826,-0.0004
 6246,0.00010868,0.00040389,-0.00057827,-0.00427491,0.00271428,-0.00603
 784,0.00028791,0.00052017,-0.00016165,-0.00003730,-0.00005581,-0.00001
 616,0.03884979,0.00645282,-0.02139494,-0.00017226,-0.00045306,0.000070
 15,0.00141927,-0.00000476,-0.00016616,0.00008444,0.00043531,-0.0018079
 7,-0.00009893,-0.00006602,0.00003679,0.00001989,0.00000426,0.00000568,
 0.00001574,0.00000222,-0.00000860,-0.00000056,0.00000700,-0.00001229,-
 0.00002697,0.00002610,0.00003993,-0.00000407,-0.00000371,-0.00000547,-
 0.00000103,-0.00000622,-0.00000093,0.00001326,-0.00000027,-0.00000625,
 -0.00007732,0.00003033,-0.00006047,0.00001287,0.00000362,0.00000534,0.
 00000189,-0.00000037,0.00001175,0.00000661,-0.00000781,0.00000203,0.00
 005184,0.00007071,-0.00013587,0.00000476,-0.00000213,0.00001837,-0.000
 02462,-0.00001200,0.00001070,-0.00000974,-0.00001246,0.00001052,-0.000
 00018,-0.00000294,-0.00000323,-0.00000169,0.00000716,0.00000283,0.0000
 0024,-0.00000016,-0.00000370,0.00000223,-0.00000396,0.00000371,-0.0001
 1240,-0.00018199,-0.00009044,0.00002575,0.00003719,0.00002275,-0.00000
 493,-0.00002389,0.00000733,0.00000214,0.00000162,-0.00000244,0.0000009
 8,-0.00000522,0.00000119,0.00000124,0.00000787,0.00000377,-0.00001780,
 -0.00000283,-0.00002039,0.00000232,0.00001063,0.00000306,-0.00001644,-
 0.00001370,-0.00000061,0.00000436,0.00000135,-0.00000076,0.00208094,-0
 .00048337,0.00061170,-0.00065824,0.00048322,0.00003455,-0.00068107,-0.
 00012868,-0.00011099,-0.00045737,0.00016430,-0.00049577,0.09360706,0.0
 1741452,-0.16205427,-0.00916452,-0.00048185,0.02276995,0.03121941,-0.0
 2770227,-0.01335961,-0.15327097,0.00022911,0.18373610\\-0.00000054,0.0
 0000058,-0.00000101,0.00000079,0.00000085,-0.00000030,0.00000011,-0.00
 000062,-0.00000085,0.00000016,0.00000074,-0.00000085,-0.00000289,0.000
 00145,-0.00000140,0.00000021,0.00000022,-0.00000081,0.00000005,-0.0000
 0015,-0.00000061,-0.00000066,0.00000038,-0.00000038,-0.00000013,0.0000
 0072,-0.00000056,0.00000337,-0.00000147,0.00000154,-0.00000042,-0.0000
 0036,0.00000033,0.00000009,0.00000056,-0.00000055,-0.00000073,0.000000
 58,-0.00000124,0.00000011,-0.00000012,-0.00000073,0.00000003,0.0000003
 5,0.00000095,-0.00000004,-0.00000020,-0.00000064,-0.00000082,-0.000000
 48,0.00000020,0.00000029,0.00000053,0.00000069,0.00000054,0.00000092,-
 0.00000082,-0.00000042,-0.00000016,-0.00000044,0.00000043,0.00000020,-
 0.00000139,0.00000008,0.00000082,-0.00000089,0.00000041,0.00000021,-0.
 00000119,-0.00000052,0.00000063,-0.00000069,-0.00000026,0.00000059,-0.
 00000047,-0.00000060,0.00000057,-0.00000074,-0.00000058,0.00000010,-0.
 00000089,-0.00000082,0.00000072,-0.00000040,-0.00000061,-0.00000059,-0
 .00000056,-0.00000086,0.00000054,0.00000080,-0.00000072,0.00000021,0.0
 0000009,0.00000020,-0.00000126,0.00000006,-0.00000027,0.00000112,0.000
 00242,-0.00000342,-0.00000211,-0.00000405,0.00000137,-0.00000047,0.000
 00118,0.00000005,0.00000042,0.00000055,0.00000168,-0.00000010,0.000002
 86,-0.00000019,0.00000024,0.00000091,0.00000005,-0.00000029,0.00000128
 ,-0.00000014,-0.00000083,0.00000055,-0.00000018,-0.00000058,0.00000072
 ,0.00000068,0.00000077,-0.00000074,0.00000058,-0.00000031,-0.00000012,
 -0.00000086,-0.00000006,0.00000016,0.00000061,0.00000012,0.00000156,-0
 .00000086,-0.00000040,0.00000054,0.00000100,0.00000032,0.00000111,-0.0
 0000106,0.00000008,0.00000065,-0.00000184,0.00000005,-0.00000058,-0.00
 000116,-0.00000001,0.00000070,0.00000045,-0.00000224,-0.00000167,0.000
 00030,0.00000159,0.00000144,0.00000056,-0.00000080,-0.00000014,0.00000
 053,0.00000023,-0.00000050,0.00000086,-0.00000006,-0.00000053,0.000001
 98,-0.00000132,-0.00000232,-0.00000024,-0.00000058,-0.00000071,0.00000
 057,-0.00000016,-0.00000065,-0.00000033,0.00000021,0.00000017,-0.00000
 175,0.00000251,0.00000318,0.00000012,0.00000008,-0.00000102,-0.0000001
 0,0.00000029,-0.00000049,-0.00000014,0.00000027,-0.00000028,0.00000079
 ,-0.00000075,0.00000078,0.00000082,-0.00000044,0.00000068,0.00000087,-
 0.00000128,0.00000051,-0.00000007,-0.00000076,0.00000107,0.00000026,-0
 .00000061,0.00000122,0.00000050,-0.00000080,0.00000069,0.00000085,-0.0
 0000055,0.00000114,0.00000031,0.00000005,0.00000174,-0.00000009,-0.000
 00026,0.00000125,-0.00000024,-0.00000013,0.00000142,-0.00000009,-0.000
 00066,0.00000122,-0.00000147,0.00000039,0.00000116,-0.00000088,0.00000
 026,0.00000064,0.00000003,0.00000038,0.00000028,-0.00000062,-0.0000000
 9,0.00000098,0.00000024,0.00000055,-0.00000042,0.00000007,0.00000021,-
 0.00000128,-0.00000021,0.00000031,-0.00000072,0.00000013,0.00000007,-0
 .00000085,0.00000105,0.00000008,-0.00000145,0.00000033,-0.00000026,-0.
 00000059,0.,-0.00000034,-0.00000076,0.00000089,-0.00000051,-0.00000001
 ,0.00000105,-0.00000052,-0.00000005,0.00000058,-0.00000007,-0.00000009
 ,0.00000047,0.00000053,0.00000113,0.00000018,-0.00000051,-0.00000025,-
 0.00000015,-0.00000085,0.00000042,0.00000064,-0.00000036,0.00000019,0.
 00000003,0.00000015,-0.00000038,0.00000018,-0.00000017,-0.00000114,0.0
 0000046,0.00000001,-0.00000092,0.00000059,0.00000009,-0.00000110,0.000
 00107,-0.00000039,-0.00000020,-0.00000137,0.00000133,0.00000101,-0.000
 00072,-0.00000011,0.00000002,-0.00000054,0.00000099,0.00000019\\\@


 Statistics are no substitute for judgment.
                            -- Henry Clay
 Job cpu time:       4 days 19 hours 56 minutes  6.3 seconds.
 Elapsed time:       0 days  4 hours  1 minutes 27.3 seconds.
 File lengths (MBytes):  RWF=   9719 Int=      0 D2E=      0 Chk=     86 Scr=      1
 Normal termination of Gaussian 16 at Wed Jun  5 20:10:53 2019.
