 Entering Gaussian System, Link 0=g16
 Input=clay_new-glu_gluC6-bisCF3-sm-lcwpbe_d3bj-631gd-pcm_thf.gjf
 Output=clay_new-glu_gluC6-bisCF3-sm-lcwpbe_d3bj-631gd-pcm_thf.out
 Initial command:
 /home/ekwan/sw/g16/l1.exe "/scratch/users/ekwan/clay_new-glu_gluC6-bisCF3-sm-lcwpbe_d3bj-631gd-pcm_thf/Gau-5621.inp" -scrdir="/scratch/users/ekwan/clay_new-glu_gluC6-bisCF3-sm-lcwpbe_d3bj-631gd-pcm_thf/"
 Entering Link 1 = /home/ekwan/sw/g16/l1.exe PID=      5622.
  
 Copyright (c) 1988,1990,1992,1993,1995,1998,2003,2009,2016,
            Gaussian, Inc.  All Rights Reserved.
  
 This is part of the Gaussian(R) 16 program.  It is based on
 the Gaussian(R) 09 system (copyright 2009, Gaussian, Inc.),
 the Gaussian(R) 03 system (copyright 2003, Gaussian, Inc.),
 the Gaussian(R) 98 system (copyright 1998, Gaussian, Inc.),
 the Gaussian(R) 94 system (copyright 1995, Gaussian, Inc.),
 the Gaussian 92(TM) system (copyright 1992, Gaussian, Inc.),
 the Gaussian 90(TM) system (copyright 1990, Gaussian, Inc.),
 the Gaussian 88(TM) system (copyright 1988, Gaussian, Inc.),
 the Gaussian 86(TM) system (copyright 1986, Carnegie Mellon
 University), and the Gaussian 82(TM) system (copyright 1983,
 Carnegie Mellon University). Gaussian is a federally registered
 trademark of Gaussian, Inc.
  
 This software contains proprietary and confidential information,
 including trade secrets, belonging to Gaussian, Inc.
  
 This software is provided under written license and may be
 used, copied, transmitted, or stored only in accord with that
 written license.
  
 The following legend is applicable only to US Government
 contracts under FAR:
  
                    RESTRICTED RIGHTS LEGEND
  
 Use, reproduction and disclosure by the US Government is
 subject to restrictions as set forth in subparagraphs (a)
 and (c) of the Commercial Computer Software - Restricted
 Rights clause in FAR 52.227-19.
  
 Gaussian, Inc.
 340 Quinnipiac St., Bldg. 40, Wallingford CT 06492
  
  
 ---------------------------------------------------------------
 Warning -- This program may not be used in any manner that
 competes with the business of Gaussian, Inc. or will provide
 assistance to any competitor of Gaussian, Inc.  The licensee
 of this program is prohibited from giving any competitor of
 Gaussian, Inc. access to this program.  By using this program,
 the user acknowledges that Gaussian, Inc. is engaged in the
 business of creating and licensing software in the field of
 computational chemistry and represents and warrants to the
 licensee that it is not a competitor of Gaussian, Inc. and that
 it will not use this program in any manner prohibited above.
 ---------------------------------------------------------------
  

 Cite this work as:
 Gaussian 16, Revision A.03,
 M. J. Frisch, G. W. Trucks, H. B. Schlegel, G. E. Scuseria, 
 M. A. Robb, J. R. Cheeseman, G. Scalmani, V. Barone, 
 G. A. Petersson, H. Nakatsuji, X. Li, M. Caricato, A. V. Marenich, 
 J. Bloino, B. G. Janesko, R. Gomperts, B. Mennucci, H. P. Hratchian, 
 J. V. Ortiz, A. F. Izmaylov, J. L. Sonnenberg, D. Williams-Young, 
 F. Ding, F. Lipparini, F. Egidi, J. Goings, B. Peng, A. Petrone, 
 T. Henderson, D. Ranasinghe, V. G. Zakrzewski, J. Gao, N. Rega, 
 G. Zheng, W. Liang, M. Hada, M. Ehara, K. Toyota, R. Fukuda, 
 J. Hasegawa, M. Ishida, T. Nakajima, Y. Honda, O. Kitao, H. Nakai, 
 T. Vreven, K. Throssell, J. A. Montgomery, Jr., J. E. Peralta, 
 F. Ogliaro, M. J. Bearpark, J. J. Heyd, E. N. Brothers, K. N. Kudin, 
 V. N. Staroverov, T. A. Keith, R. Kobayashi, J. Normand, 
 K. Raghavachari, A. P. Rendell, J. C. Burant, S. S. Iyengar, 
 J. Tomasi, M. Cossi, J. M. Millam, M. Klene, C. Adamo, R. Cammi, 
 J. W. Ochterski, R. L. Martin, K. Morokuma, O. Farkas, 
 J. B. Foresman, and D. J. Fox, Gaussian, Inc., Wallingford CT, 2016.
 
 ******************************************
 Gaussian 16:  AS64L-G16RevA.03 25-Dec-2016
                 5-Jun-2019 
 ******************************************
 %nprocshared=32
 Will use up to   32 processors via shared memory.
 %mem=48GB
 ----------------------------------------------------------------------
 #p opt freq=noraman pop=none 6-31g* scrf=(pcm,solvent=tetrahydrofuran)
  lc-wpbe empiricaldispersion=gd3bj
 ----------------------------------------------------------------------
 1/18=20,19=15,26=3,38=1/1,3;
 2/9=110,12=2,17=6,18=5,40=1/2;
 3/5=1,6=6,7=1,11=2,25=1,30=1,70=2201,71=1,72=20,74=-41,124=41/1,2,3;
 4//1;
 5/5=2,38=5,53=20/2;
 7//1,2,3,16;
 1/18=20,19=15,26=3/3(2);
 2/9=110/2;
 99//99;
 2/9=110/2;
 3/5=1,6=6,7=1,11=2,25=1,30=1,70=2205,71=1,72=20,74=-41,124=41/1,2,3;
 4/5=5,16=3,69=1/1;
 5/5=2,38=5,53=20/2;
 7//1,2,3,16;
 1/18=20,19=15,26=3/3(-5);
 2/9=110/2;
 99/9=1/99;
 Leave Link    1 at Wed Jun  5 17:29:35 2019, MaxMem=  6442450944 cpu:               3.2 elap:               0.1
 (Enter /home/ekwan/sw/g16/l101.exe)
 -----
 title
 -----
 Symbolic Z-matrix:
 Charge =  0 Multiplicity = 1
 6                     3.36934   0.38573   0.55702 
 6                     3.28322  -0.53019  -0.65333 
 6                     1.82821  -0.85761  -0.98522 
 6                     1.02227   1.11353   0.04985 
 6                     2.43257   1.56905   0.39157 
 1                     1.73547  -1.39885  -1.92751 
 1                     3.68564   0.01003  -1.52411 
 1                     3.06824  -0.17586   1.45131 
 1                     0.61331   0.55295   0.90047 
 1                     2.80145   2.20066  -0.42557 
 8                     1.03591   0.26669  -1.1027 
 8                     1.36525  -1.71456   0.07921 
 8                     4.03962  -1.67607  -0.39052 
 8                     4.67551   0.88672   0.70523 
 8                     2.36307   2.29908   1.59209 
 6                     0.0978    2.2859   -0.22121 
 1                    -0.1038    2.77155   0.73572 
 1                    -0.84928   1.90993  -0.6284 
 8                     0.63894   3.27475  -1.05961 
 16                    0.09901  -2.65858  -0.20548 
 8                     0.08665  -3.59638   0.89028 
 8                     0.15136  -3.10298  -1.58266 
 6                    -1.2636   -1.55278  -0.02438 
 6                    -1.71788  -1.25508   1.24889 
 6                    -1.81754  -0.97766  -1.15562 
 6                    -2.75635  -0.34708   1.38513 
 1                    -1.26814  -1.72398   2.11752 
 6                    -2.85374  -0.07464  -0.9957 
 1                    -1.44133  -1.23092  -2.13986 
 6                    -3.32508   0.24566   0.2693 
 1                    -4.13385   0.959     0.38499 
 6                     4.23359  -2.51303  -1.5099 
 1                     3.31753  -3.05124  -1.78206 
 1                     4.58493  -1.94023  -2.37741 
 1                     4.99476  -3.2429   -1.23237 
 6                     5.45194   0.20272   1.66591 
 1                     6.42903   0.68866   1.68669 
 1                     4.99776   0.27605   2.66218 
 1                     5.57564  -0.85158   1.40278 
 6                     3.02316   3.54697   1.53533 
 1                     2.89406   4.01928   2.51083 
 1                     4.09112   3.41702   1.334 
 1                     2.58032   4.18713   0.76321 
 6                     0.63433   2.93917  -2.43144 
 1                     0.84957   3.85561  -2.984 
 1                    -0.34737   2.55745  -2.73712 
 1                     1.39163   2.18667  -2.67294 
 6                    -3.302    -0.04236   2.75227 
 9                    -2.35324  -0.15376   3.69226 
 9                    -4.29162  -0.88721   3.07945 
 9                    -3.80047   1.20047   2.81337 
 6                    -3.42567   0.62794  -2.19363 
 9                    -2.85329   1.8363   -2.3592 
 9                    -4.74241   0.83315  -2.06041 
 9                    -3.2244   -0.06611  -3.31994 
 
 ITRead=  0  0  0  0  0  0  0  0  0  0  0  0  0  0  0  0  0  0  0  0
 ITRead=  0  0  0  0  0  0  0  0  0  0  0  0  0  0  0  0  0  0  0  0
 ITRead=  0  0  0  0  0  0  0  0  0  0  0  0  0  0  0
 MicOpt= -1 -1 -1 -1 -1 -1 -1 -1 -1 -1 -1 -1 -1 -1 -1 -1 -1 -1 -1 -1
 MicOpt= -1 -1 -1 -1 -1 -1 -1 -1 -1 -1 -1 -1 -1 -1 -1 -1 -1 -1 -1 -1
 MicOpt= -1 -1 -1 -1 -1 -1 -1 -1 -1 -1 -1 -1 -1 -1 -1
 NAtoms=     55 NQM=       55 NQMF=       0 NMMI=      0 NMMIF=      0
                NMic=       0 NMicF=      0.
                    Isotopes and Nuclear Properties:
 (Nuclear quadrupole moments (NQMom) in fm**2, nuclear magnetic moments (NMagM)
  in nuclear magnetons)

  Atom         1           2           3           4           5           6           7           8           9          10
 IAtWgt=          12          12          12          12          12           1           1           1           1           1
 AtmWgt=  12.0000000  12.0000000  12.0000000  12.0000000  12.0000000   1.0078250   1.0078250   1.0078250   1.0078250   1.0078250
 NucSpn=           0           0           0           0           0           1           1           1           1           1
 AtZEff=   0.0000000   0.0000000   0.0000000   0.0000000   0.0000000   0.0000000   0.0000000   0.0000000   0.0000000   0.0000000
 NQMom=    0.0000000   0.0000000   0.0000000   0.0000000   0.0000000   0.0000000   0.0000000   0.0000000   0.0000000   0.0000000
 NMagM=    0.0000000   0.0000000   0.0000000   0.0000000   0.0000000   2.7928460   2.7928460   2.7928460   2.7928460   2.7928460
 AtZNuc=   6.0000000   6.0000000   6.0000000   6.0000000   6.0000000   1.0000000   1.0000000   1.0000000   1.0000000   1.0000000

  Atom        11          12          13          14          15          16          17          18          19          20
 IAtWgt=          16          16          16          16          16          12           1           1          16          32
 AtmWgt=  15.9949146  15.9949146  15.9949146  15.9949146  15.9949146  12.0000000   1.0078250   1.0078250  15.9949146  31.9720718
 NucSpn=           0           0           0           0           0           0           1           1           0           0
 AtZEff=   0.0000000   0.0000000   0.0000000   0.0000000   0.0000000   0.0000000   0.0000000   0.0000000   0.0000000   0.0000000
 NQMom=    0.0000000   0.0000000   0.0000000   0.0000000   0.0000000   0.0000000   0.0000000   0.0000000   0.0000000   0.0000000
 NMagM=    0.0000000   0.0000000   0.0000000   0.0000000   0.0000000   0.0000000   2.7928460   2.7928460   0.0000000   0.0000000
 AtZNuc=   8.0000000   8.0000000   8.0000000   8.0000000   8.0000000   6.0000000   1.0000000   1.0000000   8.0000000  16.0000000

  Atom        21          22          23          24          25          26          27          28          29          30
 IAtWgt=          16          16          12          12          12          12           1          12           1          12
 AtmWgt=  15.9949146  15.9949146  12.0000000  12.0000000  12.0000000  12.0000000   1.0078250  12.0000000   1.0078250  12.0000000
 NucSpn=           0           0           0           0           0           0           1           0           1           0
 AtZEff=   0.0000000   0.0000000   0.0000000   0.0000000   0.0000000   0.0000000   0.0000000   0.0000000   0.0000000   0.0000000
 NQMom=    0.0000000   0.0000000   0.0000000   0.0000000   0.0000000   0.0000000   0.0000000   0.0000000   0.0000000   0.0000000
 NMagM=    0.0000000   0.0000000   0.0000000   0.0000000   0.0000000   0.0000000   2.7928460   0.0000000   2.7928460   0.0000000
 AtZNuc=   8.0000000   8.0000000   6.0000000   6.0000000   6.0000000   6.0000000   1.0000000   6.0000000   1.0000000   6.0000000

  Atom        31          32          33          34          35          36          37          38          39          40
 IAtWgt=           1          12           1           1           1          12           1           1           1          12
 AtmWgt=   1.0078250  12.0000000   1.0078250   1.0078250   1.0078250  12.0000000   1.0078250   1.0078250   1.0078250  12.0000000
 NucSpn=           1           0           1           1           1           0           1           1           1           0
 AtZEff=   0.0000000   0.0000000   0.0000000   0.0000000   0.0000000   0.0000000   0.0000000   0.0000000   0.0000000   0.0000000
 NQMom=    0.0000000   0.0000000   0.0000000   0.0000000   0.0000000   0.0000000   0.0000000   0.0000000   0.0000000   0.0000000
 NMagM=    2.7928460   0.0000000   2.7928460   2.7928460   2.7928460   0.0000000   2.7928460   2.7928460   2.7928460   0.0000000
 AtZNuc=   1.0000000   6.0000000   1.0000000   1.0000000   1.0000000   6.0000000   1.0000000   1.0000000   1.0000000   6.0000000

  Atom        41          42          43          44          45          46          47          48          49          50
 IAtWgt=           1           1           1          12           1           1           1          12          19          19
 AtmWgt=   1.0078250   1.0078250   1.0078250  12.0000000   1.0078250   1.0078250   1.0078250  12.0000000  18.9984033  18.9984033
 NucSpn=           1           1           1           0           1           1           1           0           1           1
 AtZEff=   0.0000000   0.0000000   0.0000000   0.0000000   0.0000000   0.0000000   0.0000000   0.0000000   0.0000000   0.0000000
 NQMom=    0.0000000   0.0000000   0.0000000   0.0000000   0.0000000   0.0000000   0.0000000   0.0000000   0.0000000   0.0000000
 NMagM=    2.7928460   2.7928460   2.7928460   0.0000000   2.7928460   2.7928460   2.7928460   0.0000000   2.6288670   2.6288670
 AtZNuc=   1.0000000   1.0000000   1.0000000   6.0000000   1.0000000   1.0000000   1.0000000   6.0000000   9.0000000   9.0000000

  Atom        51          52          53          54          55
 IAtWgt=          19          12          19          19          19
 AtmWgt=  18.9984033  12.0000000  18.9984033  18.9984033  18.9984033
 NucSpn=           1           0           1           1           1
 AtZEff=   0.0000000   0.0000000   0.0000000   0.0000000   0.0000000
 NQMom=    0.0000000   0.0000000   0.0000000   0.0000000   0.0000000
 NMagM=    2.6288670   0.0000000   2.6288670   2.6288670   2.6288670
 AtZNuc=   9.0000000   6.0000000   9.0000000   9.0000000   9.0000000
 Leave Link  101 at Wed Jun  5 17:29:35 2019, MaxMem=  6442450944 cpu:              17.3 elap:               0.7
 (Enter /home/ekwan/sw/g16/l103.exe)

 GradGradGradGradGradGradGradGradGradGradGradGradGradGradGradGradGradGrad
 Berny optimization.
 Initialization pass.
                           ----------------------------
                           !    Initial Parameters    !
                           ! (Angstroms and Degrees)  !
 --------------------------                            --------------------------
 ! Name  Definition              Value          Derivative Info.                !
 --------------------------------------------------------------------------------
 ! R1    R(1,2)                  1.5203         estimate D2E/DX2                !
 ! R2    R(1,5)                  1.5183         estimate D2E/DX2                !
 ! R3    R(1,8)                  1.0981         estimate D2E/DX2                !
 ! R4    R(1,14)                 1.4068         estimate D2E/DX2                !
 ! R5    R(2,3)                  1.5279         estimate D2E/DX2                !
 ! R6    R(2,7)                  1.1009         estimate D2E/DX2                !
 ! R7    R(2,13)                 1.3979         estimate D2E/DX2                !
 ! R8    R(3,6)                  1.0906         estimate D2E/DX2                !
 ! R9    R(3,11)                 1.3804         estimate D2E/DX2                !
 ! R10   R(3,12)                 1.4428         estimate D2E/DX2                !
 ! R11   R(4,5)                  1.5209         estimate D2E/DX2                !
 ! R12   R(4,9)                  1.0977         estimate D2E/DX2                !
 ! R13   R(4,11)                 1.4303         estimate D2E/DX2                !
 ! R14   R(4,16)                 1.5174         estimate D2E/DX2                !
 ! R15   R(5,10)                 1.0967         estimate D2E/DX2                !
 ! R16   R(5,15)                 1.4068         estimate D2E/DX2                !
 ! R17   R(12,20)                1.6049         estimate D2E/DX2                !
 ! R18   R(13,32)                1.4111         estimate D2E/DX2                !
 ! R19   R(14,36)                1.412          estimate D2E/DX2                !
 ! R20   R(15,40)                1.4129         estimate D2E/DX2                !
 ! R21   R(16,17)                1.0919         estimate D2E/DX2                !
 ! R22   R(16,18)                1.0973         estimate D2E/DX2                !
 ! R23   R(16,19)                1.4048         estimate D2E/DX2                !
 ! R24   R(19,44)                1.4123         estimate D2E/DX2                !
 ! R25   R(20,21)                1.4423         estimate D2E/DX2                !
 ! R26   R(20,22)                1.448          estimate D2E/DX2                !
 ! R27   R(20,23)                1.7642         estimate D2E/DX2                !
 ! R28   R(23,24)                1.3843         estimate D2E/DX2                !
 ! R29   R(23,25)                1.3847         estimate D2E/DX2                !
 ! R30   R(24,26)                1.3862         estimate D2E/DX2                !
 ! R31   R(24,27)                1.0847         estimate D2E/DX2                !
 ! R32   R(25,28)                1.3837         estimate D2E/DX2                !
 ! R33   R(25,29)                1.0837         estimate D2E/DX2                !
 ! R34   R(26,30)                1.3856         estimate D2E/DX2                !
 ! R35   R(26,48)                1.5032         estimate D2E/DX2                !
 ! R36   R(28,30)                1.3874         estimate D2E/DX2                !
 ! R37   R(28,52)                1.5019         estimate D2E/DX2                !
 ! R38   R(30,31)                1.0846         estimate D2E/DX2                !
 ! R39   R(32,33)                1.0968         estimate D2E/DX2                !
 ! R40   R(32,34)                1.0973         estimate D2E/DX2                !
 ! R41   R(32,35)                1.0905         estimate D2E/DX2                !
 ! R42   R(36,37)                1.0915         estimate D2E/DX2                !
 ! R43   R(36,38)                1.0974         estimate D2E/DX2                !
 ! R44   R(36,39)                1.0937         estimate D2E/DX2                !
 ! R45   R(40,41)                1.0915         estimate D2E/DX2                !
 ! R46   R(40,42)                1.0945         estimate D2E/DX2                !
 ! R47   R(40,43)                1.0964         estimate D2E/DX2                !
 ! R48   R(44,45)                1.0916         estimate D2E/DX2                !
 ! R49   R(44,46)                1.0968         estimate D2E/DX2                !
 ! R50   R(44,47)                1.0946         estimate D2E/DX2                !
 ! R51   R(48,49)                1.3402         estimate D2E/DX2                !
 ! R52   R(48,50)                1.3417         estimate D2E/DX2                !
 ! R53   R(48,51)                1.3405         estimate D2E/DX2                !
 ! R54   R(52,53)                1.3473         estimate D2E/DX2                !
 ! R55   R(52,54)                1.3393         estimate D2E/DX2                !
 ! R56   R(52,55)                1.3382         estimate D2E/DX2                !
 ! A1    A(2,1,5)              110.3554         estimate D2E/DX2                !
 ! A2    A(2,1,8)              108.9494         estimate D2E/DX2                !
 ! A3    A(2,1,14)             110.5495         estimate D2E/DX2                !
 ! A4    A(5,1,8)              108.5519         estimate D2E/DX2                !
 ! A5    A(5,1,14)             107.8657         estimate D2E/DX2                !
 ! A6    A(8,1,14)             110.5441         estimate D2E/DX2                !
 ! A7    A(1,2,3)              110.8539         estimate D2E/DX2                !
 ! A8    A(1,2,7)              108.2628         estimate D2E/DX2                !
 ! A9    A(1,2,13)             108.2707         estimate D2E/DX2                !
 ! A10   A(3,2,7)              106.3459         estimate D2E/DX2                !
 ! A11   A(3,2,13)             112.3619         estimate D2E/DX2                !
 ! A12   A(7,2,13)             110.6795         estimate D2E/DX2                !
 ! A13   A(2,3,6)              112.0248         estimate D2E/DX2                !
 ! A14   A(2,3,11)             112.9871         estimate D2E/DX2                !
 ! A15   A(2,3,12)             105.8187         estimate D2E/DX2                !
 ! A16   A(6,3,11)             106.3712         estimate D2E/DX2                !
 ! A17   A(6,3,12)             108.3832         estimate D2E/DX2                !
 ! A18   A(11,3,12)            111.2451         estimate D2E/DX2                !
 ! A19   A(5,4,9)              108.9229         estimate D2E/DX2                !
 ! A20   A(5,4,11)             110.4589         estimate D2E/DX2                !
 ! A21   A(5,4,16)             111.9419         estimate D2E/DX2                !
 ! A22   A(9,4,11)             109.0024         estimate D2E/DX2                !
 ! A23   A(9,4,16)             107.8178         estimate D2E/DX2                !
 ! A24   A(11,4,16)            108.6212         estimate D2E/DX2                !
 ! A25   A(1,5,4)              111.2954         estimate D2E/DX2                !
 ! A26   A(1,5,10)             108.8165         estimate D2E/DX2                !
 ! A27   A(1,5,15)             109.9949         estimate D2E/DX2                !
 ! A28   A(4,5,10)             108.4803         estimate D2E/DX2                !
 ! A29   A(4,5,15)             107.5386         estimate D2E/DX2                !
 ! A30   A(10,5,15)            110.7073         estimate D2E/DX2                !
 ! A31   A(3,11,4)             114.7794         estimate D2E/DX2                !
 ! A32   A(3,12,20)            118.1427         estimate D2E/DX2                !
 ! A33   A(2,13,32)            114.2947         estimate D2E/DX2                !
 ! A34   A(1,14,36)            114.1876         estimate D2E/DX2                !
 ! A35   A(5,15,40)            113.6394         estimate D2E/DX2                !
 ! A36   A(4,16,17)            107.4317         estimate D2E/DX2                !
 ! A37   A(4,16,18)            109.1105         estimate D2E/DX2                !
 ! A38   A(4,16,19)            114.5667         estimate D2E/DX2                !
 ! A39   A(17,16,18)           108.5571         estimate D2E/DX2                !
 ! A40   A(17,16,19)           106.3247         estimate D2E/DX2                !
 ! A41   A(18,16,19)           110.6207         estimate D2E/DX2                !
 ! A42   A(16,19,44)           114.2795         estimate D2E/DX2                !
 ! A43   A(12,20,21)           104.7413         estimate D2E/DX2                !
 ! A44   A(12,20,22)           108.706          estimate D2E/DX2                !
 ! A45   A(12,20,23)           102.8552         estimate D2E/DX2                !
 ! A46   A(21,20,22)           121.554          estimate D2E/DX2                !
 ! A47   A(21,20,23)           108.8409         estimate D2E/DX2                !
 ! A48   A(22,20,23)           108.5372         estimate D2E/DX2                !
 ! A49   A(20,23,24)           118.8619         estimate D2E/DX2                !
 ! A50   A(20,23,25)           119.0429         estimate D2E/DX2                !
 ! A51   A(24,23,25)           122.0632         estimate D2E/DX2                !
 ! A52   A(23,24,26)           118.4986         estimate D2E/DX2                !
 ! A53   A(23,24,27)           120.5002         estimate D2E/DX2                !
 ! A54   A(26,24,27)           121.0012         estimate D2E/DX2                !
 ! A55   A(23,25,28)           118.4378         estimate D2E/DX2                !
 ! A56   A(23,25,29)           120.401          estimate D2E/DX2                !
 ! A57   A(28,25,29)           121.1609         estimate D2E/DX2                !
 ! A58   A(24,26,30)           120.5688         estimate D2E/DX2                !
 ! A59   A(24,26,48)           119.6116         estimate D2E/DX2                !
 ! A60   A(30,26,48)           119.7817         estimate D2E/DX2                !
 ! A61   A(25,28,30)           120.6922         estimate D2E/DX2                !
 ! A62   A(25,28,52)           119.8845         estimate D2E/DX2                !
 ! A63   A(30,28,52)           119.3313         estimate D2E/DX2                !
 ! A64   A(26,30,28)           119.7386         estimate D2E/DX2                !
 ! A65   A(26,30,31)           120.1015         estimate D2E/DX2                !
 ! A66   A(28,30,31)           120.1598         estimate D2E/DX2                !
 ! A67   A(13,32,33)           111.9073         estimate D2E/DX2                !
 ! A68   A(13,32,34)           111.1949         estimate D2E/DX2                !
 ! A69   A(13,32,35)           106.9216         estimate D2E/DX2                !
 ! A70   A(33,32,34)           109.1102         estimate D2E/DX2                !
 ! A71   A(33,32,35)           108.5248         estimate D2E/DX2                !
 ! A72   A(34,32,35)           109.093          estimate D2E/DX2                !
 ! A73   A(14,36,37)           106.831          estimate D2E/DX2                !
 ! A74   A(14,36,38)           110.9615         estimate D2E/DX2                !
 ! A75   A(14,36,39)           111.4384         estimate D2E/DX2                !
 ! A76   A(37,36,38)           108.873          estimate D2E/DX2                !
 ! A77   A(37,36,39)           109.4228         estimate D2E/DX2                !
 ! A78   A(38,36,39)           109.2485         estimate D2E/DX2                !
 ! A79   A(15,40,41)           106.9194         estimate D2E/DX2                !
 ! A80   A(15,40,42)           111.0013         estimate D2E/DX2                !
 ! A81   A(15,40,43)           110.8114         estimate D2E/DX2                !
 ! A82   A(41,40,42)           109.3401         estimate D2E/DX2                !
 ! A83   A(41,40,43)           109.2065         estimate D2E/DX2                !
 ! A84   A(42,40,43)           109.5054         estimate D2E/DX2                !
 ! A85   A(19,44,45)           106.9521         estimate D2E/DX2                !
 ! A86   A(19,44,46)           110.8761         estimate D2E/DX2                !
 ! A87   A(19,44,47)           112.0497         estimate D2E/DX2                !
 ! A88   A(45,44,46)           109.1243         estimate D2E/DX2                !
 ! A89   A(45,44,47)           109.2128         estimate D2E/DX2                !
 ! A90   A(46,44,47)           108.5732         estimate D2E/DX2                !
 ! A91   A(26,48,49)           111.3503         estimate D2E/DX2                !
 ! A92   A(26,48,50)           111.2156         estimate D2E/DX2                !
 ! A93   A(26,48,51)           111.3697         estimate D2E/DX2                !
 ! A94   A(49,48,50)           107.384          estimate D2E/DX2                !
 ! A95   A(49,48,51)           107.9596         estimate D2E/DX2                !
 ! A96   A(50,48,51)           107.3631         estimate D2E/DX2                !
 ! A97   A(28,52,53)           110.8419         estimate D2E/DX2                !
 ! A98   A(28,52,54)           111.5146         estimate D2E/DX2                !
 ! A99   A(28,52,55)           111.8033         estimate D2E/DX2                !
 ! A100  A(53,52,54)           107.0068         estimate D2E/DX2                !
 ! A101  A(53,52,55)           107.3271         estimate D2E/DX2                !
 ! A102  A(54,52,55)           108.1235         estimate D2E/DX2                !
 ! D1    D(5,1,2,3)            -49.5822         estimate D2E/DX2                !
 ! D2    D(5,1,2,7)             66.7036         estimate D2E/DX2                !
 ! D3    D(5,1,2,13)          -173.2591         estimate D2E/DX2                !
 ! D4    D(8,1,2,3)             69.5079         estimate D2E/DX2                !
 ! D5    D(8,1,2,7)           -174.2063         estimate D2E/DX2                !
 ! D6    D(8,1,2,13)           -54.169          estimate D2E/DX2                !
 ! D7    D(14,1,2,3)          -168.8267         estimate D2E/DX2                !
 ! D8    D(14,1,2,7)           -52.541          estimate D2E/DX2                !
 ! D9    D(14,1,2,13)           67.4963         estimate D2E/DX2                !
 ! D10   D(2,1,5,4)             51.9701         estimate D2E/DX2                !
 ! D11   D(2,1,5,10)           -67.5176         estimate D2E/DX2                !
 ! D12   D(2,1,5,15)           171.0489         estimate D2E/DX2                !
 ! D13   D(8,1,5,4)            -67.3613         estimate D2E/DX2                !
 ! D14   D(8,1,5,10)           173.151          estimate D2E/DX2                !
 ! D15   D(8,1,5,15)            51.7175         estimate D2E/DX2                !
 ! D16   D(14,1,5,4)           172.8309         estimate D2E/DX2                !
 ! D17   D(14,1,5,10)           53.3432         estimate D2E/DX2                !
 ! D18   D(14,1,5,15)          -68.0903         estimate D2E/DX2                !
 ! D19   D(2,1,14,36)          -99.24           estimate D2E/DX2                !
 ! D20   D(5,1,14,36)          140.0207         estimate D2E/DX2                !
 ! D21   D(8,1,14,36)           21.4799         estimate D2E/DX2                !
 ! D22   D(1,2,3,6)            172.1416         estimate D2E/DX2                !
 ! D23   D(1,2,3,11)            52.0172         estimate D2E/DX2                !
 ! D24   D(1,2,3,12)           -69.9407         estimate D2E/DX2                !
 ! D25   D(7,2,3,6)             54.6773         estimate D2E/DX2                !
 ! D26   D(7,2,3,11)           -65.4471         estimate D2E/DX2                !
 ! D27   D(7,2,3,12)           172.595          estimate D2E/DX2                !
 ! D28   D(13,2,3,6)           -66.5609         estimate D2E/DX2                !
 ! D29   D(13,2,3,11)          173.3146         estimate D2E/DX2                !
 ! D30   D(13,2,3,12)           51.3568         estimate D2E/DX2                !
 ! D31   D(1,2,13,32)         -169.9182         estimate D2E/DX2                !
 ! D32   D(3,2,13,32)           67.317          estimate D2E/DX2                !
 ! D33   D(7,2,13,32)          -51.4051         estimate D2E/DX2                !
 ! D34   D(2,3,11,4)           -56.8941         estimate D2E/DX2                !
 ! D35   D(6,3,11,4)           179.7945         estimate D2E/DX2                !
 ! D36   D(12,3,11,4)           61.9628         estimate D2E/DX2                !
 ! D37   D(2,3,12,20)         -158.1413         estimate D2E/DX2                !
 ! D38   D(6,3,12,20)          -37.8174         estimate D2E/DX2                !
 ! D39   D(11,3,12,20)          78.7901         estimate D2E/DX2                !
 ! D40   D(9,4,5,1)             65.1517         estimate D2E/DX2                !
 ! D41   D(9,4,5,10)          -175.1607         estimate D2E/DX2                !
 ! D42   D(9,4,5,15)           -55.3841         estimate D2E/DX2                !
 ! D43   D(11,4,5,1)           -54.5365         estimate D2E/DX2                !
 ! D44   D(11,4,5,10)           65.1511         estimate D2E/DX2                !
 ! D45   D(11,4,5,15)         -175.0723         estimate D2E/DX2                !
 ! D46   D(16,4,5,1)          -175.7153         estimate D2E/DX2                !
 ! D47   D(16,4,5,10)          -56.0277         estimate D2E/DX2                !
 ! D48   D(16,4,5,15)           63.7489         estimate D2E/DX2                !
 ! D49   D(5,4,11,3)            57.7526         estimate D2E/DX2                !
 ! D50   D(9,4,11,3)           -61.8877         estimate D2E/DX2                !
 ! D51   D(16,4,11,3)         -179.1162         estimate D2E/DX2                !
 ! D52   D(5,4,16,17)          -72.1779         estimate D2E/DX2                !
 ! D53   D(5,4,16,18)          170.3176         estimate D2E/DX2                !
 ! D54   D(5,4,16,19)           45.6921         estimate D2E/DX2                !
 ! D55   D(9,4,16,17)           47.6049         estimate D2E/DX2                !
 ! D56   D(9,4,16,18)          -69.8996         estimate D2E/DX2                !
 ! D57   D(9,4,16,19)          165.4749         estimate D2E/DX2                !
 ! D58   D(11,4,16,17)         165.5875         estimate D2E/DX2                !
 ! D59   D(11,4,16,18)          48.083          estimate D2E/DX2                !
 ! D60   D(11,4,16,19)         -76.5425         estimate D2E/DX2                !
 ! D61   D(1,5,15,40)          108.096          estimate D2E/DX2                !
 ! D62   D(4,5,15,40)         -130.551          estimate D2E/DX2                !
 ! D63   D(10,5,15,40)         -12.2009         estimate D2E/DX2                !
 ! D64   D(3,12,20,21)         166.5581         estimate D2E/DX2                !
 ! D65   D(3,12,20,22)          35.2292         estimate D2E/DX2                !
 ! D66   D(3,12,20,23)         -79.7034         estimate D2E/DX2                !
 ! D67   D(2,13,32,33)         -72.8147         estimate D2E/DX2                !
 ! D68   D(2,13,32,34)          49.4893         estimate D2E/DX2                !
 ! D69   D(2,13,32,35)         168.4811         estimate D2E/DX2                !
 ! D70   D(1,14,36,37)        -179.6612         estimate D2E/DX2                !
 ! D71   D(1,14,36,38)         -61.1203         estimate D2E/DX2                !
 ! D72   D(1,14,36,39)          60.8648         estimate D2E/DX2                !
 ! D73   D(5,15,40,41)         179.5033         estimate D2E/DX2                !
 ! D74   D(5,15,40,42)         -61.316          estimate D2E/DX2                !
 ! D75   D(5,15,40,43)          60.5903         estimate D2E/DX2                !
 ! D76   D(4,16,19,44)          77.5287         estimate D2E/DX2                !
 ! D77   D(17,16,19,44)       -163.9743         estimate D2E/DX2                !
 ! D78   D(18,16,19,44)        -46.2945         estimate D2E/DX2                !
 ! D79   D(16,19,44,45)        166.8638         estimate D2E/DX2                !
 ! D80   D(16,19,44,46)         47.9943         estimate D2E/DX2                !
 ! D81   D(16,19,44,47)        -73.4904         estimate D2E/DX2                !
 ! D82   D(12,20,23,24)        -80.6895         estimate D2E/DX2                !
 ! D83   D(12,20,23,25)         97.296          estimate D2E/DX2                !
 ! D84   D(21,20,23,24)         30.0208         estimate D2E/DX2                !
 ! D85   D(21,20,23,25)       -151.9937         estimate D2E/DX2                !
 ! D86   D(22,20,23,24)        164.256          estimate D2E/DX2                !
 ! D87   D(22,20,23,25)        -17.7585         estimate D2E/DX2                !
 ! D88   D(20,23,24,26)        177.6321         estimate D2E/DX2                !
 ! D89   D(20,23,24,27)         -2.3501         estimate D2E/DX2                !
 ! D90   D(25,23,24,26)         -0.2897         estimate D2E/DX2                !
 ! D91   D(25,23,24,27)        179.7281         estimate D2E/DX2                !
 ! D92   D(20,23,25,28)       -177.6671         estimate D2E/DX2                !
 ! D93   D(20,23,25,29)          2.1357         estimate D2E/DX2                !
 ! D94   D(24,23,25,28)          0.2511         estimate D2E/DX2                !
 ! D95   D(24,23,25,29)       -179.9462         estimate D2E/DX2                !
 ! D96   D(23,24,26,30)          0.0768         estimate D2E/DX2                !
 ! D97   D(23,24,26,48)        177.8315         estimate D2E/DX2                !
 ! D98   D(27,24,26,30)       -179.9411         estimate D2E/DX2                !
 ! D99   D(27,24,26,48)         -2.1864         estimate D2E/DX2                !
 ! D100  D(23,25,28,30)          0.0009         estimate D2E/DX2                !
 ! D101  D(23,25,28,52)        176.491          estimate D2E/DX2                !
 ! D102  D(29,25,28,30)       -179.8003         estimate D2E/DX2                !
 ! D103  D(29,25,28,52)         -3.3102         estimate D2E/DX2                !
 ! D104  D(24,26,30,28)          0.1653         estimate D2E/DX2                !
 ! D105  D(24,26,30,31)       -179.6825         estimate D2E/DX2                !
 ! D106  D(48,26,30,28)       -177.5856         estimate D2E/DX2                !
 ! D107  D(48,26,30,31)          2.5666         estimate D2E/DX2                !
 ! D108  D(24,26,48,49)         30.7679         estimate D2E/DX2                !
 ! D109  D(24,26,48,50)        -88.9581         estimate D2E/DX2                !
 ! D110  D(24,26,48,51)        151.3293         estimate D2E/DX2                !
 ! D111  D(30,26,48,49)       -151.4595         estimate D2E/DX2                !
 ! D112  D(30,26,48,50)         88.8145         estimate D2E/DX2                !
 ! D113  D(30,26,48,51)        -30.8981         estimate D2E/DX2                !
 ! D114  D(25,28,30,26)         -0.2052         estimate D2E/DX2                !
 ! D115  D(25,28,30,31)        179.6425         estimate D2E/DX2                !
 ! D116  D(52,28,30,26)       -176.7146         estimate D2E/DX2                !
 ! D117  D(52,28,30,31)          3.1331         estimate D2E/DX2                !
 ! D118  D(25,28,52,53)        -95.3603         estimate D2E/DX2                !
 ! D119  D(25,28,52,54)        145.5305         estimate D2E/DX2                !
 ! D120  D(25,28,52,55)         24.3443         estimate D2E/DX2                !
 ! D121  D(30,28,52,53)         81.1778         estimate D2E/DX2                !
 ! D122  D(30,28,52,54)        -37.9315         estimate D2E/DX2                !
 ! D123  D(30,28,52,55)       -159.1177         estimate D2E/DX2                !
 --------------------------------------------------------------------------------
 Trust Radius=3.00D-01 FncErr=1.00D-07 GrdErr=1.00D-06 EigMax=2.50D+02 EigMin=1.00D-04
 Number of steps in this run=    291 maximum allowed number of steps=    330.
 GradGradGradGradGradGradGradGradGradGradGradGradGradGradGradGradGradGrad

 Leave Link  103 at Wed Jun  5 17:29:36 2019, MaxMem=  6442450944 cpu:               2.1 elap:               0.1
 (Enter /home/ekwan/sw/g16/l202.exe)
 Stoichiometry    C18H22F6O8S
 Framework group  C1[X(C18H22F6O8S)]
 Deg. of freedom   159
 Full point group                 C1      NOp   1
 Largest Abelian subgroup         C1      NOp   1
 Largest concise Abelian subgroup C1      NOp   1
                         Standard orientation:                         
 ---------------------------------------------------------------------
 Center     Atomic      Atomic             Coordinates (Angstroms)
 Number     Number       Type             X           Y           Z
 ---------------------------------------------------------------------
      1          6           0        3.369335    0.385728    0.557024
      2          6           0        3.283222   -0.530191   -0.653334
      3          6           0        1.828210   -0.857614   -0.985224
      4          6           0        1.022274    1.113529    0.049853
      5          6           0        2.432570    1.569045    0.391570
      6          1           0        1.735469   -1.398854   -1.927513
      7          1           0        3.685636    0.010026   -1.524111
      8          1           0        3.068238   -0.175856    1.451310
      9          1           0        0.613314    0.552949    0.900467
     10          1           0        2.801450    2.200663   -0.425568
     11          8           0        1.035914    0.266687   -1.102696
     12          8           0        1.365251   -1.714562    0.079209
     13          8           0        4.039622   -1.676067   -0.390518
     14          8           0        4.675506    0.886724    0.705226
     15          8           0        2.363071    2.299078    1.592091
     16          6           0        0.097796    2.285902   -0.221209
     17          1           0       -0.103802    2.771548    0.735723
     18          1           0       -0.849284    1.909926   -0.628396
     19          8           0        0.638942    3.274749   -1.059607
     20         16           0        0.099012   -2.658583   -0.205483
     21          8           0        0.086651   -3.596378    0.890277
     22          8           0        0.151359   -3.102982   -1.582657
     23          6           0       -1.263596   -1.552776   -0.024377
     24          6           0       -1.717875   -1.255078    1.248888
     25          6           0       -1.817540   -0.977663   -1.155624
     26          6           0       -2.756349   -0.347080    1.385132
     27          1           0       -1.268138   -1.723975    2.117524
     28          6           0       -2.853737   -0.074635   -0.995700
     29          1           0       -1.441328   -1.230922   -2.139858
     30          6           0       -3.325083    0.245658    0.269303
     31          1           0       -4.133852    0.958998    0.384993
     32          6           0        4.233594   -2.513032   -1.509895
     33          1           0        3.317534   -3.051241   -1.782064
     34          1           0        4.584926   -1.940232   -2.377414
     35          1           0        4.994755   -3.242900   -1.232371
     36          6           0        5.451940    0.202717    1.665907
     37          1           0        6.429026    0.688663    1.686692
     38          1           0        4.997757    0.276052    2.662182
     39          1           0        5.575636   -0.851584    1.402776
     40          6           0        3.023157    3.546973    1.535325
     41          1           0        2.894062    4.019277    2.510826
     42          1           0        4.091123    3.417024    1.334000
     43          1           0        2.580317    4.187130    0.763211
     44          6           0        0.634333    2.939171   -2.431440
     45          1           0        0.849571    3.855610   -2.983998
     46          1           0       -0.347372    2.557445   -2.737121
     47          1           0        1.391631    2.186673   -2.672937
     48          6           0       -3.302003   -0.042364    2.752267
     49          9           0       -2.353241   -0.153760    3.692261
     50          9           0       -4.291615   -0.887210    3.079454
     51          9           0       -3.800473    1.200465    2.813367
     52          6           0       -3.425672    0.627937   -2.193629
     53          9           0       -2.853294    1.836299   -2.359202
     54          9           0       -4.742409    0.833152   -2.060415
     55          9           0       -3.224395   -0.066105   -3.319937
 ---------------------------------------------------------------------
 Rotational constants (GHZ):           0.1525992           0.0861513           0.0845849
 Leave Link  202 at Wed Jun  5 17:29:36 2019, MaxMem=  6442450944 cpu:               4.9 elap:               0.2
 (Enter /home/ekwan/sw/g16/l301.exe)
 Standard basis: 6-31G(d) (6D, 7F)
 Ernie: Thresh=  0.10000D-02 Tol=  0.10000D-05 Strict=F.
 There are   543 symmetry adapted cartesian basis functions of A   symmetry.
 There are   543 symmetry adapted basis functions of A   symmetry.
   543 basis functions,  1036 primitive gaussians,   543 cartesian basis functions
   132 alpha electrons      132 beta electrons
       nuclear repulsion energy      4376.2501527077 Hartrees.
 IExCor=32609 DFT=T Ex+Corr=LC-wPBE ExCW=0 ScaHFX=  1.000000
 ScaDFX=  1.000000  0.000000  1.000000  1.000000 ScalE2=  1.000000  1.000000
 IRadAn=      5 IRanWt=     -1 IRanGd=            0 ICorTp=0 IEmpDi=141
 HFx  wShort=  0.000000 wLong=  0.400000 cFull=  0.000000 cShort=  0.000000 cLong=  1.000000
 DFx  wShort=  0.000000 wLong=  0.400000 cFull=  0.000000 cShort=  0.000000 cLong=  1.000000
 NAtoms=   55 NActive=   55 NUniq=   55 SFac= 1.00D+00 NAtFMM=   60 NAOKFM=F Big=F
 Integral buffers will be    131072 words long.
 Raffenetti 2 integral format.
 Two-electron integral symmetry is turned on.
 R6Disp:  Grimme-D3(BJ) Dispersion energy=       -0.0731522639 Hartrees.
 Nuclear repulsion after empirical dispersion term =     4376.1770004438 Hartrees.
 ------------------------------------------------------------------------------
 Polarizable Continuum Model (PCM)
 =================================
 Model                : PCM.
 Atomic radii         : UFF (Universal Force Field).
 Polarization charges : Total charges.
 Charge compensation  : None.
 Solution method      : On-the-fly selection.
 Cavity type          : Scaled VdW (van der Waals Surface) (Alpha=1.100).
 Cavity algorithm     : GePol (No added spheres)
                        Default sphere list used, NSphG=   55.
                        Lebedev-Laikov grids with approx.  5.0 points / Ang**2.
                        Smoothing algorithm: York/Karplus (Gamma=1.0000).
                        Polarization charges: spherical gaussians, with
                                              point-specific exponents (IZeta= 3).
                        Self-potential: point-specific (ISelfS= 7).
                        Self-field    : sphere-specific E.n sum rule (ISelfD= 2).
 1st derivatives      : Analytical E(r).r(x)/FMM algorithm (CHGder, D1EAlg=3).
                        Cavity 1st derivative terms included.
 Solvent              : TetraHydroFuran, Eps=   7.425700 Eps(inf)=   1.974025
 ------------------------------------------------------------------------------
 GePol: Number of generator spheres                  =      55
 GePol: Total number of spheres                      =      55
 GePol: Number of exposed spheres                    =      55 (100.00%)
 GePol: Number of points                             =    3852
 GePol: Average weight of points                     =       0.13
 GePol: Minimum weight of points                     =   0.12D-11
 GePol: Maximum weight of points                     =    0.20577
 GePol: Number of points with low weight             =     230
 GePol: Fraction of low-weight points (<1% of avg)   =       5.97%
 GePol: Cavity surface area                          =    489.922 Ang**2
 GePol: Cavity volume                                =    572.145 Ang**3
 Leave Link  301 at Wed Jun  5 17:29:36 2019, MaxMem=  6442450944 cpu:               7.4 elap:               0.3
 (Enter /home/ekwan/sw/g16/l302.exe)
 NPDir=0 NMtPBC=     1 NCelOv=     1 NCel=       1 NClECP=     1 NCelD=      1
         NCelK=      1 NCelE2=     1 NClLst=     1 CellRange=     0.0.
 One-electron integrals computed using PRISM.
 One-electron integral symmetry used in STVInt
 NBasis=   543 RedAO= T EigKep=  3.90D-04  NBF=   543
 NBsUse=   543 1.00D-06 EigRej= -1.00D+00 NBFU=   543
 Precomputing XC quadrature grid using
 IXCGrd= 4 IRadAn=           5 IRanWt=          -1 IRanGd=           0 AccXCQ= 0.00D+00.
 Generated NRdTot=       0 NPtTot=           0 NUsed=           0 NTot=          32
 NSgBfM=   533   532   532   532   533 MxSgAt=    55 MxSgA2=    55.
 Leave Link  302 at Wed Jun  5 17:29:46 2019, MaxMem=  6442450944 cpu:             267.0 elap:               9.3
 (Enter /home/ekwan/sw/g16/l303.exe)
 DipDrv:  MaxL=1.
 Leave Link  303 at Wed Jun  5 17:29:46 2019, MaxMem=  6442450944 cpu:              10.3 elap:               0.4
 (Enter /home/ekwan/sw/g16/l401.exe)
 ExpMin= 1.17D-01 ExpMax= 2.19D+04 ExpMxC= 3.30D+03 IAcc=3 IRadAn=         5 AccDes= 0.00D+00
 Harris functional with IExCor=32609 and IRadAn=       5 diagonalized for initial guess.
 HarFok:  IExCor=32609 AccDes= 0.00D+00 IRadAn=         5 IDoV= 1 UseB2=F ITyADJ=14
 ICtDFT=  3500011 ScaDFX=  1.000000  1.000000  1.000000  1.000000
 FoFCou: FMM=F IPFlag=           0 FMFlag=      100000 FMFlg1=           0
         NFxFlg=           0 DoJE=T BraDBF=F KetDBF=T FulRan=T
         wScrn=  0.000000 ICntrl=       500 IOpCl=  0 I1Cent=   200000004 NGrid=           0
         NMat0=    1 NMatS0=      1 NMatT0=    0 NMatD0=    1 NMtDS0=    0 NMtDT0=    0
 Petite list used in FoFCou.
 Harris En= -2296.49466733984    
 JPrj=0 DoOrth=F DoCkMO=F.
 Leave Link  401 at Wed Jun  5 17:29:54 2019, MaxMem=  6442450944 cpu:             242.1 elap:               7.9
 (Enter /home/ekwan/sw/g16/l502.exe)
 Integral symmetry usage will be decided dynamically.
 Closed shell SCF:
 Using DIIS extrapolation, IDIIS=  1040.
 NGot=  6442450944 LenX=  6441838015 LenY=  6441542623
 Requested convergence on RMS density matrix=1.00D-08 within 128 cycles.
 Requested convergence on MAX density matrix=1.00D-06.
 Requested convergence on             energy=1.00D-06.
 No special actions if energy rises.
 Fock matrices will be formed incrementally for  20 cycles.

 Cycle   1  Pass 1  IDiag  1:
 FoFJK:  IHMeth= 1 ICntrl=       0 DoSepK=T KAlg= 0 I1Cent=           0 FoldK=F
 IRaf=         1 NMat=       1 IRICut=       1 DoRegI=T DoRafI=F ISym2E= 0 IDoP0=0 IntGTp=1.
 FoFCou: FMM=F IPFlag=           0 FMFlag=      100000 FMFlg1=           0
         NFxFlg=           0 DoJE=T BraDBF=F KetDBF=F FulRan=T
         wScrn=  0.000000 ICntrl=       500 IOpCl=  0 I1Cent=           0 NGrid=           0
         NMat0=    1 NMatS0=      1 NMatT0=    0 NMatD0=    1 NMtDS0=    0 NMtDT0=    0
 Symmetry not used in FoFCou.
 Inv3:  Mode=1 IEnd=    44513712.
 Iteration    1 A*A^-1 deviation from unit magnitude is 5.55D-15 for   3844.
 Iteration    1 A*A^-1 deviation from orthogonality  is 3.38D-15 for   3562    366.
 Iteration    1 A^-1*A deviation from unit magnitude is 5.33D-15 for   3844.
 Iteration    1 A^-1*A deviation from orthogonality  is 3.32D-15 for   3844   2471.
 E= -2296.29673478862    
 DIIS: error= 2.49D-02 at cycle   1 NSaved=   1.
 NSaved= 1 IEnMin= 1 EnMin= -2296.29673478862     IErMin= 1 ErrMin= 2.49D-02
 ErrMax= 2.49D-02  0.00D+00 EMaxC= 1.00D-01 BMatC= 7.58D-01 BMatP= 7.58D-01
 IDIUse=3 WtCom= 7.51D-01 WtEn= 2.49D-01
 Coeff-Com:  0.100D+01
 Coeff-En:   0.100D+01
 Coeff:      0.100D+01
 Gap=     0.370 Goal=   None    Shift=    0.000
 GapD=    0.370 DampG=1.000 DampE=0.500 DampFc=0.5000 IDamp=-1.
 Damping current iteration by 5.00D-01
 RMSDP=2.61D-03 MaxDP=3.85D-01              OVMax= 1.26D-01

 Cycle   2  Pass 1  IDiag  1:
 RMSU=  1.30D-03    CP:  9.96D-01
 E= -2296.59935386209     Delta-E=       -0.302619073474 Rises=F Damp=T
 DIIS: error= 5.56D-03 at cycle   2 NSaved=   2.
 NSaved= 2 IEnMin= 2 EnMin= -2296.59935386209     IErMin= 2 ErrMin= 5.56D-03
 ErrMax= 5.56D-03  0.00D+00 EMaxC= 1.00D-01 BMatC= 3.99D-02 BMatP= 7.58D-01
 IDIUse=3 WtCom= 9.44D-01 WtEn= 5.56D-02
 Coeff-Com: -0.397D-01 0.104D+01
 Coeff-En:   0.000D+00 0.100D+01
 Coeff:     -0.375D-01 0.104D+01
 Gap=     0.388 Goal=   None    Shift=    0.000
 RMSDP=6.76D-04 MaxDP=5.44D-02 DE=-3.03D-01 OVMax= 7.66D-02

 Cycle   3  Pass 1  IDiag  1:
 RMSU=  6.60D-04    CP:  9.91D-01  1.09D+00
 E= -2296.89901179801     Delta-E=       -0.299657935916 Rises=F Damp=F
 DIIS: error= 4.32D-03 at cycle   3 NSaved=   3.
 NSaved= 3 IEnMin= 3 EnMin= -2296.89901179801     IErMin= 3 ErrMin= 4.32D-03
 ErrMax= 4.32D-03  0.00D+00 EMaxC= 1.00D-01 BMatC= 1.67D-02 BMatP= 3.99D-02
 IDIUse=3 WtCom= 9.57D-01 WtEn= 4.32D-02
 Coeff-Com: -0.628D-01 0.397D+00 0.666D+00
 Coeff-En:   0.000D+00 0.000D+00 0.100D+01
 Coeff:     -0.601D-01 0.380D+00 0.680D+00
 Gap=     0.365 Goal=   None    Shift=    0.000
 RMSDP=2.57D-04 MaxDP=2.13D-02 DE=-3.00D-01 OVMax= 2.27D-02

 Cycle   4  Pass 1  IDiag  1:
 RMSU=  2.01D-04    CP:  9.92D-01  1.16D+00  7.98D-01
 E= -2296.91039551667     Delta-E=       -0.011383718665 Rises=F Damp=F
 DIIS: error= 1.13D-03 at cycle   4 NSaved=   4.
 NSaved= 4 IEnMin= 4 EnMin= -2296.91039551667     IErMin= 4 ErrMin= 1.13D-03
 ErrMax= 1.13D-03  0.00D+00 EMaxC= 1.00D-01 BMatC= 1.69D-03 BMatP= 1.67D-02
 IDIUse=3 WtCom= 9.89D-01 WtEn= 1.13D-02
 Coeff-Com: -0.179D-01 0.468D-01 0.259D+00 0.712D+00
 Coeff-En:   0.000D+00 0.000D+00 0.000D+00 0.100D+01
 Coeff:     -0.177D-01 0.462D-01 0.256D+00 0.715D+00
 Gap=     0.367 Goal=   None    Shift=    0.000
 RMSDP=8.04D-05 MaxDP=5.25D-03 DE=-1.14D-02 OVMax= 6.53D-03

 Cycle   5  Pass 1  IDiag  1:
 RMSU=  5.16D-05    CP:  9.91D-01  1.15D+00  8.70D-01  8.05D-01
 E= -2296.91166592893     Delta-E=       -0.001270412262 Rises=F Damp=F
 DIIS: error= 4.35D-04 at cycle   5 NSaved=   5.
 NSaved= 5 IEnMin= 5 EnMin= -2296.91166592893     IErMin= 5 ErrMin= 4.35D-04
 ErrMax= 4.35D-04  0.00D+00 EMaxC= 1.00D-01 BMatC= 1.50D-04 BMatP= 1.69D-03
 IDIUse=3 WtCom= 9.96D-01 WtEn= 4.35D-03
 Coeff-Com: -0.260D-02-0.477D-02 0.533D-01 0.281D+00 0.673D+00
 Coeff-En:   0.000D+00 0.000D+00 0.000D+00 0.000D+00 0.100D+01
 Coeff:     -0.259D-02-0.475D-02 0.531D-01 0.280D+00 0.674D+00
 Gap=     0.367 Goal=   None    Shift=    0.000
 RMSDP=2.30D-05 MaxDP=2.03D-03 DE=-1.27D-03 OVMax= 2.61D-03

 Cycle   6  Pass 1  IDiag  1:
 RMSU=  1.81D-05    CP:  9.91D-01  1.16D+00  8.77D-01  8.58D-01  9.00D-01
 E= -2296.91178954043     Delta-E=       -0.000123611499 Rises=F Damp=F
 DIIS: error= 1.77D-04 at cycle   6 NSaved=   6.
 NSaved= 6 IEnMin= 6 EnMin= -2296.91178954043     IErMin= 6 ErrMin= 1.77D-04
 ErrMax= 1.77D-04  0.00D+00 EMaxC= 1.00D-01 BMatC= 1.27D-05 BMatP= 1.50D-04
 IDIUse=3 WtCom= 9.98D-01 WtEn= 1.77D-03
 Coeff-Com:  0.112D-02-0.663D-02-0.132D-01 0.551D-02 0.213D+00 0.800D+00
 Coeff-En:   0.000D+00 0.000D+00 0.000D+00 0.000D+00 0.000D+00 0.100D+01
 Coeff:      0.112D-02-0.662D-02-0.131D-01 0.550D-02 0.212D+00 0.801D+00
 Gap=     0.367 Goal=   None    Shift=    0.000
 RMSDP=9.56D-06 MaxDP=4.90D-04 DE=-1.24D-04 OVMax= 1.27D-03

 Cycle   7  Pass 1  IDiag  1:
 RMSU=  5.99D-06    CP:  9.91D-01  1.16D+00  8.82D-01  8.78D-01  1.01D+00
                    CP:  1.01D+00
 E= -2296.91180524751     Delta-E=       -0.000015707084 Rises=F Damp=F
 DIIS: error= 8.53D-05 at cycle   7 NSaved=   7.
 NSaved= 7 IEnMin= 7 EnMin= -2296.91180524751     IErMin= 7 ErrMin= 8.53D-05
 ErrMax= 8.53D-05  0.00D+00 EMaxC= 1.00D-01 BMatC= 1.06D-06 BMatP= 1.27D-05
 IDIUse=1 WtCom= 1.00D+00 WtEn= 0.00D+00
 Coeff-Com:  0.531D-03-0.980D-03-0.884D-02-0.304D-01-0.373D-01 0.118D+00
 Coeff-Com:  0.959D+00
 Coeff:      0.531D-03-0.980D-03-0.884D-02-0.304D-01-0.373D-01 0.118D+00
 Coeff:      0.959D+00
 Gap=     0.368 Goal=   None    Shift=    0.000
 RMSDP=4.55D-06 MaxDP=1.87D-04 DE=-1.57D-05 OVMax= 8.46D-04

 Cycle   8  Pass 1  IDiag  1:
 RMSU=  2.51D-06    CP:  9.91D-01  1.16D+00  8.83D-01  8.82D-01  1.05D+00
                    CP:  1.15D+00  1.17D+00
 E= -2296.91180829769     Delta-E=       -0.000003050179 Rises=F Damp=F
 DIIS: error= 2.17D-05 at cycle   8 NSaved=   8.
 NSaved= 8 IEnMin= 8 EnMin= -2296.91180829769     IErMin= 8 ErrMin= 2.17D-05
 ErrMax= 2.17D-05  0.00D+00 EMaxC= 1.00D-01 BMatC= 3.43D-07 BMatP= 1.06D-06
 IDIUse=1 WtCom= 1.00D+00 WtEn= 0.00D+00
 Coeff-Com:  0.347D-04 0.682D-03-0.112D-02-0.118D-01-0.468D-01-0.767D-01
 Coeff-Com:  0.378D+00 0.758D+00
 Coeff:      0.347D-04 0.682D-03-0.112D-02-0.118D-01-0.468D-01-0.767D-01
 Coeff:      0.378D+00 0.758D+00
 Gap=     0.367 Goal=   None    Shift=    0.000
 RMSDP=1.81D-06 MaxDP=9.12D-05 DE=-3.05D-06 OVMax= 4.60D-04

 Cycle   9  Pass 1  IDiag  1:
 RMSU=  1.02D-06    CP:  9.91D-01  1.16D+00  8.84D-01  8.84D-01  1.06D+00
                    CP:  1.19D+00  1.36D+00  1.06D+00
 E= -2296.91180896611     Delta-E=       -0.000000668421 Rises=F Damp=F
 DIIS: error= 2.05D-05 at cycle   9 NSaved=   9.
 NSaved= 9 IEnMin= 9 EnMin= -2296.91180896611     IErMin= 9 ErrMin= 2.05D-05
 ErrMax= 2.05D-05  0.00D+00 EMaxC= 1.00D-01 BMatC= 5.07D-08 BMatP= 3.43D-07
 IDIUse=1 WtCom= 1.00D+00 WtEn= 0.00D+00
 Coeff-Com: -0.976D-04 0.431D-03 0.190D-02 0.376D-02-0.705D-02-0.508D-01
 Coeff-Com: -0.105D+00 0.198D+00 0.959D+00
 Coeff:     -0.976D-04 0.431D-03 0.190D-02 0.376D-02-0.705D-02-0.508D-01
 Coeff:     -0.105D+00 0.198D+00 0.959D+00
 Gap=     0.367 Goal=   None    Shift=    0.000
 RMSDP=1.03D-06 MaxDP=4.90D-05 DE=-6.68D-07 OVMax= 2.37D-04

 Cycle  10  Pass 1  IDiag  1:
 RMSU=  4.57D-07    CP:  9.91D-01  1.16D+00  8.84D-01  8.84D-01  1.06D+00
                    CP:  1.21D+00  1.46D+00  1.29D+00  1.19D+00
 E= -2296.91180911182     Delta-E=       -0.000000145707 Rises=F Damp=F
 DIIS: error= 3.63D-06 at cycle  10 NSaved=  10.
 NSaved=10 IEnMin=10 EnMin= -2296.91180911182     IErMin=10 ErrMin= 3.63D-06
 ErrMax= 3.63D-06  0.00D+00 EMaxC= 1.00D-01 BMatC= 6.86D-09 BMatP= 5.07D-08
 IDIUse=1 WtCom= 1.00D+00 WtEn= 0.00D+00
 Coeff-Com: -0.151D-04-0.442D-04 0.668D-03 0.290D-02 0.534D-02-0.399D-03
 Coeff-Com: -0.890D-01-0.676D-01 0.283D+00 0.865D+00
 Coeff:     -0.151D-04-0.442D-04 0.668D-03 0.290D-02 0.534D-02-0.399D-03
 Coeff:     -0.890D-01-0.676D-01 0.283D+00 0.865D+00
 Gap=     0.367 Goal=   None    Shift=    0.000
 RMSDP=3.32D-07 MaxDP=1.56D-05 DE=-1.46D-07 OVMax= 8.36D-05

 Cycle  11  Pass 1  IDiag  1:
 RMSU=  1.47D-07    CP:  9.91D-01  1.16D+00  8.84D-01  8.84D-01  1.06D+00
                    CP:  1.21D+00  1.47D+00  1.36D+00  1.36D+00  1.05D+00
 E= -2296.91180912578     Delta-E=       -0.000000013963 Rises=F Damp=F
 DIIS: error= 6.84D-07 at cycle  11 NSaved=  11.
 NSaved=11 IEnMin=11 EnMin= -2296.91180912578     IErMin=11 ErrMin= 6.84D-07
 ErrMax= 6.84D-07  0.00D+00 EMaxC= 1.00D-01 BMatC= 6.45D-10 BMatP= 6.86D-09
 IDIUse=1 WtCom= 1.00D+00 WtEn= 0.00D+00
 Coeff-Com:  0.661D-05-0.521D-04 0.356D-04 0.467D-03 0.190D-02 0.379D-02
 Coeff-Com: -0.143D-01-0.345D-01-0.882D-02 0.225D+00 0.826D+00
 Coeff:      0.661D-05-0.521D-04 0.356D-04 0.467D-03 0.190D-02 0.379D-02
 Coeff:     -0.143D-01-0.345D-01-0.882D-02 0.225D+00 0.826D+00
 Gap=     0.367 Goal=   None    Shift=    0.000
 RMSDP=9.07D-08 MaxDP=5.16D-06 DE=-1.40D-08 OVMax= 1.98D-05

 Cycle  12  Pass 1  IDiag  1:
 RMSU=  5.50D-08    CP:  9.91D-01  1.16D+00  8.84D-01  8.84D-01  1.06D+00
                    CP:  1.21D+00  1.48D+00  1.38D+00  1.40D+00  1.16D+00
                    CP:  1.05D+00
 E= -2296.91180912678     Delta-E=       -0.000000000995 Rises=F Damp=F
 DIIS: error= 4.93D-07 at cycle  12 NSaved=  12.
 NSaved=12 IEnMin=12 EnMin= -2296.91180912678     IErMin=12 ErrMin= 4.93D-07
 ErrMax= 4.93D-07  0.00D+00 EMaxC= 1.00D-01 BMatC= 1.88D-10 BMatP= 6.45D-10
 IDIUse=1 WtCom= 1.00D+00 WtEn= 0.00D+00
 Coeff-Com:  0.574D-05-0.163D-04-0.806D-04-0.240D-03 0.125D-04 0.166D-02
 Coeff-Com:  0.788D-02-0.446D-02-0.509D-01-0.396D-01 0.382D+00 0.704D+00
 Coeff:      0.574D-05-0.163D-04-0.806D-04-0.240D-03 0.125D-04 0.166D-02
 Coeff:      0.788D-02-0.446D-02-0.509D-01-0.396D-01 0.382D+00 0.704D+00
 Gap=     0.367 Goal=   None    Shift=    0.000
 RMSDP=3.71D-08 MaxDP=2.13D-06 DE=-9.95D-10 OVMax= 4.79D-06

 Cycle  13  Pass 1  IDiag  1:
 RMSU=  1.80D-08    CP:  9.91D-01  1.16D+00  8.84D-01  8.84D-01  1.06D+00
                    CP:  1.21D+00  1.48D+00  1.38D+00  1.41D+00  1.19D+00
                    CP:  1.21D+00  8.53D-01
 E= -2296.91180912700     Delta-E=       -0.000000000224 Rises=F Damp=F
 DIIS: error= 8.81D-08 at cycle  13 NSaved=  13.
 NSaved=13 IEnMin=13 EnMin= -2296.91180912700     IErMin=13 ErrMin= 8.81D-08
 ErrMax= 8.81D-08  0.00D+00 EMaxC= 1.00D-01 BMatC= 1.13D-11 BMatP= 1.88D-10
 IDIUse=1 WtCom= 1.00D+00 WtEn= 0.00D+00
 Coeff-Com:  0.904D-06 0.963D-06-0.248D-04-0.117D-03-0.198D-03 0.165D-04
 Coeff-Com:  0.382D-02 0.288D-02-0.136D-01-0.373D-01 0.214D-01 0.209D+00
 Coeff-Com:  0.814D+00
 Coeff:      0.904D-06 0.963D-06-0.248D-04-0.117D-03-0.198D-03 0.165D-04
 Coeff:      0.382D-02 0.288D-02-0.136D-01-0.373D-01 0.214D-01 0.209D+00
 Coeff:      0.814D+00
 Gap=     0.367 Goal=   None    Shift=    0.000
 RMSDP=1.16D-08 MaxDP=5.81D-07 DE=-2.24D-10 OVMax= 1.14D-06

 Cycle  14  Pass 1  IDiag  1:
 RMSU=  6.32D-09    CP:  9.91D-01  1.16D+00  8.84D-01  8.84D-01  1.06D+00
                    CP:  1.21D+00  1.48D+00  1.38D+00  1.41D+00  1.20D+00
                    CP:  1.25D+00  9.59D-01  1.05D+00
 E= -2296.91180912825     Delta-E=       -0.000000001244 Rises=F Damp=F
 DIIS: error= 3.33D-08 at cycle  14 NSaved=  14.
 NSaved=14 IEnMin=14 EnMin= -2296.91180912825     IErMin=14 ErrMin= 3.33D-08
 ErrMax= 3.33D-08  0.00D+00 EMaxC= 1.00D-01 BMatC= 1.30D-12 BMatP= 1.13D-11
 IDIUse=1 WtCom= 1.00D+00 WtEn= 0.00D+00
 Coeff-Com: -0.436D-06 0.204D-05 0.130D-05-0.820D-05-0.650D-04-0.208D-03
 Coeff-Com:  0.270D-03 0.150D-02 0.165D-02-0.726D-02-0.367D-01-0.172D-01
 Coeff-Com:  0.244D+00 0.814D+00
 Coeff:     -0.436D-06 0.204D-05 0.130D-05-0.820D-05-0.650D-04-0.208D-03
 Coeff:      0.270D-03 0.150D-02 0.165D-02-0.726D-02-0.367D-01-0.172D-01
 Coeff:      0.244D+00 0.814D+00
 Gap=     0.367 Goal=   None    Shift=    0.000
 RMSDP=3.97D-09 MaxDP=1.95D-07 DE=-1.24D-09 OVMax= 5.95D-07

 Error on total polarization charges =  0.00868
 SCF Done:  E(RLC-wPBE) =  -2296.91180913     A.U. after   14 cycles
            NFock= 14  Conv=0.40D-08     -V/T= 2.0079
 KE= 2.278874385065D+03 PE=-1.415660523170D+04 EE= 5.204642037065D+03
 Leave Link  502 at Wed Jun  5 17:34:20 2019, MaxMem=  6442450944 cpu:            8203.6 elap:             266.0
 (Enter /home/ekwan/sw/g16/l701.exe)
 ... and contract with generalized density number  0.
 Compute integral first derivatives.
 R6Disp: Adding Grimme-D3(BJ) dispersion energy 1st derivatives to the gradient.
 D1PCM: PCM CHGder 1st derivatives, ID1Alg=3 FixD1E=F DoIter=F DoCFld=F I1PDM=0.
 GePol: Maximum number of non-zero 1st derivatives   =     221
 Leave Link  701 at Wed Jun  5 17:34:30 2019, MaxMem=  6442450944 cpu:             307.8 elap:              10.4
 (Enter /home/ekwan/sw/g16/l702.exe)
 L702 exits ... SP integral derivatives will be done elsewhere.
 Leave Link  702 at Wed Jun  5 17:34:30 2019, MaxMem=  6442450944 cpu:               2.7 elap:               0.1
 (Enter /home/ekwan/sw/g16/l703.exe)
 Integral derivatives from FoFJK, PRISM(SPDF).
 Compute integral first derivatives, UseDBF=F ICtDFT=           0.
 Calling FoFJK, ICntrl=      2127 FMM=F ISym2X=0 I1Cent= 0 IOpClX= 0 NMat=1 NMatS=1 NMatT=0.
 FoFJK:  IHMeth= 1 ICntrl=    2127 DoSepK=T KAlg= 0 I1Cent=           0 FoldK=F
 IRaf=         1 NMat=       1 IRICut=       1 DoRegI=T DoRafI=F ISym2E= 0 IDoP0=0 IntGTp=1.
 FoFCou: FMM=F IPFlag=           0 FMFlag=      100000 FMFlg1=         800
         NFxFlg=           0 DoJE=F BraDBF=F KetDBF=F FulRan=T
         wScrn=  0.000000 ICntrl=      2527 IOpCl=  0 I1Cent=           0 NGrid=           0
         NMat0=    1 NMatS0=      1 NMatT0=    0 NMatD0=    1 NMtDS0=    0 NMtDT0=    0
 Symmetry not used in FoFCou.
 Leave Link  703 at Wed Jun  5 17:35:34 2019, MaxMem=  6442450944 cpu:            1971.4 elap:              63.8
 (Enter /home/ekwan/sw/g16/l716.exe)
 Dipole        = 2.12814726D-01 9.78416075D-01-7.68084658D-01
 ***** Axes restored to original set *****
 -------------------------------------------------------------------
 Center     Atomic                   Forces (Hartrees/Bohr)
 Number     Number              X              Y              Z
 -------------------------------------------------------------------
      1        6           0.000008213    0.000002222   -0.000003028
      2        6          -0.000000909    0.000002965    0.000003574
      3        6           0.000007059   -0.000007180   -0.000001674
      4        6          -0.000002685   -0.000002740   -0.000002431
      5        6          -0.000000334    0.000007502    0.000007599
      6        1           0.000001394   -0.000000671    0.000002796
      7        1          -0.000000099   -0.000000184    0.000001405
      8        1          -0.000002049    0.000002349    0.000002661
      9        1           0.000000507    0.000001053    0.000000952
     10        1           0.000001380    0.000000483    0.000000262
     11        8          -0.000004507    0.000001242   -0.000001508
     12        8          -0.000007660    0.000007832   -0.000001721
     13        8          -0.000003481   -0.000001115    0.000003098
     14        8          -0.000006531    0.000001072    0.000001966
     15        8          -0.000002963   -0.000000454   -0.000006738
     16        6          -0.000000708   -0.000004565    0.000003444
     17        1           0.000001431    0.000000828   -0.000001329
     18        1           0.000000805    0.000000813   -0.000001547
     19        8          -0.000003697    0.000003417   -0.000004568
     20       16           0.000009190    0.000004949    0.000002709
     21        8          -0.000000919   -0.000005201    0.000004752
     22        8          -0.000001329   -0.000002540   -0.000005541
     23        6          -0.000000638   -0.000001318   -0.000000600
     24        6           0.000001594    0.000001953    0.000002654
     25        6           0.000009040   -0.000002456   -0.000003200
     26        6           0.000005407   -0.000006846    0.000001960
     27        1          -0.000001428    0.000000647    0.000000590
     28        6          -0.000007059    0.000002949    0.000005255
     29        1           0.000000988   -0.000002533    0.000000383
     30        6          -0.000002459   -0.000002224   -0.000007287
     31        1           0.000000420   -0.000002441   -0.000001349
     32        6           0.000002484   -0.000001506   -0.000000842
     33        1           0.000002084    0.000000551    0.000002210
     34        1           0.000001076    0.000000328    0.000000942
     35        1           0.000002024    0.000001509    0.000002487
     36        6           0.000004626   -0.000001353    0.000000641
     37        1          -0.000001746    0.000004052    0.000002283
     38        1          -0.000001449    0.000001836    0.000001303
     39        1          -0.000000442    0.000003970    0.000002185
     40        6          -0.000001740    0.000002343   -0.000000870
     41        1          -0.000001377    0.000000871   -0.000000598
     42        1          -0.000000810    0.000001238    0.000000556
     43        1          -0.000001649   -0.000000153   -0.000000335
     44        6           0.000000386   -0.000001630    0.000002666
     45        1           0.000000346   -0.000001024   -0.000001014
     46        1          -0.000000620   -0.000002585   -0.000000979
     47        1           0.000000798   -0.000001774   -0.000000945
     48        6          -0.000001491   -0.000002101   -0.000000992
     49        9          -0.000002304    0.000000088   -0.000000956
     50        9          -0.000000091    0.000000405   -0.000001942
     51        9          -0.000000971    0.000002667   -0.000000591
     52        6           0.000002098    0.000000384   -0.000000468
     53        9          -0.000001042   -0.000003774   -0.000002196
     54        9           0.000001660   -0.000000387   -0.000002250
     55        9           0.000000173   -0.000003762   -0.000003835
 -------------------------------------------------------------------
 Cartesian Forces:  Max     0.000009190 RMS     0.000003059
 Leave Link  716 at Wed Jun  5 17:35:34 2019, MaxMem=  6442450944 cpu:               1.9 elap:               0.1
 (Enter /home/ekwan/sw/g16/l103.exe)

 GradGradGradGradGradGradGradGradGradGradGradGradGradGradGradGradGradGrad
 Berny optimization.
 FormGI is forming the generalized inverse of G from B-inverse, IUseBI=4.
 Internal  Forces:  Max     0.000011131 RMS     0.000001970
 Search for a local minimum.
 Step number   1 out of a maximum of  291
 All quantities printed in internal units (Hartrees-Bohrs-Radians)
 RMS Force = .19699D-05 SwitMx=.10000D-02 MixMth= 2
 Mixed Optimization -- En-DIIS/RFO-DIIS
 Second derivative matrix not updated -- first step.
 ITU=  0
     Eigenvalues ---    0.00535   0.00695   0.00723   0.00741   0.00771
     Eigenvalues ---    0.00844   0.01125   0.01506   0.01522   0.01529
     Eigenvalues ---    0.01534   0.01545   0.01602   0.01602   0.01628
     Eigenvalues ---    0.01641   0.01694   0.01719   0.01746   0.02266
     Eigenvalues ---    0.02272   0.02283   0.02284   0.02295   0.02298
     Eigenvalues ---    0.02555   0.03030   0.03417   0.04567   0.04712
     Eigenvalues ---    0.04771   0.04924   0.04994   0.05317   0.05339
     Eigenvalues ---    0.05863   0.06088   0.06629   0.07042   0.07118
     Eigenvalues ---    0.07251   0.07843   0.09339   0.10062   0.10092
     Eigenvalues ---    0.10129   0.10177   0.10573   0.10591   0.10615
     Eigenvalues ---    0.10621   0.10727   0.10792   0.10896   0.10977
     Eigenvalues ---    0.10988   0.11051   0.11467   0.11849   0.12145
     Eigenvalues ---    0.14126   0.14843   0.16000   0.16000   0.16000
     Eigenvalues ---    0.16000   0.16000   0.16000   0.16000   0.16000
     Eigenvalues ---    0.16000   0.16000   0.16000   0.16000   0.16000
     Eigenvalues ---    0.16000   0.16000   0.16469   0.16866   0.17426
     Eigenvalues ---    0.18669   0.19635   0.19793   0.20746   0.22140
     Eigenvalues ---    0.23477   0.23487   0.23496   0.24953   0.24981
     Eigenvalues ---    0.24985   0.25000   0.25000   0.25000   0.25000
     Eigenvalues ---    0.25000   0.25000   0.25000   0.25000   0.25000
     Eigenvalues ---    0.25000   0.25000   0.25000   0.27846   0.29155
     Eigenvalues ---    0.29435   0.29709   0.29997   0.30615   0.32043
     Eigenvalues ---    0.32177   0.33581   0.33895   0.33933   0.33974
     Eigenvalues ---    0.33980   0.33980   0.34042   0.34042   0.34051
     Eigenvalues ---    0.34085   0.34290   0.34296   0.34393   0.34596
     Eigenvalues ---    0.34633   0.34642   0.34645   0.34741   0.34760
     Eigenvalues ---    0.35428   0.35445   0.35552   0.39202   0.39461
     Eigenvalues ---    0.43554   0.43623   0.43643   0.43695   0.43821
     Eigenvalues ---    0.43833   0.44514   0.44515   0.44828   0.45963
     Eigenvalues ---    0.47003   0.47910   0.48146   0.48186   0.48353
     Eigenvalues ---    0.50289   0.55604   0.56827   0.57102   0.57159
     Eigenvalues ---    0.57368   0.57610   0.96817   0.99450
 RFO step:  Lambda=-1.18735527D-08 EMin= 5.35387156D-03
 Linear search not attempted -- first point.
 Iteration  1 RMS(Cart)=  0.00028730 RMS(Int)=  0.00000002
 Iteration  2 RMS(Cart)=  0.00000003 RMS(Int)=  0.00000000
 ITry= 1 IFail=0 DXMaxC= 1.42D-03 DCOld= 1.00D+10 DXMaxT= 3.00D-01 DXLimC= 3.00D+00 Rises=F
 Variable       Old X    -DE/DX   Delta X   Delta X   Delta X     New X
                                 (Linear)    (Quad)   (Total)
    R1        2.87294   0.00000   0.00000   0.00001   0.00001   2.87295
    R2        2.86911   0.00000   0.00000   0.00000   0.00000   2.86912
    R3        2.07507   0.00000   0.00000   0.00000   0.00000   2.07508
    R4        2.65844   0.00000   0.00000  -0.00001  -0.00001   2.65843
    R5        2.88727   0.00000   0.00000   0.00000   0.00000   2.88728
    R6        2.08044   0.00000   0.00000   0.00000   0.00000   2.08043
    R7        2.64173   0.00000   0.00000   0.00000   0.00000   2.64173
    R8        2.06097   0.00000   0.00000   0.00000   0.00000   2.06097
    R9        2.60863   0.00000   0.00000   0.00001   0.00001   2.60864
   R10        2.72652   0.00000   0.00000  -0.00001  -0.00001   2.72651
   R11        2.87412   0.00000   0.00000   0.00000   0.00000   2.87413
   R12        2.07444   0.00000   0.00000   0.00000   0.00000   2.07444
   R13        2.70283   0.00000   0.00000   0.00000   0.00000   2.70284
   R14        2.86753   0.00000   0.00000  -0.00001  -0.00001   2.86752
   R15        2.07244   0.00000   0.00000   0.00000   0.00000   2.07244
   R16        2.65843  -0.00001   0.00000  -0.00001  -0.00001   2.65841
   R17        3.03275   0.00000   0.00000  -0.00001  -0.00001   3.03275
   R18        2.66655   0.00000   0.00000   0.00001   0.00001   2.66656
   R19        2.66821   0.00000   0.00000   0.00000   0.00000   2.66822
   R20        2.66992   0.00000   0.00000   0.00000   0.00000   2.66992
   R21        2.06336   0.00000   0.00000   0.00000   0.00000   2.06336
   R22        2.07364   0.00000   0.00000   0.00000   0.00000   2.07364
   R23        2.65476   0.00000   0.00000   0.00000   0.00000   2.65476
   R24        2.66884   0.00000   0.00000  -0.00001  -0.00001   2.66883
   R25        2.72560   0.00001   0.00000   0.00001   0.00001   2.72561
   R26        2.73641   0.00001   0.00000   0.00001   0.00001   2.73642
   R27        3.33381   0.00000   0.00000  -0.00001  -0.00001   3.33380
   R28        2.61589   0.00000   0.00000   0.00001   0.00001   2.61589
   R29        2.61666   0.00000   0.00000   0.00000   0.00000   2.61666
   R30        2.61947   0.00000   0.00000  -0.00001  -0.00001   2.61947
   R31        2.04986   0.00000   0.00000   0.00000   0.00000   2.04986
   R32        2.61489   0.00001   0.00000   0.00001   0.00001   2.61490
   R33        2.04788   0.00000   0.00000   0.00000   0.00000   2.04788
   R34        2.61839   0.00000   0.00000   0.00001   0.00001   2.61840
   R35        2.84066   0.00000   0.00000   0.00000   0.00000   2.84066
   R36        2.62188   0.00000   0.00000  -0.00001  -0.00001   2.62187
   R37        2.83821   0.00000   0.00000   0.00001   0.00001   2.83822
   R38        2.04959   0.00000   0.00000   0.00000   0.00000   2.04958
   R39        2.07260   0.00000   0.00000   0.00000   0.00000   2.07260
   R40        2.07364   0.00000   0.00000   0.00000   0.00000   2.07365
   R41        2.06066   0.00000   0.00000   0.00000   0.00000   2.06066
   R42        2.06255   0.00000   0.00000   0.00000   0.00000   2.06255
   R43        2.07373   0.00000   0.00000   0.00000   0.00000   2.07373
   R44        2.06672   0.00000   0.00000  -0.00001  -0.00001   2.06671
   R45        2.06261   0.00000   0.00000   0.00000   0.00000   2.06261
   R46        2.06834   0.00000   0.00000   0.00000   0.00000   2.06834
   R47        2.07187   0.00000   0.00000   0.00000   0.00000   2.07187
   R48        2.06275   0.00000   0.00000   0.00000   0.00000   2.06275
   R49        2.07259   0.00000   0.00000   0.00000   0.00000   2.07259
   R50        2.06843   0.00000   0.00000   0.00000   0.00000   2.06843
   R51        2.53262   0.00000   0.00000   0.00000   0.00000   2.53262
   R52        2.53544   0.00000   0.00000   0.00000   0.00000   2.53544
   R53        2.53310   0.00000   0.00000   0.00001   0.00001   2.53310
   R54        2.54599   0.00000   0.00000   0.00000   0.00000   2.54599
   R55        2.53086   0.00000   0.00000   0.00000   0.00000   2.53086
   R56        2.52883   0.00000   0.00000   0.00001   0.00001   2.52883
    A1        1.92607   0.00000   0.00000   0.00000   0.00000   1.92606
    A2        1.90153   0.00000   0.00000   0.00001   0.00001   1.90153
    A3        1.92945   0.00000   0.00000   0.00002   0.00002   1.92947
    A4        1.89459   0.00000   0.00000  -0.00002  -0.00002   1.89457
    A5        1.88261   0.00000   0.00000  -0.00002  -0.00002   1.88259
    A6        1.92936   0.00000   0.00000   0.00001   0.00001   1.92936
    A7        1.93477   0.00000   0.00000   0.00003   0.00003   1.93479
    A8        1.88954   0.00000   0.00000  -0.00001  -0.00001   1.88953
    A9        1.88968   0.00000   0.00000   0.00002   0.00002   1.88970
   A10        1.85609   0.00000   0.00000  -0.00001  -0.00001   1.85607
   A11        1.96109   0.00000   0.00000  -0.00002  -0.00002   1.96107
   A12        1.93172   0.00000   0.00000  -0.00001  -0.00001   1.93171
   A13        1.95520   0.00000   0.00000   0.00000   0.00000   1.95520
   A14        1.97200   0.00000   0.00000   0.00001   0.00001   1.97201
   A15        1.84689   0.00000   0.00000   0.00002   0.00002   1.84691
   A16        1.85653   0.00000   0.00000   0.00001   0.00001   1.85654
   A17        1.89164   0.00000   0.00000  -0.00001  -0.00001   1.89163
   A18        1.94159   0.00000   0.00000  -0.00004  -0.00004   1.94156
   A19        1.90106   0.00000   0.00000  -0.00002  -0.00002   1.90104
   A20        1.92787   0.00000   0.00000   0.00001   0.00001   1.92788
   A21        1.95375   0.00000   0.00000   0.00000   0.00000   1.95376
   A22        1.90245   0.00000   0.00000   0.00002   0.00002   1.90247
   A23        1.88177   0.00000   0.00000  -0.00001  -0.00001   1.88177
   A24        1.89580   0.00000   0.00000   0.00000   0.00000   1.89580
   A25        1.94247   0.00000   0.00000  -0.00002  -0.00002   1.94245
   A26        1.89921   0.00000   0.00000  -0.00001  -0.00001   1.89920
   A27        1.91977   0.00000   0.00000   0.00001   0.00001   1.91978
   A28        1.89334   0.00000   0.00000   0.00002   0.00002   1.89336
   A29        1.87690   0.00000   0.00000  -0.00001  -0.00001   1.87690
   A30        1.93221   0.00000   0.00000   0.00000   0.00000   1.93221
   A31        2.00328   0.00000   0.00000  -0.00002  -0.00002   2.00326
   A32        2.06198  -0.00001   0.00000  -0.00002  -0.00002   2.06196
   A33        1.99482   0.00000   0.00000   0.00000   0.00000   1.99482
   A34        1.99295   0.00001   0.00000   0.00003   0.00003   1.99298
   A35        1.98338   0.00000   0.00000   0.00000   0.00000   1.98339
   A36        1.87504   0.00000   0.00000   0.00002   0.00002   1.87505
   A37        1.90434   0.00000   0.00000  -0.00001  -0.00001   1.90433
   A38        1.99957   0.00000   0.00000   0.00000   0.00000   1.99956
   A39        1.89468   0.00000   0.00000   0.00002   0.00002   1.89470
   A40        1.85572   0.00000   0.00000   0.00001   0.00001   1.85573
   A41        1.93070   0.00000   0.00000  -0.00003  -0.00003   1.93067
   A42        1.99455  -0.00001   0.00000  -0.00004  -0.00004   1.99452
   A43        1.82808   0.00001   0.00000   0.00003   0.00003   1.82812
   A44        1.89728   0.00000   0.00000   0.00002   0.00002   1.89729
   A45        1.79516  -0.00001   0.00000  -0.00005  -0.00005   1.79512
   A46        2.12152   0.00000   0.00000   0.00000   0.00000   2.12152
   A47        1.89963   0.00000   0.00000   0.00001   0.00001   1.89964
   A48        1.89433   0.00000   0.00000  -0.00002  -0.00002   1.89431
   A49        2.07453   0.00000   0.00000   0.00001   0.00001   2.07454
   A50        2.07769  -0.00001   0.00000  -0.00002  -0.00002   2.07767
   A51        2.13040   0.00000   0.00000   0.00001   0.00001   2.13041
   A52        2.06819   0.00000   0.00000  -0.00001  -0.00001   2.06818
   A53        2.10313   0.00000   0.00000   0.00001   0.00001   2.10314
   A54        2.11187   0.00000   0.00000   0.00000   0.00000   2.11187
   A55        2.06713   0.00000   0.00000   0.00000   0.00000   2.06713
   A56        2.10139   0.00000   0.00000   0.00000   0.00000   2.10139
   A57        2.11466   0.00000   0.00000   0.00001   0.00001   2.11466
   A58        2.10432   0.00000   0.00000   0.00000   0.00000   2.10433
   A59        2.08762   0.00000   0.00000   0.00001   0.00001   2.08763
   A60        2.09058   0.00000   0.00000  -0.00001  -0.00001   2.09057
   A61        2.10648   0.00000   0.00000  -0.00001  -0.00001   2.10647
   A62        2.09238   0.00000   0.00000  -0.00001  -0.00001   2.09237
   A63        2.08272   0.00000   0.00000   0.00001   0.00001   2.08273
   A64        2.08983   0.00000   0.00000   0.00001   0.00001   2.08984
   A65        2.09617   0.00000   0.00000  -0.00001  -0.00001   2.09616
   A66        2.09718   0.00000   0.00000   0.00000   0.00000   2.09718
   A67        1.95315   0.00000   0.00000   0.00000   0.00000   1.95315
   A68        1.94072   0.00000   0.00000   0.00001   0.00001   1.94072
   A69        1.86613   0.00000   0.00000   0.00000   0.00000   1.86613
   A70        1.90433   0.00000   0.00000   0.00000   0.00000   1.90433
   A71        1.89411   0.00000   0.00000   0.00000   0.00000   1.89412
   A72        1.90403   0.00000   0.00000   0.00000   0.00000   1.90403
   A73        1.86455   0.00000   0.00000  -0.00001  -0.00001   1.86455
   A74        1.93664   0.00000   0.00000   0.00000   0.00000   1.93664
   A75        1.94497   0.00000   0.00000   0.00000   0.00000   1.94497
   A76        1.90019   0.00000   0.00000   0.00000   0.00000   1.90019
   A77        1.90979   0.00000   0.00000   0.00001   0.00001   1.90980
   A78        1.90675   0.00000   0.00000   0.00000   0.00000   1.90675
   A79        1.86610   0.00000   0.00000   0.00000   0.00000   1.86609
[...]
 0.00001753,0.00000493,-0.00001774,0.00000972,-0.00000905,-0.00001927,0
 .00001518,-0.00013700,-0.00027331,0.00002700,0.00000286,0.00002815,0.0
 0001321,0.00004167,0.00002061,-0.00000862,-0.00000414,0.00002432,-0.00
 001806,0.00026426,0.00024282,0.00084731,-0.00002112,0.00003151,-0.0000
 8586,-0.00012613,0.00008283,-0.00005103,-0.00002124,-0.00007157,-0.000
 01658,0.00186411,-0.00040188,-0.00523562,0.00014262,0.00013981,0.00175
 481,-0.00127721,-0.00050620,0.00140396,-0.00061219,0.00076705,0.001408
 84,0.01669512,-0.01828893,0.62566902,0.00007105,-0.00011761,0.00001775
 ,0.00007907,-0.00003889,-0.00003781,0.00013939,-0.00052932,0.00018732,
 -0.00012774,-0.00056712,-0.00011301,0.00006388,0.00023915,0.00010521,-
 0.00001143,0.00002253,-0.00000822,0.00001182,0.00000381,-0.00000368,-0
 .00000751,0.00000778,-0.00000829,-0.00000606,0.00003565,-0.00003116,0.
 00005105,-0.00000763,0.00000557,-0.00024870,0.00043574,-0.00000982,0.0
 0025880,0.00034300,-0.00013985,-0.00009722,0.00011707,0.00001487,-0.00
 018454,0.00005252,-0.00008377,-0.00014067,-0.00006836,-0.00009973,0.00
 151575,0.00106644,0.00013368,-0.00020486,-0.00003942,-0.00015561,-0.00
 096637,-0.00043013,-0.00033772,-0.00080376,-0.00067068,-0.00051686,-0.
 00035859,-0.00025023,0.00011863,0.00007974,0.00002037,-0.00001614,0.00
 007276,0.00007055,-0.00001051,0.00052168,-0.00064770,0.00040248,0.0002
 1731,-0.00020147,-0.00046746,-0.00017563,-0.00064090,0.00111350,-0.000
 61322,0.00004290,-0.00023000,0.00002963,-0.00000148,0.00001796,0.01033
 431,0.00089893,-0.00312771,-0.00007227,0.00001098,-0.00001856,-0.00011
 360,0.00095812,0.00039339,-0.00000850,0.00003795,-0.00038308,0.0000105
 8,-0.00003581,-0.00004740,0.00000341,-0.00000164,0.00001011,0.00000548
 ,0.00000260,0.00000901,-0.00000923,0.00000893,0.00000177,0.00004060,-0
 .00004350,0.00007779,-0.00001440,0.00000190,-0.00000903,0.00000130,0.0
 0000446,-0.00001283,-0.00000368,0.00001208,-0.00000713,0.00008059,0.00
 009311,0.00003237,-0.00000562,-0.00001450,-0.00002043,-0.00002253,-0.0
 0000899,0.00000029,0.00001414,0.00002526,0.00000957,0.00131473,0.00046
 385,0.00106723,-0.00029166,-0.00015499,-0.00002932,-0.00183853,-0.0000
 4239,-0.00021339,-0.00033441,-0.00009661,-0.00004026,-0.00023603,-0.00
 008365,0.00003197,0.00006863,0.00001356,-0.00001855,0.00006188,0.00003
 377,-0.00000722,0.00004206,0.00000592,-0.00000155,-0.09867104,-0.06638
 759,0.01487932,0.14089244,-0.00002405,-0.00017291,-0.00004928,-0.00009
 182,0.00000524,-0.00005482,-0.00026103,-0.00075396,0.00057388,-0.00024
 361,-0.00085642,-0.00019691,0.00000468,0.00015719,0.00000657,-0.000045
 30,0.00004257,-0.00001447,0.00006156,0.00001716,-0.00000177,-0.0000170
 2,0.00001378,-0.00002492,-0.00007655,0.00003846,-0.00009216,0.00009136
 ,0.00000682,0.00001200,0.00020362,0.00080105,0.00000924,0.00130040,0.0
 0060810,-0.00033170,0.00005947,0.00006176,-0.00001018,-0.00002908,0.00
 009600,-0.00001421,-0.00006565,0.00012290,-0.00000199,0.00114226,0.000
 68543,0.00047004,-0.00011433,0.00000124,-0.00011905,0.00009417,-0.0008
 6194,0.00061634,-0.00061075,-0.00011206,-0.00073842,-0.00286833,0.0014
 3158,0.00035253,0.00069456,-0.00079878,0.00028660,0.00075847,-0.000535
 68,-0.00037853,0.00148446,0.00076207,0.00061913,0.00006507,-0.00041333
 ,0.00091360,-0.00096173,0.00039630,0.00227942,0.00174555,0.00065674,0.
 00140215,-0.00019244,-0.00011697,-0.00004674,-0.01399154,-0.03382592,0
 .01478233,-0.00100212,-0.00053333,-0.00028071,0.00211896,-0.00224059,-
 0.00123316,-0.00100940,-0.00076252,0.00000748,-0.00005245,-0.00001742,
 0.00001453,-0.00000009,0.00001371,0.00001247,0.00000791,0.00000913,-0.
 00000918,0.00000525,0.00000087,0.00000312,0.00000231,-0.00001615,0.000
 03013,0.00000131,0.00000346,-0.00000318,0.00000151,-0.00000372,-0.0000
 0438,-0.00000978,0.00000759,-0.00000246,0.00003295,-0.00003897,0.00005
 070,0.00000206,-0.00000073,-0.00000790,-0.00001352,0.00000377,-0.00000
 545,0.00001542,0.00003731,-0.00000856,0.00138095,0.00082446,0.00122989
 ,-0.00023586,-0.00012195,-0.00003097,0.00019879,-0.00026489,-0.0007236
 2,-0.00048877,-0.00013040,-0.00005565,0.00103386,-0.00083609,-0.001896
 92,0.00006278,0.00015186,0.00089190,-0.00047225,-0.00009830,0.00052335
 ,-0.00029041,0.00054768,0.00046390,-0.06792346,-0.24713357,0.04448991,
 0.13026797,0.34632308,0.00005237,-0.00000568,0.00002214,0.00010252,-0.
 00003503,0.00000255,0.00025594,0.00024588,-0.00035945,0.00001304,-0.00
 007939,-0.00012437,0.00003822,0.00011118,0.00005360,0.00000144,0.00000
 853,0.00000716,-0.00004357,-0.00001161,0.00000281,0.00000908,-0.000003
 57,0.00001591,0.00005102,-0.00000150,0.00006331,-0.00003149,-0.0000173
 7,-0.00000235,-0.00025524,-0.00019175,0.00014030,-0.00084992,-0.000196
 52,0.00025052,-0.00009430,0.00004409,0.00005102,-0.00011020,-0.0000095
 8,-0.00003185,-0.00006373,-0.00009069,-0.00002888,0.00042374,0.0007459
 8,-0.00026774,-0.00004721,-0.00003399,0.00000403,-0.00090521,-0.000039
 55,-0.00084031,-0.00017325,-0.00031589,0.00064138,0.00178331,-0.001356
 32,-0.00060685,-0.00044483,0.00060753,-0.00014198,-0.00044917,0.000425
 90,0.00042739,-0.00153060,-0.00040040,-0.00147858,-0.00088721,0.000953
 65,-0.00008505,0.00219474,-0.00031380,-0.00220135,-0.00057834,-0.00091
 416,0.00048556,0.00010701,0.00006705,0.00007073,0.00739116,0.03413188,
 -0.00144548,0.00029103,0.00070601,-0.00000712,-0.00102120,-0.00000005,
 0.00059121,0.00042267,0.00029567,0.00012308,0.00003945,-0.00002139,-0.
 00006292,0.00000701,-0.00000488,-0.00000480,-0.00000873,-0.00000854,0.
 00001218,-0.00000726,0.00000465,0.00000243,0.00002264,-0.00001882,0.00
 002538,-0.00001043,-0.00000117,-0.00000491,-0.00000113,0.00000474,-0.0
 0000237,0.00000232,0.00000479,-0.00000436,0.00003833,0.00008224,-0.000
 00915,-0.00000107,-0.00000804,-0.00000312,-0.00001118,-0.00000622,0.00
 000260,0.00000150,-0.00000910,0.00000533,-0.00034397,-0.00020671,-0.00
 054188,0.00006644,0.00002816,0.00004986,0.00020624,-0.00002888,0.00015
 147,0.00009101,0.00004418,0.00003042,-0.00056854,0.00026022,0.00127614
 ,-0.00001796,-0.00005968,-0.00048513,0.00032520,0.00012999,-0.00035203
 ,0.00016869,-0.00023377,-0.00032205,0.01491565,0.04364966,-0.08513375,
 -0.01910367,-0.03379080,0.07786290,0.00012675,-0.00001128,0.00007430,0
 .00019873,-0.00008502,0.00000938,0.00041033,-0.00003784,-0.00026155,0.
 00006514,0.00003130,0.00006904,0.00009157,0.00016870,0.00016020,0.0000
 2475,-0.00000547,0.00000073,-0.00003905,-0.00001110,-0.00000760,0.0000
 0300,0.00000051,0.00000758,0.00004668,0.00002032,0.00003477,0.00000173
 ,-0.00001432,-0.00000382,-0.00049143,-0.00006381,-0.00004567,-0.000879
 06,-0.00007402,0.00009497,-0.00019390,0.00012939,0.00002828,-0.0002438
 2,-0.00000369,-0.00011813,-0.00014286,-0.00017953,-0.00014701,0.000694
 30,0.00048663,0.00010350,-0.00009112,-0.00004541,-0.00007752,0.0000122
 7,-0.00002061,0.00017732,-0.00041238,-0.00035337,-0.00013629,0.0021862
 1,-0.00166072,-0.00037927,-0.00066124,0.00104775,-0.00046509,-0.000569
 74,0.00063435,0.00036817,-0.00064725,0.00175448,0.00056502,-0.00020449
 ,-0.00007897,-0.00062533,-0.00099396,0.00072804,-0.00658474,0.00016777
 ,0.00079544,-0.00095210,0.00004909,-0.00013391,-0.00002833,-0.03708273
 ,0.01091402,0.00030993,0.00035493,-0.00086494,0.00019747,-0.00071702,0
 .00155528,0.00348728,-0.00029120,-0.00118971,-0.00184147,0.00006051,-0
 .00004270,-0.00008168,0.00000640,-0.00001538,0.00000537,0.00000254,-0.
 00000221,0.00002119,-0.00002050,0.00001282,-0.00000063,0.00006285,-0.0
 0005460,0.00009410,-0.00002147,-0.00000032,-0.00001031,0.00000076,0.00
 000902,-0.00001698,0.00000262,0.00001225,-0.00000761,0.00008591,0.0001
 4326,0.00001198,-0.00000659,-0.00001999,-0.00002120,-0.00002174,-0.000
 01253,0.00000496,0.00000350,0.00000599,0.00001461,0.00059453,0.0002691
 0,0.00040392,-0.00012827,-0.00009767,0.00000351,0.00009002,0.00005264,
 -0.00027849,-0.00011634,-0.00002652,-0.00002704,-0.00120445,0.00044809
 ,0.00145202,0.00006577,-0.00007607,-0.00056605,0.00055715,0.00017414,-
 0.00045153,0.00034532,-0.00039889,-0.00036405,-0.29322054,0.04750769,-
 0.00727999,-0.06112950,-0.03617179,0.01140913,0.42261673,-0.00003788,-
 0.00004215,-0.00003099,-0.00007373,0.00001995,-0.00001573,-0.00017363,
 -0.00020935,0.00022999,-0.00007971,-0.00022722,-0.00005262,-0.00002075
 ,-0.00000429,-0.00004127,-0.00001781,0.00001083,-0.00000446,0.00002684
 ,0.00000793,0.00000068,-0.00000566,0.00000352,-0.00000939,-0.00003533,
 0.00000637,-0.00003894,0.00002607,0.00000626,0.00000442,0.00016613,0.0
 0023508,0.00000923,0.00055035,0.00019194,-0.00010525,0.00006311,-0.000
 01208,-0.00001039,0.00005273,0.00002751,0.00002438,0.00001668,0.000080
 75,0.00003542,0.00013310,0.00000907,0.00008373,-0.00001087,0.00001209,
 -0.00001288,0.00003640,-0.00019746,0.00016421,-0.00007413,0.00006925,-
 0.00018078,-0.00144666,0.00067772,0.00020599,0.00043733,-0.00048350,0.
 00020797,0.00035133,-0.00028541,-0.00020175,-0.00024966,-0.00133286,0.
 00055203,0.00058557,-0.00035396,0.00007125,0.00012020,0.00060191,0.002
 38950,-0.00039711,-0.00021051,0.00008611,-0.00000102,0.00007560,-0.000
 00458,0.02544896,0.00392512,0.00185137,-0.00002762,0.00066915,-0.00017
 733,0.00029219,-0.00106415,-0.00044819,0.00008812,0.00026179,0.0006029
 6,-0.00003032,0.00000412,0.00002353,-0.00000141,0.00000732,0.00000276,
 0.00000201,0.00000354,-0.00000777,0.00000607,-0.00000283,0.00000093,-0
 .00001439,0.00000839,-0.00001442,0.00000582,0.00000107,0.00000168,0.00
 000024,-0.00000340,0.00000279,-0.00000345,-0.00000080,0.00000138,-0.00
 001263,-0.00004862,0.00001127,0.00000246,0.00000481,0.00000329,0.00000
 164,0.00000434,-0.00000274,0.00000318,0.00000906,-0.00000645,0.0002666
 6,0.00012283,0.00024744,-0.00003387,-0.00000990,-0.00001248,0.00010472
 ,-0.00001003,-0.00015436,-0.00009443,-0.00002367,-0.00000844,0.0004974
 3,-0.00034298,-0.00085066,0.00000172,0.00006337,0.00032394,-0.00021720
 ,-0.00003569,0.00023083,-0.00015940,0.00025202,0.00021338,0.04483849,-
 0.08268695,0.00354669,-0.05261018,-0.00161415,0.00505724,-0.05079067,0
 .08598366,0.00004317,0.00002150,0.00002109,0.00007790,-0.00002684,0.00
 001410,0.00019404,0.00020358,-0.00030156,0.00008450,0.00012721,-0.0000
 0204,0.00002739,0.00002186,0.00004193,0.00000486,0.00000166,0.00000630
 ,-0.00003363,-0.00001021,0.00000086,0.00000616,-0.00000282,0.00001157,
 0.00003621,-0.00000141,0.00004638,-0.00002147,-0.00000980,-0.00000258,
 -0.00017824,-0.00017236,0.00006091,-0.00067782,-0.00016424,0.00017617,
 -0.00007213,0.00003349,0.00003541,-0.00006743,-0.00001509,-0.00002060,
 -0.00003514,-0.00006411,-0.00002415,0.00001041,0.00008926,-0.00007821,
 0.00001229,-0.00000950,0.00001738,0.00001281,0.00009026,-0.00008166,-0
 .00002192,-0.00007557,0.00021065,0.00165952,-0.00096111,-0.00057239,-0
 .00049386,0.00060508,-0.00019439,-0.00036959,0.00034789,0.00040353,-0.
 00074950,0.00179148,-0.00030358,-0.00066639,0.00050104,-0.00009278,-0.
 00038117,-0.00042244,-0.00416212,-0.00027861,0.00008156,0.00085187,-0.
 00003207,0.00003503,0.00004366,-0.02766915,0.00896458,0.00708013,-0.00
 037658,-0.00001865,-0.00001903,-0.00092658,-0.00039009,-0.00163810,-0.
 00126799,0.00080006,-0.00022034,0.00003006,-0.00001761,-0.00004686,0.0
 0000576,-0.00000426,-0.00000395,-0.00000624,-0.00000626,0.00000915,-0.
 00000594,0.00000342,0.00000134,0.00001685,-0.00001245,0.00001495,-0.00
 000667,-0.00000126,-0.00000286,-0.00000102,0.00000332,-0.00000150,0.00
 000230,0.00000292,-0.00000243,0.00002128,0.00004760,-0.00000751,-0.000
 00029,-0.00000461,-0.00000152,-0.00000638,-0.00000337,0.00000179,-0.00
 000019,-0.00000634,0.00000325,-0.00011267,-0.00007305,-0.00018543,0.00
 001412,-0.00000067,0.00001391,0.00000743,0.00001310,0.00003716,0.00002
 676,0.00001724,0.00000394,-0.00040016,0.00007255,0.00122307,-0.0000617
 6,-0.00002482,-0.00040996,0.00026799,0.00011139,-0.00030752,0.00013190
 ,-0.00017151,-0.00029941,0.00150738,0.00133890,-0.08051526,0.01460402,
 0.00407325,0.01141283,-0.03528706,0.00635870,0.08234836,0.00003310,0.0
 0000690,0.00002598,0.00005761,-0.00002529,0.00000215,0.00012805,-0.000
 00950,-0.00003925,0.00001576,0.00006018,0.00006676,0.00002554,0.000037
 10,0.00003630,0.00001749,-0.00000914,-0.00000187,-0.00000780,-0.000001
 85,-0.00000308,0.00000062,-0.00000039,0.00000081,0.00000953,0.00000379
 ,0.00000166,0.00000026,-0.00000190,-0.00000139,-0.00011262,-0.00004824
 ,-0.00004551,-0.00022330,-0.00000434,-0.00001039,-0.00005323,0.0000328
 3,0.00000025,-0.00006278,-0.00000540,-0.00003476,-0.00003431,-0.000052
 98,-0.00004342,0.00011069,0.00008397,0.00001877,-0.00001791,-0.0000123
 2,-0.00001724,0.00000582,0.00000507,0.00005442,-0.00006668,-0.00007699
 ,-0.00004730,0.00060084,-0.00054832,0.00023737,-0.00011111,0.00021055,
 -0.00014596,-0.00017786,0.00019979,0.00001799,0.00056558,-0.00047828,-
 0.00024601,-0.00000575,0.00001002,-0.00029099,-0.00206499,0.00045267,-
 0.00081562,0.00023914,-0.00032088,-0.00089366,0.00005310,-0.00002120,-
 0.00006377,0.01056752,-0.00217975,-0.00949239,0.00033498,-0.00036678,-
 0.00164212,-0.00123766,0.00148893,-0.00087855,0.00008965,-0.00004086,-
 0.00039971,0.00001690,-0.00000942,-0.00001663,0.00000096,-0.00000583,0
 .00000245,0.00000262,0.00000058,0.00000570,-0.00000640,0.00000348,-0.0
 0000116,0.00001737,-0.00001458,0.00002609,-0.00000557,-0.00000004,-0.0
 0000253,0.00000036,0.00000237,-0.00000521,0.00000107,0.00000290,-0.000
 00159,0.00002037,0.00003740,0.00000173,-0.00000194,-0.00000545,-0.0000
 0575,-0.00000463,-0.00000333,0.00000170,-0.00000018,0.00000062,0.00000
 434,0.00009852,0.00004443,0.00006926,-0.00002375,-0.00002301,-0.000000
 82,-0.00002405,0.00004396,0.00000581,0.00000828,0.00000167,-0.00000414
 ,-0.00045236,0.00017506,0.00043593,0.00000120,-0.00003100,-0.00025400,
 0.00018904,0.00005720,-0.00015276,0.00010921,-0.00012257,-0.00009464,-
 0.07806585,0.01359211,0.01993452,0.01071523,-0.01557454,-0.01287143,-0
 .02939721,0.03249394,0.05140253,0.08812157,0.00000771,-0.00005919,-0.0
 0001614,-0.00000767,-0.00000303,-0.00001570,-0.00002227,-0.00024007,0.
 00007616,-0.00003979,-0.00026703,-0.00009615,0.00001431,0.00005742,0.0
 0001671,-0.00002428,0.00001994,-0.00000028,0.00000793,0.00000234,0.000
 00074,-0.00000312,0.00000325,-0.00000368,-0.00001020,0.00001022,-0.000
 00681,0.00001981,-0.00000273,0.00000275,-0.00004093,0.00025595,0.00005
 885,0.00020157,0.00018219,0.00000191,-0.00000765,0.00004328,0.00002035
 ,-0.00003382,0.00003294,-0.00000636,-0.00004050,0.00002815,-0.00000066
 ,0.00044454,0.00026700,0.00010513,-0.00003926,-0.00000510,-0.00002774,
 0.00010257,-0.00024498,0.00018482,-0.00025041,-0.00005229,-0.00007521,
 -0.00049310,0.00005973,-0.00043943,0.00007416,-0.00004161,0.00010572,0
 .00016682,-0.00004118,0.00014555,-0.00058866,0.00080804,-0.00026795,-0
 .00037604,0.00029862,0.00066245,0.00281543,-0.00180687,0.00113411,0.00
 019209,-0.00080797,0.00068772,-0.00007278,0.00002700,0.00007320,0.0011
 4902,0.00833096,0.00383071,-0.00081959,0.00045223,0.00132355,0.0006243
 6,0.00049199,-0.00054720,-0.00002003,0.00019677,0.00032755,-0.00001057
 ,-0.00002003,-0.00002254,0.00000416,0.00000557,0.00000240,-0.00000142,
 -0.00000018,0.00000018,0.00000043,0.00000160,0.00000277,0.00000624,-0.
 00001029,0.00001259,-0.00000172,0.00000060,-0.00000225,-0.00000021,-0.
 00000028,-0.00000069,-0.00000317,0.00000429,-0.00000199,0.00002020,0.0
 0000187,0.00001462,0.00000166,-0.00000152,-0.00000175,-0.00000830,0.00
 000031,-0.00000149,0.00000582,0.00001023,-0.00000346,0.00037892,0.0001
 3619,0.00019347,-0.00005527,-0.00003127,-0.00000228,0.00012557,-0.0000
 1310,-0.00016943,-0.00013418,-0.00002153,-0.00001253,0.00011342,-0.000
 34926,-0.00022719,-0.00001699,0.00003482,0.00002189,-0.00007316,0.0000
 4668,0.00009695,-0.00007598,0.00014404,0.00003331,0.01181190,-0.119214
 00,-0.09147731,-0.01160608,-0.06156657,-0.04919436,0.02564185,-0.00415
 439,-0.02308744,-0.02905335,0.17700023,0.00008970,-0.00001815,0.000021
 48,0.00013977,-0.00004623,-0.00000179,0.00037838,0.00013809,-0.0004713
 5,0.00012098,-0.00002294,-0.00012236,0.00006647,0.00010102,0.00009926,
 -0.00001042,0.00002371,0.00000722,-0.00005434,-0.00001650,0.00000423,0
 .00000925,-0.00000264,0.00001931,0.00006887,0.00000484,0.00008567,-0.0
 0002437,-0.00002249,-0.00000183,-0.00042896,-0.00009314,0.00019800,-0.
 00103891,-0.00009057,0.00028256,-0.00014379,0.00010031,0.00008809,-0.0
 0016132,0.00000184,-0.00004245,-0.00010847,-0.00010196,-0.00004584,0.0
 0049372,0.00044424,-0.00006154,-0.00002161,-0.00002221,0.00000259,0.00
 004235,0.00003487,-0.00002156,-0.00030716,-0.00023272,0.00036069,0.002
 40929,-0.00196299,-0.00080830,-0.00061516,0.00080146,-0.00016536,-0.00
 057494,0.00064578,0.00073586,0.00006675,0.00099925,-0.00026291,-0.0003
 1900,0.00005774,-0.00069824,0.00255017,-0.00148982,-0.00082595,0.00159
 536,0.00006639,-0.00231536,-0.00006545,-0.00002577,0.00008243,0.006124
 59,-0.02553183,-0.04519263,-0.00198757,0.00077444,-0.00100989,-0.00645
 853,0.00499234,-0.00373043,-0.00019993,-0.00028691,0.00083343,0.000048
 18,-0.00004965,-0.00011027,0.00001444,-0.00000247,-0.00000553,-0.00001
 401,-0.00001274,0.00001763,-0.00001015,0.00000780,0.00000549,0.0000371
 1,-0.00003228,0.00003859,-0.00001464,-0.00000190,-0.00000755,-0.000002
 20,0.00000629,-0.00000286,0.00000148,0.00000944,-0.00000683,0.00006150
 ,0.00009962,-0.00000160,0.00000036,-0.00001025,-0.00000509,-0.00002035
 ,-0.00000706,0.00000204,0.00000550,-0.00000305,0.00000428,0.00015406,0
 .00000322,-0.00016005,-0.00003469,-0.00003502,0.00002592,0.00012327,-0
 .00002602,-0.00012538,-0.00008749,0.00000893,-0.00000520,-0.00141608,0
 .00082486,0.00215265,-0.00018487,-0.00013549,-0.00115022,0.00076442,0.
 00025435,-0.00067858,0.00028439,-0.00036997,-0.00054035,0.01344912,-0.
 08218037,-0.26256299,-0.00792401,-0.03398638,0.00076359,0.03695781,-0.
 02015322,-0.01459397,-0.04382888,0.15657188,0.32990328\\-0.00000815,-0
 .00000220,0.00000304,0.00000094,-0.00000300,-0.00000358,-0.00000710,0.
 00000724,0.00000166,0.00000269,0.00000272,0.00000244,0.00000032,-0.000
 00749,-0.00000757,-0.00000139,0.00000066,-0.00000280,0.00000009,0.0000
 0019,-0.00000141,0.00000204,-0.00000236,-0.00000266,-0.00000051,-0.000
 00105,-0.00000095,-0.00000138,-0.00000048,-0.00000027,0.00000453,-0.00
 000127,0.00000149,0.00000764,-0.00000786,0.00000172,0.00000348,0.00000
 111,-0.00000311,0.00000652,-0.00000107,-0.00000196,0.00000296,0.000000
 44,0.00000673,0.00000071,0.00000461,-0.00000346,-0.00000143,-0.0000008
 4,0.00000133,-0.00000081,-0.00000082,0.00000154,0.00000370,-0.00000342
 ,0.00000456,-0.00000916,-0.00000497,-0.00000262,0.00000092,0.00000522,
 -0.00000479,0.00000133,0.00000254,0.00000551,0.00000067,0.00000130,0.0
 0000052,-0.00000172,-0.00000185,-0.00000254,-0.00000907,0.00000247,0.0
 0000318,-0.00000539,0.00000683,-0.00000204,0.00000144,-0.00000065,-0.0
 0000059,0.00000696,-0.00000288,-0.00000509,-0.00000097,0.00000252,-0.0
 0000039,0.00000254,0.00000216,0.00000720,-0.00000040,0.00000243,0.0000
 0135,-0.00000249,0.00000153,0.00000088,-0.00000209,-0.00000056,-0.0000
 0221,-0.00000107,-0.00000032,-0.00000095,-0.00000202,-0.00000151,-0.00
 000249,-0.00000465,0.00000137,-0.00000068,0.00000175,-0.00000405,-0.00
 000228,0.00000145,-0.00000184,-0.00000129,0.00000044,-0.00000398,-0.00
 000218,0.00000174,-0.00000233,0.00000087,0.00000138,-0.00000087,0.0000
 0060,0.00000081,-0.00000125,-0.00000056,0.00000165,0.00000015,0.000000
 33,-0.00000039,0.00000165,-0.00000263,-0.00000035,0.00000102,0.0000010
 1,0.00000061,0.00000258,0.00000097,-0.00000079,0.00000176,0.00000094,0
 .00000156,0.00000207,0.00000097,0.00000229,-0.00000008,0.00000095,0.00
 000007,-0.00000041,0.00000195,0.00000096,-0.00000266,0.00000060,-0.000
 00204,-0.00000043,0.00000048,0.00000103,0.00000378,0.00000219,-0.00000
 167,0.00000039,0.00000225,-0.00000018,0.00000378,0.00000384\\\@


 I SUPPOSE A BABY LLAMA HAS A MMAMA AND A PPOPA.
     -- RICHARD AMOUR
 Job cpu time:       1 days  0 hours 40 minutes 40.3 seconds.
 Elapsed time:       0 days  0 hours 49 minutes 27.8 seconds.
 File lengths (MBytes):  RWF=   2242 Int=      0 D2E=      0 Chk=     39 Scr=      1
 Normal termination of Gaussian 16 at Wed Jun  5 18:25:19 2019.
