 Entering Gaussian System, Link 0=g16
 Input=clay_new-glu_gluC6-BCDR-Na2_1Me2O-bisCF3-ts-bhandh-631gd-pcm_thf.gjf
 Output=clay_new-glu_gluC6-BCDR-Na2_1Me2O-bisCF3-ts-bhandh-631gd-pcm_thf.out
 Initial command:
 /home/ekwan/sw/g16/l1.exe "/scratch/users/ekwan/clay_new-glu_gluC6-BCDR-Na2_1Me2O-bisCF3-ts-bhandh-631gd-pcm_thf/Gau-47059.inp" -scrdir="/scratch/users/ekwan/clay_new-glu_gluC6-BCDR-Na2_1Me2O-bisCF3-ts-bhandh-631gd-pcm_thf/"
 Entering Link 1 = /home/ekwan/sw/g16/l1.exe PID=     47060.
  
 Copyright (c) 1988,1990,1992,1993,1995,1998,2003,2009,2016,
            Gaussian, Inc.  All Rights Reserved.
  
 This is part of the Gaussian(R) 16 program.  It is based on
 the Gaussian(R) 09 system (copyright 2009, Gaussian, Inc.),
 the Gaussian(R) 03 system (copyright 2003, Gaussian, Inc.),
 the Gaussian(R) 98 system (copyright 1998, Gaussian, Inc.),
 the Gaussian(R) 94 system (copyright 1995, Gaussian, Inc.),
 the Gaussian 92(TM) system (copyright 1992, Gaussian, Inc.),
 the Gaussian 90(TM) system (copyright 1990, Gaussian, Inc.),
 the Gaussian 88(TM) system (copyright 1988, Gaussian, Inc.),
 the Gaussian 86(TM) system (copyright 1986, Carnegie Mellon
 University), and the Gaussian 82(TM) system (copyright 1983,
 Carnegie Mellon University). Gaussian is a federally registered
 trademark of Gaussian, Inc.
  
 This software contains proprietary and confidential information,
 including trade secrets, belonging to Gaussian, Inc.
  
 This software is provided under written license and may be
 used, copied, transmitted, or stored only in accord with that
 written license.
  
 The following legend is applicable only to US Government
 contracts under FAR:
  
                    RESTRICTED RIGHTS LEGEND
  
 Use, reproduction and disclosure by the US Government is
 subject to restrictions as set forth in subparagraphs (a)
 and (c) of the Commercial Computer Software - Restricted
 Rights clause in FAR 52.227-19.
  
 Gaussian, Inc.
 340 Quinnipiac St., Bldg. 40, Wallingford CT 06492
  
  
 ---------------------------------------------------------------
 Warning -- This program may not be used in any manner that
 competes with the business of Gaussian, Inc. or will provide
 assistance to any competitor of Gaussian, Inc.  The licensee
 of this program is prohibited from giving any competitor of
 Gaussian, Inc. access to this program.  By using this program,
 the user acknowledges that Gaussian, Inc. is engaged in the
 business of creating and licensing software in the field of
 computational chemistry and represents and warrants to the
 licensee that it is not a competitor of Gaussian, Inc. and that
 it will not use this program in any manner prohibited above.
 ---------------------------------------------------------------
  

 Cite this work as:
 Gaussian 16, Revision A.03,
 M. J. Frisch, G. W. Trucks, H. B. Schlegel, G. E. Scuseria, 
 M. A. Robb, J. R. Cheeseman, G. Scalmani, V. Barone, 
 G. A. Petersson, H. Nakatsuji, X. Li, M. Caricato, A. V. Marenich, 
 J. Bloino, B. G. Janesko, R. Gomperts, B. Mennucci, H. P. Hratchian, 
 J. V. Ortiz, A. F. Izmaylov, J. L. Sonnenberg, D. Williams-Young, 
 F. Ding, F. Lipparini, F. Egidi, J. Goings, B. Peng, A. Petrone, 
 T. Henderson, D. Ranasinghe, V. G. Zakrzewski, J. Gao, N. Rega, 
 G. Zheng, W. Liang, M. Hada, M. Ehara, K. Toyota, R. Fukuda, 
 J. Hasegawa, M. Ishida, T. Nakajima, Y. Honda, O. Kitao, H. Nakai, 
 T. Vreven, K. Throssell, J. A. Montgomery, Jr., J. E. Peralta, 
 F. Ogliaro, M. J. Bearpark, J. J. Heyd, E. N. Brothers, K. N. Kudin, 
 V. N. Staroverov, T. A. Keith, R. Kobayashi, J. Normand, 
 K. Raghavachari, A. P. Rendell, J. C. Burant, S. S. Iyengar, 
 J. Tomasi, M. Cossi, J. M. Millam, M. Klene, C. Adamo, R. Cammi, 
 J. W. Ochterski, R. L. Martin, K. Morokuma, O. Farkas, 
 J. B. Foresman, and D. J. Fox, Gaussian, Inc., Wallingford CT, 2016.
 
 ******************************************
 Gaussian 16:  AS64L-G16RevA.03 25-Dec-2016
                 6-Jun-2019 
 ******************************************
 %nprocshared=32
 Will use up to   32 processors via shared memory.
 %mem=48GB
 ----------------------------------------------------------------------
 #p opt=(ts,calcfc,noeigentest,maxstep=5) freq=noraman pop=none 6-31g* 
 scrf=(pcm,solvent=tetrahydrofuran) bhandh
 ----------------------------------------------------------------------
 1/5=1,8=5,10=4,11=1,18=20,26=3,38=1/1,3;
 2/9=110,12=2,17=6,18=5,40=1/2;
 3/5=1,6=6,7=1,11=2,25=1,30=1,70=2201,71=2,72=20,74=-2,140=1/1,2,3;
 4//1;
 5/5=2,38=5,53=20/2;
 8/6=4,10=90,11=11/1;
 11/6=1,8=1,9=11,15=111,16=1/1,2,10;
 10/6=1,13=1/2;
 7/10=1,18=20,25=1/1,2,3,16;
 1/5=1,8=5,10=4,11=1,18=20,26=3/3(2);
 2/9=110/2;
 99//99;
 2/9=110/2;
 3/5=1,6=6,7=1,11=2,25=1,30=1,70=2205,71=1,72=20,74=-2/1,2,3;
 4/5=5,16=3,69=1/1;
 5/5=2,38=5,53=20/2;
 7//1,2,3,16;
 1/5=1,8=5,11=1,18=20,26=3/3(-5);
 2/9=110/2;
 99/9=1/99;
 Leave Link    1 at Thu Jun  6 05:36:53 2019, MaxMem=  6442450944 cpu:               3.8 elap:               0.2
 (Enter /home/ekwan/sw/g16/l101.exe)
 -----
 title
 -----
 Symbolic Z-matrix:
 Charge =  0 Multiplicity = 1
 6                    -1.78685   1.36002   2.24476 
 6                    -2.06615   2.15676   0.99497 
 6                    -1.15431   3.35492   0.92152 
 6                     0.50848   2.29606   2.20078 
 6                    -0.31702   1.03424   2.32079 
 1                    -1.26073   3.8552   -0.04794 
 1                    -1.83795   1.53569   0.11973 
 1                    -2.06374   1.97572   3.11066 
 1                     0.25405   2.94184   3.04953 
 1                    -0.0882    0.35956   1.48809 
 8                     0.17672   2.95842   0.99627 
 8                    -1.48095   4.21031   1.94125 
 8                    -3.37946   2.59845   0.95564 
 8                    -2.57557   0.21387   2.20919 
 8                    -0.02811   0.40385   3.52814 
 6                     1.99823   2.0639    2.1867 
 1                     2.23654   1.57502   3.14866 
 1                     2.45661   3.07324   2.25359 
 8                     2.44024   1.38796   1.09811 
 6                    -4.21818   1.81255   0.17332 
 1                    -3.90804   1.8226   -0.87759 
 1                    -4.23465   0.77806   0.52341 
 1                    -5.22078   2.23286   0.23944 
 6                    -2.95787  -0.25452   3.46412 
 1                    -2.09538  -0.57134   4.05193 
 1                    -3.4962    0.52149   4.01945 
 1                    -3.62194  -1.1005    3.30431 
 6                     0.79826  -0.71051   3.388 
 1                     0.26617  -1.52878   2.89146 
 1                     1.69196  -0.48303   2.80261 
 1                     1.09094  -1.03159   4.3875 
 6                     3.63282  -1.45932  -1.36659 
 6                     3.0814   -0.14938  -0.86856 
 6                     1.73979  -0.31786  -0.26026 
 6                     1.9945   -2.62298   0.09999 
 6                     3.44636  -2.47718  -0.26917 
 1                     1.04363   0.49041  -0.19833 
 1                     3.69477   0.18856  -0.02129 
 1                     3.09854  -1.76755  -2.2722 
 1                     1.44076  -3.00469  -0.76152 
 1                     4.00204  -2.13152   0.60919 
 8                     1.41525  -1.35486   0.40793 
 8                    -0.40944   0.28646  -3.8451 
 8                     2.9834    0.87363  -1.79484 
 8                     4.98898  -1.30001  -1.61417 
 8                     3.90768  -3.71728  -0.68151 
 6                     1.75455  -3.50176   1.2796 
 1                     2.03312  -4.52831   1.0098 
 1                     0.68272  -3.49559   1.52219 
 8                     2.50611  -3.03579   2.34104 
 16                   -0.23787   0.1417   -2.42088 
 8                    -0.10076   1.40315  -1.68466 
 8                     0.82997  -0.81112  -2.03383 
 6                    -1.70035  -0.60701  -1.79382 
 6                    -2.91183  -0.38298  -2.40871 
 6                    -1.61371  -1.36787  -0.64979 
 6                    -4.04873  -0.92416  -1.84811 
 1                    -2.96137   0.20429  -3.31685 
 6                    -2.75825  -1.9155   -0.11821 
 1                    -0.65719  -1.53471  -0.1706 
 6                    -3.98248  -1.69804  -0.70845 
 1                    -4.88218  -2.12236  -0.28215 
 6                     4.2069    1.36361  -2.26734 
 1                     4.92792   1.45855  -1.45204 
 1                     4.62697   0.70948  -3.03167 
 1                     4.00985   2.3472   -2.68869 
 6                     5.45506  -2.02127  -2.71167 
 1                     5.251    -3.08743  -2.59968 
 1                     4.99403  -1.66458  -3.63971 
 1                     6.52989  -1.8611   -2.77039 
 6                     4.84241  -4.28495   0.18481 
 1                     5.76001  -3.69038   0.21035 
 1                     4.44398  -4.36209   1.20134 
 1                     5.07101  -5.28026  -0.19002 
 6                     2.27067  -3.75103   3.50806 
 1                     2.89247  -3.32235   4.29079 
 1                     1.21902  -3.67963   3.80729 
 1                     2.52732  -4.8089    3.38377 
 6                    -0.74858   5.3942    1.91842 
 1                    -1.15542   6.045     2.68864 
 1                     0.31048   5.21368   2.1198 
 1                    -0.84019   5.88916   0.94538 
 11                    1.65071   2.54975  -0.71859 
 8                     3.3447    3.98033  -0.81001 
 6                     3.69636   5.06942  -1.59565 
 1                     4.62372   4.86923  -2.14383 
 1                     2.89261   5.24919  -2.30695 
 1                     3.84145   5.96476  -0.98271 
 6                     4.30949   3.67682   0.15265 
 1                     4.41804   4.5049    0.86095 
 1                     3.96756   2.77229   0.66376 
 1                     5.27991   3.49856  -0.32436 
 6                    -5.37609  -0.59629  -2.42285 
 9                    -5.89015   0.48047  -1.8459 
 9                    -6.24092  -1.5751   -2.24472 
 9                    -5.30286  -0.34463  -3.71355 
 6                    -2.64585  -2.79849   1.06829 
 9                    -1.64459  -2.44224   1.8551 
 9                    -2.41943  -4.05306   0.71721 
 9                    -3.75221  -2.79451   1.78744 
 
 Add virtual bond connecting atoms O52        and H37        Dist= 3.94D+00.
 Add virtual bond connecting atoms O53        and C34        Dist= 3.88D+00.
 Add virtual bond connecting atoms H60        and O42        Dist= 4.08D+00.
 ITRead=  0  0  0  0  0  0  0  0  0  0  0  0  0  0  0  0  0  0  0  0
 ITRead=  0  0  0  0  0  0  0  0  0  0  0  0  0  0  0  0  0  0  0  0
 ITRead=  0  0  0  0  0  0  0  0  0  0  0  0  0  0  0  0  0  0  0  0
 ITRead=  0  0  0  0  0  0  0  0  0  0  0  0  0  0  0  0  0  0  0  0
 ITRead=  0  0  0  0  0  0  0  0  0  0  0  0  0  0  0  0  0  0  0  0
 MicOpt= -1 -1 -1 -1 -1 -1 -1 -1 -1 -1 -1 -1 -1 -1 -1 -1 -1 -1 -1 -1
 MicOpt= -1 -1 -1 -1 -1 -1 -1 -1 -1 -1 -1 -1 -1 -1 -1 -1 -1 -1 -1 -1
 MicOpt= -1 -1 -1 -1 -1 -1 -1 -1 -1 -1 -1 -1 -1 -1 -1 -1 -1 -1 -1 -1
 MicOpt= -1 -1 -1 -1 -1 -1 -1 -1 -1 -1 -1 -1 -1 -1 -1 -1 -1 -1 -1 -1
 MicOpt= -1 -1 -1 -1 -1 -1 -1 -1 -1 -1 -1 -1 -1 -1 -1 -1 -1 -1 -1 -1
 NAtoms=    100 NQM=      100 NQMF=       0 NMMI=      0 NMMIF=      0
                NMic=       0 NMicF=      0.
                    Isotopes and Nuclear Properties:
 (Nuclear quadrupole moments (NQMom) in fm**2, nuclear magnetic moments (NMagM)
  in nuclear magnetons)

  Atom         1           2           3           4           5           6           7           8           9          10
 IAtWgt=          12          12          12          12          12           1           1           1           1           1
 AtmWgt=  12.0000000  12.0000000  12.0000000  12.0000000  12.0000000   1.0078250   1.0078250   1.0078250   1.0078250   1.0078250
 NucSpn=           0           0           0           0           0           1           1           1           1           1
 AtZEff=   0.0000000   0.0000000   0.0000000   0.0000000   0.0000000   0.0000000   0.0000000   0.0000000   0.0000000   0.0000000
 NQMom=    0.0000000   0.0000000   0.0000000   0.0000000   0.0000000   0.0000000   0.0000000   0.0000000   0.0000000   0.0000000
 NMagM=    0.0000000   0.0000000   0.0000000   0.0000000   0.0000000   2.7928460   2.7928460   2.7928460   2.7928460   2.7928460
 AtZNuc=   6.0000000   6.0000000   6.0000000   6.0000000   6.0000000   1.0000000   1.0000000   1.0000000   1.0000000   1.0000000

  Atom        11          12          13          14          15          16          17          18          19          20
 IAtWgt=          16          16          16          16          16          12           1           1          16          12
 AtmWgt=  15.9949146  15.9949146  15.9949146  15.9949146  15.9949146  12.0000000   1.0078250   1.0078250  15.9949146  12.0000000
 NucSpn=           0           0           0           0           0           0           1           1           0           0
 AtZEff=   0.0000000   0.0000000   0.0000000   0.0000000   0.0000000   0.0000000   0.0000000   0.0000000   0.0000000   0.0000000
 NQMom=    0.0000000   0.0000000   0.0000000   0.0000000   0.0000000   0.0000000   0.0000000   0.0000000   0.0000000   0.0000000
 NMagM=    0.0000000   0.0000000   0.0000000   0.0000000   0.0000000   0.0000000   2.7928460   2.7928460   0.0000000   0.0000000
 AtZNuc=   8.0000000   8.0000000   8.0000000   8.0000000   8.0000000   6.0000000   1.0000000   1.0000000   8.0000000   6.0000000

  Atom        21          22          23          24          25          26          27          28          29          30
 IAtWgt=           1           1           1          12           1           1           1          12           1           1
 AtmWgt=   1.0078250   1.0078250   1.0078250  12.0000000   1.0078250   1.0078250   1.0078250  12.0000000   1.0078250   1.0078250
 NucSpn=           1           1           1           0           1           1           1           0           1           1
 AtZEff=   0.0000000   0.0000000   0.0000000   0.0000000   0.0000000   0.0000000   0.0000000   0.0000000   0.0000000   0.0000000
 NQMom=    0.0000000   0.0000000   0.0000000   0.0000000   0.0000000   0.0000000   0.0000000   0.0000000   0.0000000   0.0000000
 NMagM=    2.7928460   2.7928460   2.7928460   0.0000000   2.7928460   2.7928460   2.7928460   0.0000000   2.7928460   2.7928460
 AtZNuc=   1.0000000   1.0000000   1.0000000   6.0000000   1.0000000   1.0000000   1.0000000   6.0000000   1.0000000   1.0000000

  Atom        31          32          33          34          35          36          37          38          39          40
 IAtWgt=           1          12          12          12          12          12           1           1           1           1
 AtmWgt=   1.0078250  12.0000000  12.0000000  12.0000000  12.0000000  12.0000000   1.0078250   1.0078250   1.0078250   1.0078250
 NucSpn=           1           0           0           0           0           0           1           1           1           1
 AtZEff=   0.0000000   0.0000000   0.0000000   0.0000000   0.0000000   0.0000000   0.0000000   0.0000000   0.0000000   0.0000000
 NQMom=    0.0000000   0.0000000   0.0000000   0.0000000   0.0000000   0.0000000   0.0000000   0.0000000   0.0000000   0.0000000
 NMagM=    2.7928460   0.0000000   0.0000000   0.0000000   0.0000000   0.0000000   2.7928460   2.7928460   2.7928460   2.7928460
 AtZNuc=   1.0000000   6.0000000   6.0000000   6.0000000   6.0000000   6.0000000   1.0000000   1.0000000   1.0000000   1.0000000

  Atom        41          42          43          44          45          46          47          48          49          50
 IAtWgt=           1          16          16          16          16          16          12           1           1          16
 AtmWgt=   1.0078250  15.9949146  15.9949146  15.9949146  15.9949146  15.9949146  12.0000000   1.0078250   1.0078250  15.9949146
 NucSpn=           1           0           0           0           0           0           0           1           1           0
 AtZEff=   0.0000000   0.0000000   0.0000000   0.0000000   0.0000000   0.0000000   0.0000000   0.0000000   0.0000000   0.0000000
 NQMom=    0.0000000   0.0000000   0.0000000   0.0000000   0.0000000   0.0000000   0.0000000   0.0000000   0.0000000   0.0000000
 NMagM=    2.7928460   0.0000000   0.0000000   0.0000000   0.0000000   0.0000000   0.0000000   2.7928460   2.7928460   0.0000000
 AtZNuc=   1.0000000   8.0000000   8.0000000   8.0000000   8.0000000   8.0000000   6.0000000   1.0000000   1.0000000   8.0000000

  Atom        51          52          53          54          55          56          57          58          59          60
 IAtWgt=          32          16          16          12          12          12          12           1          12           1
 AtmWgt=  31.9720718  15.9949146  15.9949146  12.0000000  12.0000000  12.0000000  12.0000000   1.0078250  12.0000000   1.0078250
 NucSpn=           0           0           0           0           0           0           0           1           0           1
 AtZEff=   0.0000000   0.0000000   0.0000000   0.0000000   0.0000000   0.0000000   0.0000000   0.0000000   0.0000000   0.0000000
 NQMom=    0.0000000   0.0000000   0.0000000   0.0000000   0.0000000   0.0000000   0.0000000   0.0000000   0.0000000   0.0000000
 NMagM=    0.0000000   0.0000000   0.0000000   0.0000000   0.0000000   0.0000000   0.0000000   2.7928460   0.0000000   2.7928460
 AtZNuc=  16.0000000   8.0000000   8.0000000   6.0000000   6.0000000   6.0000000   6.0000000   1.0000000   6.0000000   1.0000000

  Atom        61          62          63          64          65          66          67          68          69          70
 IAtWgt=          12           1          12           1           1           1          12           1           1           1
 AtmWgt=  12.0000000   1.0078250  12.0000000   1.0078250   1.0078250   1.0078250  12.0000000   1.0078250   1.0078250   1.0078250
 NucSpn=           0           1           0           1           1           1           0           1           1           1
 AtZEff=   0.0000000   0.0000000   0.0000000   0.0000000   0.0000000   0.0000000   0.0000000   0.0000000   0.0000000   0.0000000
 NQMom=    0.0000000   0.0000000   0.0000000   0.0000000   0.0000000   0.0000000   0.0000000   0.0000000   0.0000000   0.0000000
 NMagM=    0.0000000   2.7928460   0.0000000   2.7928460   2.7928460   2.7928460   0.0000000   2.7928460   2.7928460   2.7928460
 AtZNuc=   6.0000000   1.0000000   6.0000000   1.0000000   1.0000000   1.0000000   6.0000000   1.0000000   1.0000000   1.0000000

  Atom        71          72          73          74          75          76          77          78          79          80
 IAtWgt=          12           1           1           1          12           1           1           1          12           1
 AtmWgt=  12.0000000   1.0078250   1.0078250   1.0078250  12.0000000   1.0078250   1.0078250   1.0078250  12.0000000   1.0078250
 NucSpn=           0           1           1           1           0           1           1           1           0           1
 AtZEff=   0.0000000   0.0000000   0.0000000   0.0000000   0.0000000   0.0000000   0.0000000   0.0000000   0.0000000   0.0000000
 NQMom=    0.0000000   0.0000000   0.0000000   0.0000000   0.0000000   0.0000000   0.0000000   0.0000000   0.0000000   0.0000000
 NMagM=    0.0000000   2.7928460   2.7928460   2.7928460   0.0000000   2.7928460   2.7928460   2.7928460   0.0000000   2.7928460
 AtZNuc=   6.0000000   1.0000000   1.0000000   1.0000000   6.0000000   1.0000000   1.0000000   1.0000000   6.0000000   1.0000000

  Atom        81          82          83          84          85          86          87          88          89          90
 IAtWgt=           1           1          23          16          12           1           1           1          12           1
 AtmWgt=   1.0078250   1.0078250  22.9897697  15.9949146  12.0000000   1.0078250   1.0078250   1.0078250  12.0000000   1.0078250
 NucSpn=           1           1           3           0           0           1           1           1           0           1
 AtZEff=   0.0000000   0.0000000   0.0000000   0.0000000   0.0000000   0.0000000   0.0000000   0.0000000   0.0000000   0.0000000
 NQMom=    0.0000000   0.0000000  10.4000000   0.0000000   0.0000000   0.0000000   0.0000000   0.0000000   0.0000000   0.0000000
 NMagM=    2.7928460   2.7928460   2.2175200   0.0000000   0.0000000   2.7928460   2.7928460   2.7928460   0.0000000   2.7928460
 AtZNuc=   1.0000000   1.0000000  11.0000000   8.0000000   6.0000000   1.0000000   1.0000000   1.0000000   6.0000000   1.0000000

  Atom        91          92          93          94          95          96          97          98          99         100
 IAtWgt=           1           1          12          19          19          19          12          19          19          19
 AtmWgt=   1.0078250   1.0078250  12.0000000  18.9984033  18.9984033  18.9984033  12.0000000  18.9984033  18.9984033  18.9984033
 NucSpn=           1           1           0           1           1           1           0           1           1           1
 AtZEff=   0.0000000   0.0000000   0.0000000   0.0000000   0.0000000   0.0000000   0.0000000   0.0000000   0.0000000   0.0000000
 NQMom=    0.0000000   0.0000000   0.0000000   0.0000000   0.0000000   0.0000000   0.0000000   0.0000000   0.0000000   0.0000000
 NMagM=    2.7928460   2.7928460   0.0000000   2.6288670   2.6288670   2.6288670   0.0000000   2.6288670   2.6288670   2.6288670
 AtZNuc=   1.0000000   1.0000000   6.0000000   9.0000000   9.0000000   9.0000000   6.0000000   9.0000000   9.0000000   9.0000000
 Leave Link  101 at Thu Jun  6 05:36:53 2019, MaxMem=  6442450944 cpu:              15.3 elap:               0.7
 (Enter /home/ekwan/sw/g16/l103.exe)

 GradGradGradGradGradGradGradGradGradGradGradGradGradGradGradGradGradGrad
 Berny optimization.
 Initialization pass.
                           ----------------------------
                           !    Initial Parameters    !
                           ! (Angstroms and Degrees)  !
 --------------------------                            --------------------------
 ! Name  Definition              Value          Derivative Info.                !
 --------------------------------------------------------------------------------
 ! R1    R(1,2)                  1.5082         calculate D2E/DX2 analytically  !
 ! R2    R(1,5)                  1.5074         calculate D2E/DX2 analytically  !
 ! R3    R(1,8)                  1.098          calculate D2E/DX2 analytically  !
 ! R4    R(1,14)                 1.3918         calculate D2E/DX2 analytically  !
 ! R5    R(2,3)                  1.5075         calculate D2E/DX2 analytically  !
 ! R6    R(2,7)                  1.0972         calculate D2E/DX2 analytically  !
 ! R7    R(2,13)                 1.3862         calculate D2E/DX2 analytically  !
 ! R8    R(3,6)                  1.0961         calculate D2E/DX2 analytically  !
 ! R9    R(3,11)                 1.3908         calculate D2E/DX2 analytically  !
 ! R10   R(3,12)                 1.3705         calculate D2E/DX2 analytically  !
 ! R11   R(4,5)                  1.5126         calculate D2E/DX2 analytically  !
 ! R12   R(4,9)                  1.0964         calculate D2E/DX2 analytically  !
 ! R13   R(4,11)                 1.4141         calculate D2E/DX2 analytically  !
 ! R14   R(4,16)                 1.5078         calculate D2E/DX2 analytically  !
 ! R15   R(5,10)                 1.0959         calculate D2E/DX2 analytically  !
 ! R16   R(5,15)                 1.3923         calculate D2E/DX2 analytically  !
 ! R17   R(11,83)                2.2979         calculate D2E/DX2 analytically  !
 ! R18   R(12,79)                1.3923         calculate D2E/DX2 analytically  !
 ! R19   R(13,20)                1.3904         calculate D2E/DX2 analytically  !
 ! R20   R(14,24)                1.393          calculate D2E/DX2 analytically  !
 ! R21   R(15,28)                1.3944         calculate D2E/DX2 analytically  !
 ! R22   R(16,17)                1.1051         calculate D2E/DX2 analytically  !
 ! R23   R(16,18)                1.1106         calculate D2E/DX2 analytically  !
 ! R24   R(16,19)                1.3555         calculate D2E/DX2 analytically  !
 ! R25   R(19,83)                2.2964         calculate D2E/DX2 analytically  !
 ! R26   R(20,21)                1.0958         calculate D2E/DX2 analytically  !
 ! R27   R(20,22)                1.0922         calculate D2E/DX2 analytically  !
 ! R28   R(20,23)                1.0891         calculate D2E/DX2 analytically  !
 ! R29   R(24,25)                1.0908         calculate D2E/DX2 analytically  !
 ! R30   R(24,26)                1.0956         calculate D2E/DX2 analytically  !
 ! R31   R(24,27)                1.0873         calculate D2E/DX2 analytically  !
 ! R32   R(28,29)                1.0951         calculate D2E/DX2 analytically  !
 ! R33   R(28,30)                1.0923         calculate D2E/DX2 analytically  !
 ! R34   R(28,31)                1.0898         calculate D2E/DX2 analytically  !
 ! R35   R(32,33)                1.506          calculate D2E/DX2 analytically  !
 ! R36   R(32,36)                1.5084         calculate D2E/DX2 analytically  !
 ! R37   R(32,39)                1.0957         calculate D2E/DX2 analytically  !
 ! R38   R(32,45)                1.3877         calculate D2E/DX2 analytically  !
 ! R39   R(33,34)                1.4827         calculate D2E/DX2 analytically  !
 ! R40   R(33,38)                1.0992         calculate D2E/DX2 analytically  !
 ! R41   R(33,44)                1.3835         calculate D2E/DX2 analytically  !
 ! R42   R(34,37)                1.0685         calculate D2E/DX2 analytically  !
 ! R43   R(34,42)                1.2756         calculate D2E/DX2 analytically  !
 ! R44   R(34,53)                2.0534         calculate D2E/DX2 analytically  !
 ! R45   R(35,36)                1.5051         calculate D2E/DX2 analytically  !
 ! R46   R(35,40)                1.093          calculate D2E/DX2 analytically  !
 ! R47   R(35,42)                1.4277         calculate D2E/DX2 analytically  !
 ! R48   R(35,47)                1.4904         calculate D2E/DX2 analytically  !
 ! R49   R(36,41)                1.0953         calculate D2E/DX2 analytically  !
 ! R50   R(36,46)                1.3859         calculate D2E/DX2 analytically  !
 ! R51   R(37,52)                2.0861         calculate D2E/DX2 analytically  !
 ! R52   R(37,83)                2.2091         calculate D2E/DX2 analytically  !
 ! R53   R(42,60)                2.1592         calculate D2E/DX2 analytically  !
 ! R54   R(43,51)                1.4418         calculate D2E/DX2 analytically  !
 ! R55   R(44,63)                1.4001         calculate D2E/DX2 analytically  !
 ! R56   R(45,67)                1.3935         calculate D2E/DX2 analytically  !
 ! R57   R(46,71)                1.3952         calculate D2E/DX2 analytically  !
 ! R58   R(47,48)                1.0974         calculate D2E/DX2 analytically  !
 ! R59   R(47,49)                1.099          calculate D2E/DX2 analytically  !
 ! R60   R(47,50)                1.3815         calculate D2E/DX2 analytically  !
 ! R61   R(50,75)                1.3889         calculate D2E/DX2 analytically  !
 ! R62   R(51,52)                1.467          calculate D2E/DX2 analytically  !
 ! R63   R(51,53)                1.4825         calculate D2E/DX2 analytically  !
 ! R64   R(51,54)                1.7586         calculate D2E/DX2 analytically  !
 ! R65   R(54,55)                1.3769         calculate D2E/DX2 analytically  !
 ! R66   R(54,56)                1.3767         calculate D2E/DX2 analytically  !
 ! R67   R(55,57)                1.3783         calculate D2E/DX2 analytically  !
 ! R68   R(55,58)                1.0826         calculate D2E/DX2 analytically  !
 ! R69   R(56,59)                1.3757         calculate D2E/DX2 analytically  !
 ! R70   R(56,60)                1.0828         calculate D2E/DX2 analytically  !
 ! R71   R(57,61)                1.3792         calculate D2E/DX2 analytically  !
 ! R72   R(57,93)                1.4831         calculate D2E/DX2 analytically  !
 ! R73   R(59,61)                1.3764         calculate D2E/DX2 analytically  !
 ! R74   R(59,97)                1.4833         calculate D2E/DX2 analytically  !
 ! R75   R(61,62)                1.0822         calculate D2E/DX2 analytically  !
 ! R76   R(63,64)                1.0925         calculate D2E/DX2 analytically  !
 ! R77   R(63,65)                1.0902         calculate D2E/DX2 analytically  !
 ! R78   R(63,66)                1.088          calculate D2E/DX2 analytically  !
 ! R79   R(67,68)                1.0913         calculate D2E/DX2 analytically  !
 ! R80   R(67,69)                1.0959         calculate D2E/DX2 analytically  !
 ! R81   R(67,70)                1.0883         calculate D2E/DX2 analytically  !
 ! R82   R(71,72)                1.0937         calculate D2E/DX2 analytically  !
 ! R83   R(71,73)                1.0945         calculate D2E/DX2 analytically  !
 ! R84   R(71,74)                1.0878         calculate D2E/DX2 analytically  !
 ! R85   R(75,76)                1.0877         calculate D2E/DX2 analytically  !
 ! R86   R(75,77)                1.0957         calculate D2E/DX2 analytically  !
 ! R87   R(75,78)                1.0956         calculate D2E/DX2 analytically  !
 ! R88   R(79,80)                1.0873         calculate D2E/DX2 analytically  !
 ! R89   R(79,81)                1.093          calculate D2E/DX2 analytically  !
 ! R90   R(79,82)                1.0955         calculate D2E/DX2 analytically  !
 ! R91   R(83,84)                2.2191         calculate D2E/DX2 analytically  !
 ! R92   R(84,85)                1.3882         calculate D2E/DX2 analytically  !
 ! R93   R(84,89)                1.3963         calculate D2E/DX2 analytically  !
 ! R94   R(85,86)                1.0957         calculate D2E/DX2 analytically  !
 ! R95   R(85,87)                1.0882         calculate D2E/DX2 analytically  !
 ! R96   R(85,88)                1.0947         calculate D2E/DX2 analytically  !
 ! R97   R(89,90)                1.0951         calculate D2E/DX2 analytically  !
 ! R98   R(89,91)                1.0938         calculate D2E/DX2 analytically  !
 ! R99   R(89,92)                1.0959         calculate D2E/DX2 analytically  !
 ! R100  R(93,94)                1.3253         calculate D2E/DX2 analytically  !
 ! R101  R(93,95)                1.3182         calculate D2E/DX2 analytically  !
 ! R102  R(93,96)                1.317          calculate D2E/DX2 analytically  !
 ! R103  R(97,98)                1.3223         calculate D2E/DX2 analytically  !
 ! R104  R(97,99)                1.3223         calculate D2E/DX2 analytically  !
 ! R105  R(97,100)               1.3196         calculate D2E/DX2 analytically  !
 ! A1    A(2,1,5)              109.6653         calculate D2E/DX2 analytically  !
 ! A2    A(2,1,8)              108.0939         calculate D2E/DX2 analytically  !
 ! A3    A(2,1,14)             107.9929         calculate D2E/DX2 analytically  !
 ! A4    A(5,1,8)              109.1059         calculate D2E/DX2 analytically  !
 ! A5    A(5,1,14)             112.0789         calculate D2E/DX2 analytically  !
 ! A6    A(8,1,14)             109.8188         calculate D2E/DX2 analytically  !
 ! A7    A(1,2,3)              110.3786         calculate D2E/DX2 analytically  !
 ! A8    A(1,2,7)              108.8736         calculate D2E/DX2 analytically  !
 ! A9    A(1,2,13)             111.5488         calculate D2E/DX2 analytically  !
 ! A10   A(3,2,7)              106.5724         calculate D2E/DX2 analytically  !
 ! A11   A(3,2,13)             108.5691         calculate D2E/DX2 analytically  !
 ! A12   A(7,2,13)             110.781          calculate D2E/DX2 analytically  !
 ! A13   A(2,3,6)              110.312          calculate D2E/DX2 analytically  !
 ! A14   A(2,3,11)             110.4672         calculate D2E/DX2 analytically  !
 ! A15   A(2,3,12)             108.4013         calculate D2E/DX2 analytically  !
 ! A16   A(6,3,11)             105.6978         calculate D2E/DX2 analytically  !
 ! A17   A(6,3,12)             110.4918         calculate D2E/DX2 analytically  !
 ! A18   A(11,3,12)            111.4711         calculate D2E/DX2 analytically  !
 ! A19   A(5,4,9)              107.6546         calculate D2E/DX2 analytically  !
 ! A20   A(5,4,11)             109.2858         calculate D2E/DX2 analytically  !
 ! A21   A(5,4,16)             114.2995         calculate D2E/DX2 analytically  !
 ! A22   A(9,4,11)             109.2114         calculate D2E/DX2 analytically  !
 ! A23   A(9,4,16)             109.0984         calculate D2E/DX2 analytically  !
 ! A24   A(11,4,16)            107.2154         calculate D2E/DX2 analytically  !
 ! A25   A(1,5,4)              110.3554         calculate D2E/DX2 analytically  !
 ! A26   A(1,5,10)             107.3573         calculate D2E/DX2 analytically  !
 ! A27   A(1,5,15)             110.1154         calculate D2E/DX2 analytically  !
 ! A28   A(4,5,10)             109.8368         calculate D2E/DX2 analytically  !
 ! A29   A(4,5,15)             109.4659         calculate D2E/DX2 analytically  !
 ! A30   A(10,5,15)            109.6837         calculate D2E/DX2 analytically  !
 ! A31   A(3,11,4)             113.8177         calculate D2E/DX2 analytically  !
 ! A32   A(3,11,83)            128.6424         calculate D2E/DX2 analytically  !
 ! A33   A(4,11,83)            113.6955         calculate D2E/DX2 analytically  !
 ! A34   A(3,12,79)            113.1515         calculate D2E/DX2 analytically  !
 ! A35   A(2,13,20)            114.0405         calculate D2E/DX2 analytically  !
 ! A36   A(1,14,24)            114.1679         calculate D2E/DX2 analytically  !
 ! A37   A(5,15,28)            113.432          calculate D2E/DX2 analytically  !
 ! A38   A(4,16,17)            105.846          calculate D2E/DX2 analytically  !
 ! A39   A(4,16,18)            105.5042         calculate D2E/DX2 analytically  !
 ! A40   A(4,16,19)            113.9832         calculate D2E/DX2 analytically  !
 ! A41   A(17,16,18)           105.1083         calculate D2E/DX2 analytically  !
 ! A42   A(17,16,19)           114.0898         calculate D2E/DX2 analytically  !
 ! A43   A(18,16,19)           111.5311         calculate D2E/DX2 analytically  !
 ! A44   A(16,19,83)           105.7201         calculate D2E/DX2 analytically  !
 ! A45   A(13,20,21)           111.3288         calculate D2E/DX2 analytically  !
 ! A46   A(13,20,22)           111.3529         calculate D2E/DX2 analytically  !
 ! A47   A(13,20,23)           107.6379         calculate D2E/DX2 analytically  !
 ! A48   A(21,20,22)           108.6849         calculate D2E/DX2 analytically  !
 ! A49   A(21,20,23)           108.3742         calculate D2E/DX2 analytically  !
 ! A50   A(22,20,23)           109.4002         calculate D2E/DX2 analytically  !
 ! A51   A(14,24,25)           111.4776         calculate D2E/DX2 analytically  !
 ! A52   A(14,24,26)           110.6905         calculate D2E/DX2 analytically  !
 ! A53   A(14,24,27)           107.2669         calculate D2E/DX2 analytically  !
 ! A54   A(25,24,26)           108.729          calculate D2E/DX2 analytically  !
 ! A55   A(25,24,27)           109.6429         calculate D2E/DX2 analytically  !
 ! A56   A(26,24,27)           108.9957         calculate D2E/DX2 analytically  !
 ! A57   A(15,28,29)           110.7796         calculate D2E/DX2 analytically  !
 ! A58   A(15,28,30)           111.8583         calculate D2E/DX2 analytically  !
 ! A59   A(15,28,31)           107.6038         calculate D2E/DX2 analytically  !
 ! A60   A(29,28,30)           108.0683         calculate D2E/DX2 analytically  !
 ! A61   A(29,28,31)           109.037          calculate D2E/DX2 analytically  !
 ! A62   A(30,28,31)           109.4587         calculate D2E/DX2 analytically  !
 ! A63   A(33,32,36)           107.5233         calculate D2E/DX2 analytically  !
 ! A64   A(33,32,39)           109.8447         calculate D2E/DX2 analytically  !
 ! A65   A(33,32,45)           108.4789         calculate D2E/DX2 analytically  !
 ! A66   A(36,32,39)           110.5627         calculate D2E/DX2 analytically  !
 ! A67   A(36,32,45)           109.1515         calculate D2E/DX2 analytically  !
 ! A68   A(39,32,45)           111.1832         calculate D2E/DX2 analytically  !
 ! A69   A(32,33,34)           111.6014         calculate D2E/DX2 analytically  !
 ! A70   A(32,33,38)           108.5422         calculate D2E/DX2 analytically  !
 ! A71   A(32,33,44)           116.5954         calculate D2E/DX2 analytically  !
 ! A72   A(34,33,38)           102.9216         calculate D2E/DX2 analytically  !
 ! A73   A(34,33,44)           107.1338         calculate D2E/DX2 analytically  !
 ! A74   A(38,33,44)           109.1625         calculate D2E/DX2 analytically  !
 ! A75   A(33,34,37)           121.8264         calculate D2E/DX2 analytically  !
 ! A76   A(33,34,42)           122.5133         calculate D2E/DX2 analytically  !
 ! A77   A(33,34,53)            94.2358         calculate D2E/DX2 analytically  !
 ! A78   A(37,34,42)           114.7599         calculate D2E/DX2 analytically  !
 ! A79   A(37,34,53)            86.7382         calculate D2E/DX2 analytically  !
 ! A80   A(42,34,53)            98.3041         calculate D2E/DX2 analytically  !
 ! A81   A(36,35,40)           109.221          calculate D2E/DX2 analytically  !
 ! A82   A(36,35,42)           110.99           calculate D2E/DX2 analytically  !
 ! A83   A(36,35,47)           113.9873         calculate D2E/DX2 analytically  !
 ! A84   A(40,35,42)           105.9417         calculate D2E/DX2 analytically  !
 ! A85   A(40,35,47)           109.6565         calculate D2E/DX2 analytically  !
 ! A86   A(42,35,47)           106.7191         calculate D2E/DX2 analytically  !
 ! A87   A(32,36,35)           111.2879         calculate D2E/DX2 analytically  !
 ! A88   A(32,36,41)           107.9253         calculate D2E/DX2 analytically  !
 ! A89   A(32,36,46)           110.2552         calculate D2E/DX2 analytically  !
 ! A90   A(35,36,41)           108.8593         calculate D2E/DX2 analytically  !
 ! A91   A(35,36,46)           107.9015         calculate D2E/DX2 analytically  !
 ! A92   A(41,36,46)           110.6155         calculate D2E/DX2 analytically  !
 ! A93   A(34,37,52)           130.3202         calculate D2E/DX2 analytically  !
 ! A94   A(34,37,83)           120.8275         calculate D2E/DX2 analytically  !
 ! A95   A(52,37,83)            64.855          calculate D2E/DX2 analytically  !
 ! A96   A(34,42,35)           120.3882         calculate D2E/DX2 analytically  !
 ! A97   A(34,42,60)            99.8783         calculate D2E/DX2 analytically  !
 ! A98   A(35,42,60)           104.9299         calculate D2E/DX2 analytically  !
 ! A99   A(33,44,63)           115.0122         calculate D2E/DX2 analytically  !
 ! A100  A(32,45,67)           114.075          calculate D2E/DX2 analytically  !
 ! A101  A(36,46,71)           113.7248         calculate D2E/DX2 analytically  !
 ! A102  A(35,47,48)           108.4279         calculate D2E/DX2 analytically  !
 ! A103  A(35,47,49)           109.1732         calculate D2E/DX2 analytically  !
 ! A104  A(35,47,50)           108.762          calculate D2E/DX2 analytically  !
 ! A105  A(48,47,49)           107.8855         calculate D2E/DX2 analytically  !
 ! A106  A(48,47,50)           111.4886         calculate D2E/DX2 analytically  !
 ! A107  A(49,47,50)           111.0443         calculate D2E/DX2 analytically  !
 ! A108  A(47,50,75)           112.3132         calculate D2E/DX2 analytically  !
 ! A109  A(43,51,52)           114.8679         calculate D2E/DX2 analytically  !
 ! A110  A(43,51,53)           114.0869         calculate D2E/DX2 analytically  !
 ! A111  A(43,51,54)           107.218          calculate D2E/DX2 analytically  !
 ! A112  A(52,51,53)           110.7509         calculate D2E/DX2 analytically  !
 ! A113  A(52,51,54)           105.3589         calculate D2E/DX2 analytically  !
 ! A114  A(53,51,54)           103.4314         calculate D2E/DX2 analytically  !
 ! A115  A(37,52,51)            91.8687         calculate D2E/DX2 analytically  !
 ! A116  A(34,53,51)           112.9694         calculate D2E/DX2 analytically  !
 ! A117  A(51,54,55)           120.2112         calculate D2E/DX2 analytically  !
 ! A118  A(51,54,56)           118.6385         calculate D2E/DX2 analytically  !
 ! A119  A(55,54,56)           121.0906         calculate D2E/DX2 analytically  !
 ! A120  A(54,55,57)           118.6999         calculate D2E/DX2 analytically  !
 ! A121  A(54,55,58)           120.2065         calculate D2E/DX2 analytically  !
 ! A122  A(57,55,58)           121.0931         calculate D2E/DX2 analytically  !
 ! A123  A(54,56,59)           119.26           calculate D2E/DX2 analytically  !
 ! A124  A(54,56,60)           120.566          calculate D2E/DX2 analytically  !
 ! A125  A(59,56,60)           120.174          calculate D2E/DX2 analytically  !
 ! A126  A(55,57,61)           121.1177         calculate D2E/DX2 analytically  !
 ! A127  A(55,57,93)           119.5908         calculate D2E/DX2 analytically  !
 ! A128  A(61,57,93)           119.1605         calculate D2E/DX2 analytically  !
 ! A129  A(56,59,61)           120.7583         calculate D2E/DX2 analytically  !
 ! A130  A(56,59,97)           118.8837         calculate D2E/DX2 analytically  !
 ! A131  A(61,59,97)           120.2978         calculate D2E/DX2 analytically  !
 ! A132  A(42,60,56)           162.4888         calculate D2E/DX2 analytically  !
 ! A133  A(57,61,59)           119.0615         calculate D2E/DX2 analytically  !
 ! A134  A(57,61,62)           120.3687         calculate D2E/DX2 analytically  !
 ! A135  A(59,61,62)           120.5688         calculate D2E/DX2 analytically  !
 ! A136  A(44,63,64)           110.8111         calculate D2E/DX2 analytically  !
 ! A137  A(44,63,65)           111.3051         calculate D2E/DX2 analytically  !
 ! A138  A(44,63,66)           106.7861         calculate D2E/DX2 analytically  !
 ! A139  A(64,63,65)           108.7255         calculate D2E/DX2 analytically  !
 ! A140  A(64,63,66)           109.2664         calculate D2E/DX2 analytically  !
 ! A141  A(65,63,66)           109.9187         calculate D2E/DX2 analytically  !
 ! A142  A(45,67,68)           111.2413         calculate D2E/DX2 analytically  !
 ! A143  A(45,67,69)           110.9627         calculate D2E/DX2 analytically  !
 ! A144  A(45,67,70)           107.2561         calculate D2E/DX2 analytically  !
 ! A145  A(68,67,69)           109.0399         calculate D2E/DX2 analytically  !
 ! A146  A(68,67,70)           109.5125         calculate D2E/DX2 analytically  !
 ! A147  A(69,67,70)           108.7769         calculate D2E/DX2 analytically  !
 ! A148  A(46,71,72)           110.8182         calculate D2E/DX2 analytically  !
 ! A149  A(46,71,73)           111.1915         calculate D2E/DX2 analytically  !
 ! A150  A(46,71,74)           107.4042         calculate D2E/DX2 analytically  !
 ! A151  A(72,71,73)           108.7861         calculate D2E/DX2 analytically  !
 ! A152  A(72,71,74)           109.2157         calculate D2E/DX2 analytically  !
 ! A153  A(73,71,74)           109.3916         calculate D2E/DX2 analytically  !
 ! A154  A(50,75,76)           107.7465         calculate D2E/DX2 analytically  !
 ! A155  A(50,75,77)           111.0153         calculate D2E/DX2 analytically  !
 ! A156  A(50,75,78)           111.2353         calculate D2E/DX2 analytically  !
 ! A157  A(76,75,77)           109.0549         calculate D2E/DX2 analytically  !
 ! A158  A(76,75,78)           109.1628         calculate D2E/DX2 analytically  !
 ! A159  A(77,75,78)           108.586          calculate D2E/DX2 analytically  !
 ! A160  A(12,79,80)           107.4884         calculate D2E/DX2 analytically  !
 ! A161  A(12,79,81)           111.4819         calculate D2E/DX2 analytically  !
 ! A162  A(12,79,82)           110.7778         calculate D2E/DX2 analytically  !
 ! A163  A(80,79,81)           109.3222         calculate D2E/DX2 analytically  !
 ! A164  A(80,79,82)           109.1145         calculate D2E/DX2 analytically  !
 ! A165  A(81,79,82)           108.6184         calculate D2E/DX2 analytically  !
 ! A166  A(11,83,19)            73.7479         calculate D2E/DX2 analytically  !
 ! A167  A(11,83,37)            79.2665         calculate D2E/DX2 analytically  !
 ! A168  A(11,83,84)           113.9381         calculate D2E/DX2 analytically  !
 ! A169  A(19,83,37)            55.7053         calculate D2E/DX2 analytically  !
 ! A170  A(19,83,84)            95.5253         calculate D2E/DX2 analytically  !
 ! A171  A(37,83,84)           145.1288         calculate D2E/DX2 analytically  !
 ! A172  A(83,84,85)           136.258          calculate D2E/DX2 analytically  !
 ! A173  A(83,84,89)           111.0341         calculate D2E/DX2 analytically  !
 ! A174  A(85,84,89)           112.6865         calculate D2E/DX2 analytically  !
 ! A175  A(84,85,86)           110.7448         calculate D2E/DX2 analytically  !
 ! A176  A(84,85,87)           108.2057         calculate D2E/DX2 analytically  !
 ! A177  A(84,85,88)           110.9999         calculate D2E/DX2 analytically  !
 ! A178  A(86,85,87)           109.1637         calculate D2E/DX2 analytically  !
 ! A179  A(86,85,88)           108.5042         calculate D2E/DX2 analytically  !
 ! A180  A(87,85,88)           109.1931         calculate D2E/DX2 analytically  !
 ! A181  A(84,89,90)           110.4909         calculate D2E/DX2 analytically  !
 ! A182  A(84,89,91)           106.6141         calculate D2E/DX2 analytically  !
 ! A183  A(84,89,92)           110.3104         calculate D2E/DX2 analytically  !
 ! A184  A(90,89,91)           110.739          calculate D2E/DX2 analytically  !
 ! A185  A(90,89,92)           108.4663         calculate D2E/DX2 analytically  !
 ! A186  A(91,89,92)           110.2237         calculate D2E/DX2 analytically  !
 ! A187  A(57,93,94)           110.9793         calculate D2E/DX2 analytically  !
 ! A188  A(57,93,95)           111.755          calculate D2E/DX2 analytically  !
 ! A189  A(57,93,96)           111.8539         calculate D2E/DX2 analytically  !
 ! A190  A(94,93,95)           106.8558         calculate D2E/DX2 analytically  !
 ! A191  A(94,93,96)           107.0341         calculate D2E/DX2 analytically  !
 ! A192  A(95,93,96)           108.1067         calculate D2E/DX2 analytically  !
 ! A193  A(59,97,98)           111.8993         calculate D2E/DX2 analytically  !
 ! A194  A(59,97,99)           111.4316         calculate D2E/DX2 analytically  !
 ! A195  A(59,97,100)          111.7538         calculate D2E/DX2 analytically  !
 ! A196  A(98,97,99)           106.4956         calculate D2E/DX2 analytically  !
 ! A197  A(98,97,100)          108.0457         calculate D2E/DX2 analytically  !
 ! A198  A(99,97,100)          106.9255         calculate D2E/DX2 analytically  !
 ! D1    D(5,1,2,3)            -52.8772         calculate D2E/DX2 analytically  !
 ! D2    D(5,1,2,7)             63.7736         calculate D2E/DX2 analytically  !
 ! D3    D(5,1,2,13)          -173.6697         calculate D2E/DX2 analytically  !
 ! D4    D(8,1,2,3)             65.9675         calculate D2E/DX2 analytically  !
 ! D5    D(8,1,2,7)           -177.3817         calculate D2E/DX2 analytically  !
 ! D6    D(8,1,2,13)           -54.8251         calculate D2E/DX2 analytically  !
 ! D7    D(14,1,2,3)          -175.2725         calculate D2E/DX2 analytically  !
 ! D8    D(14,1,2,7)           -58.6217         calculate D2E/DX2 analytically  !
 ! D9    D(14,1,2,13)           63.935          calculate D2E/DX2 analytically  !
 ! D10   D(2,1,5,4)             53.7218         calculate D2E/DX2 analytically  !
 ! D11   D(2,1,5,10)           -65.9597         calculate D2E/DX2 analytically  !
 ! D12   D(2,1,5,15)           174.6801         calculate D2E/DX2 analytically  !
 ! D13   D(8,1,5,4)            -64.4964         calculate D2E/DX2 analytically  !
 ! D14   D(8,1,5,10)           175.8222         calculate D2E/DX2 analytically  !
 ! D15   D(8,1,5,15)            56.462          calculate D2E/DX2 analytically  !
 ! D16   D(14,1,5,4)           173.6524         calculate D2E/DX2 analytically  !
 ! D17   D(14,1,5,10)           53.971          calculate D2E/DX2 analytically  !
 ! D18   D(14,1,5,15)          -65.3893         calculate D2E/DX2 analytically  !
 ! D19   D(2,1,14,24)         -149.3957         calculate D2E/DX2 analytically  !
 ! D20   D(5,1,14,24)           89.7022         calculate D2E/DX2 analytically  !
 ! D21   D(8,1,14,24)          -31.7403         calculate D2E/DX2 analytically  !
 ! D22   D(1,2,3,6)            172.2562         calculate D2E/DX2 analytically  !
 ! D23   D(1,2,3,11)            55.7629         calculate D2E/DX2 analytically  !
 ! D24   D(1,2,3,12)           -66.6432         calculate D2E/DX2 analytically  !
 ! D25   D(7,2,3,6)             54.1842         calculate D2E/DX2 analytically  !
 ! D26   D(7,2,3,11)           -62.3092         calculate D2E/DX2 analytically  !
 ! D27   D(7,2,3,12)           175.2848         calculate D2E/DX2 analytically  !
 ! D28   D(13,2,3,6)           -65.1876         calculate D2E/DX2 analytically  !
 ! D29   D(13,2,3,11)          178.319          calculate D2E/DX2 analytically  !
 ! D30   D(13,2,3,12)           55.9129         calculate D2E/DX2 analytically  !
 ! D31   D(1,2,13,20)          -98.7859         calculate D2E/DX2 analytically  !
 ! D32   D(3,2,13,20)          139.3699         calculate D2E/DX2 analytically  !
 ! D33   D(7,2,13,20)           22.6704         calculate D2E/DX2 analytically  !
 ! D34   D(2,3,11,4)           -61.1856         calculate D2E/DX2 analytically  !
 ! D35   D(2,3,11,83)           95.0689         calculate D2E/DX2 analytically  !
 ! D36   D(6,3,11,4)           179.4888         calculate D2E/DX2 analytically  !
 ! D37   D(6,3,11,83)          -24.2567         calculate D2E/DX2 analytically  !
 ! D38   D(12,3,11,4)           59.403          calculate D2E/DX2 analytically  !
 ! D39   D(12,3,11,83)        -144.3425         calculate D2E/DX2 analytically  !
 ! D40   D(2,3,12,79)         -176.3826         calculate D2E/DX2 analytically  !
 ! D41   D(6,3,12,79)          -55.3931         calculate D2E/DX2 analytically  !
 ! D42   D(11,3,12,79)          61.8248         calculate D2E/DX2 analytically  !
 ! D43   D(9,4,5,1)             61.9574         calculate D2E/DX2 analytically  !
 ! D44   D(9,4,5,10)          -179.871          calculate D2E/DX2 analytically  !
 ! D45   D(9,4,5,15)           -59.3876         calculate D2E/DX2 analytically  !
 ! D46   D(11,4,5,1)           -56.5464         calculate D2E/DX2 analytically  !
 ! D47   D(11,4,5,10)           61.6252         calculate D2E/DX2 analytically  !
 ! D48   D(11,4,5,15)         -177.8914         calculate D2E/DX2 analytically  !
 ! D49   D(16,4,5,1)          -176.6808         calculate D2E/DX2 analytically  !
 ! D50   D(16,4,5,10)          -58.5092         calculate D2E/DX2 analytically  !
 ! D51   D(16,4,5,15)           61.9742         calculate D2E/DX2 analytically  !
 ! D52   D(5,4,11,3)            61.3831         calculate D2E/DX2 analytically  !
 ! D53   D(5,4,11,83)          -98.5286         calculate D2E/DX2 analytically  !
 ! D54   D(9,4,11,3)           -56.1455         calculate D2E/DX2 analytically  !
 ! D55   D(9,4,11,83)          143.9429         calculate D2E/DX2 analytically  !
 ! D56   D(16,4,11,3)         -174.2257         calculate D2E/DX2 analytically  !
 ! D57   D(16,4,11,83)          25.8627         calculate D2E/DX2 analytically  !
 ! D58   D(5,4,16,17)          -60.4215         calculate D2E/DX2 analytically  !
 ! D59   D(5,4,16,18)         -171.5161         calculate D2E/DX2 analytically  !
 ! D60   D(5,4,16,19)           65.7822         calculate D2E/DX2 analytically  !
 ! D61   D(9,4,16,17)           60.1408         calculate D2E/DX2 analytically  !
 ! D62   D(9,4,16,18)          -50.9538         calculate D2E/DX2 analytically  !
 ! D63   D(9,4,16,19)         -173.6555         calculate D2E/DX2 analytically  !
 ! D64   D(11,4,16,17)         178.2945         calculate D2E/DX2 analytically  !
 ! D65   D(11,4,16,18)          67.1999         calculate D2E/DX2 analytically  !
 ! D66   D(11,4,16,19)         -55.5018         calculate D2E/DX2 analytically  !
 ! D67   D(1,5,15,28)          134.9558         calculate D2E/DX2 analytically  !
 ! D68   D(4,5,15,28)         -103.5544         calculate D2E/DX2 analytically  !
 ! D69   D(10,5,15,28)          17.0223         calculate D2E/DX2 analytically  !
 ! D70   D(3,11,83,19)        -157.0566         calculate D2E/DX2 analytically  !
 ! D71   D(3,11,83,37)         -99.883          calculate D2E/DX2 analytically  !
 ! D72   D(3,11,83,84)         114.0711         calculate D2E/DX2 analytically  !
 ! D73   D(4,11,83,19)          -0.7785         calculate D2E/DX2 analytically  !
 ! D74   D(4,11,83,37)          56.3951         calculate D2E/DX2 analytically  !
 ! D75   D(4,11,83,84)         -89.6508         calculate D2E/DX2 analytically  !
 ! D76   D(3,12,79,80)         173.6918         calculate D2E/DX2 analytically  !
 ! D77   D(3,12,79,81)         -66.519          calculate D2E/DX2 analytically  !
 ! D78   D(3,12,79,82)          54.5642         calculate D2E/DX2 analytically  !
 ! D79   D(2,13,20,21)         -63.0016         calculate D2E/DX2 analytically  !
 ! D80   D(2,13,20,22)          58.4594         calculate D2E/DX2 analytically  !
 ! D81   D(2,13,20,23)         178.3628         calculate D2E/DX2 analytically  !
 ! D82   D(1,14,24,25)         -63.969          calculate D2E/DX2 analytically  !
 ! D83   D(1,14,24,26)          57.1919         calculate D2E/DX2 analytically  !
 ! D84   D(1,14,24,27)         175.992          calculate D2E/DX2 analytically  !
 ! D85   D(5,15,28,29)         -69.7603         calculate D2E/DX2 analytically  !
 ! D86   D(5,15,28,30)          50.8799         calculate D2E/DX2 analytically  !
 ! D87   D(5,15,28,31)         171.1348         calculate D2E/DX2 analytically  !
 ! D88   D(4,16,19,83)          53.7277         calculate D2E/DX2 analytically  !
 ! D89   D(17,16,19,83)        175.4818         calculate D2E/DX2 analytically  !
 ! D90   D(18,16,19,83)        -65.6152         calculate D2E/DX2 analytically  !
 ! D91   D(16,19,83,11)        -27.2775         calculate D2E/DX2 analytically  !
 ! D92   D(16,19,83,37)       -115.2146         calculate D2E/DX2 analytically  !
 ! D93   D(16,19,83,84)         86.0765         calculate D2E/DX2 analytically  !
 ! D94   D(36,32,33,34)        -47.5977         calculate D2E/DX2 analytically  !
 ! D95   D(36,32,33,38)         65.1383         calculate D2E/DX2 analytically  !
 ! D96   D(36,32,33,44)       -171.1428         calculate D2E/DX2 analytically  !
 ! D97   D(39,32,33,34)         72.7689         calculate D2E/DX2 analytically  !
 ! D98   D(39,32,33,38)       -174.4951         calculate D2E/DX2 analytically  !
 ! D99   D(39,32,33,44)        -50.7762         calculate D2E/DX2 analytically  !
 ! D100  D(45,32,33,34)       -165.5186         calculate D2E/DX2 analytically  !
 ! D101  D(45,32,33,38)        -52.7826         calculate D2E/DX2 analytically  !
 ! D102  D(45,32,33,44)         70.9363         calculate D2E/DX2 analytically  !
 ! D103  D(33,32,36,35)         58.8702         calculate D2E/DX2 analytically  !
 ! D104  D(33,32,36,41)        -60.5135         calculate D2E/DX2 analytically  !
 ! D105  D(33,32,36,46)        178.5677         calculate D2E/DX2 analytically  !
 ! D106  D(39,32,36,35)        -61.0414         calculate D2E/DX2 analytically  !
 ! D107  D(39,32,36,41)        179.5749         calculate D2E/DX2 analytically  !
 ! D108  D(39,32,36,46)         58.6562         calculate D2E/DX2 analytically  !
 ! D109  D(45,32,36,35)        176.3546         calculate D2E/DX2 analytically  !
 ! D110  D(45,32,36,41)         56.971          calculate D2E/DX2 analytically  !
 ! D111  D(45,32,36,46)        -63.9478         calculate D2E/DX2 analytically  !
 ! D112  D(33,32,45,67)       -144.367          calculate D2E/DX2 analytically  !
 ! D113  D(36,32,45,67)         98.7532         calculate D2E/DX2 analytically  !
 ! D114  D(39,32,45,67)        -23.4782         calculate D2E/DX2 analytically  !
 ! D115  D(32,33,34,37)       -155.9721         calculate D2E/DX2 analytically  !
 ! D116  D(32,33,34,42)         35.4614         calculate D2E/DX2 analytically  !
 ! D117  D(32,33,34,53)        -67.1858         calculate D2E/DX2 analytically  !
 ! D118  D(38,33,34,37)         87.8121         calculate D2E/DX2 analytically  !
 ! D119  D(38,33,34,42)        -80.7543         calculate D2E/DX2 analytically  !
 ! D120  D(38,33,34,53)        176.5984         calculate D2E/DX2 analytically  !
 ! D121  D(44,33,34,37)        -27.2213         calculate D2E/DX2 analytically  !
 ! D122  D(44,33,34,42)        164.2123         calculate D2E/DX2 analytically  !
 ! D123  D(44,33,34,53)         61.565          calculate D2E/DX2 analytically  !
 ! D124  D(32,33,44,63)        -67.0132         calculate D2E/DX2 analytically  !
 ! D125  D(34,33,44,63)        167.1712         calculate D2E/DX2 analytically  !
 ! D126  D(38,33,44,63)         56.3864         calculate D2E/DX2 analytically  !
 ! D127  D(33,34,37,52)         73.2339         calculate D2E/DX2 analytically  !
 ! D128  D(33,34,37,83)         -8.5714         calculate D2E/DX2 analytically  !
 ! D129  D(42,34,37,52)       -117.3739         calculate D2E/DX2 analytically  !
 ! D130  D(42,34,37,83)        160.8208         calculate D2E/DX2 analytically  !
 ! D131  D(53,34,37,52)        -19.7297         calculate D2E/DX2 analytically  !
 ! D132  D(53,34,37,83)       -101.5349         calculate D2E/DX2 analytically  !
 ! D133  D(33,34,42,35)        -30.5315         calculate D2E/DX2 analytically  !
 ! D134  D(33,34,42,60)       -144.4403         calculate D2E/DX2 analytically  !
 ! D135  D(37,34,42,35)        160.1575         calculate D2E/DX2 analytically  !
 ! D136  D(37,34,42,60)         46.2488         calculate D2E/DX2 analytically  !
 ! D137  D(53,34,42,35)         69.9286         calculate D2E/DX2 analytically  !
 ! D138  D(53,34,42,60)        -43.9802         calculate D2E/DX2 analytically  !
 ! D139  D(33,34,53,51)       -118.8309         calculate D2E/DX2 analytically  !
 ! D140  D(37,34,53,51)          2.8662         calculate D2E/DX2 analytically  !
 ! D141  D(42,34,53,51)        117.4248         calculate D2E/DX2 analytically  !
 ! D142  D(40,35,36,32)         63.344          calculate D2E/DX2 analytically  !
 ! D143  D(40,35,36,41)       -177.8302         calculate D2E/DX2 analytically  !
 ! D144  D(40,35,36,46)        -57.7417         calculate D2E/DX2 analytically  !
 ! D145  D(42,35,36,32)        -53.0992         calculate D2E/DX2 analytically  !
 ! D146  D(42,35,36,41)         65.7266         calculate D2E/DX2 analytically  !
 ! D147  D(42,35,36,46)       -174.1849         calculate D2E/DX2 analytically  !
 ! D148  D(47,35,36,32)       -173.6279         calculate D2E/DX2 analytically  !
 ! D149  D(47,35,36,41)        -54.8021         calculate D2E/DX2 analytically  !
 ! D150  D(47,35,36,46)         65.2864         calculate D2E/DX2 analytically  !
 ! D151  D(36,35,42,34)         38.0933         calculate D2E/DX2 analytically  !
 ! D152  D(36,35,42,60)        149.328          calculate D2E/DX2 analytically  !
 ! D153  D(40,35,42,34)        -80.3511         calculate D2E/DX2 analytically  !
 ! D154  D(40,35,42,60)         30.8836         calculate D2E/DX2 analytically  !
 ! D155  D(47,35,42,34)        162.8361         calculate D2E/DX2 analytically  !
 ! D156  D(47,35,42,60)        -85.9293         calculate D2E/DX2 analytically  !
 ! D157  D(36,35,47,48)        -66.6845         calculate D2E/DX2 analytically  !
 ! D158  D(36,35,47,49)        176.0198         calculate D2E/DX2 analytically  !
 ! D159  D(36,35,47,50)         54.7126         calculate D2E/DX2 analytically  !
 ! D160  D(40,35,47,48)         56.1061         calculate D2E/DX2 analytically  !
 ! D161  D(40,35,47,49)        -61.1896         calculate D2E/DX2 analytically  !
 ! D162  D(40,35,47,50)        177.5032         calculate D2E/DX2 analytically  !
 ! D163  D(42,35,47,48)        170.4254         calculate D2E/DX2 analytically  !
 ! D164  D(42,35,47,49)         53.1298         calculate D2E/DX2 analytically  !
 ! D165  D(42,35,47,50)        -68.1775         calculate D2E/DX2 analytically  !
 ! D166  D(32,36,46,71)        125.9511         calculate D2E/DX2 analytically  !
 ! D167  D(35,36,46,71)       -112.3217         calculate D2E/DX2 analytically  !
 ! D168  D(41,36,46,71)          6.6546         calculate D2E/DX2 analytically  !
 ! D169  D(34,37,52,51)         32.9107         calculate D2E/DX2 analytically  !
 ! D170  D(83,37,52,51)        143.0393         calculate D2E/DX2 analytically  !
 ! D171  D(34,37,83,11)       -145.0024         calculate D2E/DX2 analytically  !
 ! D172  D(34,37,83,19)        -67.4478         calculate D2E/DX2 analytically  !
 ! D173  D(34,37,83,84)        -28.2391         calculate D2E/DX2 analytically  !
 ! D174  D(52,37,83,11)         91.4738         calculate D2E/DX2 analytically  !
 ! D175  D(52,37,83,19)        169.0284         calculate D2E/DX2 analytically  !
 ! D176  D(52,37,83,84)       -151.7629         calculate D2E/DX2 analytically  !
 ! D177  D(34,42,60,56)          3.2885         calculate D2E/DX2 analytically  !
 ! D178  D(35,42,60,56)       -122.0103         calculate D2E/DX2 analytically  !
 ! D179  D(33,44,63,64)        -41.7137         calculate D2E/DX2 analytically  !
 ! D180  D(33,44,63,65)         79.4083         calculate D2E/DX2 analytically  !
 ! D181  D(33,44,63,66)       -160.6186         calculate D2E/DX2 analytically  !
 ! D182  D(32,45,67,68)        -57.199          calculate D2E/DX2 analytically  !
 ! D183  D(32,45,67,69)         64.3838         calculate D2E/DX2 analytically  !
 ! D184  D(32,45,67,70)       -176.934          calculate D2E/DX2 analytically  !
 ! D185  D(36,46,71,72)        -65.3342         calculate D2E/DX2 analytically  !
 ! D186  D(36,46,71,73)         55.7925         calculate D2E/DX2 analytically  !
 ! D187  D(36,46,71,74)        175.4438         calculate D2E/DX2 analytically  !
 ! D188  D(35,47,50,75)        176.0385         calculate D2E/DX2 analytically  !
 ! D189  D(48,47,50,75)        -64.4552         calculate D2E/DX2 analytically  !
 ! D190  D(49,47,50,75)         55.8837         calculate D2E/DX2 analytically  !
 ! D191  D(47,50,75,76)       -179.7566         calculate D2E/DX2 analytically  !
 ! D192  D(47,50,75,77)        -60.4056         calculate D2E/DX2 analytically  !
 ! D193  D(47,50,75,78)         60.6315         calculate D2E/DX2 analytically  !
 ! D194  D(43,51,52,37)       -151.8169         calculate D2E/DX2 analytically  !
 ! D195  D(53,51,52,37)        -20.7719         calculate D2E/DX2 analytically  !
 ! D196  D(54,51,52,37)         90.4305         calculate D2E/DX2 analytically  !
 ! D197  D(43,51,53,34)        149.2694         calculate D2E/DX2 analytically  !
 ! D198  D(52,51,53,34)         17.819          calculate D2E/DX2 analytically  !
 ! D199  D(54,51,53,34)        -94.6191         calculate D2E/DX2 analytically  !
 ! D200  D(43,51,54,55)        -30.5177         calculate D2E/DX2 analytically  !
 ! D201  D(43,51,54,56)        152.2604         calculate D2E/DX2 analytically  !
 ! D202  D(52,51,54,55)         92.2807         calculate D2E/DX2 analytically  !
 ! D203  D(52,51,54,56)        -84.9412         calculate D2E/DX2 analytically  !
 ! D204  D(53,51,54,55)       -151.4011         calculate D2E/DX2 analytically  !
 ! D205  D(53,51,54,56)         31.377          calculate D2E/DX2 analytically  !
 ! D206  D(51,54,55,57)       -176.4177         calculate D2E/DX2 analytically  !
 ! D207  D(51,54,55,58)          3.8408         calculate D2E/DX2 analytically  !
 ! D208  D(56,54,55,57)          0.7351         calculate D2E/DX2 analytically  !
 ! D209  D(56,54,55,58)       -179.0064         calculate D2E/DX2 analytically  !
 ! D210  D(51,54,56,59)        177.4315         calculate D2E/DX2 analytically  !
 ! D211  D(51,54,56,60)         -2.5121         calculate D2E/DX2 analytically  !
 ! D212  D(55,54,56,59)          0.2349         calculate D2E/DX2 analytically  !
 ! D213  D(55,54,56,60)       -179.7087         calculate D2E/DX2 analytically  !
 ! D214  D(54,55,57,61)         -1.2494         calculate D2E/DX2 analytically  !
 ! D215  D(54,55,57,93)        174.5562         calculate D2E/DX2 analytically  !
 ! D216  D(58,55,57,61)        178.4897         calculate D2E/DX2 analytically  !
 ! D217  D(58,55,57,93)         -5.7047         calculate D2E/DX2 analytically  !
 ! D218  D(54,56,59,61)         -0.7203         calculate D2E/DX2 analytically  !
 ! D219  D(54,56,59,97)        176.4668         calculate D2E/DX2 analytically  !
 ! D220  D(60,56,59,61)        179.2235         calculate D2E/DX2 analytically  !
 ! D221  D(60,56,59,97)         -3.5893         calculate D2E/DX2 analytically  !
 ! D222  D(54,56,60,42)         16.8689         calculate D2E/DX2 analytically  !
 ! D223  D(59,56,60,42)       -163.0742         calculate D2E/DX2 analytically  !
 ! D224  D(55,57,61,59)          0.7812         calculate D2E/DX2 analytically  !
 ! D225  D(55,57,61,62)       -179.5994         calculate D2E/DX2 analytically  !
 ! D226  D(93,57,61,59)       -175.0422         calculate D2E/DX2 analytically  !
 ! D227  D(93,57,61,62)          4.5773         calculate D2E/DX2 analytically  !
 ! D228  D(55,57,93,94)        -90.085          calculate D2E/DX2 analytically  !
 ! D229  D(55,57,93,95)        150.7462         calculate D2E/DX2 analytically  !
 ! D230  D(55,57,93,96)         29.3752         calculate D2E/DX2 analytically  !
 ! D231  D(61,57,93,94)         85.8032         calculate D2E/DX2 analytically  !
 ! D232  D(61,57,93,95)        -33.3657         calculate D2E/DX2 analytically  !
 ! D233  D(61,57,93,96)       -154.7367         calculate D2E/DX2 analytically  !
 ! D234  D(56,59,61,57)          0.22           calculate D2E/DX2 analytically  !
 ! D235  D(56,59,61,62)       -179.3986         calculate D2E/DX2 analytically  !
 ! D236  D(97,59,61,57)       -176.9274         calculate D2E/DX2 analytically  !
 ! D237  D(97,59,61,62)          3.454          calculate D2E/DX2 analytically  !
 ! D238  D(56,59,97,98)         32.1993         calculate D2E/DX2 analytically  !
 ! D239  D(56,59,97,99)        -86.9147         calculate D2E/DX2 analytically  !
 ! D240  D(56,59,97,100)       153.5231         calculate D2E/DX2 analytically  !
 ! D241  D(61,59,97,98)       -150.6002         calculate D2E/DX2 analytically  !
 ! D242  D(61,59,97,99)         90.2858         calculate D2E/DX2 analytically  !
 ! D243  D(61,59,97,100)       -29.2765         calculate D2E/DX2 analytically  !
 ! D244  D(11,83,84,85)       -103.9344         calculate D2E/DX2 analytically  !
 ! D245  D(11,83,84,89)         77.938          calculate D2E/DX2 analytically  !
 ! D246  D(19,83,84,85)       -178.5859         calculate D2E/DX2 analytically  !
 ! D247  D(19,83,84,89)          3.2865         calculate D2E/DX2 analytically  !
 ! D248  D(37,83,84,85)        149.767          calculate D2E/DX2 analytically  !
 ! D249  D(37,83,84,89)        -28.3606         calculate D2E/DX2 analytically  !
 ! D250  D(83,84,85,86)       -116.9465         calculate D2E/DX2 analytically  !
 ! D251  D(83,84,85,87)          2.6636         calculate D2E/DX2 analytically  !
 ! D252  D(83,84,85,88)        122.4619         calculate D2E/DX2 analytically  !
 ! D253  D(89,84,85,86)         61.1593         calculate D2E/DX2 analytically  !
 ! D254  D(89,84,85,87)       -179.2305         calculate D2E/DX2 analytically  !
 ! D255  D(89,84,85,88)        -59.4323         calculate D2E/DX2 analytically  !
 ! D256  D(83,84,89,90)       -118.0299         calculate D2E/DX2 analytically  !
 ! D257  D(83,84,89,91)          2.3682         calculate D2E/DX2 analytically  !
 ! D258  D(83,84,89,92)        122.0445         calculate D2E/DX2 analytically  !
 ! D259  D(85,84,89,90)         63.3731         calculate D2E/DX2 analytically  !
 ! D260  D(85,84,89,91)       -176.2287         calculate D2E/DX2 analytically  !
 ! D261  D(85,84,89,92)        -56.5525         calculate D2E/DX2 analytically  !
 --------------------------------------------------------------------------------
 Trust Radius=5.00D-02 FncErr=1.00D-07 GrdErr=1.00D-06 EigMax=2.50D+02 EigMin=1.00D-04
 Number of steps in this run=    574 maximum allowed number of steps=    600.
 Search for a saddle point of order  1.
 GradGradGradGradGradGradGradGradGradGradGradGradGradGradGradGradGradGrad

 Leave Link  103 at Thu Jun  6 05:36:54 2019, MaxMem=  6442450944 cpu:               7.1 elap:               0.3
 (Enter /home/ekwan/sw/g16/l202.exe)
 Stoichiometry    C30H47F6NaO15S
 Framework group  C1[X(C30H47F6NaO15S)]
 Deg. of freedom   294
 Full point group                 C1      NOp   1
 Largest Abelian subgroup         C1      NOp   1
 Largest concise Abelian subgroup C1      NOp   1
                         Standard orientation:                         
 ---------------------------------------------------------------------
 Center     Atomic      Atomic             Coordinates (Angstroms)
 Number     Number       Type             X           Y           Z
 ---------------------------------------------------------------------
      1          6           0       -1.786848    1.360024    2.244764
      2          6           0       -2.066154    2.156756    0.994968
      3          6           0       -1.154310    3.354919    0.921522
      4          6           0        0.508480    2.296060    2.200782
      5          6           0       -0.317017    1.034240    2.320787
      6          1           0       -1.260733    3.855203   -0.047936
      7          1           0       -1.837946    1.535694    0.119732
      8          1           0       -2.063739    1.975722    3.110660
      9          1           0        0.254054    2.941843    3.049529
     10          1           0       -0.088196    0.359556    1.488088
     11          8           0        0.176723    2.958421    0.996269
     12          8           0       -1.480947    4.210311    1.941247
     13          8           0       -3.379463    2.598450    0.955638
     14          8           0       -2.575570    0.213872    2.209186
     15          8           0       -0.028108    0.403850    3.528135
     16          6           0        1.998232    2.063904    2.186699
     17          1           0        2.236537    1.575017    3.148663
     18          1           0        2.456612    3.073237    2.253586
     19          8           0        2.440235    1.387955    1.098109
     20          6           0       -4.218177    1.812545    0.173318
     21          1           0       -3.908043    1.822603   -0.877594
     22          1           0       -4.234650    0.778055    0.523406
     23          1           0       -5.220777    2.232862    0.239440
     24          6           0       -2.957870   -0.254522    3.464123
     25          1           0       -2.095377   -0.571338    4.051927
     26          1           0       -3.496195    0.521487    4.019455
     27          1           0       -3.621939   -1.100497    3.304307
     28          6           0        0.798257   -0.710507    3.387997
     29          1           0        0.266172   -1.528778    2.891460
     30          1           0        1.691957   -0.483029    2.802606
     31          1           0        1.090940   -1.031591    4.387502
     32          6           0        3.632816   -1.459321   -1.366591
     33          6           0        3.081400   -0.149383   -0.868559
     34          6           0        1.739788   -0.317863   -0.260264
     35          6           0        1.994498   -2.622977    0.099993
     36          6           0        3.446362   -2.477175   -0.269167
     37          1           0        1.043627    0.490410   -0.198326
     38          1           0        3.694772    0.188562   -0.021285
     39          1           0        3.098541   -1.767550   -2.272201
     40          1           0        1.440759   -3.004687   -0.761524
     41          1           0        4.002041   -2.131522    0.609187
     42          8           0        1.415253   -1.354863    0.407929
     43          8           0       -0.409435    0.286456   -3.845103
     44          8           0        2.983399    0.873626   -1.794842
     45          8           0        4.988976   -1.300009   -1.614167
     46          8           0        3.907680   -3.717275   -0.681514
     47          6           0        1.754548   -3.501758    1.279602
     48          1           0        2.033124   -4.528307    1.009798
     49          1           0        0.682723   -3.495592    1.522187
     50          8           0        2.506112   -3.035793    2.341043
     51         16           0       -0.237865    0.141701   -2.420878
     52          8           0       -0.100763    1.403150   -1.684655
     53          8           0        0.829969   -0.811119   -2.033828
     54          6           0       -1.700345   -0.607005   -1.793815
     55          6           0       -2.911828   -0.382979   -2.408713
     56          6           0       -1.613707   -1.367871   -0.649794
     57          6           0       -4.048732   -0.924160   -1.848105
     58          1           0       -2.961373    0.204293   -3.316845
     59          6           0       -2.758251   -1.915499   -0.118210
     60          1           0       -0.657194   -1.534711   -0.170604
     61          6           0       -3.982477   -1.698037   -0.708446
     62          1           0       -4.882176   -2.122358   -0.282152
     63          6           0        4.206896    1.363609   -2.267340
     64          1           0        4.927919    1.458546   -1.452044
     65          1           0        4.626969    0.709481   -3.031670
     66          1           0        4.009849    2.347200   -2.688693
     67          6           0        5.455061   -2.021274   -2.711671
     68          1           0        5.250996   -3.087432   -2.599679
     69          1           0        4.994033   -1.664577   -3.639711
     70          1           0        6.529893   -1.861103   -2.770390
     71          6           0        4.842406   -4.284950    0.184814
     72          1           0        5.760007   -3.690382    0.210346
     73          1           0        4.443980   -4.362086    1.201341
     74          1           0        5.071012   -5.280261   -0.190020
     75          6           0        2.270666   -3.751027    3.508058
     76          1           0        2.892470   -3.322349    4.290792
     77          1           0        1.219018   -3.679625    3.807287
     78          1           0        2.527320   -4.808902    3.383767
     79          6           0       -0.748581    5.394203    1.918424
     80          1           0       -1.155420    6.045001    2.688635
     81          1           0        0.310483    5.213683    2.119796
     82          1           0       -0.840185    5.889156    0.945379
     83         11           0        1.650712    2.549748   -0.718586
     84          8           0        3.344704    3.980326   -0.810006
     85          6           0        3.696358    5.069422   -1.595646
     86          1           0        4.623723    4.869234   -2.143828
     87          1           0        2.892612    5.249194   -2.306953
     88          1           0        3.841449    5.964757   -0.982714
     89          6           0        4.309485    3.676824    0.152653
     90          1           0        4.418042    4.504904    0.860945
     91          1           0        3.967564    2.772288    0.663756
     92          1           0        5.279913    3.498562   -0.324360
     93          6           0       -5.376093   -0.596292   -2.422850
     94          9           0       -5.890149    0.480465   -1.845896
     95          9           0       -6.240923   -1.575101   -2.244724
     96          9           0       -5.302855   -0.344625   -3.713551
     97          6           0       -2.645847   -2.798488    1.068295
     98          9           0       -1.644591   -2.442243    1.855101
     99          9           0       -2.419426   -4.053056    0.717206
    100          9           0       -3.752209   -2.794514    1.787436
 ---------------------------------------------------------------------
 Rotational constants (GHZ):           0.0637876           0.0456198           0.0398632
 Leave Link  202 at Thu Jun  6 05:36:54 2019, MaxMem=  6442450944 cpu:               6.3 elap:               0.3
 (Enter /home/ekwan/sw/g16/l301.exe)
 Standard basis: 6-31G(d) (6D, 7F)
 Ernie: Thresh=  0.10000D-02 Tol=  0.10000D-05 Strict=F.
 There are   897 symmetry adapted cartesian basis functions of A   symmetry.
 There are   897 symmetry adapted basis functions of A   symmetry.
   897 basis functions,  1720 primitive gaussians,   897 cartesian basis functions
   214 alpha electrons      214 beta electrons
       nuclear repulsion energy     10050.6763130020 Hartrees.
 IExCor=  202 DFT=T Ex+Corr=BHandH ExCW=0 ScaHFX=  0.500000
 ScaDFX=  0.500000  0.500000  1.000000  1.000000 ScalE2=  1.000000  1.000000
 IRadAn=      5 IRanWt=     -1 IRanGd=            0 ICorTp=0 IEmpDi=  4
 NAtoms=  100 NActive=  100 NUniq=  100 SFac= 1.00D+00 NAtFMM=   60 NAOKFM=T Big=T
 Integral buffers will be    131072 words long.
 Raffenetti 2 integral format.
 Two-electron integral symmetry is turned on.
 Force inversion solution in PCM.
 ------------------------------------------------------------------------------
 Polarizable Continuum Model (PCM)
 =================================
 Model                : PCM.
 Atomic radii         : UFF (Universal Force Field).
 Polarization charges : Total charges.
 Charge compensation  : None.
 Solution method      : Matrix inversion.
 Cavity type          : Scaled VdW (van der Waals Surface) (Alpha=1.100).
 Cavity algorithm     : GePol (No added spheres)
                        Default sphere list used, NSphG=  100.
                        Lebedev-Laikov grids with approx.  5.0 points / Ang**2.
                        Smoothing algorithm: York/Karplus (Gamma=1.0000).
                        Polarization charges: spherical gaussians, with
                                              point-specific exponents (IZeta= 3).
                        Self-potential: point-specific (ISelfS= 7).
                        Self-field    : sphere-specific E.n sum rule (ISelfD= 2).
 1st derivatives      : Analytical E(r).r(x)/FMM algorithm (CHGder, D1EAlg=3).
                        Cavity 1st derivative terms included.
 2nd derivatives      : Analytical E(r).r(xy)/FMM algorithm (CHGder, D2EAlg=3).
                        Cavity 2nd derivative terms included.
 Solvent              : TetraHydroFuran, Eps=   7.425700 Eps(inf)=   1.974025
 ------------------------------------------------------------------------------
 GePol: Number of generator spheres                  =     100
 GePol: Total number of spheres                      =     100
 GePol: Number of exposed spheres                    =     100 (100.00%)
 GePol: Number of points                             =    5482
 GePol: Average weight of points                     =       0.13
 GePol: Minimum weight of points                     =   0.29D-11
 GePol: Maximum weight of points                     =    0.21593
[...]
 ,0.00001247,-0.00004750,-0.00019167,0.00007081,0.00000549,-0.00006653,
 -0.00059963,-0.00017386,-0.00001653,0.00028689,-0.00005005,0.00359692,
 0.00118340,-0.00148887,-0.00095684,-0.00097191,0.00003221,-0.00158151,
 0.00024191,0.00000429,-0.00022846,0.00112821,0.00197023,0.00042721,-0.
 00096822,0.00062109,0.00281334,0.00020030,0.00092040,-0.00009484,0.000
 82914,0.00264050,0.00006692,-0.00015103,-0.00023377,0.01099382,-0.0478
 7194,-0.00271628,0.00040640,-0.00087361,-0.00092205,-0.00357210,-0.001
 53357,0.00079605,0.00019074,-0.00096330,-0.00091971,0.00014927,0.00006
 276,-0.00008049,-0.00002145,-0.00000581,-0.00000539,-0.00002542,0.0000
 0554,0.00002058,-0.00000564,-0.00001640,0.00000737,0.00003261,-0.00006
 735,-0.00008607,-0.00000397,0.00001596,0.00000417,0.00000131,-0.000001
 63,0.00000837,-0.00001068,0.00000548,0.00001145,0.00004763,-0.00004636
 ,0.00005451,-0.00000095,0.00000987,-0.00000941,0.00000477,-0.00001552,
 -0.00001430,-0.00002567,0.00001686,0.00000438,0.00004300,-0.00011751,0
 .00010360,0.00001772,0.00001137,-0.00000519,-0.00000783,-0.00007391,0.
 00000047,-0.00005718,0.00005086,0.00000657,0.00010482,0.00020002,-0.00
 002123,-0.00000227,-0.00003542,-0.00001498,-0.00002394,-0.00000571,0.0
 0000420,-0.00001207,-0.00002064,0.00002388,0.00023229,0.00019262,-0.00
 002407,-0.00007177,-0.00005831,0.00000857,0.00002547,0.00004783,-0.000
 03343,-0.00001142,0.00000016,0.00000660,0.00000306,0.00000198,-0.00000
 178,-0.00000276,-0.00000921,-0.00000200,0.00002136,-0.00000642,0.00001
 320,-0.00000155,-0.00001042,-0.00000028,0.00005602,0.00003560,-0.00000
 610,-0.00001274,-0.00000528,0.00001472,-0.00292202,0.00032575,-0.00096
 496,0.00078715,-0.00047847,0.00004851,0.00092362,0.00030768,0.00023881
 ,0.00076892,-0.00028516,0.00094718,0.04185181,-0.31809043,-0.03870243,
 -0.02693091,-0.04458305,-0.04115709,-0.06133282,0.43091377,0.00032090,
 0.00052132,-0.00009099,-0.00010327,-0.00000354,-0.00023673,-0.00002820
 ,0.00000371,0.00000880,-0.00002673,0.00013128,-0.00011944,-0.00003346,
 0.00015861,-0.00015375,-0.00000873,-0.00003774,0.00001256,-0.00000482,
 -0.00003930,0.00000586,-0.00004268,-0.00008111,-0.00000532,-0.00001006
 ,-0.00001334,0.00001129,0.00002354,0.00003028,-0.00005683,0.00003905,-
 0.00006934,0.00013294,0.00001077,-0.00001886,0.00004211,0.00019896,0.0
 0011556,0.00024086,0.00002769,-0.00091035,0.00009245,-0.00001476,-0.00
 036851,0.00012088,0.00007719,-0.00003474,-0.00009825,0.00002118,0.0000
 0561,0.00004005,-0.00002811,-0.00000384,0.00002877,-0.00005470,0.00005
 593,0.00019970,-0.00011674,-0.00014306,-0.00018005,-0.00000777,-0.0000
 7738,0.00009116,0.00001489,0.00002038,-0.00013704,-0.00000636,0.000033
 50,0.00002194,0.00013620,0.00043112,0.00001102,0.00002883,0.00002181,0
 .00014153,-0.00003776,-0.00023518,0.00000164,-0.00031186,0.00015157,0.
 00038672,0.00006657,0.00055836,0.00024077,0.00022150,-0.00020204,-0.00
 000469,-0.00008070,-0.00009810,-0.00008292,-0.00006058,-0.00007607,-0.
 00006616,-0.00004415,0.00001065,-0.00002863,0.00001088,0.00001225,0.00
 001003,-0.00027197,-0.00006453,-0.00053489,-0.00010133,0.00002823,-0.0
 0017709,0.00001596,-0.00001542,0.00002317,-0.00002151,-0.00000020,-0.0
 0002844,0.00001865,-0.00000619,-0.00002222,-0.00000967,0.00000811,0.00
 001636,-0.00003500,0.00000241,0.00003362,0.00002195,0.00000446,-0.0000
 0317,0.00012662,-0.00012069,0.00026126,0.00037501,0.00021469,-0.000302
 49,0.00004584,0.00000670,0.00002896,0.00001892,-0.00000432,0.00002980,
 0.00001969,-0.00001694,0.00003739,0.00031097,0.00004355,-0.00010276,-0
 .00008288,0.00001824,0.00002611,0.00011167,-0.00013547,-0.00003118,-0.
 00014388,0.00002419,0.00007699,-0.00137948,-0.00064444,0.00025845,0.00
 035087,0.00044607,0.00013573,0.00069695,0.00001414,0.00020685,-0.00020
 912,-0.00092283,-0.00068447,-0.00018455,0.00055305,-0.00051137,-0.0014
 0223,-0.00009092,0.00016993,0.00061859,-0.00073511,-0.00093465,-0.0000
 2380,0.00003061,0.00012679,-0.00441672,0.02581757,0.00929427,0.0000133
 0,0.00041255,-0.00000156,0.00159495,0.00034297,0.00047096,-0.00026283,
 0.00036668,0.00011935,-0.00002324,-0.00001761,0.00000995,0.00000802,0.
 00000126,0.00000289,0.00000090,0.00000104,-0.00000145,-0.00000148,0.00
 000026,-0.00000254,-0.00000436,-0.00000279,-0.00001102,-0.00000245,0.0
 0000145,-0.00000310,-0.00000027,-0.00000460,0.00000505,0.00000370,0.00
 000138,0.00000065,-0.00001157,0.00001130,-0.00003411,0.00000183,0.0000
 0106,0.00000399,0.00000893,-0.00000761,0.00000863,-0.00000263,0.000001
 25,0.00000222,0.00011903,-0.00002136,-0.00003744,-0.00001241,-0.000003
 91,0.00000410,-0.00003803,-0.00001552,0.00002803,-0.00002087,0.0000146
 7,0.00000875,0.00000298,0.00002277,-0.00000295,-0.00000004,0.00000152,
 -0.00000054,0.00000158,0.00000154,-0.00000150,0.00000033,-0.00000592,0
 .00000612,-0.00005035,-0.00004991,-0.00008237,0.00001324,0.00000145,0.
 00002431,-0.00000266,-0.00000034,-0.00000634,-0.00000123,-0.00000087,-
 0.00000007,0.00000187,-0.00000330,0.00000146,0.00000049,0.00000173,0.0
 0000229,-0.00001133,0.00000358,-0.00001571,0.00000201,0.00000430,0.000
 00238,0.00000230,-0.00000150,-0.00000350,-0.00000017,-0.00000168,0.000
 00274,0.00107392,-0.00032666,0.00023671,-0.00029699,0.00023032,0.00002
 541,-0.00032790,-0.00004490,-0.00005633,-0.00028160,0.00012784,-0.0002
 3827,0.00691991,-0.03840270,-0.08876709,-0.01654474,-0.05249104,-0.016
 24208,-0.01817993,0.10653894,0.10911831,-0.00024107,-0.00000416,0.0000
 4978,-0.00011125,0.00013681,0.00008831,-0.00014973,0.00019242,0.000004
 53,0.00011371,0.00008920,-0.00012933,-0.00017004,0.00046701,0.00015661
 ,0.00001410,-0.00000690,0.00000475,-0.00001054,0.00003653,-0.00005491,
 0.00003257,-0.00004672,-0.00004346,-0.00002473,-0.00006972,-0.00001291
 ,0.00011375,0.00000507,-0.00013015,0.00009114,-0.00018888,0.00004861,0
 .00003660,-0.00015172,-0.00006379,0.00023121,-0.00007792,-0.00006071,0
 .00108533,0.00012989,-0.00066635,0.00035908,-0.00068459,-0.00014315,-0
 .00004314,0.00010049,0.00013899,0.00003593,0.00001218,-0.00001179,-0.0
 0001866,-0.00008366,-0.00001815,-0.00010441,-0.00030443,-0.00018680,-0
 .00005785,-0.00010271,0.00005677,0.00002521,0.00010277,-0.00008041,-0.
 00006639,-0.00003243,0.00014079,0.00003393,-0.00004598,0.00000014,-0.0
 0118569,-0.00091663,0.00087653,0.00023070,0.00036884,0.00024248,0.0002
 1906,0.00015566,0.00005577,0.00011702,-0.00118547,-0.00174031,0.000019
 52,0.00120139,0.00044897,0.00027057,-0.00032687,0.00013304,-0.00007184
 ,-0.00013662,-0.00011979,-0.00013946,-0.00017120,-0.00015879,0.0000928
 3,0.00001917,-0.00008913,0.00000681,0.00008136,-0.00006041,0.00040874,
 0.00080742,-0.00013541,0.00015819,-0.00010483,-0.00015829,0.00019988,-
 0.00013660,-0.00000241,0.00002557,0.00003537,-0.00002059,-0.00000130,0
 .00000524,0.00004443,0.00000249,-0.00000687,-0.00000725,0.00003598,-0.
 00000650,-0.00005636,-0.00001269,0.00000780,-0.00000129,-0.00047360,-0
 .00048826,0.00034263,-0.00030059,-0.00024788,0.00065006,-0.00016803,-0
 .00014241,0.00011009,-0.00021254,0.00000228,0.00013750,-0.00021182,0.0
 0012962,0.00001019,0.00098300,0.00023071,0.00008947,-0.00022870,0.0000
 2392,0.00004227,0.00009602,-0.00038469,0.00016932,-0.00054420,0.000057
 20,-0.00047031,0.00118681,0.00083206,-0.00064040,-0.00029692,-0.000571
 25,-0.00005198,-0.00044250,-0.00016842,0.00021577,-0.00062968,-0.00049
 269,-0.00036932,0.00048423,0.00002736,0.00015165,0.00147828,-0.0015996
 2,0.00312053,0.00107008,-0.00087577,0.00066031,0.00016616,0.00011411,-
 0.00000980,-0.01275295,-0.00019238,0.01521587,0.00068829,0.00065591,-0
 .00048429,-0.00347200,0.00004716,-0.00331285,0.00212209,0.00061517,0.0
 0075998,0.00012851,0.00006123,-0.00005078,-0.00001496,0.00000070,-0.00
 000578,-0.00001882,0.00000659,0.00000924,-0.00000784,-0.00001858,0.000
 00983,0.00003953,-0.00005146,-0.00009234,0.00001011,0.00000632,-0.0000
 0104,0.00000465,0.00000326,0.00001373,-0.00001825,0.00000194,0.0000105
 4,0.00012439,-0.00005981,0.00006357,-0.00002591,-0.00000725,-0.0000040
 6,0.00002605,-0.00001513,0.00000219,-0.00001029,0.00001805,0.00000303,
 0.00009990,-0.00021876,0.00024945,-0.00003293,-0.00000294,-0.00003649,
 -0.00001836,-0.00001097,0.00004483,-0.00001878,0.00005605,0.00000296,0
 .00001181,0.00005655,-0.00000744,0.00000109,-0.00001336,-0.00000627,0.
 00000094,0.00000266,0.00000422,-0.00000319,-0.00000441,0.00000695,0.00
 007227,0.00017231,-0.00001262,-0.00002606,-0.00005727,0.00000904,0.000
 01104,0.00004041,-0.00002325,-0.00000366,-0.00000110,0.00000366,0.0000
 0146,0.00000107,0.00000315,-0.00000361,-0.00000870,-0.00000280,0.00000
 087,0.00000447,0.00000341,-0.00000099,-0.00001193,0.00000015,0.0000393
 2,0.00003235,-0.00000325,-0.00000258,-0.00000250,0.00000719,-0.0012197
 9,-0.00005372,0.00013074,0.00036628,-0.00019744,-0.00008349,0.00040211
 ,0.00018112,-0.00005701,0.00027396,-0.00005995,0.00013027,-0.23936923,
 -0.01298323,0.12723739,-0.08580980,-0.01474937,0.00499511,-0.02690868,
 0.03537514,0.03168149,0.36180682,0.00033723,0.00047471,-0.00001103,-0.
 00013379,0.00007886,0.00004678,0.00010902,0.00020085,0.00005615,-0.000
 00652,0.00010545,-0.00001851,0.00005210,0.,0.00013009,-0.00001770,-0.0
 0003916,0.00000482,0.00001946,0.00004074,-0.00002827,-0.00005235,-0.00
 005627,-0.00000180,-0.00000180,-0.00002512,-0.00000843,0.00004954,-0.0
 0000874,-0.00001580,-0.00006591,-0.00009901,-0.00002959,-0.00005928,-0
 .00021663,-0.00005161,0.00001066,-0.00020219,-0.00005622,0.00016056,0.
 00033190,-0.00014211,-0.00025622,0.00000395,-0.00009944,0.00003651,-0.
 00001437,0.00006210,0.00000648,0.00001043,-0.00001812,-0.00003392,-0.0
 0003686,-0.00000628,-0.00011681,-0.00007848,-0.00007120,0.00002952,0.0
 0018904,0.00001492,-0.00000269,0.00005503,-0.00001781,-0.00006595,0.00
 003215,0.00002410,0.00003504,-0.00006065,-0.00000413,0.00155006,0.0002
 1007,-0.00110686,-0.00021760,-0.00020595,-0.00008622,-0.00048934,-0.00
 061001,-0.00014020,-0.00173897,-0.00315764,-0.00153385,0.00014902,-0.0
 0004337,0.00005337,0.00004147,-0.00002229,0.00003997,-0.00001690,0.000
 00100,0.00000077,-0.00003307,-0.00000801,-0.00004758,0.00005873,-0.000
 03563,-0.00001704,0.00001185,0.00001345,-0.00003728,0.00028734,0.00015
 698,0.00027235,0.00011544,-0.00026876,-0.00002405,0.00004842,-0.000030
 10,0.00000151,0.00005606,0.00000796,-0.00000641,-0.00000833,-0.0000040
 9,0.00002010,0.00000573,-0.00001055,-0.00000927,0.00000765,-0.00002558
 ,0.00000780,-0.00000068,0.00000195,0.00000225,-0.00026778,0.00013265,-
 0.00005164,-0.00040156,-0.00015838,0.00059293,-0.00010714,-0.00002851,
 0.00003442,-0.00007823,0.00003587,0.00003942,-0.00006374,0.00009019,-0
 .00000222,0.00005111,0.00001938,0.00000971,-0.00006029,0.00002075,-0.0
 0000186,-0.00003584,-0.00017655,-0.00001575,-0.00001909,0.00009415,-0.
 00007732,0.00186594,0.00040133,-0.00065920,-0.00054121,-0.00050768,-0.
 00004757,-0.00072408,0.00009546,-0.00004030,-0.00029666,-0.00171606,0.
 00049648,-0.00068994,-0.00036275,0.00043355,0.00196456,0.00005791,0.00
 268905,-0.00020606,0.00008325,-0.00036096,-0.00000437,0.00004191,-0.00
 001618,-0.02078371,0.00649653,0.01821005,0.00016937,0.00049514,-0.0000
 2155,-0.00006084,-0.00063932,0.00051268,-0.00018182,-0.00050486,0.0007
 1000,0.00006877,0.00003155,-0.00003614,-0.00001038,-0.00000255,-0.0000
 0288,-0.00001099,0.00000253,0.00000866,-0.00000207,-0.00000763,0.00000
 349,0.00001581,-0.00002744,-0.00003626,-0.00000004,0.00000589,0.000002
 07,0.00000094,0.00000055,0.00000312,-0.00000606,0.00000175,0.00000477,
 0.00002902,-0.00002314,0.00003106,-0.00000274,0.00000236,-0.00000443,0
 .00000147,-0.00000469,-0.00000647,-0.00000878,0.00000704,0.00000118,-0
 .00000977,-0.00005391,0.00006757,0.00000690,0.00000367,-0.00000565,0.0
 0000548,-0.00002028,-0.00000237,-0.00001391,0.00001803,0.00000049,0.00
 005162,0.00009581,-0.00000766,-0.00000133,-0.00001676,-0.00000742,-0.0
 0001212,-0.00000361,0.00000206,-0.00000664,-0.00001041,0.00001129,0.00
 011089,0.00009276,-0.00000373,-0.00003322,-0.00002723,0.00000129,0.000
 01137,0.00002215,-0.00001456,-0.00000481,0.00000013,0.00000302,0.00000
 118,0.00000133,-0.00000079,-0.00000129,-0.00000447,-0.00000128,0.00001
 070,-0.00000293,0.00000791,-0.00000077,-0.00000523,-0.00000052,0.00002
 434,0.00001588,-0.00000216,-0.00000544,-0.00000200,0.00000618,-0.00114
 793,0.00017909,-0.00052375,0.00032569,-0.00017740,0.00004358,0.0003979
 0,0.00011459,0.00010068,0.00025205,-0.00008414,0.00031457,-0.00963432,
 -0.08118714,0.01362964,-0.01714964,0.00952154,0.00216718,0.05158708,-0
 .01725391,-0.04099205,-0.00422765,0.08817280,0.00049207,0.00061878,0.0
 0000368,-0.00012450,-0.00009420,-0.00034912,0.00007526,-0.00012193,0.0
 0001449,-0.00012110,0.00011181,-0.00006193,0.00008868,-0.00015152,-0.0
 0031645,-0.00002294,-0.00004829,0.00001318,0.00001154,-0.00007021,0.00
 004495,-0.00005543,-0.00000097,0.00005468,0.00000594,0.00003148,0.0000
 2400,-0.00005610,0.00003809,0.00003212,-0.00000739,0.00003691,0.000141
 29,-0.00001014,0.00007013,0.00009408,0.00013115,0.00019958,0.00033600,
 -0.00074059,-0.00071554,0.00086388,-0.00031752,-0.00002684,0.00025417,
 0.00012205,-0.00010962,-0.00020665,0.00000294,-0.00000091,0.00005600,-
 0.00002371,0.00004849,0.00004568,0.00000752,0.00025695,0.00036689,-0.0
 0011196,-0.00013732,-0.00023165,-0.00001968,-0.00015500,0.00013822,0.0
 0003804,-0.00000360,-0.00022591,-0.00002325,0.00006295,0.00002614,0.00
 293343,0.00108092,-0.00198504,-0.00023331,-0.00026525,-0.00001277,-0.0
 0070204,-0.00092867,-0.00007141,-0.00218274,-0.00192534,-0.00009868,0.
 00010309,-0.00017491,-0.00004900,0.00001855,0.00001705,-0.00003355,-0.
 00004394,-0.00000554,-0.00000492,0.00002155,0.00002616,0.00002775,-0.0
 0011200,0.00001832,0.00001967,0.00001027,-0.00002134,0.00005804,-0.000
 62470,-0.00052762,-0.00071036,-0.00021354,0.00021830,-0.00008244,-0.00
 009433,0.00005579,0.00001798,-0.00005358,-0.00001844,-0.00003076,0.000
 02901,-0.00001045,-0.00005662,-0.00001444,0.00001941,0.00002546,-0.000
 04328,0.00002682,0.00004637,0.00002577,-0.00000067,-0.00000303,0.00048
 709,0.00001765,0.00017293,0.00084727,0.00046556,-0.00115703,0.00017684
 ,0.00008376,-0.00002869,0.00014790,-0.00002230,-0.00004818,0.00013709,
 -0.00011151,0.00003109,-0.00011695,-0.00001807,-0.00015077,0.00002269,
 -0.00000166,0.00001625,0.00000821,-0.00000536,-0.00004858,0.00009015,-
 0.00002377,0.00028520,-0.00346014,-0.00130284,0.00079340,0.00090936,0.
 00117449,0.00030478,0.00144007,-0.00000955,0.00019995,0.00222624,0.001
 81576,-0.00048314,0.00012289,0.00043265,-0.00061247,-0.00428327,0.0031
 4268,-0.00674014,0.00045679,0.00046965,-0.00008240,-0.00002497,-0.0000
 7109,0.00001619,0.04320374,0.00565252,-0.02288392,-0.00034546,-0.00051
 112,0.00000614,0.00151299,-0.00031030,0.00041820,0.00020134,0.00033731
 ,-0.00159709,-0.00011339,-0.00006138,0.00005132,0.00002113,0.00000227,
 0.00000631,0.00001502,-0.00000260,-0.00000965,0.00000279,0.00001193,-0
 .00000919,-0.00002878,0.00003256,0.00004671,-0.00000623,-0.00000426,-0
 .00000328,-0.00000273,-0.00000567,-0.00000266,0.00001416,-0.00000065,-
 0.00000632,-0.00007594,0.00004445,-0.00007187,0.00001416,0.00000354,0.
 00000681,-0.00000307,0.00000017,0.00000947,0.00000545,-0.00000955,0.00
 000127,0.00006563,0.00008417,-0.00014891,0.00000620,-0.00000207,0.0000
 2001,-0.00002882,-0.00000945,0.00000025,-0.00001158,-0.00001296,0.0000
 0768,-0.00000411,-0.00000751,0.00000139,-0.00000124,0.00000998,0.00000
 276,0.00000172,-0.00000019,-0.00000456,0.00000207,-0.00000477,0.000003
 41,-0.00013130,-0.00018165,-0.00010631,0.00003633,0.00003785,0.0000240
 7,-0.00001128,-0.00002629,0.00000817,0.00000157,-0.00000032,-0.0000025
 6,0.00000104,-0.00000492,0.00000024,0.00000294,0.00000763,0.00000425,-
 0.00001635,0.00000287,-0.00002226,0.00000340,0.00001257,0.00000285,-0.
 00002307,-0.00002233,-0.00000216,0.00000235,-0.00000027,-0.00000154,0.
 00220749,-0.00058387,0.00068519,-0.00069761,0.00050792,0.00004933,-0.0
 0072748,-0.00012389,-0.00014238,-0.00048615,0.00020483,-0.00053278,0.1
 1651309,0.01585904,-0.18102636,-0.01246878,-0.00076523,0.02383792,0.03
 290758,-0.02927673,-0.01254956,-0.17891074,0.00565656,0.20328677\\0.00
 000036,0.00000086,-0.00000054,0.00000017,0.00000045,0.00000049,-0.0000
 0022,-0.00000020,0.00000023,0.00000040,0.,0.00000085,-0.00000089,-0.00
 000286,0.00000042,0.00000066,-0.00000006,0.,0.00000071,0.00000054,0.00
 000031,0.00000055,0.00000101,-0.00000078,0.,-0.00000046,0.00000032,0.0
 0000032,0.00000123,0.00000113,0.00000049,0.00000329,0.00000021,0.00000
 054,-0.00000121,0.00000021,-0.00000027,-0.00000080,-0.00000074,-0.0000
 0101,0.00000026,0.00000176,-0.00000039,-0.00000048,-0.00000005,0.00000
 006,0.00000068,0.00000172,-0.00000038,-0.00000021,0.00000034,0.0000004
 1,-0.00000016,0.00000020,-0.00000232,-0.00000191,-0.00000215,0.0000000
 8,0.00000159,0.00000061,-0.00000057,0.00000045,0.00000019,0.00000019,0
 .00000170,-0.00000033,0.00000043,0.00000072,0.00000005,-0.00000028,-0.
 00000062,-0.00000035,-0.00000065,-0.00000003,-0.00000010,-0.00000023,-
 0.00000014,-0.00000035,-0.00000032,0.00000002,-0.00000072,0.00000014,-
 0.00000167,0.00000036,0.00000030,0.00000049,0.00000057,-0.00000002,-0.
 00000061,0.00000019,-0.00000049,-0.00000037,0.00000002,0.00000059,0.00
 000009,0.00000095,-0.00000116,-0.00000016,-0.00000021,0.00000136,-0.00
 000339,-0.00000002,-0.00000081,0.00000151,0.00000110,0.00000046,0.0000
 0004,-0.00000056,0.00000213,0.00000197,0.00000040,-0.00000022,0.000000
 28,0.00000080,-0.00000014,-0.00000018,-0.00000013,-0.00000017,0.000000
 28,-0.00000004,-0.00000057,-0.00000038,-0.00000030,-0.00000026,-0.0000
 0108,-0.00000407,-0.00000015,0.00000046,-0.00000112,0.00000022,-0.0000
 0072,-0.00000124,-0.00000057,-0.00000138,0.00000031,-0.00000017,0.0000
 0009,0.,-0.00000068,-0.00000020,-0.00000052,-0.00000072,-0.00000024,-0
 .00000041,-0.00000003,-0.00000046,-0.00000079,-0.00000083,0.00000037,0
 .00000023,0.00000057,-0.00000094,0.00000164,0.00000047,0.00000190,0.00
 000046,0.00000180,0.00000212,0.00000128,0.00000080,0.00000006,-0.00000
 037,-0.00000020,0.00000034,-0.00000052,0.00000016,0.00000042,0.0000001
 0,0.00000084,-0.00000074,-0.00000027,0.00000026,0.00000074,-0.00000034
 ,-0.00000101,0.00000066,-0.00000134,-0.00000021,0.00000046,0.00000018,
 -0.00000007,-0.00000033,-0.00000162,0.00000010,0.00000083,-0.00000072,
 -0.00000066,0.00000004,0.00000042,0.00000069,-0.00000014,0.00000091,0.
 00000032,-0.00000001,0.00000025,0.00000038,0.00000013,0.00000056,-0.00
 000006,-0.00000015,0.00000057,-0.00000018,-0.00000013,-0.00000001,-0.0
 0000015,0.00000010,-0.00000027,0.00000015,-0.00000025,0.00000005,-0.00
 000057,-0.00000069,-0.00000043,-0.00000039,-0.00000052,-0.00000011,-0.
 00000038,-0.00000056,-0.00000005,-0.00000034,-0.00000057,-0.00000042,-
 0.00000069,-0.00000126,-0.00000009,-0.00000060,-0.00000053,-0.00000022
 ,-0.00000044,-0.00000051,-0.00000046,-0.00000070,-0.00000013,-0.000000
 31,0.00000072,0.00000039,0.00000070,0.00000069,-0.00000036,0.00000013,
 0.00000006,-0.00000022,0.00000032,0.00000051,0.00000004,0.00000047,0.0
 0000008,-0.00000081,-0.00000179,-0.00000044,-0.00000082,0.00000003,-0.
 00000021,0.00000049,0.00000171,0.00000119,-0.00000032,0.00000052,0.000
 00086,-0.00000016,0.00000081,0.00000068,-0.00000038,0.00000062,0.00000
 081,0.00000063,0.00000140,0.00000059,-0.00000065,0.00000029,-0.0000003
 5,-0.00000111,0.00000032,0.00000072,-0.00000080,0.00000037,0.00000030,
 -0.00000028,-0.00000156,0.00000028,0.00000278,0.00000063,-0.00000006,0
 .00000096,-0.00000038,0.00000021,0.00000095,-0.00000018,0.00000110,0.0
 0000017,-0.00000158,-0.00000192,0.00000035,-0.00000033,-0.00000075,-0.
 00000005,-0.00000064,-0.00000101,0.00000044,0.00000086\\\@


 HE THAT WALD REACHE THE SWEITE ROSE
 SULD NOW AND THEN BE SCRATCHED WT THE SCHARPE BREERES.
 -- PROVERBS AND REASONS OF THE YEAR 1585
           AS REPRINTED IN PAISLEY MAGAZINE 1828.
 Job cpu time:       5 days  0 hours  7 minutes  4.9 seconds.
 Elapsed time:       0 days  4 hours 18 minutes 59.1 seconds.
 File lengths (MBytes):  RWF=   9639 Int=      0 D2E=      0 Chk=     83 Scr=      1
 Normal termination of Gaussian 16 at Thu Jun  6 14:00:10 2019.
