 Entering Gaussian System, Link 0=g16
 Input=clay_new-glu_gluC6-BCDR-Na2_1Me2O-bisCF3-ts-blyp_d3bj-631gd-pcm_thf.gjf
 Output=clay_new-glu_gluC6-BCDR-Na2_1Me2O-bisCF3-ts-blyp_d3bj-631gd-pcm_thf.out
 Initial command:
 /home/ekwan/sw/g16/l1.exe "/scratch/users/ekwan/clay_new-glu_gluC6-BCDR-Na2_1Me2O-bisCF3-ts-blyp_d3bj-631gd-pcm_thf/Gau-53810.inp" -scrdir="/scratch/users/ekwan/clay_new-glu_gluC6-BCDR-Na2_1Me2O-bisCF3-ts-blyp_d3bj-631gd-pcm_thf/"
 Entering Link 1 = /home/ekwan/sw/g16/l1.exe PID=     53811.
  
 Copyright (c) 1988,1990,1992,1993,1995,1998,2003,2009,2016,
            Gaussian, Inc.  All Rights Reserved.
  
 This is part of the Gaussian(R) 16 program.  It is based on
 the Gaussian(R) 09 system (copyright 2009, Gaussian, Inc.),
 the Gaussian(R) 03 system (copyright 2003, Gaussian, Inc.),
 the Gaussian(R) 98 system (copyright 1998, Gaussian, Inc.),
 the Gaussian(R) 94 system (copyright 1995, Gaussian, Inc.),
 the Gaussian 92(TM) system (copyright 1992, Gaussian, Inc.),
 the Gaussian 90(TM) system (copyright 1990, Gaussian, Inc.),
 the Gaussian 88(TM) system (copyright 1988, Gaussian, Inc.),
 the Gaussian 86(TM) system (copyright 1986, Carnegie Mellon
 University), and the Gaussian 82(TM) system (copyright 1983,
 Carnegie Mellon University). Gaussian is a federally registered
 trademark of Gaussian, Inc.
  
 This software contains proprietary and confidential information,
 including trade secrets, belonging to Gaussian, Inc.
  
 This software is provided under written license and may be
 used, copied, transmitted, or stored only in accord with that
 written license.
  
 The following legend is applicable only to US Government
 contracts under FAR:
  
                    RESTRICTED RIGHTS LEGEND
  
 Use, reproduction and disclosure by the US Government is
 subject to restrictions as set forth in subparagraphs (a)
 and (c) of the Commercial Computer Software - Restricted
 Rights clause in FAR 52.227-19.
  
 Gaussian, Inc.
 340 Quinnipiac St., Bldg. 40, Wallingford CT 06492
  
  
 ---------------------------------------------------------------
 Warning -- This program may not be used in any manner that
 competes with the business of Gaussian, Inc. or will provide
 assistance to any competitor of Gaussian, Inc.  The licensee
 of this program is prohibited from giving any competitor of
 Gaussian, Inc. access to this program.  By using this program,
 the user acknowledges that Gaussian, Inc. is engaged in the
 business of creating and licensing software in the field of
 computational chemistry and represents and warrants to the
 licensee that it is not a competitor of Gaussian, Inc. and that
 it will not use this program in any manner prohibited above.
 ---------------------------------------------------------------
  

 Cite this work as:
 Gaussian 16, Revision A.03,
 M. J. Frisch, G. W. Trucks, H. B. Schlegel, G. E. Scuseria, 
 M. A. Robb, J. R. Cheeseman, G. Scalmani, V. Barone, 
 G. A. Petersson, H. Nakatsuji, X. Li, M. Caricato, A. V. Marenich, 
 J. Bloino, B. G. Janesko, R. Gomperts, B. Mennucci, H. P. Hratchian, 
 J. V. Ortiz, A. F. Izmaylov, J. L. Sonnenberg, D. Williams-Young, 
 F. Ding, F. Lipparini, F. Egidi, J. Goings, B. Peng, A. Petrone, 
 T. Henderson, D. Ranasinghe, V. G. Zakrzewski, J. Gao, N. Rega, 
 G. Zheng, W. Liang, M. Hada, M. Ehara, K. Toyota, R. Fukuda, 
 J. Hasegawa, M. Ishida, T. Nakajima, Y. Honda, O. Kitao, H. Nakai, 
 T. Vreven, K. Throssell, J. A. Montgomery, Jr., J. E. Peralta, 
 F. Ogliaro, M. J. Bearpark, J. J. Heyd, E. N. Brothers, K. N. Kudin, 
 V. N. Staroverov, T. A. Keith, R. Kobayashi, J. Normand, 
 K. Raghavachari, A. P. Rendell, J. C. Burant, S. S. Iyengar, 
 J. Tomasi, M. Cossi, J. M. Millam, M. Klene, C. Adamo, R. Cammi, 
 J. W. Ochterski, R. L. Martin, K. Morokuma, O. Farkas, 
 J. B. Foresman, and D. J. Fox, Gaussian, Inc., Wallingford CT, 2016.
 
 ******************************************
 Gaussian 16:  AS64L-G16RevA.03 25-Dec-2016
                 7-Jun-2019 
 ******************************************
 %nprocshared=32
 Will use up to   32 processors via shared memory.
 %mem=48GB
 ----------------------------------------------------------------------
 #p opt=(calcfc,ts,noeigentest,maxstep=1) freq=noraman 6-31g(d) scrf=(s
 olvent=tetrahydrofuran,pcm) pop=none blyp empiricaldispersion=gd3bj
 ----------------------------------------------------------------------
 1/5=1,8=1,10=4,11=1,18=20,26=3,38=1/1,3;
 2/9=110,12=2,17=6,18=5,40=1/2;
 3/5=1,6=6,7=1,11=2,25=1,30=1,70=2201,71=2,72=20,74=402,124=41,140=1/1,2,3;
 4//1;
 5/5=2,38=5,53=20/2;
 8/6=4,10=90,11=11/1;
 11/6=1,8=1,9=11,15=111,16=1/1,2,10;
 10/6=1,13=1/2;
 7/10=1,18=20,25=1/1,2,3,16;
 1/5=1,8=1,10=4,11=1,18=20,26=3/3(2);
 2/9=110/2;
 99//99;
 2/9=110/2;
 3/5=1,6=6,7=1,11=2,25=1,30=1,70=2205,71=1,72=20,74=402,124=41/1,2,3;
 4/5=5,16=3,69=1/1;
 5/5=2,38=5,53=20/2;
 7//1,2,3,16;
 1/5=1,8=1,11=1,18=20,26=3/3(-5);
 2/9=110/2;
 99/9=1/99;
 Leave Link    1 at Fri Jun  7 18:19:57 2019, MaxMem=  6442450944 cpu:               5.1 elap:               0.2
 (Enter /home/ekwan/sw/g16/l101.exe)
 -----
 title
 -----
 Symbolic Z-matrix:
 Charge =  0 Multiplicity = 1
 C                    -1.85453   1.48371   2.22086 
 C                    -2.15123   2.33793   0.97124 
 C                    -1.27723   3.6087    0.95656 
 C                     0.47569   2.52114   2.25674 
 C                    -0.34135   1.21164   2.32782 
 H                    -1.37267   4.13636  -0.01097 
 H                    -1.87874   1.76018   0.07164 
 H                    -2.19577   2.03529   3.11539 
 H                     0.21069   3.14114   3.13193 
 H                    -0.06403   0.55435   1.4891 
 O                     0.11809   3.25917   1.03655 
 O                    -1.68134   4.44815   2.02172 
 O                    -3.52967   2.74083   0.91247 
 O                    -2.59213   0.24958   2.09413 
 O                    -0.06097   0.55104   3.58254 
 C                     2.01049   2.32266   2.21789 
 H                     2.27114   1.82188   3.18278 
 H                     2.44315   3.35513   2.2963 
 O                     2.47875   1.6561    1.09189 
 C                    -4.33268   1.89706   0.06983 
 H                    -3.97051   1.90813  -0.97633 
 H                    -4.34239   0.85675   0.43051 
 H                    -5.3526    2.30942   0.09672 
 C                    -3.1185   -0.24057   3.33883 
 H                    -2.3129   -0.46441   4.05696 
 H                    -3.81362   0.49306   3.79223 
 H                    -3.66898  -1.16013   3.09919 
 C                     0.79149  -0.60214   3.43575 
 H                     0.27919  -1.40177   2.87635 
 H                     1.73098  -0.35502   2.9151 
 H                     1.01596  -0.95422   4.45406 
 C                     3.90456  -1.50078  -1.3012 
 C                     3.23908  -0.18584  -0.84004 
 C                     1.85856  -0.41397  -0.28015 
 C                     2.19991  -2.79074   0.07377 
 C                     3.69791  -2.56621  -0.20022 
 H                     1.19376   0.41925  -0.11223 
 H                     3.80078   0.22024   0.02759 
 H                     3.44005  -1.83417  -2.24559 
 H                     1.70449  -3.15652  -0.83897 
 H                     4.18689  -2.21535   0.7229 
 O                     1.52627  -1.49571   0.38101 
 O                    -0.53008   0.28588  -3.93764 
 O                     3.14117   0.84392  -1.83349 
 O                     5.30712  -1.255    -1.47619 
 O                     4.24763  -3.82479  -0.61916 
 C                     1.87193  -3.71738   1.23397 
 H                     2.19566  -4.74083   0.96061 
 H                     0.77577  -3.7342    1.38913 
 O                     2.54831  -3.25063   2.40351 
 S                    -0.2848    0.1154   -2.47366 
 O                    -0.18158   1.40913  -1.68586 
 O                     0.87507  -0.8485   -2.16331 
 C                    -1.74594  -0.72701  -1.78404 
 C                    -3.00177  -0.52999  -2.37457 
 C                    -1.59765  -1.53013  -0.6469 
 C                    -4.12606  -1.14969  -1.80286 
 H                    -3.09522   0.08488  -3.26987 
 C                    -2.72761  -2.15478  -0.09755 
 H                    -0.61984  -1.67136  -0.19206 
 C                    -3.99591  -1.96833  -0.66739 
 H                    -4.87112  -2.45368  -0.23681 
 C                     4.39563   1.50921  -2.12776 
 H                     4.97894   1.67232  -1.20656 
 H                     4.99659   0.92354  -2.83909 
 H                     4.12376   2.47999  -2.56407 
 C                     5.87933  -1.94739  -2.60414 
 H                     5.75458  -3.03805  -2.51119 
 H                     5.42217  -1.60616  -3.55279 
 H                     6.94925  -1.69307  -2.60689 
 C                     5.22036  -4.35595   0.30673 
 H                     6.10756  -3.70031   0.36428 
 H                     4.78793  -4.47324   1.31615 
 H                     5.51403  -5.33902  -0.08786 
 C                     2.19377  -4.01821   3.56464 
 H                     2.75506  -3.59043   4.40701 
 H                     1.10862  -3.94882   3.77195 
 H                     2.46733  -5.08422   3.44176 
 C                    -1.03867   5.73781   1.99308 
 H                    -1.48806   6.32687   2.80458 
 H                     0.04927   5.65025   2.15552 
 H                    -1.21886   6.24465   1.02519 
 Na                    1.55676   2.68818  -0.78251 
 O                     3.09734   4.38974  -1.00107 
 C                     3.19234   5.57592  -1.80358 
 H                     4.15648   5.60935  -2.34593 
 H                     2.36503   5.54028  -2.52717 
 H                     3.09969   6.48577  -1.18053 
 C                     4.13316   4.30761   0.0009 
 H                     4.06795   5.16323   0.69884 
 H                     3.95663   3.36074   0.53317 
 H                     5.13223   4.30412  -0.47463 
 C                    -5.49966  -0.87607  -2.371 
 F                    -6.07653   0.22396  -1.77698 
 F                    -6.35555  -1.92431  -2.17078 
 F                    -5.45782  -0.62297  -3.71355 
 C                    -2.54256  -3.1073    1.05977 
 F                    -1.56012  -2.68928   1.92479 
 F                    -2.1641   -4.35392   0.62625 
 F                    -3.68954  -3.26852   1.79031 
 
 Add virtual bond connecting atoms H37        and H10        Dist= 3.86D+00.
 Add virtual bond connecting atoms H37        and O19        Dist= 4.07D+00.
 Add virtual bond connecting atoms O52        and H37        Dist= 4.37D+00.
 Add virtual bond connecting atoms O53        and C34        Dist= 4.10D+00.
 Add virtual bond connecting atoms H60        and O42        Dist= 4.21D+00.
 Add virtual bond connecting atoms O84        and Na83       Dist= 4.36D+00.
 Add virtual bond connecting atoms Na83       and O11        Dist= 4.51D+00.
 Add virtual bond connecting atoms Na83       and O19        Dist= 4.40D+00.
 Add virtual bond connecting atoms Na83       and H37        Dist= 4.52D+00.
 Add virtual bond connecting atoms Na83       and O52        Dist= 4.42D+00.
 Add virtual bond connecting atoms H91        and H18        Dist= 4.39D+00.
 ITRead=  0  0  0  0  0  0  0  0  0  0  0  0  0  0  0  0  0  0  0  0
 ITRead=  0  0  0  0  0  0  0  0  0  0  0  0  0  0  0  0  0  0  0  0
 ITRead=  0  0  0  0  0  0  0  0  0  0  0  0  0  0  0  0  0  0  0  0
 ITRead=  0  0  0  0  0  0  0  0  0  0  0  0  0  0  0  0  0  0  0  0
 ITRead=  0  0  0  0  0  0  0  0  0  0  0  0  0  0  0  0  0  0  0  0
 MicOpt= -1 -1 -1 -1 -1 -1 -1 -1 -1 -1 -1 -1 -1 -1 -1 -1 -1 -1 -1 -1
 MicOpt= -1 -1 -1 -1 -1 -1 -1 -1 -1 -1 -1 -1 -1 -1 -1 -1 -1 -1 -1 -1
 MicOpt= -1 -1 -1 -1 -1 -1 -1 -1 -1 -1 -1 -1 -1 -1 -1 -1 -1 -1 -1 -1
 MicOpt= -1 -1 -1 -1 -1 -1 -1 -1 -1 -1 -1 -1 -1 -1 -1 -1 -1 -1 -1 -1
 MicOpt= -1 -1 -1 -1 -1 -1 -1 -1 -1 -1 -1 -1 -1 -1 -1 -1 -1 -1 -1 -1
 NAtoms=    100 NQM=      100 NQMF=       0 NMMI=      0 NMMIF=      0
                NMic=       0 NMicF=      0.
                    Isotopes and Nuclear Properties:
 (Nuclear quadrupole moments (NQMom) in fm**2, nuclear magnetic moments (NMagM)
  in nuclear magnetons)

  Atom         1           2           3           4           5           6           7           8           9          10
 IAtWgt=          12          12          12          12          12           1           1           1           1           1
 AtmWgt=  12.0000000  12.0000000  12.0000000  12.0000000  12.0000000   1.0078250   1.0078250   1.0078250   1.0078250   1.0078250
 NucSpn=           0           0           0           0           0           1           1           1           1           1
 AtZEff=   0.0000000   0.0000000   0.0000000   0.0000000   0.0000000   0.0000000   0.0000000   0.0000000   0.0000000   0.0000000
 NQMom=    0.0000000   0.0000000   0.0000000   0.0000000   0.0000000   0.0000000   0.0000000   0.0000000   0.0000000   0.0000000
 NMagM=    0.0000000   0.0000000   0.0000000   0.0000000   0.0000000   2.7928460   2.7928460   2.7928460   2.7928460   2.7928460
 AtZNuc=   6.0000000   6.0000000   6.0000000   6.0000000   6.0000000   1.0000000   1.0000000   1.0000000   1.0000000   1.0000000

  Atom        11          12          13          14          15          16          17          18          19          20
 IAtWgt=          16          16          16          16          16          12           1           1          16          12
 AtmWgt=  15.9949146  15.9949146  15.9949146  15.9949146  15.9949146  12.0000000   1.0078250   1.0078250  15.9949146  12.0000000
 NucSpn=           0           0           0           0           0           0           1           1           0           0
 AtZEff=   0.0000000   0.0000000   0.0000000   0.0000000   0.0000000   0.0000000   0.0000000   0.0000000   0.0000000   0.0000000
 NQMom=    0.0000000   0.0000000   0.0000000   0.0000000   0.0000000   0.0000000   0.0000000   0.0000000   0.0000000   0.0000000
 NMagM=    0.0000000   0.0000000   0.0000000   0.0000000   0.0000000   0.0000000   2.7928460   2.7928460   0.0000000   0.0000000
 AtZNuc=   8.0000000   8.0000000   8.0000000   8.0000000   8.0000000   6.0000000   1.0000000   1.0000000   8.0000000   6.0000000

  Atom        21          22          23          24          25          26          27          28          29          30
 IAtWgt=           1           1           1          12           1           1           1          12           1           1
 AtmWgt=   1.0078250   1.0078250   1.0078250  12.0000000   1.0078250   1.0078250   1.0078250  12.0000000   1.0078250   1.0078250
 NucSpn=           1           1           1           0           1           1           1           0           1           1
 AtZEff=   0.0000000   0.0000000   0.0000000   0.0000000   0.0000000   0.0000000   0.0000000   0.0000000   0.0000000   0.0000000
 NQMom=    0.0000000   0.0000000   0.0000000   0.0000000   0.0000000   0.0000000   0.0000000   0.0000000   0.0000000   0.0000000
 NMagM=    2.7928460   2.7928460   2.7928460   0.0000000   2.7928460   2.7928460   2.7928460   0.0000000   2.7928460   2.7928460
 AtZNuc=   1.0000000   1.0000000   1.0000000   6.0000000   1.0000000   1.0000000   1.0000000   6.0000000   1.0000000   1.0000000

  Atom        31          32          33          34          35          36          37          38          39          40
 IAtWgt=           1          12          12          12          12          12           1           1           1           1
 AtmWgt=   1.0078250  12.0000000  12.0000000  12.0000000  12.0000000  12.0000000   1.0078250   1.0078250   1.0078250   1.0078250
 NucSpn=           1           0           0           0           0           0           1           1           1           1
 AtZEff=   0.0000000   0.0000000   0.0000000   0.0000000   0.0000000   0.0000000   0.0000000   0.0000000   0.0000000   0.0000000
 NQMom=    0.0000000   0.0000000   0.0000000   0.0000000   0.0000000   0.0000000   0.0000000   0.0000000   0.0000000   0.0000000
 NMagM=    2.7928460   0.0000000   0.0000000   0.0000000   0.0000000   0.0000000   2.7928460   2.7928460   2.7928460   2.7928460
 AtZNuc=   1.0000000   6.0000000   6.0000000   6.0000000   6.0000000   6.0000000   1.0000000   1.0000000   1.0000000   1.0000000

  Atom        41          42          43          44          45          46          47          48          49          50
 IAtWgt=           1          16          16          16          16          16          12           1           1          16
 AtmWgt=   1.0078250  15.9949146  15.9949146  15.9949146  15.9949146  15.9949146  12.0000000   1.0078250   1.0078250  15.9949146
 NucSpn=           1           0           0           0           0           0           0           1           1           0
 AtZEff=   0.0000000   0.0000000   0.0000000   0.0000000   0.0000000   0.0000000   0.0000000   0.0000000   0.0000000   0.0000000
 NQMom=    0.0000000   0.0000000   0.0000000   0.0000000   0.0000000   0.0000000   0.0000000   0.0000000   0.0000000   0.0000000
 NMagM=    2.7928460   0.0000000   0.0000000   0.0000000   0.0000000   0.0000000   0.0000000   2.7928460   2.7928460   0.0000000
 AtZNuc=   1.0000000   8.0000000   8.0000000   8.0000000   8.0000000   8.0000000   6.0000000   1.0000000   1.0000000   8.0000000

  Atom        51          52          53          54          55          56          57          58          59          60
 IAtWgt=          32          16          16          12          12          12          12           1          12           1
 AtmWgt=  31.9720718  15.9949146  15.9949146  12.0000000  12.0000000  12.0000000  12.0000000   1.0078250  12.0000000   1.0078250
 NucSpn=           0           0           0           0           0           0           0           1           0           1
 AtZEff=   0.0000000   0.0000000   0.0000000   0.0000000   0.0000000   0.0000000   0.0000000   0.0000000   0.0000000   0.0000000
 NQMom=    0.0000000   0.0000000   0.0000000   0.0000000   0.0000000   0.0000000   0.0000000   0.0000000   0.0000000   0.0000000
 NMagM=    0.0000000   0.0000000   0.0000000   0.0000000   0.0000000   0.0000000   0.0000000   2.7928460   0.0000000   2.7928460
 AtZNuc=  16.0000000   8.0000000   8.0000000   6.0000000   6.0000000   6.0000000   6.0000000   1.0000000   6.0000000   1.0000000

  Atom        61          62          63          64          65          66          67          68          69          70
 IAtWgt=          12           1          12           1           1           1          12           1           1           1
 AtmWgt=  12.0000000   1.0078250  12.0000000   1.0078250   1.0078250   1.0078250  12.0000000   1.0078250   1.0078250   1.0078250
 NucSpn=           0           1           0           1           1           1           0           1           1           1
 AtZEff=   0.0000000   0.0000000   0.0000000   0.0000000   0.0000000   0.0000000   0.0000000   0.0000000   0.0000000   0.0000000
 NQMom=    0.0000000   0.0000000   0.0000000   0.0000000   0.0000000   0.0000000   0.0000000   0.0000000   0.0000000   0.0000000
 NMagM=    0.0000000   2.7928460   0.0000000   2.7928460   2.7928460   2.7928460   0.0000000   2.7928460   2.7928460   2.7928460
 AtZNuc=   6.0000000   1.0000000   6.0000000   1.0000000   1.0000000   1.0000000   6.0000000   1.0000000   1.0000000   1.0000000

  Atom        71          72          73          74          75          76          77          78          79          80
 IAtWgt=          12           1           1           1          12           1           1           1          12           1
 AtmWgt=  12.0000000   1.0078250   1.0078250   1.0078250  12.0000000   1.0078250   1.0078250   1.0078250  12.0000000   1.0078250
 NucSpn=           0           1           1           1           0           1           1           1           0           1
 AtZEff=   0.0000000   0.0000000   0.0000000   0.0000000   0.0000000   0.0000000   0.0000000   0.0000000   0.0000000   0.0000000
 NQMom=    0.0000000   0.0000000   0.0000000   0.0000000   0.0000000   0.0000000   0.0000000   0.0000000   0.0000000   0.0000000
 NMagM=    0.0000000   2.7928460   2.7928460   2.7928460   0.0000000   2.7928460   2.7928460   2.7928460   0.0000000   2.7928460
 AtZNuc=   6.0000000   1.0000000   1.0000000   1.0000000   6.0000000   1.0000000   1.0000000   1.0000000   6.0000000   1.0000000

  Atom        81          82          83          84          85          86          87          88          89          90
 IAtWgt=           1           1          23          16          12           1           1           1          12           1
 AtmWgt=   1.0078250   1.0078250  22.9897697  15.9949146  12.0000000   1.0078250   1.0078250   1.0078250  12.0000000   1.0078250
 NucSpn=           1           1           3           0           0           1           1           1           0           1
 AtZEff=   0.0000000   0.0000000   0.0000000   0.0000000   0.0000000   0.0000000   0.0000000   0.0000000   0.0000000   0.0000000
 NQMom=    0.0000000   0.0000000  10.4000000   0.0000000   0.0000000   0.0000000   0.0000000   0.0000000   0.0000000   0.0000000
 NMagM=    2.7928460   2.7928460   2.2175200   0.0000000   0.0000000   2.7928460   2.7928460   2.7928460   0.0000000   2.7928460
 AtZNuc=   1.0000000   1.0000000  11.0000000   8.0000000   6.0000000   1.0000000   1.0000000   1.0000000   6.0000000   1.0000000

  Atom        91          92          93          94          95          96          97          98          99         100
 IAtWgt=           1           1          12          19          19          19          12          19          19          19
 AtmWgt=   1.0078250   1.0078250  12.0000000  18.9984033  18.9984033  18.9984033  12.0000000  18.9984033  18.9984033  18.9984033
 NucSpn=           1           1           0           1           1           1           0           1           1           1
 AtZEff=   0.0000000   0.0000000   0.0000000   0.0000000   0.0000000   0.0000000   0.0000000   0.0000000   0.0000000   0.0000000
 NQMom=    0.0000000   0.0000000   0.0000000   0.0000000   0.0000000   0.0000000   0.0000000   0.0000000   0.0000000   0.0000000
 NMagM=    2.7928460   2.7928460   0.0000000   2.6288670   2.6288670   2.6288670   0.0000000   2.6288670   2.6288670   2.6288670
 AtZNuc=   1.0000000   1.0000000   6.0000000   9.0000000   9.0000000   9.0000000   6.0000000   9.0000000   9.0000000   9.0000000
 Leave Link  101 at Fri Jun  7 18:19:57 2019, MaxMem=  6442450944 cpu:              17.8 elap:               0.7
 (Enter /home/ekwan/sw/g16/l103.exe)

 GradGradGradGradGradGradGradGradGradGradGradGradGradGradGradGradGradGrad
 Berny optimization.
 Initialization pass.
                           ----------------------------
                           !    Initial Parameters    !
                           ! (Angstroms and Degrees)  !
 --------------------------                            --------------------------
 ! Name  Definition              Value          Derivative Info.                !
 --------------------------------------------------------------------------------
 ! R1    R(1,2)                  1.5425         calculate D2E/DX2 analytically  !
 ! R2    R(1,5)                  1.5412         calculate D2E/DX2 analytically  !
 ! R3    R(1,8)                  1.1049         calculate D2E/DX2 analytically  !
 ! R4    R(1,14)                 1.4433         calculate D2E/DX2 analytically  !
 ! R5    R(2,3)                  1.5424         calculate D2E/DX2 analytically  !
 ! R6    R(2,7)                  1.1033         calculate D2E/DX2 analytically  !
 ! R7    R(2,13)                 1.4373         calculate D2E/DX2 analytically  !
 ! R8    R(3,6)                  1.1062         calculate D2E/DX2 analytically  !
 ! R9    R(3,11)                 1.4406         calculate D2E/DX2 analytically  !
 ! R10   R(3,12)                 1.4151         calculate D2E/DX2 analytically  !
 ! R11   R(4,5)                  1.5451         calculate D2E/DX2 analytically  !
 ! R12   R(4,9)                  1.1048         calculate D2E/DX2 analytically  !
 ! R13   R(4,11)                 1.4702         calculate D2E/DX2 analytically  !
 ! R14   R(4,16)                 1.5481         calculate D2E/DX2 analytically  !
 ! R15   R(5,10)                 1.1011         calculate D2E/DX2 analytically  !
 ! R16   R(5,15)                 1.4455         calculate D2E/DX2 analytically  !
 ! R17   R(10,37)                2.0407         calculate D2E/DX2 analytically  !
 ! R18   R(11,83)                2.3885         calculate D2E/DX2 analytically  !
 ! R19   R(12,79)                1.4412         calculate D2E/DX2 analytically  !
 ! R20   R(13,20)                1.4376         calculate D2E/DX2 analytically  !
 ! R21   R(14,24)                1.4376         calculate D2E/DX2 analytically  !
 ! R22   R(15,28)                1.4415         calculate D2E/DX2 analytically  !
 ! R23   R(16,17)                1.1179         calculate D2E/DX2 analytically  !
 ! R24   R(16,18)                1.1222         calculate D2E/DX2 analytically  !
 ! R25   R(16,19)                1.3898         calculate D2E/DX2 analytically  !
 ! R26   R(18,91)                2.3236         calculate D2E/DX2 analytically  !
 ! R27   R(19,37)                2.1519         calculate D2E/DX2 analytically  !
 ! R28   R(19,83)                2.3299         calculate D2E/DX2 analytically  !
 ! R29   R(20,21)                1.1071         calculate D2E/DX2 analytically  !
 ! R30   R(20,22)                1.1011         calculate D2E/DX2 analytically  !
 ! R31   R(20,23)                1.1004         calculate D2E/DX2 analytically  !
 ! R32   R(24,25)                1.1022         calculate D2E/DX2 analytically  !
 ! R33   R(24,26)                1.1077         calculate D2E/DX2 analytically  !
 ! R34   R(24,27)                1.0982         calculate D2E/DX2 analytically  !
 ! R35   R(28,29)                1.1022         calculate D2E/DX2 analytically  !
 ! R36   R(28,30)                1.1022         calculate D2E/DX2 analytically  !
 ! R37   R(28,31)                1.1006         calculate D2E/DX2 analytically  !
 ! R38   R(32,33)                1.5442         calculate D2E/DX2 analytically  !
 ! R39   R(32,36)                1.546          calculate D2E/DX2 analytically  !
 ! R40   R(32,39)                1.104          calculate D2E/DX2 analytically  !
 ! R41   R(32,45)                1.4346         calculate D2E/DX2 analytically  !
 ! R42   R(33,34)                1.5071         calculate D2E/DX2 analytically  !
 ! R43   R(33,38)                1.1105         calculate D2E/DX2 analytically  !
 ! R44   R(33,44)                1.4342         calculate D2E/DX2 analytically  !
 ! R45   R(34,37)                1.0791         calculate D2E/DX2 analytically  !
 ! R46   R(34,42)                1.3106         calculate D2E/DX2 analytically  !
 ! R47   R(34,53)                2.1685         calculate D2E/DX2 analytically  !
 ! R48   R(35,36)                1.5393         calculate D2E/DX2 analytically  !
 ! R49   R(35,40)                1.1011         calculate D2E/DX2 analytically  !
 ! R50   R(35,42)                1.4917         calculate D2E/DX2 analytically  !
 ! R51   R(35,47)                1.5206         calculate D2E/DX2 analytically  !
 ! R52   R(36,41)                1.102          calculate D2E/DX2 analytically  !
 ! R53   R(36,46)                1.4359         calculate D2E/DX2 analytically  !
 ! R54   R(37,52)                2.3125         calculate D2E/DX2 analytically  !
 ! R55   R(37,83)                2.3936         calculate D2E/DX2 analytically  !
 ! R56   R(42,60)                2.2282         calculate D2E/DX2 analytically  !
 ! R57   R(43,51)                1.4941         calculate D2E/DX2 analytically  !
 ! R58   R(44,63)                1.4501         calculate D2E/DX2 analytically  !
 ! R59   R(45,67)                1.4419         calculate D2E/DX2 analytically  !
 ! R60   R(46,71)                1.4442         calculate D2E/DX2 analytically  !
 ! R61   R(47,48)                1.1077         calculate D2E/DX2 analytically  !
 ! R62   R(47,49)                1.1072         calculate D2E/DX2 analytically  !
 ! R63   R(47,50)                1.4294         calculate D2E/DX2 analytically  !
 ! R64   R(50,75)                1.4363         calculate D2E/DX2 analytically  !
 ! R65   R(51,52)                1.5182         calculate D2E/DX2 analytically  !
 ! R66   R(51,53)                1.5397         calculate D2E/DX2 analytically  !
 ! R67   R(51,54)                1.8221         calculate D2E/DX2 analytically  !
 ! R68   R(52,83)                2.3396         calculate D2E/DX2 analytically  !
 ! R69   R(54,55)                1.4017         calculate D2E/DX2 analytically  !
 ! R70   R(54,56)                1.4            calculate D2E/DX2 analytically  !
 ! R71   R(55,57)                1.4053         calculate D2E/DX2 analytically  !
 ! R72   R(55,58)                1.0901         calculate D2E/DX2 analytically  !
 ! R73   R(56,59)                1.4031         calculate D2E/DX2 analytically  !
 ! R74   R(56,60)                1.0876         calculate D2E/DX2 analytically  !
 ! R75   R(57,61)                1.4058         calculate D2E/DX2 analytically  !
 ! R76   R(57,93)                1.5114         calculate D2E/DX2 analytically  !
 ! R77   R(59,61)                1.4029         calculate D2E/DX2 analytically  !
 ! R78   R(59,97)                1.5103         calculate D2E/DX2 analytically  !
 ! R79   R(61,62)                1.0895         calculate D2E/DX2 analytically  !
 ! R80   R(63,64)                1.1025         calculate D2E/DX2 analytically  !
 ! R81   R(63,65)                1.1001         calculate D2E/DX2 analytically  !
 ! R82   R(63,66)                1.0985         calculate D2E/DX2 analytically  !
 ! R83   R(67,68)                1.1017         calculate D2E/DX2 analytically  !
 ! R84   R(67,69)                1.107          calculate D2E/DX2 analytically  !
 ! R85   R(67,70)                1.0997         calculate D2E/DX2 analytically  !
 ! R86   R(71,72)                1.1047         calculate D2E/DX2 analytically  !
 ! R87   R(71,73)                1.1044         calculate D2E/DX2 analytically  !
 ! R88   R(71,74)                1.0993         calculate D2E/DX2 analytically  !
 ! R89   R(75,76)                1.0989         calculate D2E/DX2 analytically  !
 ! R90   R(75,77)                1.107          calculate D2E/DX2 analytically  !
 ! R91   R(75,78)                1.1074         calculate D2E/DX2 analytically  !
 ! R92   R(79,80)                1.0989         calculate D2E/DX2 analytically  !
 ! R93   R(79,81)                1.1035         calculate D2E/DX2 analytically  !
 ! R94   R(79,82)                1.1073         calculate D2E/DX2 analytically  !
 ! R95   R(83,84)                2.3057         calculate D2E/DX2 analytically  !
 ! R96   R(84,85)                1.4353         calculate D2E/DX2 analytically  !
 ! R97   R(84,89)                1.4435         calculate D2E/DX2 analytically  !
 ! R98   R(85,86)                1.1067         calculate D2E/DX2 analytically  !
 ! R99   R(85,87)                1.0997         calculate D2E/DX2 analytically  !
 ! R100  R(85,88)                1.1066         calculate D2E/DX2 analytically  !
 ! R101  R(89,90)                1.1061         calculate D2E/DX2 analytically  !
 ! R102  R(89,91)                1.1005         calculate D2E/DX2 analytically  !
 ! R103  R(89,92)                1.1065         calculate D2E/DX2 analytically  !
 ! R104  R(93,94)                1.3768         calculate D2E/DX2 analytically  !
 ! R105  R(93,95)                1.368          calculate D2E/DX2 analytically  !
 ! R106  R(93,96)                1.3668         calculate D2E/DX2 analytically  !
 ! R107  R(97,98)                1.3741         calculate D2E/DX2 analytically  !
 ! R108  R(97,99)                1.373          calculate D2E/DX2 analytically  !
 ! R109  R(97,100)               1.3694         calculate D2E/DX2 analytically  !
 ! A1    A(2,1,5)              110.0502         calculate D2E/DX2 analytically  !
 ! A2    A(2,1,8)              108.6634         calculate D2E/DX2 analytically  !
 ! A3    A(2,1,14)             107.7034         calculate D2E/DX2 analytically  !
 ! A4    A(5,1,8)              109.5831         calculate D2E/DX2 analytically  !
 ! A5    A(5,1,14)             110.9105         calculate D2E/DX2 analytically  !
 ! A6    A(8,1,14)             109.8834         calculate D2E/DX2 analytically  !
 ! A7    A(1,2,3)              110.7924         calculate D2E/DX2 analytically  !
 ! A8    A(1,2,7)              108.8472         calculate D2E/DX2 analytically  !
 ! A9    A(1,2,13)             111.8901         calculate D2E/DX2 analytically  !
 ! A10   A(3,2,7)              106.4827         calculate D2E/DX2 analytically  !
 ! A11   A(3,2,13)             108.1863         calculate D2E/DX2 analytically  !
 ! A12   A(7,2,13)             110.506          calculate D2E/DX2 analytically  !
 ! A13   A(2,3,6)              110.6368         calculate D2E/DX2 analytically  !
 ! A14   A(2,3,11)             110.3897         calculate D2E/DX2 analytically  !
 ! A15   A(2,3,12)             108.6482         calculate D2E/DX2 analytically  !
 ! A16   A(6,3,11)             104.3509         calculate D2E/DX2 analytically  !
 ! A17   A(6,3,12)             110.5331         calculate D2E/DX2 analytically  !
 ! A18   A(11,3,12)            112.2539         calculate D2E/DX2 analytically  !
 ! A19   A(5,4,9)              108.1998         calculate D2E/DX2 analytically  !
 ! A20   A(5,4,11)             109.5727         calculate D2E/DX2 analytically  !
 ! A21   A(5,4,16)             114.6294         calculate D2E/DX2 analytically  !
 ! A22   A(9,4,11)             108.5066         calculate D2E/DX2 analytically  !
 ! A23   A(9,4,16)             109.2472         calculate D2E/DX2 analytically  !
 ! A24   A(11,4,16)            106.54           calculate D2E/DX2 analytically  !
 ! A25   A(1,5,4)              111.4923         calculate D2E/DX2 analytically  !
 ! A26   A(1,5,10)             107.4458         calculate D2E/DX2 analytically  !
 ! A27   A(1,5,15)             109.3521         calculate D2E/DX2 analytically  !
 ! A28   A(4,5,10)             109.737          calculate D2E/DX2 analytically  !
 ! A29   A(4,5,15)             108.9466         calculate D2E/DX2 analytically  !
 ! A30   A(10,5,15)            109.849          calculate D2E/DX2 analytically  !
 ! A31   A(5,10,37)            142.4163         calculate D2E/DX2 analytically  !
 ! A32   A(3,11,4)             113.7946         calculate D2E/DX2 analytically  !
 ! A33   A(3,11,83)            126.8058         calculate D2E/DX2 analytically  !
 ! A34   A(4,11,83)            111.443          calculate D2E/DX2 analytically  !
 ! A35   A(3,12,79)            112.8627         calculate D2E/DX2 analytically  !
 ! A36   A(2,13,20)            113.274          calculate D2E/DX2 analytically  !
 ! A37   A(1,14,24)            113.7427         calculate D2E/DX2 analytically  !
 ! A38   A(5,15,28)            113.0735         calculate D2E/DX2 analytically  !
 ! A39   A(4,16,17)            105.4815         calculate D2E/DX2 analytically  !
 ! A40   A(4,16,18)            105.2202         calculate D2E/DX2 analytically  !
 ! A41   A(4,16,19)            114.5744         calculate D2E/DX2 analytically  !
 ! A42   A(17,16,18)           105.1849         calculate D2E/DX2 analytically  !
 ! A43   A(17,16,19)           113.9473         calculate D2E/DX2 analytically  !
 ! A44   A(18,16,19)           111.5912         calculate D2E/DX2 analytically  !
 ! A45   A(16,18,91)           101.5559         calculate D2E/DX2 analytically  !
 ! A46   A(16,19,37)           121.8586         calculate D2E/DX2 analytically  !
 ! A47   A(16,19,83)           107.8193         calculate D2E/DX2 analytically  !
 ! A48   A(13,20,21)           111.4236         calculate D2E/DX2 analytically  !
 ! A49   A(13,20,22)           111.5579         calculate D2E/DX2 analytically  !
 ! A50   A(13,20,23)           106.4654         calculate D2E/DX2 analytically  !
 ! A51   A(21,20,22)           108.7749         calculate D2E/DX2 analytically  !
 ! A52   A(21,20,23)           108.816          calculate D2E/DX2 analytically  !
 ! A53   A(22,20,23)           109.746          calculate D2E/DX2 analytically  !
 ! A54   A(14,24,25)           111.4543         calculate D2E/DX2 analytically  !
 ! A55   A(14,24,26)           110.9998         calculate D2E/DX2 analytically  !
 ! A56   A(14,24,27)           106.266          calculate D2E/DX2 analytically  !
 ! A57   A(25,24,26)           109.0562         calculate D2E/DX2 analytically  !
 ! A58   A(25,24,27)           109.7849         calculate D2E/DX2 analytically  !
 ! A59   A(26,24,27)           109.2282         calculate D2E/DX2 analytically  !
 ! A60   A(15,28,29)           110.9278         calculate D2E/DX2 analytically  !
 ! A61   A(15,28,30)           111.889          calculate D2E/DX2 analytically  !
 ! A62   A(15,28,31)           106.3977         calculate D2E/DX2 analytically  !
 ! A63   A(29,28,30)           108.6091         calculate D2E/DX2 analytically  !
 ! A64   A(29,28,31)           109.4086         calculate D2E/DX2 analytically  !
 ! A65   A(30,28,31)           109.5693         calculate D2E/DX2 analytically  !
 ! A66   A(33,32,36)           108.4554         calculate D2E/DX2 analytically  !
 ! A67   A(33,32,39)           109.3467         calculate D2E/DX2 analytically  !
 ! A68   A(33,32,45)           108.1713         calculate D2E/DX2 analytically  !
 ! A69   A(36,32,39)           110.1721         calculate D2E/DX2 analytically  !
 ! A70   A(36,32,45)           109.6103         calculate D2E/DX2 analytically  !
 ! A71   A(39,32,45)           111.0228         calculate D2E/DX2 analytically  !
 ! A72   A(32,33,34)           112.1357         calculate D2E/DX2 analytically  !
 ! A73   A(32,33,38)           109.0705         calculate D2E/DX2 analytically  !
 ! A74   A(32,33,44)           115.7195         calculate D2E/DX2 analytically  !
 ! A75   A(34,33,38)           103.2039         calculate D2E/DX2 analytically  !
 ! A76   A(34,33,44)           107.6669         calculate D2E/DX2 analytically  !
 ! A77   A(38,33,44)           108.2503         calculate D2E/DX2 analytically  !
 ! A78   A(33,34,37)           120.3488         calculate D2E/DX2 analytically  !
 ! A79   A(33,34,42)           122.9966         calculate D2E/DX2 analytically  !
 ! A80   A(33,34,53)            97.0741         calculate D2E/DX2 analytically  !
 ! A81   A(37,34,42)           113.7417         calculate D2E/DX2 analytically  !
 ! A82   A(37,34,53)            90.5991         calculate D2E/DX2 analytically  !
 ! A83   A(42,34,53)            99.0741         calculate D2E/DX2 analytically  !
 ! A84   A(36,35,40)           109.8028         calculate D2E/DX2 analytically  !
 ! A85   A(36,35,42)           110.456          calculate D2E/DX2 analytically  !
 ! A86   A(36,35,47)           115.7592         calculate D2E/DX2 analytically  !
 ! A87   A(40,35,42)           104.8299         calculate D2E/DX2 analytically  !
 ! A88   A(40,35,47)           109.4506         calculate D2E/DX2 analytically  !
 ! A89   A(42,35,47)           105.9307         calculate D2E/DX2 analytically  !
 ! A90   A(32,36,35)           110.9388         calculate D2E/DX2 analytically  !
 ! A91   A(32,36,41)           108.5317         calculate D2E/DX2 analytically  !
 ! A92   A(32,36,46)           110.1885         calculate D2E/DX2 analytically  !
 ! A93   A(35,36,41)           109.2182         calculate D2E/DX2 analytically  !
 ! A94   A(35,36,46)           107.2567         calculate D2E/DX2 analytically  !
 ! A95   A(41,36,46)           110.7082         calculate D2E/DX2 analytically  !
 ! A96   A(10,37,19)            83.7377         calculate D2E/DX2 analytically  !
 ! A97   A(10,37,34)           123.5694         calculate D2E/DX2 analytically  !
 ! A98   A(10,37,52)            97.9938         calculate D2E/DX2 analytically  !
 ! A99   A(10,37,83)           104.5048         calculate D2E/DX2 analytically  !
 ! A100  A(19,37,34)            99.3812         calculate D2E/DX2 analytically  !
 ! A101  A(19,37,52)           119.332          calculate D2E/DX2 analytically  !
 ! A102  A(34,37,52)           126.2304         calculate D2E/DX2 analytically  !
 ! A103  A(34,37,83)           126.5086         calculate D2E/DX2 analytically  !
 ! A104  A(34,42,35)           119.8768         calculate D2E/DX2 analytically  !
 ! A105  A(34,42,60)           100.3416         calculate D2E/DX2 analytically  !
 ! A106  A(35,42,60)           108.272          calculate D2E/DX2 analytically  !
 ! A107  A(33,44,63)           114.2622         calculate D2E/DX2 analytically  !
 ! A108  A(32,45,67)           113.6482         calculate D2E/DX2 analytically  !
 ! A109  A(36,46,71)           113.1533         calculate D2E/DX2 analytically  !
 ! A110  A(35,47,48)           108.1619         calculate D2E/DX2 analytically  !
 ! A111  A(35,47,49)           109.2518         calculate D2E/DX2 analytically  !
 ! A112  A(35,47,50)           108.8583         calculate D2E/DX2 analytically  !
 ! A113  A(48,47,49)           108.0521         calculate D2E/DX2 analytically  !
 ! A114  A(48,47,50)           111.4278         calculate D2E/DX2 analytically  !
 ! A115  A(49,47,50)           111.0247         calculate D2E/DX2 analytically  !
 ! A116  A(47,50,75)           111.7233         calculate D2E/DX2 analytically  !
 ! A117  A(43,51,52)           114.9832         calculate D2E/DX2 analytically  !
 ! A118  A(43,51,53)           113.1155         calculate D2E/DX2 analytically  !
 ! A119  A(43,51,54)           106.9748         calculate D2E/DX2 analytically  !
 ! A120  A(52,51,53)           112.1879         calculate D2E/DX2 analytically  !
 ! A121  A(52,51,54)           104.6011         calculate D2E/DX2 analytically  !
 ! A122  A(53,51,54)           103.7893         calculate D2E/DX2 analytically  !
 ! A123  A(37,52,51)            91.6492         calculate D2E/DX2 analytically  !
 ! A124  A(51,52,83)           135.7842         calculate D2E/DX2 analytically  !
 ! A125  A(34,53,51)           113.0322         calculate D2E/DX2 analytically  !
 ! A126  A(51,54,55)           119.6046         calculate D2E/DX2 analytically  !
 ! A127  A(51,54,56)           119.1884         calculate D2E/DX2 analytically  !
 ! A128  A(55,54,56)           121.1801         calculate D2E/DX2 analytically  !
 ! A129  A(54,55,57)           118.9081         calculate D2E/DX2 analytically  !
 ! A130  A(54,55,58)           120.1393         calculate D2E/DX2 analytically  !
 ! A131  A(57,55,58)           120.9481         calculate D2E/DX2 analytically  !
 ! A132  A(54,56,59)           119.2149         calculate D2E/DX2 analytically  !
 ! A133  A(54,56,60)           120.6227         calculate D2E/DX2 analytically  !
 ! A134  A(59,56,60)           120.1624         calculate D2E/DX2 analytically  !
 ! A135  A(55,57,61)           120.7504         calculate D2E/DX2 analytically  !
 ! A136  A(55,57,93)           119.6249         calculate D2E/DX2 analytically  !
 ! A137  A(61,57,93)           119.5479         calculate D2E/DX2 analytically  !
 ! A138  A(56,59,61)           120.654          calculate D2E/DX2 analytically  !
 ! A139  A(56,59,97)           118.824          calculate D2E/DX2 analytically  !
 ! A140  A(61,59,97)           120.3889         calculate D2E/DX2 analytically  !
 ! A141  A(42,60,56)           164.4095         calculate D2E/DX2 analytically  !
 ! A142  A(57,61,59)           119.2857         calculate D2E/DX2 analytically  !
 ! A143  A(57,61,62)           120.2823         calculate D2E/DX2 analytically  !
 ! A144  A(59,61,62)           120.4319         calculate D2E/DX2 analytically  !
 ! A145  A(44,63,64)           110.8558         calculate D2E/DX2 analytically  !
 ! A146  A(44,63,65)           111.0725         calculate D2E/DX2 analytically  !
 ! A147  A(44,63,66)           105.78           calculate D2E/DX2 analytically  !
 ! A148  A(64,63,65)           109.2703         calculate D2E/DX2 analytically  !
 ! A149  A(64,63,66)           109.3948         calculate D2E/DX2 analytically  !
 ! A150  A(65,63,66)           110.4178         calculate D2E/DX2 analytically  !
 ! A151  A(45,67,68)           111.3733         calculate D2E/DX2 analytically  !
 ! A152  A(45,67,69)           111.0069         calculate D2E/DX2 analytically  !
 ! A153  A(45,67,70)           106.0805         calculate D2E/DX2 analytically  !
 ! A154  A(68,67,69)           109.3119         calculate D2E/DX2 analytically  !
 ! A155  A(68,67,70)           109.8347         calculate D2E/DX2 analytically  !
 ! A156  A(69,67,70)           109.1694         calculate D2E/DX2 analytically  !
 ! A157  A(46,71,72)           110.8589         calculate D2E/DX2 analytically  !
 ! A158  A(46,71,73)           111.1812         calculate D2E/DX2 analytically  !
 ! A159  A(46,71,74)           106.1843         calculate D2E/DX2 analytically  !
 ! A160  A(72,71,73)           109.262          calculate D2E/DX2 analytically  !
 ! A161  A(72,71,74)           109.5677         calculate D2E/DX2 analytically  !
 ! A162  A(73,71,74)           109.7379         calculate D2E/DX2 analytically  !
 ! A163  A(50,75,76)           106.5924         calculate D2E/DX2 analytically  !
 ! A164  A(50,75,77)           111.0923         calculate D2E/DX2 analytically  !
 ! A165  A(50,75,78)           111.3309         calculate D2E/DX2 analytically  !
 ! A166  A(76,75,77)           109.4359         calculate D2E/DX2 analytically  !
 ! A167  A(76,75,78)           109.4876         calculate D2E/DX2 analytically  !
 ! A168  A(77,75,78)           108.8618         calculate D2E/DX2 analytically  !
 ! A169  A(12,79,80)           106.4189         calculate D2E/DX2 analytically  !
 ! A170  A(12,79,81)           111.4515         calculate D2E/DX2 analytically  !
 ! A171  A(12,79,82)           110.7569         calculate D2E/DX2 analytically  !
 ! A172  A(80,79,81)           109.6952         calculate D2E/DX2 analytically  !
 ! A173  A(80,79,82)           109.4871         calculate D2E/DX2 analytically  !
 ! A174  A(81,79,82)           108.9913         calculate D2E/DX2 analytically  !
 ! A175  A(11,83,19)            74.4283         calculate D2E/DX2 analytically  !
 ! A176  A(11,83,37)            85.5256         calculate D2E/DX2 analytically  !
 ! A177  A(11,83,52)            88.6942         calculate D2E/DX2 analytically  !
 ! A178  A(11,83,84)           107.3513         calculate D2E/DX2 analytically  !
 ! A179  A(19,83,52)           111.2519         calculate D2E/DX2 analytically  !
 ! A180  A(19,83,84)            97.976          calculate D2E/DX2 analytically  !
 ! A181  A(37,83,84)           145.8346         calculate D2E/DX2 analytically  !
 ! A182  A(52,83,84)           149.686          calculate D2E/DX2 analytically  !
 ! A183  A(83,84,85)           135.0001         calculate D2E/DX2 analytically  !
 ! A184  A(83,84,89)           111.8184         calculate D2E/DX2 analytically  !
 ! A185  A(85,84,89)           112.8075         calculate D2E/DX2 analytically  !
 ! A186  A(84,85,86)           110.8932         calculate D2E/DX2 analytically  !
 ! A187  A(84,85,87)           106.937          calculate D2E/DX2 analytically  !
 ! A188  A(84,85,88)           111.0479         calculate D2E/DX2 analytically  !
 ! A189  A(86,85,87)           109.507          calculate D2E/DX2 analytically  !
 ! A190  A(86,85,88)           108.9057         calculate D2E/DX2 analytically  !
 ! A191  A(87,85,88)           109.5199         calculate D2E/DX2 analytically  !
 ! A192  A(84,89,90)           110.5896         calculate D2E/DX2 analytically  !
 ! A193  A(84,89,91)           105.6393         calculate D2E/DX2 analytically  !
 ! A194  A(84,89,92)           110.4747         calculate D2E/DX2 analytically  !
 ! A195  A(90,89,91)           110.5442         calculate D2E/DX2 analytically  !
 ! A196  A(90,89,92)           109.0779         calculate D2E/DX2 analytically  !
 ! A197  A(91,89,92)           110.4874         calculate D2E/DX2 analytically  !
 ! A198  A(18,91,89)           118.2661         calculate D2E/DX2 analytically  !
 ! A199  A(57,93,94)           111.2991         calculate D2E/DX2 analytically  !
 ! A200  A(57,93,95)           112.0158         calculate D2E/DX2 analytically  !
 ! A201  A(57,93,96)           112.019          calculate D2E/DX2 analytically  !
 ! A202  A(94,93,95)           106.6738         calculate D2E/DX2 analytically  !
 ! A203  A(94,93,96)           106.7771         calculate D2E/DX2 analytically  !
 ! A204  A(95,93,96)           107.7458         calculate D2E/DX2 analytically  !
 ! A205  A(59,97,98)           112.2182         calculate D2E/DX2 analytically  !
 ! A206  A(59,97,99)           111.3737         calculate D2E/DX2 analytically  !
 ! A207  A(59,97,100)          112.36           calculate D2E/DX2 analytically  !
 ! A208  A(98,97,99)           106.1349         calculate D2E/DX2 analytically  !
 ! A209  A(98,97,100)          107.3868         calculate D2E/DX2 analytically  !
 ! A210  A(99,97,100)          107.0023         calculate D2E/DX2 analytically  !
 ! D1    D(5,1,2,3)            -52.7184         calculate D2E/DX2 analytically  !
 ! D2    D(5,1,2,7)             64.0444         calculate D2E/DX2 analytically  !
 ! D3    D(5,1,2,13)          -173.5394         calculate D2E/DX2 analytically  !
 ! D4    D(8,1,2,3)             67.2734         calculate D2E/DX2 analytically  !
 ! D5    D(8,1,2,7)           -175.9638         calculate D2E/DX2 analytically  !
 ! D6    D(8,1,2,13)           -53.5476         calculate D2E/DX2 analytically  !
 ! D7    D(14,1,2,3)          -173.7373         calculate D2E/DX2 analytically  !
 ! D8    D(14,1,2,7)           -56.9744         calculate D2E/DX2 analytically  !
 ! D9    D(14,1,2,13)           65.4417         calculate D2E/DX2 analytically  !
 ! D10   D(2,1,5,4)             52.6317         calculate D2E/DX2 analytically  !
 ! D11   D(2,1,5,10)           -67.6453         calculate D2E/DX2 analytically  !
 ! D12   D(2,1,5,15)           173.1718         calculate D2E/DX2 analytically  !
 ! D13   D(8,1,5,4)            -66.8012         calculate D2E/DX2 analytically  !
 ! D14   D(8,1,5,10)           172.9218         calculate D2E/DX2 analytically  !
 ! D15   D(8,1,5,15)            53.7388         calculate D2E/DX2 analytically  !
 ! D16   D(14,1,5,4)           171.708          calculate D2E/DX2 analytically  !
 ! D17   D(14,1,5,10)           51.431          calculate D2E/DX2 analytically  !
 ! D18   D(14,1,5,15)          -67.752          calculate D2E/DX2 analytically  !
 ! D19   D(2,1,14,24)         -143.1071         calculate D2E/DX2 analytically  !
 ! D20   D(5,1,14,24)           96.4142         calculate D2E/DX2 analytically  !
 ! D21   D(8,1,14,24)          -24.9002         calculate D2E/DX2 analytically  !
 ! D22   D(1,2,3,6)            171.0509         calculate D2E/DX2 analytically  !
 ! D23   D(1,2,3,11)            56.0558         calculate D2E/DX2 analytically  !
 ! D24   D(1,2,3,12)           -67.4382         calculate D2E/DX2 analytically  !
 ! D25   D(7,2,3,6)             52.8406         calculate D2E/DX2 analytically  !
 ! D26   D(7,2,3,11)           -62.1545         calculate D2E/DX2 analytically  !
 ! D27   D(7,2,3,12)           174.3515         calculate D2E/DX2 analytically  !
 ! D28   D(13,2,3,6)           -65.9578         calculate D2E/DX2 analytically  !
 ! D29   D(13,2,3,11)          179.047          calculate D2E/DX2 analytically  !
 ! D30   D(13,2,3,12)           55.5531         calculate D2E/DX2 analytically  !
 ! D31   D(1,2,13,20)          -97.4104         calculate D2E/DX2 analytically  !
 ! D32   D(3,2,13,20)          140.2675         calculate D2E/DX2 analytically  !
 ! D33   D(7,2,13,20)           24.0543         calculate D2E/DX2 analytically  !
 ! D34   D(2,3,11,4)           -60.3549         calculate D2E/DX2 analytically  !
 ! D35   D(2,3,11,83)           85.6348         calculate D2E/DX2 analytically  !
 ! D36   D(6,3,11,4)          -179.2499         calculate D2E/DX2 analytically  !
 ! D37   D(6,3,11,83)          -33.2602         calculate D2E/DX2 analytically  !
 ! D38   D(12,3,11,4)           61.0228         calculate D2E/DX2 analytically  !
 ! D39   D(12,3,11,83)        -152.9875         calculate D2E/DX2 analytically  !
 ! D40   D(2,3,12,79)         -172.6595         calculate D2E/DX2 analytically  !
 ! D41   D(6,3,12,79)          -51.0852         calculate D2E/DX2 analytically  !
 ! D42   D(11,3,12,79)          64.9699         calculate D2E/DX2 analytically  !
 ! D43   D(9,4,5,1)             63.5265         calculate D2E/DX2 analytically  !
 ! D44   D(9,4,5,10)          -177.5534         calculate D2E/DX2 analytically  !
 ! D45   D(9,4,5,15)           -57.2511         calculate D2E/DX2 analytically  !
 ! D46   D(11,4,5,1)           -54.6063         calculate D2E/DX2 analytically  !
 ! D47   D(11,4,5,10)           64.3138         calculate D2E/DX2 analytically  !
 ! D48   D(11,4,5,15)         -175.3839         calculate D2E/DX2 analytically  !
 ! D49   D(16,4,5,1)          -174.3014         calculate D2E/DX2 analytically  !
 ! D50   D(16,4,5,10)          -55.3813         calculate D2E/DX2 analytically  !
 ! D51   D(16,4,5,15)           64.921          calculate D2E/DX2 analytically  !
 ! D52   D(5,4,11,3)            59.379          calculate D2E/DX2 analytically  !
 ! D53   D(5,4,11,83)          -91.8602         calculate D2E/DX2 analytically  !
 ! D54   D(9,4,11,3)           -58.5626         calculate D2E/DX2 analytically  !
 ! D55   D(9,4,11,83)          150.1981         calculate D2E/DX2 analytically  !
 ! D56   D(16,4,11,3)         -176.0808         calculate D2E/DX2 analytically  !
 ! D57   D(16,4,11,83)          32.68           calculate D2E/DX2 analytically  !
 ! D58   D(5,4,16,17)          -62.2939         calculate D2E/DX2 analytically  !
 ! D59   D(5,4,16,18)         -173.2121         calculate D2E/DX2 analytically  !
 ! D60   D(5,4,16,19)           63.848          calculate D2E/DX2 analytically  !
 ! D61   D(9,4,16,17)           59.3075         calculate D2E/DX2 analytically  !
 ! D62   D(9,4,16,18)          -51.6106         calculate D2E/DX2 analytically  !
 ! D63   D(9,4,16,19)         -174.5505         calculate D2E/DX2 analytically  !
 ! D64   D(11,4,16,17)         176.3345         calculate D2E/DX2 analytically  !
 ! D65   D(11,4,16,18)          65.4163         calculate D2E/DX2 analytically  !
 ! D66   D(11,4,16,19)         -57.5236         calculate D2E/DX2 analytically  !
 ! D67   D(1,5,10,37)          123.9324         calculate D2E/DX2 analytically  !
 ! D68   D(4,5,10,37)            2.5491         calculate D2E/DX2 analytically  !
 ! D69   D(15,5,10,37)        -117.2035         calculate D2E/DX2 analytically  !
 ! D70   D(1,5,15,28)          132.3635         calculate D2E/DX2 analytically  !
 ! D71   D(4,5,15,28)         -105.5549         calculate D2E/DX2 analytically  !
 ! D72   D(10,5,15,28)          14.6784         calculate D2E/DX2 analytically  !
 ! D73   D(5,10,37,19)          28.5636         calculate D2E/DX2 analytically  !
 ! D74   D(5,10,37,34)         125.6855         calculate D2E/DX2 analytically  !
 ! D75   D(5,10,37,52)         -90.2678         calculate D2E/DX2 analytically  !
 ! D76   D(5,10,37,83)         -29.7131         calculate D2E/DX2 analytically  !
 ! D77   D(3,11,83,19)        -154.5128         calculate D2E/DX2 analytically  !
 ! D78   D(3,11,83,37)        -100.494          calculate D2E/DX2 analytically  !
 ! D79   D(3,11,83,52)         -42.0099         calculate D2E/DX2 analytically  !
 ! D80   D(3,11,83,84)         111.8268         calculate D2E/DX2 analytically  !
 ! D81   D(4,11,83,19)          -7.87           calculate D2E/DX2 analytically  !
 ! D82   D(4,11,83,37)          46.1488         calculate D2E/DX2 analytically  !
 ! D83   D(4,11,83,52)         104.6329         calculate D2E/DX2 analytically  !
 ! D84   D(4,11,83,84)        -101.5304         calculate D2E/DX2 analytically  !
 ! D85   D(3,12,79,80)         175.2558         calculate D2E/DX2 analytically  !
 ! D86   D(3,12,79,81)         -65.1877         calculate D2E/DX2 analytically  !
 ! D87   D(3,12,79,82)          56.3351         calculate D2E/DX2 analytically  !
 ! D88   D(2,13,20,21)         -60.8446         calculate D2E/DX2 analytically  !
 ! D89   D(2,13,20,22)          60.9423         calculate D2E/DX2 analytically  !
 ! D90   D(2,13,20,23)        -179.3507         calculate D2E/DX2 analytically  !
 ! D91   D(1,14,24,25)         -61.6653         calculate D2E/DX2 analytically  !
 ! D92   D(1,14,24,26)          60.1115         calculate D2E/DX2 analytically  !
 ! D93   D(1,14,24,27)         178.7625         calculate D2E/DX2 analytically  !
 ! D94   D(5,15,28,29)         -66.7545         calculate D2E/DX2 analytically  !
 ! D95   D(5,15,28,30)          54.7012         calculate D2E/DX2 analytically  !
 ! D96   D(5,15,28,31)         174.3383         calculate D2E/DX2 analytically  !
 ! D97   D(4,16,18,91)        -130.3358         calculate D2E/DX2 analytically  !
 ! D98   D(17,16,18,91)        118.5344         calculate D2E/DX2 analytically  !
 ! D99   D(19,16,18,91)         -5.5026         calculate D2E/DX2 analytically  !
 ! D100  D(4,16,19,37)         -20.441          calculate D2E/DX2 analytically  !
 ! D101  D(4,16,19,83)          50.0291         calculate D2E/DX2 analytically  !
 ! D102  D(17,16,19,37)        101.1772         calculate D2E/DX2 analytically  !
 ! D103  D(17,16,19,83)        171.6473         calculate D2E/DX2 analytically  !
 ! D104  D(18,16,19,37)       -139.8761         calculate D2E/DX2 analytically  !
 ! D105  D(18,16,19,83)        -69.406          calculate D2E/DX2 analytically  !
 ! D106  D(16,18,91,89)        147.136          calculate D2E/DX2 analytically  !
 ! D107  D(16,19,37,10)        -14.4426         calculate D2E/DX2 analytically  !
 ! D108  D(16,19,37,34)       -137.5136         calculate D2E/DX2 analytically  !
 ! D109  D(16,19,37,52)         81.2282         calculate D2E/DX2 analytically  !
 ! D110  D(16,19,83,11)        -21.6285         calculate D2E/DX2 analytically  !
 ! D111  D(16,19,83,52)       -103.9413         calculate D2E/DX2 analytically  !
 ! D112  D(16,19,83,84)         84.2484         calculate D2E/DX2 analytically  !
 ! D113  D(36,32,33,34)        -45.9769         calculate D2E/DX2 analytically  !
 ! D114  D(36,32,33,38)         67.6976         calculate D2E/DX2 analytically  !
 ! D115  D(36,32,33,44)       -170.0051         calculate D2E/DX2 analytically  !
 ! D116  D(39,32,33,34)         74.1867         calculate D2E/DX2 analytically  !
 ! D117  D(39,32,33,38)       -172.1388         calculate D2E/DX2 analytically  !
 ! D118  D(39,32,33,44)        -49.8415         calculate D2E/DX2 analytically  !
 ! D119  D(45,32,33,34)       -164.7883         calculate D2E/DX2 analytically  !
 ! D120  D(45,32,33,38)        -51.1139         calculate D2E/DX2 analytically  !
 ! D121  D(45,32,33,44)         71.1835         calculate D2E/DX2 analytically  !
 ! D122  D(33,32,36,35)         58.6087         calculate D2E/DX2 analytically  !
 ! D123  D(33,32,36,41)        -61.3899         calculate D2E/DX2 analytically  !
 ! D124  D(33,32,36,46)        177.2364         calculate D2E/DX2 analytically  !
 ! D125  D(39,32,36,35)        -61.0394         calculate D2E/DX2 analytically  !
 ! D126  D(39,32,36,41)        178.962          calculate D2E/DX2 analytically  !
 ! D127  D(39,32,36,46)         57.5883         calculate D2E/DX2 analytically  !
 ! D128  D(45,32,36,35)        176.5077         calculate D2E/DX2 analytically  !
 ! D129  D(45,32,36,41)         56.5091         calculate D2E/DX2 analytically  !
 ! D130  D(45,32,36,46)        -64.8646         calculate D2E/DX2 analytically  !
 ! D131  D(33,32,45,67)       -142.2778         calculate D2E/DX2 analytically  !
 ! D132  D(36,32,45,67)         99.6462         calculate D2E/DX2 analytically  !
 ! D133  D(39,32,45,67)        -22.2989         calculate D2E/DX2 analytically  !
 ! D134  D(32,33,34,37)       -167.074          calculate D2E/DX2 analytically  !
 ! D135  D(32,33,34,42)         33.4625         calculate D2E/DX2 analytically  !
 ! D136  D(32,33,34,53)        -72.2056         calculate D2E/DX2 analytically  !
 ! D137  D(38,33,34,37)         75.6841         calculate D2E/DX2 analytically  !
 ! D138  D(38,33,34,42)        -83.7794         calculate D2E/DX2 analytically  !
 ! D139  D(38,33,34,53)        170.5525         calculate D2E/DX2 analytically  !
 ! D140  D(44,33,34,37)        -38.6667         calculate D2E/DX2 analytically  !
 ! D141  D(44,33,34,42)        161.8698         calculate D2E/DX2 analytically  !
 ! D142  D(44,33,34,53)         56.2017         calculate D2E/DX2 analytically  !
 ! D143  D(32,33,44,63)        -74.3868         calculate D2E/DX2 analytically  !
 ! D144  D(34,33,44,63)        159.2888         calculate D2E/DX2 analytically  !
 ! D145  D(38,33,44,63)         48.3451         calculate D2E/DX2 analytically  !
 ! D146  D(33,34,37,10)       -142.0103         calculate D2E/DX2 analytically  !
 ! D147  D(33,34,37,19)        -53.3311         calculate D2E/DX2 analytically  !
 ! D148  D(33,34,37,52)         84.1094         calculate D2E/DX2 analytically  !
 ! D149  D(33,34,37,83)          7.8951         calculate D2E/DX2 analytically  !
 ! D150  D(42,34,37,10)         19.2408         calculate D2E/DX2 analytically  !
 ! D151  D(42,34,37,19)        107.92           calculate D2E/DX2 analytically  !
 ! D152  D(42,34,37,52)       -114.6396         calculate D2E/DX2 analytically  !
 ! D153  D(42,34,37,83)        169.1461         calculate D2E/DX2 analytically  !
 ! D154  D(53,34,37,10)        119.4301         calculate D2E/DX2 analytically  !
 ! D155  D(53,34,37,19)       -151.8907         calculate D2E/DX2 analytically  !
 ! D156  D(53,34,37,52)        -14.4503         calculate D2E/DX2 analytically  !
 ! D157  D(53,34,37,83)        -90.6646         calculate D2E/DX2 analytically  !
 ! D158  D(33,34,42,35)        -29.9638         calculate D2E/DX2 analytically  !
 ! D159  D(33,34,42,60)       -148.1532         calculate D2E/DX2 analytically  !
 ! D160  D(37,34,42,35)        169.3487         calculate D2E/DX2 analytically  !
 ! D161  D(37,34,42,60)         51.1593         calculate D2E/DX2 analytically  !
 ! D162  D(53,34,42,35)         74.6559         calculate D2E/DX2 analytically  !
 ! D163  D(53,34,42,60)        -43.5335         calculate D2E/DX2 analytically  !
 ! D164  D(33,34,53,51)       -121.1342         calculate D2E/DX2 analytically  !
 ! D165  D(37,34,53,51)         -0.4394         calculate D2E/DX2 analytically  !
 ! D166  D(42,34,53,51)        113.7282         calculate D2E/DX2 analytically  !
 ! D167  D(40,35,36,32)         61.2744         calculate D2E/DX2 analytically  !
 ! D168  D(40,35,36,41)       -179.1369         calculate D2E/DX2 analytically  !
 ! D169  D(40,35,36,46)        -59.1095         calculate D2E/DX2 analytically  !
 ! D170  D(42,35,36,32)        -53.8546         calculate D2E/DX2 analytically  !
 ! D171  D(42,35,36,41)         65.7341         calculate D2E/DX2 analytically  !
 ! D172  D(42,35,36,46)       -174.2385         calculate D2E/DX2 analytically  !
 ! D173  D(47,35,36,32)       -174.2035         calculate D2E/DX2 analytically  !
 ! D174  D(47,35,36,41)        -54.6148         calculate D2E/DX2 analytically  !
 ! D175  D(47,35,36,46)         65.4127         calculate D2E/DX2 analytically  !
 ! D176  D(36,35,42,34)         39.0404         calculate D2E/DX2 analytically  !
 ! D177  D(36,35,42,60)        153.1013         calculate D2E/DX2 analytically  !
 ! D178  D(40,35,42,34)        -79.1761         calculate D2E/DX2 analytically  !
 ! D179  D(40,35,42,60)         34.8848         calculate D2E/DX2 analytically  !
 ! D180  D(47,35,42,34)        165.1148         calculate D2E/DX2 analytically  !
 ! D181  D(47,35,42,60)        -80.8243         calculate D2E/DX2 analytically  !
 ! D182  D(36,35,47,48)        -67.3878         calculate D2E/DX2 analytically  !
 ! D183  D(36,35,47,49)        175.2239         calculate D2E/DX2 analytically  !
 ! D184  D(36,35,47,50)         53.8333         calculate D2E/DX2 analytically  !
 ! D185  D(40,35,47,48)         57.3163         calculate D2E/DX2 analytically  !
 ! D186  D(40,35,47,49)        -60.072          calculate D2E/DX2 analytically  !
 ! D187  D(40,35,47,50)        178.5375         calculate D2E/DX2 analytically  !
 ! D188  D(42,35,47,48)        169.8411         calculate D2E/DX2 analytically  !
 ! D189  D(42,35,47,49)         52.4529         calculate D2E/DX2 analytically  !
 ! D190  D(42,35,47,50)        -68.9377         calculate D2E/DX2 analytically  !
 ! D191  D(32,36,46,71)        124.1412         calculate D2E/DX2 analytically  !
 ! D192  D(35,36,46,71)       -114.9994         calculate D2E/DX2 analytically  !
 ! D193  D(41,36,46,71)          4.0733         calculate D2E/DX2 analytically  !
 ! D194  D(10,37,52,51)       -114.9576         calculate D2E/DX2 analytically  !
 ! D195  D(19,37,52,51)        157.7615         calculate D2E/DX2 analytically  !
 ! D196  D(34,37,52,51)         27.708          calculate D2E/DX2 analytically  !
 ! D197  D(10,37,83,11)          0.3692         calculate D2E/DX2 analytically  !
 ! D198  D(10,37,83,84)        115.0384         calculate D2E/DX2 analytically  !
 ! D199  D(34,37,83,11)       -154.0645         calculate D2E/DX2 analytically  !
 ! D200  D(34,37,83,84)        -39.3953         calculate D2E/DX2 analytically  !
 ! D201  D(34,42,60,56)          5.6299         calculate D2E/DX2 analytically  !
 ! D202  D(35,42,60,56)       -120.776          calculate D2E/DX2 analytically  !
 ! D203  D(33,44,63,64)        -39.7546         calculate D2E/DX2 analytically  !
 ! D204  D(33,44,63,65)         81.932          calculate D2E/DX2 analytically  !
 ! D205  D(33,44,63,66)       -158.2403         calculate D2E/DX2 analytically  !
 ! D206  D(32,45,67,68)        -59.2009         calculate D2E/DX2 analytically  !
 ! D207  D(32,45,67,69)         62.8518         calculate D2E/DX2 analytically  !
 ! D208  D(32,45,67,70)       -178.6743         calculate D2E/DX2 analytically  !
 ! D209  D(36,46,71,72)        -64.643          calculate D2E/DX2 analytically  !
 ! D210  D(36,46,71,73)         57.1098         calculate D2E/DX2 analytically  !
 ! D211  D(36,46,71,74)        176.4239         calculate D2E/DX2 analytically  !
 ! D212  D(35,47,50,75)        175.2049         calculate D2E/DX2 analytically  !
 ! D213  D(48,47,50,75)        -65.593          calculate D2E/DX2 analytically  !
 ! D214  D(49,47,50,75)         54.903          calculate D2E/DX2 analytically  !
 ! D215  D(47,50,75,76)       -179.9088         calculate D2E/DX2 analytically  !
 ! D216  D(47,50,75,77)        -60.7604         calculate D2E/DX2 analytically  !
 ! D217  D(47,50,75,78)         60.747          calculate D2E/DX2 analytically  !
 ! D218  D(43,51,52,37)       -152.1437         calculate D2E/DX2 analytically  !
 ! D219  D(43,51,52,83)       -102.35           calculate D2E/DX2 analytically  !
 ! D220  D(53,51,52,37)        -21.0126         calculate D2E/DX2 analytically  !
 ! D221  D(53,51,52,83)         28.781          calculate D2E/DX2 analytically  !
 ! D222  D(54,51,52,37)         90.8417         calculate D2E/DX2 analytically  !
 ! D223  D(54,51,52,83)        140.6353         calculate D2E/DX2 analytically  !
 ! D224  D(43,51,53,34)        152.2244         calculate D2E/DX2 analytically  !
 ! D225  D(52,51,53,34)         20.1545         calculate D2E/DX2 analytically  !
 ! D226  D(54,51,53,34)        -92.2053         calculate D2E/DX2 analytically  !
 ! D227  D(43,51,54,55)        -30.0022         calculate D2E/DX2 analytically  !
 ! D228  D(43,51,54,56)        151.8601         calculate D2E/DX2 analytically  !
 ! D229  D(52,51,54,55)         92.3991         calculate D2E/DX2 analytically  !
 ! D230  D(52,51,54,56)        -85.7386         calculate D2E/DX2 analytically  !
 ! D231  D(53,51,54,55)       -149.8413         calculate D2E/DX2 analytically  !
 ! D232  D(53,51,54,56)         32.021          calculate D2E/DX2 analytically  !
 ! D233  D(51,52,83,11)       -145.4585         calculate D2E/DX2 analytically  !
 ! D234  D(51,52,83,19)        -72.7344         calculate D2E/DX2 analytically  !
 ! D235  D(51,52,83,84)         91.0354         calculate D2E/DX2 analytically  !
 ! D236  D(51,54,55,57)       -177.8068         calculate D2E/DX2 analytically  !
 ! D237  D(51,54,55,58)          2.9584         calculate D2E/DX2 analytically  !
 ! D238  D(56,54,55,57)          0.2928         calculate D2E/DX2 analytically  !
 ! D239  D(56,54,55,58)       -178.942          calculate D2E/DX2 analytically  !
 ! D240  D(51,54,56,59)        178.5689         calculate D2E/DX2 analytically  !
 ! D241  D(51,54,56,60)         -1.4747         calculate D2E/DX2 analytically  !
 ! D242  D(55,54,56,59)          0.4615         calculate D2E/DX2 analytically  !
 ! D243  D(55,54,56,60)       -179.5821         calculate D2E/DX2 analytically  !
 ! D244  D(54,55,57,61)         -0.7996         calculate D2E/DX2 analytically  !
 ! D245  D(54,55,57,93)        175.9989         calculate D2E/DX2 analytically  !
 ! D246  D(58,55,57,61)        178.4288         calculate D2E/DX2 analytically  !
 ! D247  D(58,55,57,93)         -4.7727         calculate D2E/DX2 analytically  !
 ! D248  D(54,56,59,61)         -0.7247         calculate D2E/DX2 analytically  !
 ! D249  D(54,56,59,97)        175.0983         calculate D2E/DX2 analytically  !
 ! D250  D(60,56,59,61)        179.3187         calculate D2E/DX2 analytically  !
 ! D251  D(60,56,59,97)         -4.8583         calculate D2E/DX2 analytically  !
 ! D252  D(54,56,60,42)         13.4252         calculate D2E/DX2 analytically  !
 ! D253  D(59,56,60,42)       -166.6189         calculate D2E/DX2 analytically  !
 ! D254  D(55,57,61,59)          0.5433         calculate D2E/DX2 analytically  !
 ! D255  D(55,57,61,62)       -179.3377         calculate D2E/DX2 analytically  !
 ! D256  D(93,57,61,59)       -176.2576         calculate D2E/DX2 analytically  !
 ! D257  D(93,57,61,62)          3.8613         calculate D2E/DX2 analytically  !
 ! D258  D(55,57,93,94)        -88.5031         calculate D2E/DX2 analytically  !
 ! D259  D(55,57,93,95)        152.1681         calculate D2E/DX2 analytically  !
 ! D260  D(55,57,93,96)         30.9593         calculate D2E/DX2 analytically  !
 ! D261  D(61,57,93,94)         88.3342         calculate D2E/DX2 analytically  !
 ! D262  D(61,57,93,95)        -30.9946         calculate D2E/DX2 analytically  !
 ! D263  D(61,57,93,96)       -152.2034         calculate D2E/DX2 analytically  !
 ! D264  D(56,59,61,57)          0.2288         calculate D2E/DX2 analytically  !
 ! D265  D(56,59,61,62)       -179.8904         calculate D2E/DX2 analytically  !
 ! D266  D(97,59,61,57)       -175.5287         calculate D2E/DX2 analytically  !
 ! D267  D(97,59,61,62)          4.3521         calculate D2E/DX2 analytically  !
 ! D268  D(56,59,97,98)         37.0825         calculate D2E/DX2 analytically  !
 ! D269  D(56,59,97,99)        -81.7478         calculate D2E/DX2 analytically  !
 ! D270  D(56,59,97,100)       158.2174         calculate D2E/DX2 analytically  !
 ! D271  D(61,59,97,98)       -147.0831         calculate D2E/DX2 analytically  !
 ! D272  D(61,59,97,99)         94.0866         calculate D2E/DX2 analytically  !
 ! D273  D(61,59,97,100)       -25.9482         calculate D2E/DX2 analytically  !
 ! D274  D(11,83,84,85)        -94.8658         calculate D2E/DX2 analytically  !
 ! D275  D(11,83,84,89)         77.3763         calculate D2E/DX2 analytically  !
 ! D276  D(19,83,84,85)       -170.9668         calculate D2E/DX2 analytically  !
 ! D277  D(19,83,84,89)          1.2753         calculate D2E/DX2 analytically  !
 ! D278  D(37,83,84,85)        156.7848         calculate D2E/DX2 analytically  !
 ! D279  D(37,83,84,89)        -30.9731         calculate D2E/DX2 analytically  !
 ! D280  D(52,83,84,85)         24.2835         calculate D2E/DX2 analytically  !
 ! D281  D(52,83,84,89)       -163.4744         calculate D2E/DX2 analytically  !
 ! D282  D(83,84,85,86)       -127.1168         calculate D2E/DX2 analytically  !
 ! D283  D(83,84,85,87)         -7.7844         calculate D2E/DX2 analytically  !
 ! D284  D(83,84,85,88)        111.6511         calculate D2E/DX2 analytically  !
 ! D285  D(89,84,85,86)         60.6966         calculate D2E/DX2 analytically  !
 ! D286  D(89,84,85,87)       -179.971          calculate D2E/DX2 analytically  !
 ! D287  D(89,84,85,88)        -60.5355         calculate D2E/DX2 analytically  !
 ! D288  D(83,84,89,90)       -113.0984         calculate D2E/DX2 analytically  !
 ! D289  D(83,84,89,91)          6.5354         calculate D2E/DX2 analytically  !
 ! D290  D(83,84,89,92)        126.0399         calculate D2E/DX2 analytically  !
 ! D291  D(85,84,89,90)         60.9582         calculate D2E/DX2 analytically  !
 ! D292  D(85,84,89,91)       -179.408          calculate D2E/DX2 analytically  !
 ! D293  D(85,84,89,92)        -59.9036         calculate D2E/DX2 analytically  !
 ! D294  D(84,89,91,18)        -85.3864         calculate D2E/DX2 analytically  !
 ! D295  D(90,89,91,18)         34.2773         calculate D2E/DX2 analytically  !
 ! D296  D(92,89,91,18)        155.1175         calculate D2E/DX2 analytically  !
 --------------------------------------------------------------------------------
 Trust Radius=1.00D-02 FncErr=1.00D-07 GrdErr=1.00D-06 EigMax=2.50D+02 EigMin=1.00D-04
 Number of steps in this run=    600 maximum allowed number of steps=    600.
 Search for a saddle point of order  1.
 GradGradGradGradGradGradGradGradGradGradGradGradGradGradGradGradGradGrad

 Leave Link  103 at Fri Jun  7 18:19:58 2019, MaxMem=  6442450944 cpu:               5.2 elap:               0.2
 (Enter /home/ekwan/sw/g16/l202.exe)
 Stoichiometry    C30H47F6NaO15S
 Framework group  C1[X(C30H47F6NaO15S)]
 Deg. of freedom   294
 Full point group                 C1      NOp   1
 Largest Abelian subgroup         C1      NOp   1
 Largest concise Abelian subgroup C1      NOp   1
                         Standard orientation:                         
 ---------------------------------------------------------------------
 Center     Atomic      Atomic             Coordinates (Angstroms)
 Number     Number       Type             X           Y           Z
 ---------------------------------------------------------------------
      1          6           0       -1.854532    1.483709    2.220862
      2          6           0       -2.151228    2.337929    0.971237
      3          6           0       -1.277227    3.608696    0.956560
      4          6           0        0.475694    2.521141    2.256742
      5          6           0       -0.341345    1.211636    2.327816
      6          1           0       -1.372671    4.136364   -0.010968
      7          1           0       -1.878736    1.760176    0.071642
      8          1           0       -2.195774    2.035292    3.115387
      9          1           0        0.210690    3.141136    3.131931
     10          1           0       -0.064034    0.554350    1.489101
     11          8           0        0.118087    3.259169    1.036546
     12          8           0       -1.681338    4.448145    2.021724
     13          8           0       -3.529669    2.740826    0.912470
     14          8           0       -2.592131    0.249584    2.094126
     15          8           0       -0.060967    0.551036    3.582539
     16          6           0        2.010490    2.322661    2.217886
     17          1           0        2.271141    1.821878    3.182785
     18          1           0        2.443150    3.355125    2.296301
     19          8           0        2.478746    1.656101    1.091891
     20          6           0       -4.332682    1.897058    0.069829
     21          1           0       -3.970511    1.908125   -0.976331
     22          1           0       -4.342394    0.856754    0.430505
     23          1           0       -5.352596    2.309417    0.096719
     24          6           0       -3.118502   -0.240565    3.338830
     25          1           0       -2.312902   -0.464413    4.056958
     26          1           0       -3.813620    0.493063    3.792229
     27          1           0       -3.668981   -1.160127    3.099193
     28          6           0        0.791487   -0.602138    3.435751
     29          1           0        0.279186   -1.401772    2.876354
     30          1           0        1.730975   -0.355023    2.915098
     31          1           0        1.015956   -0.954219    4.454056
     32          6           0        3.904562   -1.500780   -1.301195
     33          6           0        3.239084   -0.185842   -0.840044
     34          6           0        1.858558   -0.413974   -0.280149
     35          6           0        2.199910   -2.790743    0.073765
     36          6           0        3.697905   -2.566214   -0.200217
     37          1           0        1.193758    0.419251   -0.112225
     38          1           0        3.800778    0.220242    0.027594
     39          1           0        3.440046   -1.834172   -2.245587
     40          1           0        1.704491   -3.156523   -0.838970
     41          1           0        4.186892   -2.215352    0.722903
     42          8           0        1.526270   -1.495708    0.381008
     43          8           0       -0.530075    0.285881   -3.937636
     44          8           0        3.141173    0.843919   -1.833486
     45          8           0        5.307122   -1.255002   -1.476192
     46          8           0        4.247626   -3.824792   -0.619162
     47          6           0        1.871928   -3.717375    1.233970
     48          1           0        2.195659   -4.740825    0.960608
     49          1           0        0.775767   -3.734203    1.389134
     50          8           0        2.548312   -3.250625    2.403514
     51         16           0       -0.284803    0.115398   -2.473664
     52          8           0       -0.181578    1.409132   -1.685859
     53          8           0        0.875072   -0.848501   -2.163311
     54          6           0       -1.745937   -0.727008   -1.784035
     55          6           0       -3.001770   -0.529985   -2.374574
     56          6           0       -1.597652   -1.530128   -0.646903
     57          6           0       -4.126057   -1.149685   -1.802862
     58          1           0       -3.095217    0.084879   -3.269866
     59          6           0       -2.727608   -2.154780   -0.097548
     60          1           0       -0.619840   -1.671362   -0.192057
     61          6           0       -3.995909   -1.968326   -0.667394
     62          1           0       -4.871117   -2.453684   -0.236806
     63          6           0        4.395628    1.509205   -2.127757
     64          1           0        4.978939    1.672319   -1.206564
     65          1           0        4.996588    0.923537   -2.839085
     66          1           0        4.123760    2.479989   -2.564074
     67          6           0        5.879326   -1.947389   -2.604143
     68          1           0        5.754579   -3.038051   -2.511191
     69          1           0        5.422170   -1.606161   -3.552792
     70          1           0        6.949249   -1.693072   -2.606888
     71          6           0        5.220356   -4.355949    0.306728
     72          1           0        6.107559   -3.700306    0.364279
     73          1           0        4.787926   -4.473242    1.316148
     74          1           0        5.514031   -5.339017   -0.087862
     75          6           0        2.193767   -4.018207    3.564637
[...]
 0005550,-0.00010142,0.00017092,0.00000169,-0.00010595,0.00005935,0.000
 00550,-0.00014055,0.00006702,-0.00000974,-0.00011476,-0.00083168,-0.00
 040534,0.00005819,0.00022348,0.00001961,0.00324881,0.00099328,-0.00126
 954,-0.00086703,-0.00090597,-0.00000138,-0.00150279,0.00026566,-0.0000
 9862,-0.00016948,0.00075508,0.00183493,0.00040483,-0.00068637,0.000378
 43,0.00291982,0.00047589,-0.00009429,0.00031800,0.00040665,0.00269244,
 0.00007282,-0.00016684,-0.00014788,0.01544130,-0.04015547,-0.00020630,
 0.00018255,-0.00059669,-0.00070540,-0.00393526,-0.00227948,-0.00020147
 ,0.00026089,-0.00064757,-0.00081570,0.00011240,0.00005896,-0.00004348,
 -0.00001753,-0.00000594,-0.00000641,-0.00002924,-0.00000152,0.00001777
 ,-0.00000400,-0.00000848,0.00000815,0.00002970,-0.00005206,-0.00006669
 ,-0.00000590,0.00001795,0.00000688,-0.00000046,0.00000035,0.00000862,-
 0.00000944,0.00000508,0.00000994,0.00003395,-0.00003572,0.00005273,0.0
 0000075,0.00000891,-0.00000898,-0.00000267,-0.00000758,-0.00001722,-0.
 00002294,0.00001513,-0.00000002,0.00003669,-0.00009082,0.00005422,0.00
 002067,0.00001569,0.00000394,-0.00000032,-0.00006038,0.00000755,-0.000
 05647,0.00004682,0.00000212,0.00006500,0.00014942,-0.00001631,-0.00000
 078,-0.00003069,-0.00001368,-0.00002332,-0.00001174,0.00000471,-0.0000
 0865,-0.00002274,0.00001768,0.00019853,0.00017794,-0.00001290,-0.00004
 389,-0.00004488,0.00000427,0.00001426,0.00003955,-0.00002671,-0.000012
 03,-0.00000562,0.00000731,0.00000262,0.00000345,-0.00000322,-0.0000003
 0,-0.00000918,-0.00000123,0.00002267,-0.00000096,0.00000991,-0.0000013
 6,-0.00000851,-0.00000069,0.00004133,0.00002644,-0.00000517,-0.0000146
 2,-0.00000731,0.00000987,-0.00294443,0.00029811,-0.00082034,0.00081628
 ,-0.00047700,0.00002321,0.00088454,0.00032688,0.00016987,0.00074854,-0
 .00027825,0.00091956,0.03852638,-0.19918965,-0.02504099,-0.01774830,-0
 .03593431,-0.03758524,-0.06318228,0.28139667,0.00023682,0.00033809,-0.
 00000368,-0.00010381,0.00000216,-0.00016370,-0.00000161,0.00001034,0.0
 0001414,-0.00001721,0.00010474,-0.00005907,-0.00004148,0.00012180,-0.0
 0018166,-0.00000649,-0.00003188,0.00001135,-0.00000152,-0.00001482,0.0
 0000736,-0.00002866,-0.00005628,-0.00000694,-0.00001249,-0.00000789,0.
 00000814,0.00001461,0.00002320,-0.00001703,0.00001787,-0.00006213,0.00
 009088,0.00000290,-0.00002021,0.00002336,0.00013620,0.00006271,0.00016
 581,0.00005526,-0.00067203,0.00008937,0.00003440,-0.00035046,0.0000892
 9,0.00007757,-0.00002822,-0.00011835,0.00001162,0.00000220,0.00004410,
 -0.00002535,0.00000721,0.00003356,-0.00005623,0.00003143,0.00013599,-0
 .00004368,-0.00010840,-0.00015775,-0.00001829,-0.00004450,0.00008356,-
 0.00000190,0.00000823,-0.00007437,-0.00000596,0.00001968,0.00001882,0.
 00023339,0.00048309,0.00001730,0.00001012,0.00000484,0.00009434,-0.000
 02853,-0.00020019,-0.00000084,-0.00034705,0.00015254,0.00024571,0.0000
 3297,0.00056299,0.00030908,0.00017969,-0.00017125,-0.00006619,-0.00009
 302,-0.00010333,-0.00008619,-0.00004079,-0.00005530,-0.00006077,-0.000
 03563,0.00000928,-0.00003143,0.00001218,0.00001185,0.00000237,-0.00021
 385,-0.00002270,-0.00040727,-0.00007682,0.00002993,-0.00015238,0.00001
 551,-0.00001949,0.00001927,0.00000231,-0.00001127,-0.00001990,0.000009
 13,-0.00000631,-0.00001229,-0.00000741,0.00000490,0.00001732,-0.000023
 38,0.00000226,0.00003747,0.00001931,0.00000642,0.00000049,0.00007866,-
 0.00009910,0.00018725,0.00026479,0.00015838,-0.00019852,0.00003067,0.0
 0000080,0.00002094,0.00000583,-0.00000328,0.00002732,0.00001150,-0.000
 01060,0.00002729,0.00033898,0.00003011,-0.00005521,-0.00009157,0.00002
 610,0.00002671,0.00000370,-0.00017841,-0.00021155,-0.00012392,0.000014
 80,0.00006552,-0.00109639,-0.00047928,0.00025296,0.00027145,0.00035852
 ,0.00009371,0.00058593,-0.00001291,0.00016493,-0.00006047,-0.00068699,
 -0.00032234,-0.00021785,0.00035903,-0.00036783,-0.00090218,0.00018096,
 -0.00000965,0.00031345,-0.00048085,-0.00084702,-0.00002776,0.00003148,
 0.00007479,-0.00490733,0.01721716,0.00820331,-0.00000321,0.00028448,-0
 .00003868,0.00121844,0.00067200,0.00044286,-0.00027058,0.00025699,0.00
 004054,-0.00001673,-0.00001491,0.00000511,0.00000690,0.00000257,0.0000
 0400,0.00000142,0.00000132,-0.00000128,-0.00000088,-0.00000130,-0.0000
 0251,-0.00000348,-0.00000530,-0.00001363,-0.00000173,0.00000210,-0.000
 00195,0.00000077,-0.00000344,0.00000596,0.00000330,0.00000158,0.000001
 19,-0.00000685,0.00000666,-0.00002724,0.00000227,0.00000135,0.00000316
 ,0.00000699,-0.00000813,0.00000922,-0.00000317,0.00000206,0.00000265,0
 .00015614,-0.00002738,-0.00003416,-0.00001552,-0.00000147,0.00000177,-
 0.00004992,-0.00001148,0.00002995,-0.00002580,0.00001964,0.00000595,0.
 00000448,0.00002073,-0.00000493,-0.00000071,0.00000014,-0.00000041,-0.
 00000047,-0.00000028,-0.00000092,0.00000016,-0.00000578,0.00000612,-0.
 00003965,-0.00004978,-0.00006439,0.00000885,0.00000495,0.00001653,-0.0
 0000214,-0.00000229,-0.00000448,-0.00000051,-0.00000045,-0.00000002,0.
 00000183,-0.00000248,0.00000151,0.00000019,0.00000229,0.00000208,-0.00
 000821,0.00000113,-0.00001155,0.00000173,0.00000486,0.00000206,-0.0000
 0220,-0.00000449,-0.00000091,0.00000115,0.00000005,0.00000169,0.000978
 08,-0.00027986,0.00018321,-0.00028210,0.00020453,0.00002312,-0.0002785
 2,-0.00005534,-0.00002443,-0.00023218,0.00011099,-0.00019150,0.0072623
 9,-0.02403175,-0.06963117,-0.01051017,-0.04546179,-0.01839534,-0.02289
 268,0.08064974,0.09259185,-0.00017553,-0.00011692,-0.00002683,-0.00002
 483,0.00009245,0.00005743,-0.00015251,0.00011523,0.00000979,0.00005984
 ,0.00006909,-0.00006081,-0.00013195,0.00032533,-0.00004475,0.00001898,
 0.00000206,0.00000298,0.00002970,0.00000817,-0.00003980,0.00002099,-0.
 00003535,-0.00003360,-0.00000104,-0.00004088,-0.00001637,0.00006928,-0
 .00000020,-0.00006543,0.00008737,-0.00012990,0.00003795,0.00004294,-0.
 00008697,-0.00005074,0.00012263,-0.00004228,-0.00005070,0.00069814,0.0
 0010611,-0.00037835,0.00032606,-0.00058611,-0.00005899,-0.00007726,0.0
 0008287,0.00016465,0.00002782,0.00000807,-0.00002503,-0.00000129,-0.00
 008558,-0.00004082,-0.00001552,-0.00019634,-0.00012536,-0.00007046,-0.
 00002549,0.00005242,0.00002737,0.00006199,-0.00007364,-0.00002161,0.00
 000672,0.00006979,0.00002946,-0.00002661,-0.00000139,-0.00109794,-0.00
 101185,0.00052163,0.00015168,0.00027722,0.00016725,0.00015113,0.000197
 94,0.00003877,0.00021304,-0.00068600,-0.00084801,0.00000597,0.00106320
 ,0.00053007,0.00015347,-0.00023022,0.00002243,-0.00008377,-0.00014410,
 -0.00012236,-0.00009209,-0.00011536,-0.00013844,0.00008047,0.00003293,
 -0.00007600,-0.00002388,0.00005465,-0.00002179,0.00030344,0.00065003,-
 0.00011728,0.00008057,0.00002635,-0.00017731,0.00016718,-0.00011475,0.
 00002480,-0.00000067,0.00002948,-0.00000044,0.00000716,0.00000520,0.00
 002869,0.00000319,-0.00000294,-0.00000462,0.00003193,-0.00001603,-0.00
 003352,-0.00001317,0.00000665,-0.00000606,-0.00032503,-0.00047895,0.00
 029122,-0.00022468,-0.00021107,0.00047730,-0.00012043,-0.00011403,0.00
 007295,-0.00016867,-0.00001489,0.00009744,-0.00016943,0.00008429,0.000
 00381,0.00099684,0.00020513,0.00017919,-0.00021758,0.00003245,0.000042
 45,-0.00001110,-0.00035359,0.00003520,-0.00040878,0.00002652,-0.000399
 04,0.00104251,0.00065523,-0.00040241,-0.00025006,-0.00048377,-0.000087
 24,-0.00039453,-0.00010353,0.00007444,-0.00069790,-0.00031101,-0.00021
 310,0.00030407,0.00009598,0.00000467,0.00185063,-0.00096309,0.00220315
 ,0.00121179,-0.00069183,0.00068933,0.00016736,0.00009918,0.00000695,-0
 .00938389,-0.00332889,0.01221047,0.00053786,0.00052929,-0.00042779,-0.
 00342535,0.00027094,-0.00304444,0.00226627,0.00085859,0.00012792,0.000
 09825,0.00005887,-0.00002028,-0.00001261,-0.00000009,-0.00000677,-0.00
 001980,-0.00000016,0.00000772,-0.00000741,-0.00001328,0.00001041,0.000
 03998,-0.00004389,-0.00007799,0.00000775,0.00000842,0.00000173,0.00000
 123,0.00000434,0.00001491,-0.00001830,0.00000153,0.00001033,0.00010931
 ,-0.00004282,0.00006446,-0.00002625,-0.00000731,-0.00000925,0.00001545
 ,-0.00001382,0.00000035,-0.00001300,0.00001631,0.00000009,0.00012039,-
 0.00021903,0.00021789,-0.00003669,0.00000331,-0.00004445,-0.00002437,0
 .00000961,0.00004107,-0.00001809,0.00006530,-0.00001274,0.00000297,0.0
 0003707,-0.00000289,0.00000151,-0.00000974,-0.00000533,0.00000074,0.00
 000069,0.00000377,-0.00000229,-0.00000455,0.00000415,0.00004401,0.0001
 4183,-0.00001564,-0.00000948,-0.00004140,0.00000601,0.00000228,0.00003
 321,-0.00001858,-0.00000387,-0.00000437,0.00000405,0.00000150,0.000001
 59,0.00000240,-0.00000133,-0.00000966,-0.00000214,0.00000086,0.0000057
 1,0.00000013,-0.00000009,-0.00001025,0.00000029,0.00003166,0.00002397,
 -0.00000317,-0.00000424,-0.00000448,0.00000516,-0.00103259,-0.00012322
 ,0.00012367,0.00033497,-0.00017589,-0.00007263,0.00034626,0.00018906,-
 0.00005479,0.00021924,-0.00004098,0.00009050,-0.15565883,-0.02577272,0
 .07604094,-0.06693286,-0.02098537,-0.00043483,-0.02847907,0.02687400,0
 .03064411,0.25741662,0.00016198,0.00030468,0.00009138,-0.00009634,0.00
 003898,0.00003266,0.00003998,0.00015826,0.00006259,-0.00000901,0.00008
 510,-0.00000470,0.00001809,0.00001377,0.00008533,-0.00000816,-0.000030
 19,0.00000450,0.00006376,0.00001221,-0.00004106,-0.00001030,-0.0000309
 9,-0.00002798,0.00000029,-0.00002386,-0.00001516,0.00003858,-0.0000046
 5,-0.00002217,-0.00002726,-0.00008268,-0.00002383,-0.00001828,-0.00014
 684,-0.00004731,0.00001109,-0.00012986,-0.00006651,-0.00004441,-0.0003
 3123,-0.00015440,-0.00010273,-0.00004945,-0.00007345,0.00000024,0.0000
 0090,0.00009594,0.00000488,0.00000838,-0.00002928,-0.00002224,-0.00005
 070,-0.00002262,-0.00006214,-0.00007705,-0.00007443,-0.00002781,0.0001
 7048,0.00001353,0.00001154,0.00004964,-0.00004366,-0.00004507,-0.00002
 284,0.00004787,0.00003692,-0.00004416,-0.00000760,0.00103987,0.0004358
 0,-0.00051995,-0.00012268,-0.00018286,-0.00008120,-0.00023028,-0.00042
 970,-0.00015284,-0.00105803,-0.00268094,-0.00071182,0.00010006,0.00007
 924,0.00010220,0.00001473,-0.00001936,0.00002334,-0.00002583,-0.000013
 08,-0.00000942,-0.00003131,-0.00001172,-0.00005151,0.00006573,-0.00002
 863,-0.00001991,-0.00000481,0.00000491,-0.00003584,0.00028064,0.000181
 51,0.00029047,0.00010350,-0.00022470,-0.00002315,0.00005551,-0.0000301
 1,0.00001195,0.00002058,0.00002396,-0.00000252,-0.00000851,-0.00000273
 ,0.00002001,0.00000533,-0.00000507,-0.00000717,0.00000424,-0.00001200,
 0.00000700,-0.00000298,0.00000230,0.00000067,-0.00023117,0.00005788,-0
 .00004699,-0.00038446,-0.00017925,0.00056338,-0.00009675,-0.00003284,0
 .00002921,-0.00007634,0.00002375,0.00003334,-0.00007017,0.00008007,-0.
 00000551,0.00008474,0.00005127,0.00005969,-0.00006813,0.00002339,-0.00
 000269,-0.00007394,-0.00024900,-0.00009978,-0.00003314,0.00007342,-0.0
 0009530,0.00186655,0.00040614,-0.00059523,-0.00052403,-0.00055727,-0.0
 0007618,-0.00075770,0.00010630,-0.00007103,-0.00061364,-0.00142553,0.0
 0033297,-0.00041925,-0.00030863,0.00037556,0.00214190,-0.00013393,0.00
 315653,-0.00003752,-0.00008793,-0.00000464,0.00001656,0.00003858,0.000
 02739,-0.01992153,0.00171874,0.01726967,0.00014676,0.00042887,-0.00008
 273,-0.00057601,-0.00069964,0.00070093,0.00009726,-0.00046454,0.000999
 96,0.00006440,0.00003676,-0.00002211,-0.00001047,-0.00000299,-0.000004
 38,-0.00001520,-0.00000082,0.00000857,-0.00000244,-0.00000546,0.000005
 36,0.00001929,-0.00002660,-0.00003683,-0.00000043,0.00000790,0.0000033
 4,-0.00000012,0.00000161,0.00000478,-0.00000765,0.00000184,0.00000544,
 0.00003433,-0.00002220,0.00003710,-0.00000503,0.00000143,-0.00000557,0
 .00000029,-0.00000337,-0.00000815,-0.00000995,0.00000811,-0.00000067,-
 0.00000934,-0.00006997,0.00007412,0.00000403,0.00000601,-0.00000760,0.
 00000678,-0.00001280,-0.00000024,-0.00001375,0.00002371,-0.00000343,0.
 00003113,0.00007317,-0.00000661,-0.00000027,-0.00001567,-0.00000724,-0
 .00001104,-0.00000580,0.00000278,-0.00000482,-0.00001125,0.00000824,0.
 00010140,0.00010651,0.00000006,-0.00002146,-0.00002609,0.00000003,0.00
 000649,0.00002227,-0.00001362,-0.00000553,-0.00000297,0.00000378,0.000
 00108,0.00000220,-0.00000118,-0.00000032,-0.00000572,-0.00000119,0.000
 01122,0.00000032,0.00000639,-0.00000079,-0.00000580,-0.00000066,0.0000
 2226,0.00001502,-0.00000242,-0.00000701,-0.00000368,0.00000465,-0.0012
 6608,0.00012660,-0.00047382,0.00038409,-0.00020977,0.00001658,0.000410
 14,0.00014126,0.00007222,0.00026529,-0.00008890,0.00031008,-0.02267980
 ,-0.07367882,0.02248676,-0.02041458,0.00527886,0.00084211,0.03781717,-
 0.00251631,-0.02872166,0.02471735,0.07508678,0.00027231,0.00038976,0.0
 0011581,-0.00011918,-0.00006924,-0.00023463,0.00009088,-0.00009407,0.0
 0000684,-0.00006477,0.00006407,-0.00002929,0.00004310,-0.00009271,-0.0
 0019611,-0.00001927,-0.00003480,0.00001022,-0.00003201,-0.00002636,0.0
 0004649,-0.00002626,0.00000940,0.00003057,-0.00001227,0.00002159,0.000
 02333,-0.00003749,0.00003252,0.00003322,-0.00002526,0.00002997,0.00008
 709,-0.00001793,0.00006054,0.00006653,0.00009112,0.00012573,0.00022314
 ,-0.00052391,-0.00064076,0.00050072,-0.00016295,-0.00002626,0.00015473
 ,0.00013303,-0.00008559,-0.00024967,-0.00000503,-0.00000417,0.00006941
 ,-0.00002373,0.00007080,0.00006596,-0.00003314,0.00016843,0.00024431,-
 0.00001353,-0.00016506,-0.00017620,-0.00003013,-0.00009403,0.00012446,
 0.00000779,0.00000791,-0.00013326,-0.00002631,0.00004380,0.00002255,0.
 00189340,0.00122549,-0.00065771,-0.00013610,-0.00022098,-0.00000876,-0
 .00030365,-0.00057468,-0.00006017,-0.00125862,-0.00082594,-0.00001360,
 0.00005774,-0.00009252,-0.00005693,0.00001524,0.00001031,-0.00000589,-
 0.00003884,-0.00000233,-0.00000205,0.00001730,0.00001452,0.00002994,-0
 .00010089,0.00001150,0.00001558,0.00003038,-0.00000934,0.00003519,-0.0
 0050572,-0.00039510,-0.00055973,-0.00014500,0.00015687,-0.00003930,-0.
 00008630,0.00004624,-0.00000414,-0.00000616,-0.00003749,-0.00002392,0.
 00001246,-0.00000907,-0.00003712,-0.00001128,0.00001027,0.00002170,-0.
 00002597,0.00001835,0.00003420,0.00002220,0.00000103,0.00000282,0.0003
 5331,0.00004948,0.00011597,0.00068954,0.00040308,-0.00090215,0.0001354
 8,0.00006505,-0.00002362,0.00011704,-0.00001075,-0.00003449,0.00011486
 ,-0.00008665,0.00002424,-0.00017019,-0.00001083,-0.00014114,0.00002666
 ,-0.00000376,0.00001281,0.00007812,-0.00006321,-0.00008638,0.00007992,
 -0.00002088,0.00025360,-0.00295170,-0.00099078,0.00055666,0.00073607,0
 .00099297,0.00026719,0.00128435,-0.00008853,0.00021648,0.00201011,0.00
 130666,-0.00044522,0.00017372,0.00037308,-0.00045195,-0.00429628,0.002
 54032,-0.00505156,0.00009021,0.00039514,-0.00015444,-0.00003407,-0.000
 04344,-0.00004431,0.03361102,0.01025311,-0.01730266,-0.00018012,-0.000
 31255,0.00005440,0.00145613,0.00041825,-0.00072885,-0.00015306,0.00066
 540,-0.00210608,-0.00009253,-0.00005983,0.00002717,0.00001844,0.000004
 43,0.00000874,0.00001868,0.00000201,-0.00000925,0.00000332,0.00000732,
 -0.00000988,-0.00003022,0.00002846,0.00004118,-0.00000393,-0.00000625,
 -0.00000420,0.00000021,-0.00000532,-0.00000380,0.00001446,-0.00000052,
 -0.00000633,-0.00006722,0.00003294,-0.00006732,0.00001517,0.00000368,0
 .00000882,-0.00000046,-0.00000007,0.00001151,0.00000770,-0.00000907,0.
 00000318,0.00007730,0.00009095,-0.00013785,0.00000469,-0.00000398,0.00
 002238,-0.00004082,-0.00001037,-0.00000424,-0.00001335,-0.00001784,0.0
 0001193,-0.00000438,-0.00001529,-0.00000218,-0.00000189,0.00000891,0.0
 0000390,0.00000187,0.00000027,-0.00000387,0.00000238,-0.00000134,0.000
 00249,-0.00010971,-0.00017172,-0.00007131,0.00002271,0.00003633,0.0000
 1416,-0.00000605,-0.00002779,0.00001031,0.00000377,0.00000300,-0.00000
 347,0.00000065,-0.00000439,0.00000094,0.00000115,0.00000951,0.00000358
 ,-0.00001372,-0.00000136,-0.00001464,0.00000238,0.00001256,0.00000227,
 -0.00002690,-0.00002287,0.00000155,0.00000620,0.00000375,-0.00000255,0
 .00195276,-0.00036775,0.00053646,-0.00064053,0.00043330,0.00005483,-0.
 00061897,-0.00015894,-0.00008323,-0.00041611,0.00015952,-0.00044888,0.
 06613768,0.02360004,-0.12865768,-0.01112951,-0.00217275,0.02058179,0.0
 3040375,-0.02056578,-0.01200290,-0.11754539,-0.01566346,0.14668154\\-0
 .00000040,0.00000028,-0.00000060,0.00000005,0.00000021,-0.00000172,-0.
 00000019,0.00000039,-0.00000182,-0.00000050,-0.00000020,-0.00000071,-0
 .00000006,0.00000032,-0.00000035,-0.00000013,-0.00000023,-0.00000111,-
 0.00000303,0.00000052,0.00000110,-0.00000067,0.00000056,-0.00000084,-0
 .00000068,0.00000094,-0.00000088,-0.00000110,0.00000070,-0.00000138,0.
 00000034,0.00000031,-0.00000122,-0.00000058,0.00000020,-0.00000148,-0.
 00000059,-0.00000039,-0.00000099,-0.00000058,0.00000058,-0.00000067,-0
 .00000082,0.00000117,0.00000003,-0.00000089,0.00000060,-0.00000012,-0.
 00000086,0.00000082,-0.00000016,0.00000021,0.00000063,-0.00000046,0.00
 000009,0.00000047,-0.00000048,0.00000133,-0.00000270,0.00000082,0.0000
 0006,-0.00000072,-0.00000101,-0.00000025,-0.00000033,-0.00000115,-0.00
 000030,-0.00000028,-0.00000157,0.00000012,0.00000073,-0.00000015,-0.00
 000084,0.00000097,-0.00000055,-0.00000068,0.00000071,-0.00000084,-0.00
 000047,0.00000046,-0.00000039,0.00000003,0.00000088,0.00000074,-0.0000
 0043,0.00000049,0.00000018,-0.00000047,0.00000075,0.00000029,-0.000000
 81,0.00000133,0.00000008,0.00000008,-0.00000029,0.00000112,0.00000009,
 -0.00000013,0.00000020,-0.00000033,-0.00000013,-0.00000017,0.00000070,
 0.00000011,0.00000114,-0.00000003,0.00000009,0.00000139,0.00000130,-0.
 00000046,0.00000142,0.00000011,0.00000002,0.00000062,0.00000064,-0.000
 00048,0.00000115,0.00000024,-0.00000028,0.00000097,0.00000003,0.000000
 18,0.00000117,0.00000021,0.00000052,0.00000043,0.00000059,-0.00000131,
 -0.00000048,0.00000018,-0.00000042,0.00000045,0.00000016,-0.00000027,0
 .00000134,0.00000066,-0.00000025,0.00000191,-0.00000048,0.00000103,0.0
 0000160,0.00000033,-0.00000021,0.00000149,0.00000039,0.00000025,0.0000
 0109,-0.00000034,0.00000045,0.00000164,0.00000031,-0.00000105,0.000000
 85,-0.00000027,-0.00000089,-0.00000083,0.00000050,-0.00000051,0.000000
 30,0.00000144,0.00000132,-0.00000435,0.00000145,-0.00000115,-0.0000004
 0,0.00000058,-0.00000013,-0.00000016,0.00000054,-0.00000082,-0.0000003
 9,0.00000054,-0.00000122,-0.00000054,0.00000061,0.00000001,-0.00000015
 ,0.00000034,-0.00000044,0.00000082,0.00000024,-0.00000037,0.00000010,0
 .00000009,-0.00000047,-0.00000018,0.00000040,-0.00000085,-0.00000022,0
 .00000034,-0.00000005,0.00000038,0.00000032,-0.00000039,0.00000090,0.0
 0000044,-0.00000075,-0.00000004,0.00000097,0.,0.00000121,0.00000060,-0
 .00000102,0.00000185,0.00000065,-0.00000082,0.00000125,0.00000057,-0.0
 0000059,0.00000156,-0.00000077,-0.00000028,0.00000232,0.00000075,0.000
 00079,0.00000203,0.00000031,0.00000061,0.00000166,0.00000038,0.0000001
 4,0.00000229,-0.00000006,0.00000064,0.00000080,-0.00000047,0.00000135,
 0.00000151,-0.00000048,0.00000107,0.00000131,-0.00000034,0.00000141,0.
 00000189,-0.00000055,0.00000066,-0.00000148,-0.00000065,0.00000050,-0.
 00000234,-0.00000055,0.00000047,-0.00000167,-0.00000048,0.00000014,-0.
 00000199,0.00000028,-0.00000049,-0.00000064,0.00000011,-0.00000053,-0.
 00000102,-0.00000019,-0.00000014,-0.00000083,0.00000034,-0.00000051,-0
 .00000102,0.00000030,-0.00000078,-0.00000130,-0.00000011,-0.00000035,-
 0.00000148,-0.00000049,0.00000056,-0.00000012,-0.00000043,0.00000010,-
 0.00000095,-0.00000061,0.00000028,-0.00000040,-0.00000010,0.00000012,-
 0.00000032,-0.00000019,-0.00000147,-0.00000048,0.00000028,-0.00000097,
 -0.00000100,0.00000086,-0.00000091,-0.00000079,0.00000080,-0.00000117,
 -0.00000103,-0.00000049,-0.00000031,0.00000061,-0.00000007,0.00000043,
 0.00000052,0.00000024,-0.00000009,0.00000078,0.00000030,0.00000034,0.0
 0000014\\\@


 IN THE FIGHT BETWEEN YOU AND THE WORLD, BACK THE WORLD

                                        -- FRANZ KAFKA
 Job cpu time:       3 days  3 hours 50 minutes 58.1 seconds.
 Elapsed time:       0 days  2 hours 31 minutes 39.9 seconds.
 File lengths (MBytes):  RWF=   9741 Int=      0 D2E=      0 Chk=     86 Scr=      1
 Normal termination of Gaussian 16 at Fri Jun  7 23:22:14 2019.
