 Entering Gaussian System, Link 0=g16
 Input=clay_new-glu_gluC6-BCDR-Na2_1Me2O-bisCF3-ts-b3lyp-631gd-pcm_thf.gjf
 Output=clay_new-glu_gluC6-BCDR-Na2_1Me2O-bisCF3-ts-b3lyp-631gd-pcm_thf.out
 Initial command:
 /home/ekwan/sw/g16/l1.exe "/scratch/users/ekwan/clay_new-glu_gluC6-BCDR-Na2_1Me2O-bisCF3-ts-b3lyp-631gd-pcm_thf/Gau-9139.inp" -scrdir="/scratch/users/ekwan/clay_new-glu_gluC6-BCDR-Na2_1Me2O-bisCF3-ts-b3lyp-631gd-pcm_thf/"
 Entering Link 1 = /home/ekwan/sw/g16/l1.exe PID=      9140.
  
 Copyright (c) 1988,1990,1992,1993,1995,1998,2003,2009,2016,
            Gaussian, Inc.  All Rights Reserved.
  
 This is part of the Gaussian(R) 16 program.  It is based on
 the Gaussian(R) 09 system (copyright 2009, Gaussian, Inc.),
 the Gaussian(R) 03 system (copyright 2003, Gaussian, Inc.),
 the Gaussian(R) 98 system (copyright 1998, Gaussian, Inc.),
 the Gaussian(R) 94 system (copyright 1995, Gaussian, Inc.),
 the Gaussian 92(TM) system (copyright 1992, Gaussian, Inc.),
 the Gaussian 90(TM) system (copyright 1990, Gaussian, Inc.),
 the Gaussian 88(TM) system (copyright 1988, Gaussian, Inc.),
 the Gaussian 86(TM) system (copyright 1986, Carnegie Mellon
 University), and the Gaussian 82(TM) system (copyright 1983,
 Carnegie Mellon University). Gaussian is a federally registered
 trademark of Gaussian, Inc.
  
 This software contains proprietary and confidential information,
 including trade secrets, belonging to Gaussian, Inc.
  
 This software is provided under written license and may be
 used, copied, transmitted, or stored only in accord with that
 written license.
  
 The following legend is applicable only to US Government
 contracts under FAR:
  
                    RESTRICTED RIGHTS LEGEND
  
 Use, reproduction and disclosure by the US Government is
 subject to restrictions as set forth in subparagraphs (a)
 and (c) of the Commercial Computer Software - Restricted
 Rights clause in FAR 52.227-19.
  
 Gaussian, Inc.
 340 Quinnipiac St., Bldg. 40, Wallingford CT 06492
  
  
 ---------------------------------------------------------------
 Warning -- This program may not be used in any manner that
 competes with the business of Gaussian, Inc. or will provide
 assistance to any competitor of Gaussian, Inc.  The licensee
 of this program is prohibited from giving any competitor of
 Gaussian, Inc. access to this program.  By using this program,
 the user acknowledges that Gaussian, Inc. is engaged in the
 business of creating and licensing software in the field of
 computational chemistry and represents and warrants to the
 licensee that it is not a competitor of Gaussian, Inc. and that
 it will not use this program in any manner prohibited above.
 ---------------------------------------------------------------
  

 Cite this work as:
 Gaussian 16, Revision A.03,
 M. J. Frisch, G. W. Trucks, H. B. Schlegel, G. E. Scuseria, 
 M. A. Robb, J. R. Cheeseman, G. Scalmani, V. Barone, 
 G. A. Petersson, H. Nakatsuji, X. Li, M. Caricato, A. V. Marenich, 
 J. Bloino, B. G. Janesko, R. Gomperts, B. Mennucci, H. P. Hratchian, 
 J. V. Ortiz, A. F. Izmaylov, J. L. Sonnenberg, D. Williams-Young, 
 F. Ding, F. Lipparini, F. Egidi, J. Goings, B. Peng, A. Petrone, 
 T. Henderson, D. Ranasinghe, V. G. Zakrzewski, J. Gao, N. Rega, 
 G. Zheng, W. Liang, M. Hada, M. Ehara, K. Toyota, R. Fukuda, 
 J. Hasegawa, M. Ishida, T. Nakajima, Y. Honda, O. Kitao, H. Nakai, 
 T. Vreven, K. Throssell, J. A. Montgomery, Jr., J. E. Peralta, 
 F. Ogliaro, M. J. Bearpark, J. J. Heyd, E. N. Brothers, K. N. Kudin, 
 V. N. Staroverov, T. A. Keith, R. Kobayashi, J. Normand, 
 K. Raghavachari, A. P. Rendell, J. C. Burant, S. S. Iyengar, 
 J. Tomasi, M. Cossi, J. M. Millam, M. Klene, C. Adamo, R. Cammi, 
 J. W. Ochterski, R. L. Martin, K. Morokuma, O. Farkas, 
 J. B. Foresman, and D. J. Fox, Gaussian, Inc., Wallingford CT, 2016.
 
 ******************************************
 Gaussian 16:  AS64L-G16RevA.03 25-Dec-2016
                 5-Jun-2019 
 ******************************************
 %nprocshared=32
 Will use up to   32 processors via shared memory.
 %mem=48GB
 ----------------------------------------------------------------------
 #p opt=(ts,calcfc,noeigentest,maxstep=5) freq=noraman pop=none 6-31g* 
 scrf=(pcm,solvent=tetrahydrofuran) b3lyp
 ----------------------------------------------------------------------
 1/5=1,8=5,10=4,11=1,18=20,26=3,38=1/1,3;
 2/9=110,12=2,17=6,18=5,40=1/2;
 3/5=1,6=6,7=1,11=2,25=1,30=1,70=2201,71=2,72=20,74=-5,140=1/1,2,3;
 4//1;
 5/5=2,38=5,53=20/2;
 8/6=4,10=90,11=11/1;
 11/6=1,8=1,9=11,15=111,16=1/1,2,10;
 10/6=1,13=1/2;
 7/10=1,18=20,25=1/1,2,3,16;
 1/5=1,8=5,10=4,11=1,18=20,26=3/3(2);
 2/9=110/2;
 99//99;
 2/9=110/2;
 3/5=1,6=6,7=1,11=2,25=1,30=1,70=2205,71=1,72=20,74=-5/1,2,3;
 4/5=5,16=3,69=1/1;
 5/5=2,38=5,53=20/2;
 7//1,2,3,16;
 1/5=1,8=5,11=1,18=20,26=3/3(-5);
 2/9=110/2;
 99/9=1/99;
 Leave Link    1 at Wed Jun  5 06:09:37 2019, MaxMem=  6442450944 cpu:               4.2 elap:               0.2
 (Enter /home/ekwan/sw/g16/l101.exe)
 -----
 title
 -----
 Symbolic Z-matrix:
 Charge =  0 Multiplicity = 1
 6                    -2.0586    1.56572   2.23332 
 6                    -2.4031    2.35129   0.96349 
 6                    -1.59913   3.65836   0.9215 
 6                     0.22946   2.69448   2.19047 
 6                    -0.54193   1.37652   2.36669 
 1                    -1.74005   4.16447  -0.04401 
 1                    -2.09673   1.76539   0.08664 
 1                    -2.41956   2.13439   3.09882 
 1                     0.00613   3.33564   3.05385 
 1                    -0.21574   0.6663    1.5972 
 8                    -0.20597   3.37191   0.98175 
 8                    -2.02518   4.48407   1.9689 
 8                    -3.7889    2.65932   0.89035 
 8                    -2.69969   0.2882    2.18948 
 8                    -0.2513    0.86063   3.6678 
 6                     1.75965   2.51477   2.07683 
 1                     2.05913   1.98613   3.00751 
 1                     2.18373   3.54089   2.18035 
 8                     2.18857   1.89803   0.92414 
 6                    -4.53505   1.80702   0.03017 
 1                    -4.1737    1.86339  -1.00718 
 1                    -4.49767   0.76368   0.3605 
 1                    -5.56971   2.16015   0.06012 
 6                    -3.49027  -0.01503   3.33096 
 1                    -2.89645   0.02123   4.25314 
 1                    -4.34068   0.67491   3.42668 
 1                    -3.86613  -1.03065   3.18593 
 6                     0.26034  -0.46554   3.68517 
 1                    -0.43274  -1.16981   3.20873 
 1                     1.23753  -0.53498   3.18845 
 1                     0.37964  -0.73913   4.73793 
 6                     4.1295   -1.26314  -1.24452 
 6                     3.33829  -0.00411  -0.85475 
 6                     2.04035  -0.35638  -0.18518 
 6                     2.77057  -2.57697   0.43746 
 6                     4.18163  -2.19435  -0.02258 
 1                     1.24912   0.36467  -0.11077 
 1                     3.88488   0.53085  -0.05975 
 1                     3.62054  -1.76292  -2.07778 
 1                     2.29124  -3.18596  -0.33492 
 1                     4.69992  -1.67532   0.79145 
 8                     1.8993   -1.39199   0.56626 
 8                    -0.35114  -0.27918  -3.91477 
 8                     3.05799   0.89833  -1.90389 
 8                     5.44669  -0.88496  -1.60998 
 8                     4.84636  -3.40562  -0.34653 
 6                     2.6967   -3.30998   1.76164 
 1                     3.16628  -4.29622   1.62888 
 1                     1.63939  -3.47092   2.02381 
 8                     3.35873  -2.55138   2.75114 
 16                   -0.18863  -0.32812  -2.44944 
 8                    -0.24512   1.00926  -1.77577 
 8                     0.99734  -1.14189  -1.99327 
 6                    -1.62161  -1.21252  -1.7949 
 6                    -2.86068  -1.05908  -2.41204 
 6                    -1.49046  -1.97304  -0.63411 
 6                    -3.98467  -1.66331  -1.84348 
 1                    -2.94462  -0.48157  -3.3259 
 6                    -2.619    -2.57641  -0.081 
 1                    -0.5209   -2.08808  -0.16605 
 6                    -3.87108  -2.42271  -0.67886 
 1                    -4.74772  -2.88808  -0.2432 
 6                     4.15533   1.72769  -2.30735 
 1                     4.72534   2.07542  -1.43762 
 1                     4.82636   1.1968   -2.98715 
 1                     3.71442   2.58776  -2.81503 
 6                     5.9579   -1.5595   -2.75866 
 1                     5.97573  -2.64452  -2.61146 
 1                     5.36376  -1.32605  -3.65305 
 1                     6.97759  -1.19417  -2.90255 
 6                     6.05764  -3.6244    0.37698 
 1                     6.79729  -2.84605   0.15483 
 1                     5.87536  -3.6515    1.45907 
 1                     6.44139  -4.5937    0.05077 
 6                     3.32902  -3.17349   4.02777 
 1                     3.86434  -2.51492   4.71486 
 1                     2.29731  -3.30683   4.38376 
 1                     3.82414  -4.15528   4.00585 
 6                    -1.51899   5.81409   1.89957 
 1                    -1.98407   6.36959   2.71671 
 1                    -0.42933   5.83859   2.01675 
 1                    -1.78692   6.28547   0.94301 
 11                    1.16371   2.66433  -0.93459 
 8                     2.35923   4.6013   -1.45568 
 6                     2.1836    5.6619   -2.38491 
 1                     3.10981   5.85104  -2.94556 
 1                     1.39679   5.35892  -3.07956 
 1                     1.88244   6.58793  -1.87517 
 6                     3.37039   4.87222  -0.48651 
 1                     3.12055   5.76856   0.09811 
 1                     3.41172   3.99857   0.16861 
 1                     4.34404   5.0245   -0.97345 
 6                    -5.34066  -1.42477  -2.45316 
 9                    -5.89596  -0.27774  -1.98617 
 9                    -6.20628  -2.42098  -2.17049 
 9                    -5.27528  -1.307    -3.79578 
 6                    -2.48647  -3.44577   1.14092 
 9                    -1.35954  -3.17674   1.84066 
 9                    -2.44141  -4.75842   0.81714 
 9                    -3.5341   -3.29086   1.98292 
 
 Add virtual bond connecting atoms H37        and O19        Dist= 3.92D+00.
 Add virtual bond connecting atoms O52        and H37        Dist= 4.40D+00.
 Add virtual bond connecting atoms O52        and Na83       Dist= 4.40D+00.
 Add virtual bond connecting atoms O53        and C34        Dist= 4.21D+00.
 Add virtual bond connecting atoms O84        and Na83       Dist= 4.41D+00.
 Add virtual bond connecting atoms H91        and H18        Dist= 4.54D+00.
 ITRead=  0  0  0  0  0  0  0  0  0  0  0  0  0  0  0  0  0  0  0  0
 ITRead=  0  0  0  0  0  0  0  0  0  0  0  0  0  0  0  0  0  0  0  0
 ITRead=  0  0  0  0  0  0  0  0  0  0  0  0  0  0  0  0  0  0  0  0
 ITRead=  0  0  0  0  0  0  0  0  0  0  0  0  0  0  0  0  0  0  0  0
 ITRead=  0  0  0  0  0  0  0  0  0  0  0  0  0  0  0  0  0  0  0  0
 MicOpt= -1 -1 -1 -1 -1 -1 -1 -1 -1 -1 -1 -1 -1 -1 -1 -1 -1 -1 -1 -1
 MicOpt= -1 -1 -1 -1 -1 -1 -1 -1 -1 -1 -1 -1 -1 -1 -1 -1 -1 -1 -1 -1
 MicOpt= -1 -1 -1 -1 -1 -1 -1 -1 -1 -1 -1 -1 -1 -1 -1 -1 -1 -1 -1 -1
 MicOpt= -1 -1 -1 -1 -1 -1 -1 -1 -1 -1 -1 -1 -1 -1 -1 -1 -1 -1 -1 -1
 MicOpt= -1 -1 -1 -1 -1 -1 -1 -1 -1 -1 -1 -1 -1 -1 -1 -1 -1 -1 -1 -1
 NAtoms=    100 NQM=      100 NQMF=       0 NMMI=      0 NMMIF=      0
                NMic=       0 NMicF=      0.
                    Isotopes and Nuclear Properties:
 (Nuclear quadrupole moments (NQMom) in fm**2, nuclear magnetic moments (NMagM)
  in nuclear magnetons)

  Atom         1           2           3           4           5           6           7           8           9          10
 IAtWgt=          12          12          12          12          12           1           1           1           1           1
 AtmWgt=  12.0000000  12.0000000  12.0000000  12.0000000  12.0000000   1.0078250   1.0078250   1.0078250   1.0078250   1.0078250
 NucSpn=           0           0           0           0           0           1           1           1           1           1
 AtZEff=   0.0000000   0.0000000   0.0000000   0.0000000   0.0000000   0.0000000   0.0000000   0.0000000   0.0000000   0.0000000
 NQMom=    0.0000000   0.0000000   0.0000000   0.0000000   0.0000000   0.0000000   0.0000000   0.0000000   0.0000000   0.0000000
 NMagM=    0.0000000   0.0000000   0.0000000   0.0000000   0.0000000   2.7928460   2.7928460   2.7928460   2.7928460   2.7928460
 AtZNuc=   6.0000000   6.0000000   6.0000000   6.0000000   6.0000000   1.0000000   1.0000000   1.0000000   1.0000000   1.0000000

  Atom        11          12          13          14          15          16          17          18          19          20
 IAtWgt=          16          16          16          16          16          12           1           1          16          12
 AtmWgt=  15.9949146  15.9949146  15.9949146  15.9949146  15.9949146  12.0000000   1.0078250   1.0078250  15.9949146  12.0000000
 NucSpn=           0           0           0           0           0           0           1           1           0           0
 AtZEff=   0.0000000   0.0000000   0.0000000   0.0000000   0.0000000   0.0000000   0.0000000   0.0000000   0.0000000   0.0000000
 NQMom=    0.0000000   0.0000000   0.0000000   0.0000000   0.0000000   0.0000000   0.0000000   0.0000000   0.0000000   0.0000000
 NMagM=    0.0000000   0.0000000   0.0000000   0.0000000   0.0000000   0.0000000   2.7928460   2.7928460   0.0000000   0.0000000
 AtZNuc=   8.0000000   8.0000000   8.0000000   8.0000000   8.0000000   6.0000000   1.0000000   1.0000000   8.0000000   6.0000000

  Atom        21          22          23          24          25          26          27          28          29          30
 IAtWgt=           1           1           1          12           1           1           1          12           1           1
 AtmWgt=   1.0078250   1.0078250   1.0078250  12.0000000   1.0078250   1.0078250   1.0078250  12.0000000   1.0078250   1.0078250
 NucSpn=           1           1           1           0           1           1           1           0           1           1
 AtZEff=   0.0000000   0.0000000   0.0000000   0.0000000   0.0000000   0.0000000   0.0000000   0.0000000   0.0000000   0.0000000
 NQMom=    0.0000000   0.0000000   0.0000000   0.0000000   0.0000000   0.0000000   0.0000000   0.0000000   0.0000000   0.0000000
 NMagM=    2.7928460   2.7928460   2.7928460   0.0000000   2.7928460   2.7928460   2.7928460   0.0000000   2.7928460   2.7928460
 AtZNuc=   1.0000000   1.0000000   1.0000000   6.0000000   1.0000000   1.0000000   1.0000000   6.0000000   1.0000000   1.0000000

  Atom        31          32          33          34          35          36          37          38          39          40
 IAtWgt=           1          12          12          12          12          12           1           1           1           1
 AtmWgt=   1.0078250  12.0000000  12.0000000  12.0000000  12.0000000  12.0000000   1.0078250   1.0078250   1.0078250   1.0078250
 NucSpn=           1           0           0           0           0           0           1           1           1           1
 AtZEff=   0.0000000   0.0000000   0.0000000   0.0000000   0.0000000   0.0000000   0.0000000   0.0000000   0.0000000   0.0000000
 NQMom=    0.0000000   0.0000000   0.0000000   0.0000000   0.0000000   0.0000000   0.0000000   0.0000000   0.0000000   0.0000000
 NMagM=    2.7928460   0.0000000   0.0000000   0.0000000   0.0000000   0.0000000   2.7928460   2.7928460   2.7928460   2.7928460
 AtZNuc=   1.0000000   6.0000000   6.0000000   6.0000000   6.0000000   6.0000000   1.0000000   1.0000000   1.0000000   1.0000000

  Atom        41          42          43          44          45          46          47          48          49          50
 IAtWgt=           1          16          16          16          16          16          12           1           1          16
 AtmWgt=   1.0078250  15.9949146  15.9949146  15.9949146  15.9949146  15.9949146  12.0000000   1.0078250   1.0078250  15.9949146
 NucSpn=           1           0           0           0           0           0           0           1           1           0
 AtZEff=   0.0000000   0.0000000   0.0000000   0.0000000   0.0000000   0.0000000   0.0000000   0.0000000   0.0000000   0.0000000
 NQMom=    0.0000000   0.0000000   0.0000000   0.0000000   0.0000000   0.0000000   0.0000000   0.0000000   0.0000000   0.0000000
 NMagM=    2.7928460   0.0000000   0.0000000   0.0000000   0.0000000   0.0000000   0.0000000   2.7928460   2.7928460   0.0000000
 AtZNuc=   1.0000000   8.0000000   8.0000000   8.0000000   8.0000000   8.0000000   6.0000000   1.0000000   1.0000000   8.0000000

  Atom        51          52          53          54          55          56          57          58          59          60
 IAtWgt=          32          16          16          12          12          12          12           1          12           1
 AtmWgt=  31.9720718  15.9949146  15.9949146  12.0000000  12.0000000  12.0000000  12.0000000   1.0078250  12.0000000   1.0078250
 NucSpn=           0           0           0           0           0           0           0           1           0           1
 AtZEff=   0.0000000   0.0000000   0.0000000   0.0000000   0.0000000   0.0000000   0.0000000   0.0000000   0.0000000   0.0000000
 NQMom=    0.0000000   0.0000000   0.0000000   0.0000000   0.0000000   0.0000000   0.0000000   0.0000000   0.0000000   0.0000000
 NMagM=    0.0000000   0.0000000   0.0000000   0.0000000   0.0000000   0.0000000   0.0000000   2.7928460   0.0000000   2.7928460
 AtZNuc=  16.0000000   8.0000000   8.0000000   6.0000000   6.0000000   6.0000000   6.0000000   1.0000000   6.0000000   1.0000000

  Atom        61          62          63          64          65          66          67          68          69          70
 IAtWgt=          12           1          12           1           1           1          12           1           1           1
 AtmWgt=  12.0000000   1.0078250  12.0000000   1.0078250   1.0078250   1.0078250  12.0000000   1.0078250   1.0078250   1.0078250
 NucSpn=           0           1           0           1           1           1           0           1           1           1
 AtZEff=   0.0000000   0.0000000   0.0000000   0.0000000   0.0000000   0.0000000   0.0000000   0.0000000   0.0000000   0.0000000
 NQMom=    0.0000000   0.0000000   0.0000000   0.0000000   0.0000000   0.0000000   0.0000000   0.0000000   0.0000000   0.0000000
 NMagM=    0.0000000   2.7928460   0.0000000   2.7928460   2.7928460   2.7928460   0.0000000   2.7928460   2.7928460   2.7928460
 AtZNuc=   6.0000000   1.0000000   6.0000000   1.0000000   1.0000000   1.0000000   6.0000000   1.0000000   1.0000000   1.0000000

  Atom        71          72          73          74          75          76          77          78          79          80
 IAtWgt=          12           1           1           1          12           1           1           1          12           1
 AtmWgt=  12.0000000   1.0078250   1.0078250   1.0078250  12.0000000   1.0078250   1.0078250   1.0078250  12.0000000   1.0078250
 NucSpn=           0           1           1           1           0           1           1           1           0           1
 AtZEff=   0.0000000   0.0000000   0.0000000   0.0000000   0.0000000   0.0000000   0.0000000   0.0000000   0.0000000   0.0000000
 NQMom=    0.0000000   0.0000000   0.0000000   0.0000000   0.0000000   0.0000000   0.0000000   0.0000000   0.0000000   0.0000000
 NMagM=    0.0000000   2.7928460   2.7928460   2.7928460   0.0000000   2.7928460   2.7928460   2.7928460   0.0000000   2.7928460
 AtZNuc=   6.0000000   1.0000000   1.0000000   1.0000000   6.0000000   1.0000000   1.0000000   1.0000000   6.0000000   1.0000000

  Atom        81          82          83          84          85          86          87          88          89          90
 IAtWgt=           1           1          23          16          12           1           1           1          12           1
 AtmWgt=   1.0078250   1.0078250  22.9897697  15.9949146  12.0000000   1.0078250   1.0078250   1.0078250  12.0000000   1.0078250
 NucSpn=           1           1           3           0           0           1           1           1           0           1
 AtZEff=   0.0000000   0.0000000   0.0000000   0.0000000   0.0000000   0.0000000   0.0000000   0.0000000   0.0000000   0.0000000
 NQMom=    0.0000000   0.0000000  10.4000000   0.0000000   0.0000000   0.0000000   0.0000000   0.0000000   0.0000000   0.0000000
 NMagM=    2.7928460   2.7928460   2.2175200   0.0000000   0.0000000   2.7928460   2.7928460   2.7928460   0.0000000   2.7928460
 AtZNuc=   1.0000000   1.0000000  11.0000000   8.0000000   6.0000000   1.0000000   1.0000000   1.0000000   6.0000000   1.0000000

  Atom        91          92          93          94          95          96          97          98          99         100
 IAtWgt=           1           1          12          19          19          19          12          19          19          19
 AtmWgt=   1.0078250   1.0078250  12.0000000  18.9984033  18.9984033  18.9984033  12.0000000  18.9984033  18.9984033  18.9984033
 NucSpn=           1           1           0           1           1           1           0           1           1           1
 AtZEff=   0.0000000   0.0000000   0.0000000   0.0000000   0.0000000   0.0000000   0.0000000   0.0000000   0.0000000   0.0000000
 NQMom=    0.0000000   0.0000000   0.0000000   0.0000000   0.0000000   0.0000000   0.0000000   0.0000000   0.0000000   0.0000000
 NMagM=    2.7928460   2.7928460   0.0000000   2.6288670   2.6288670   2.6288670   0.0000000   2.6288670   2.6288670   2.6288670
 AtZNuc=   1.0000000   1.0000000   6.0000000   9.0000000   9.0000000   9.0000000   6.0000000   9.0000000   9.0000000   9.0000000
 Leave Link  101 at Wed Jun  5 06:09:38 2019, MaxMem=  6442450944 cpu:              24.8 elap:               1.2
 (Enter /home/ekwan/sw/g16/l103.exe)

 GradGradGradGradGradGradGradGradGradGradGradGradGradGradGradGradGradGrad
 Berny optimization.
 Initialization pass.
                           ----------------------------
                           !    Initial Parameters    !
                           ! (Angstroms and Degrees)  !
 --------------------------                            --------------------------
 ! Name  Definition              Value          Derivative Info.                !
 --------------------------------------------------------------------------------
 ! R1    R(1,2)                  1.5324         calculate D2E/DX2 analytically  !
 ! R2    R(1,5)                  1.5342         calculate D2E/DX2 analytically  !
 ! R3    R(1,8)                  1.0967         calculate D2E/DX2 analytically  !
 ! R4    R(1,14)                 1.43           calculate D2E/DX2 analytically  !
 ! R5    R(2,3)                  1.5351         calculate D2E/DX2 analytically  !
 ! R6    R(2,7)                  1.0982         calculate D2E/DX2 analytically  !
 ! R7    R(2,13)                 1.4215         calculate D2E/DX2 analytically  !
 ! R8    R(3,6)                  1.0992         calculate D2E/DX2 analytically  !
 ! R9    R(3,11)                 1.4236         calculate D2E/DX2 analytically  !
 ! R10   R(3,12)                 1.4001         calculate D2E/DX2 analytically  !
 ! R11   R(4,5)                  1.5372         calculate D2E/DX2 analytically  !
 ! R12   R(4,9)                  1.0984         calculate D2E/DX2 analytically  !
 ! R13   R(4,11)                 1.4524         calculate D2E/DX2 analytically  !
 ! R14   R(4,16)                 1.5449         calculate D2E/DX2 analytically  !
 ! R15   R(5,10)                 1.0968         calculate D2E/DX2 analytically  !
 ! R16   R(5,15)                 1.4295         calculate D2E/DX2 analytically  !
 ! R17   R(12,79)                1.4248         calculate D2E/DX2 analytically  !
 ! R18   R(13,20)                1.4223         calculate D2E/DX2 analytically  !
 ! R19   R(14,24)                1.4213         calculate D2E/DX2 analytically  !
 ! R20   R(15,28)                1.4216         calculate D2E/DX2 analytically  !
 ! R21   R(16,17)                1.1114         calculate D2E/DX2 analytically  !
 ! R22   R(16,18)                1.1151         calculate D2E/DX2 analytically  !
 ! R23   R(16,19)                1.3759         calculate D2E/DX2 analytically  !
 ! R24   R(18,91)                2.4009         calculate D2E/DX2 analytically  !
 ! R25   R(19,37)                2.0748         calculate D2E/DX2 analytically  !
 ! R26   R(19,83)                2.2566         calculate D2E/DX2 analytically  !
 ! R27   R(20,21)                1.0999         calculate D2E/DX2 analytically  !
 ! R28   R(20,22)                1.095          calculate D2E/DX2 analytically  !
 ! R29   R(20,23)                1.0937         calculate D2E/DX2 analytically  !
 ! R30   R(24,25)                1.0974         calculate D2E/DX2 analytically  !
 ! R31   R(24,26)                1.0993         calculate D2E/DX2 analytically  !
 ! R32   R(24,27)                1.0926         calculate D2E/DX2 analytically  !
 ! R33   R(28,29)                1.097          calculate D2E/DX2 analytically  !
 ! R34   R(28,30)                1.0984         calculate D2E/DX2 analytically  !
 ! R35   R(28,31)                1.0942         calculate D2E/DX2 analytically  !
 ! R36   R(32,33)                1.5372         calculate D2E/DX2 analytically  !
 ! R37   R(32,36)                1.5372         calculate D2E/DX2 analytically  !
 ! R38   R(32,39)                1.0969         calculate D2E/DX2 analytically  !
 ! R39   R(32,45)                1.4183         calculate D2E/DX2 analytically  !
 ! R40   R(33,34)                1.5024         calculate D2E/DX2 analytically  !
 ! R41   R(33,38)                1.1032         calculate D2E/DX2 analytically  !
 ! R42   R(33,44)                1.412          calculate D2E/DX2 analytically  !
 ! R43   R(34,37)                1.0731         calculate D2E/DX2 analytically  !
 ! R44   R(34,42)                1.2873         calculate D2E/DX2 analytically  !
 ! R45   R(34,53)                2.2303         calculate D2E/DX2 analytically  !
 ! R46   R(35,36)                1.5327         calculate D2E/DX2 analytically  !
 ! R47   R(35,40)                1.0942         calculate D2E/DX2 analytically  !
 ! R48   R(35,42)                1.4764         calculate D2E/DX2 analytically  !
 ! R49   R(35,47)                1.5153         calculate D2E/DX2 analytically  !
 ! R50   R(36,41)                1.0957         calculate D2E/DX2 analytically  !
 ! R51   R(36,46)                1.4191         calculate D2E/DX2 analytically  !
 ! R52   R(37,52)                2.3282         calculate D2E/DX2 analytically  !
 ! R53   R(43,51)                1.4751         calculate D2E/DX2 analytically  !
 ! R54   R(44,63)                1.4334         calculate D2E/DX2 analytically  !
 ! R55   R(45,67)                1.4268         calculate D2E/DX2 analytically  !
 ! R56   R(46,71)                1.4278         calculate D2E/DX2 analytically  !
 ! R57   R(47,48)                1.1004         calculate D2E/DX2 analytically  !
 ! R58   R(47,49)                1.1012         calculate D2E/DX2 analytically  !
 ! R59   R(47,50)                1.4117         calculate D2E/DX2 analytically  !
 ! R60   R(50,75)                1.4205         calculate D2E/DX2 analytically  !
 ! R61   R(51,52)                1.4985         calculate D2E/DX2 analytically  !
 ! R62   R(51,53)                1.5089         calculate D2E/DX2 analytically  !
 ! R63   R(51,54)                1.8067         calculate D2E/DX2 analytically  !
 ! R64   R(52,83)                2.3306         calculate D2E/DX2 analytically  !
 ! R65   R(54,55)                1.3927         calculate D2E/DX2 analytically  !
 ! R66   R(54,56)                1.3939         calculate D2E/DX2 analytically  !
 ! R67   R(55,57)                1.397          calculate D2E/DX2 analytically  !
 ! R68   R(55,58)                1.0843         calculate D2E/DX2 analytically  !
 ! R69   R(56,59)                1.3941         calculate D2E/DX2 analytically  !
 ! R70   R(56,60)                1.0828         calculate D2E/DX2 analytically  !
 ! R71   R(57,61)                1.395          calculate D2E/DX2 analytically  !
 ! R72   R(57,93)                1.5058         calculate D2E/DX2 analytically  !
 ! R73   R(59,61)                1.396          calculate D2E/DX2 analytically  !
 ! R74   R(59,97)                1.5055         calculate D2E/DX2 analytically  !
 ! R75   R(61,62)                1.0839         calculate D2E/DX2 analytically  !
 ! R76   R(63,64)                1.0965         calculate D2E/DX2 analytically  !
 ! R77   R(63,65)                1.0928         calculate D2E/DX2 analytically  !
 ! R78   R(63,66)                1.0917         calculate D2E/DX2 analytically  !
 ! R79   R(67,68)                1.0951         calculate D2E/DX2 analytically  !
 ! R80   R(67,69)                1.0988         calculate D2E/DX2 analytically  !
 ! R81   R(67,70)                1.0927         calculate D2E/DX2 analytically  !
 ! R82   R(71,72)                1.0965         calculate D2E/DX2 analytically  !
 ! R83   R(71,73)                1.0977         calculate D2E/DX2 analytically  !
 ! R84   R(71,74)                1.0923         calculate D2E/DX2 analytically  !
 ! R85   R(75,76)                1.092          calculate D2E/DX2 analytically  !
 ! R86   R(75,77)                1.0995         calculate D2E/DX2 analytically  !
 ! R87   R(75,78)                1.0998         calculate D2E/DX2 analytically  !
 ! R88   R(79,80)                1.0921         calculate D2E/DX2 analytically  !
 ! R89   R(79,81)                1.0962         calculate D2E/DX2 analytically  !
 ! R90   R(79,82)                1.0995         calculate D2E/DX2 analytically  !
 ! R91   R(83,84)                2.3351         calculate D2E/DX2 analytically  !
 ! R92   R(84,85)                1.421          calculate D2E/DX2 analytically  !
 ! R93   R(84,89)                1.4266         calculate D2E/DX2 analytically  !
 ! R94   R(85,86)                1.0991         calculate D2E/DX2 analytically  !
 ! R95   R(85,87)                1.0924         calculate D2E/DX2 analytically  !
 ! R96   R(85,88)                1.0991         calculate D2E/DX2 analytically  !
 ! R97   R(89,90)                1.0989         calculate D2E/DX2 analytically  !
 ! R98   R(89,91)                1.0928         calculate D2E/DX2 analytically  !
 ! R99   R(89,92)                1.0992         calculate D2E/DX2 analytically  !
 ! R100  R(93,94)                1.3572         calculate D2E/DX2 analytically  !
 ! R101  R(93,95)                1.3497         calculate D2E/DX2 analytically  !
 ! R102  R(93,96)                1.3494         calculate D2E/DX2 analytically  !
 ! R103  R(97,98)                1.3535         calculate D2E/DX2 analytically  !
 ! R104  R(97,99)                1.3527         calculate D2E/DX2 analytically  !
 ! R105  R(97,100)               1.353          calculate D2E/DX2 analytically  !
 ! A1    A(2,1,5)              110.9457         calculate D2E/DX2 analytically  !
 ! A2    A(2,1,8)              108.3095         calculate D2E/DX2 analytically  !
 ! A3    A(2,1,14)             109.3769         calculate D2E/DX2 analytically  !
 ! A4    A(5,1,8)              108.7055         calculate D2E/DX2 analytically  !
 ! A5    A(5,1,14)             109.6131         calculate D2E/DX2 analytically  !
 ! A6    A(8,1,14)             109.8693         calculate D2E/DX2 analytically  !
 ! A7    A(1,2,3)              109.9631         calculate D2E/DX2 analytically  !
 ! A8    A(1,2,7)              108.9919         calculate D2E/DX2 analytically  !
 ! A9    A(1,2,13)             111.8933         calculate D2E/DX2 analytically  !
 ! A10   A(3,2,7)              106.6374         calculate D2E/DX2 analytically  !
 ! A11   A(3,2,13)             108.9444         calculate D2E/DX2 analytically  !
 ! A12   A(7,2,13)             110.2733         calculate D2E/DX2 analytically  !
 ! A13   A(2,3,6)              110.422          calculate D2E/DX2 analytically  !
 ! A14   A(2,3,11)             109.8795         calculate D2E/DX2 analytically  !
 ! A15   A(2,3,12)             108.8026         calculate D2E/DX2 analytically  !
 ! A16   A(6,3,11)             104.7909         calculate D2E/DX2 analytically  !
 ! A17   A(6,3,12)             110.2757         calculate D2E/DX2 analytically  !
 ! A18   A(11,3,12)            112.631          calculate D2E/DX2 analytically  !
 ! A19   A(5,4,9)              107.9589         calculate D2E/DX2 analytically  !
 ! A20   A(5,4,11)             110.172          calculate D2E/DX2 analytically  !
 ! A21   A(5,4,16)             113.9367         calculate D2E/DX2 analytically  !
 ! A22   A(9,4,11)             108.7199         calculate D2E/DX2 analytically  !
 ! A23   A(9,4,16)             109.0943         calculate D2E/DX2 analytically  !
 ! A24   A(11,4,16)            106.8574         calculate D2E/DX2 analytically  !
 ! A25   A(1,5,4)              112.3563         calculate D2E/DX2 analytically  !
 ! A26   A(1,5,10)             108.2321         calculate D2E/DX2 analytically  !
 ! A27   A(1,5,15)             108.9414         calculate D2E/DX2 analytically  !
 ! A28   A(4,5,10)             108.997          calculate D2E/DX2 analytically  !
 ! A29   A(4,5,15)             108.1632         calculate D2E/DX2 analytically  !
 ! A30   A(10,5,15)            110.1462         calculate D2E/DX2 analytically  !
 ! A31   A(3,11,4)             114.9905         calculate D2E/DX2 analytically  !
 ! A32   A(3,12,79)            113.9544         calculate D2E/DX2 analytically  !
 ! A33   A(2,13,20)            114.3733         calculate D2E/DX2 analytically  !
 ! A34   A(1,14,24)            114.5413         calculate D2E/DX2 analytically  !
 ! A35   A(5,15,28)            114.8958         calculate D2E/DX2 analytically  !
 ! A36   A(4,16,17)            105.1067         calculate D2E/DX2 analytically  !
 ! A37   A(4,16,18)            105.2368         calculate D2E/DX2 analytically  !
 ! A38   A(4,16,19)            114.9952         calculate D2E/DX2 analytically  !
 ! A39   A(17,16,18)           104.9201         calculate D2E/DX2 analytically  !
 ! A40   A(17,16,19)           113.8495         calculate D2E/DX2 analytically  !
 ! A41   A(18,16,19)           111.8199         calculate D2E/DX2 analytically  !
 ! A42   A(16,18,91)           106.986          calculate D2E/DX2 analytically  !
 ! A43   A(16,19,37)           127.4452         calculate D2E/DX2 analytically  !
 ! A44   A(16,19,83)           113.3452         calculate D2E/DX2 analytically  !
 ! A45   A(37,19,83)            68.5604         calculate D2E/DX2 analytically  !
 ! A46   A(13,20,21)           111.5497         calculate D2E/DX2 analytically  !
 ! A47   A(13,20,22)           111.752          calculate D2E/DX2 analytically  !
 ! A48   A(13,20,23)           106.6336         calculate D2E/DX2 analytically  !
 ! A49   A(21,20,22)           108.7909         calculate D2E/DX2 analytically  !
 ! A50   A(21,20,23)           108.6677         calculate D2E/DX2 analytically  !
 ! A51   A(22,20,23)           109.3705         calculate D2E/DX2 analytically  !
 ! A52   A(14,24,25)           111.5217         calculate D2E/DX2 analytically  !
 ! A53   A(14,24,26)           111.4913         calculate D2E/DX2 analytically  !
 ! A54   A(14,24,27)           106.4429         calculate D2E/DX2 analytically  !
 ! A55   A(25,24,26)           108.9474         calculate D2E/DX2 analytically  !
 ! A56   A(25,24,27)           109.1712         calculate D2E/DX2 analytically  !
 ! A57   A(26,24,27)           109.1991         calculate D2E/DX2 analytically  !
 ! A58   A(15,28,29)           111.4826         calculate D2E/DX2 analytically  !
 ! A59   A(15,28,30)           111.9414         calculate D2E/DX2 analytically  !
 ! A60   A(15,28,31)           106.5139         calculate D2E/DX2 analytically  !
 ! A61   A(29,28,30)           108.9713         calculate D2E/DX2 analytically  !
 ! A62   A(29,28,31)           109.0396         calculate D2E/DX2 analytically  !
 ! A63   A(30,28,31)           108.801          calculate D2E/DX2 analytically  !
 ! A64   A(33,32,36)           108.1826         calculate D2E/DX2 analytically  !
 ! A65   A(33,32,39)           109.0845         calculate D2E/DX2 analytically  !
 ! A66   A(33,32,45)           108.9628         calculate D2E/DX2 analytically  !
 ! A67   A(36,32,39)           110.0955         calculate D2E/DX2 analytically  !
 ! A68   A(36,32,45)           109.5645         calculate D2E/DX2 analytically  !
 ! A69   A(39,32,45)           110.8962         calculate D2E/DX2 analytically  !
 ! A70   A(32,33,34)           111.4462         calculate D2E/DX2 analytically  !
 ! A71   A(32,33,38)           108.9577         calculate D2E/DX2 analytically  !
 ! A72   A(32,33,44)           115.9282         calculate D2E/DX2 analytically  !
 ! A73   A(34,33,38)           102.7431         calculate D2E/DX2 analytically  !
 ! A74   A(34,33,44)           108.0301         calculate D2E/DX2 analytically  !
 ! A75   A(38,33,44)           108.8987         calculate D2E/DX2 analytically  !
 ! A76   A(33,34,37)           120.6884         calculate D2E/DX2 analytically  !
 ! A77   A(33,34,42)           122.9204         calculate D2E/DX2 analytically  !
 ! A78   A(33,34,53)            97.1979         calculate D2E/DX2 analytically  !
 ! A79   A(37,34,42)           114.791          calculate D2E/DX2 analytically  !
 ! A80   A(37,34,53)            87.0221         calculate D2E/DX2 analytically  !
 ! A81   A(42,34,53)            97.9701         calculate D2E/DX2 analytically  !
 ! A82   A(36,35,40)           109.2917         calculate D2E/DX2 analytically  !
 ! A83   A(36,35,42)           111.6605         calculate D2E/DX2 analytically  !
 ! A84   A(36,35,47)           115.3363         calculate D2E/DX2 analytically  !
 ! A85   A(40,35,42)           104.4641         calculate D2E/DX2 analytically  !
 ! A86   A(40,35,47)           109.0431         calculate D2E/DX2 analytically  !
 ! A87   A(42,35,47)           106.4535         calculate D2E/DX2 analytically  !
 ! A88   A(32,36,35)           111.0145         calculate D2E/DX2 analytically  !
 ! A89   A(32,36,41)           108.6407         calculate D2E/DX2 analytically  !
 ! A90   A(32,36,46)           110.577          calculate D2E/DX2 analytically  !
 ! A91   A(35,36,41)           109.3135         calculate D2E/DX2 analytically  !
 ! A92   A(35,36,46)           106.6589         calculate D2E/DX2 analytically  !
 ! A93   A(41,36,46)           110.6294         calculate D2E/DX2 analytically  !
 ! A94   A(19,37,34)           101.3802         calculate D2E/DX2 analytically  !
 ! A95   A(19,37,52)           116.2763         calculate D2E/DX2 analytically  !
 ! A96   A(34,37,52)           127.5662         calculate D2E/DX2 analytically  !
 ! A97   A(34,42,35)           122.0127         calculate D2E/DX2 analytically  !
 ! A98   A(33,44,63)           115.2742         calculate D2E/DX2 analytically  !
 ! A99   A(32,45,67)           114.4647         calculate D2E/DX2 analytically  !
 ! A100  A(36,46,71)           114.3614         calculate D2E/DX2 analytically  !
 ! A101  A(35,47,48)           107.8979         calculate D2E/DX2 analytically  !
 ! A102  A(35,47,49)           109.0            calculate D2E/DX2 analytically  !
 ! A103  A(35,47,50)           109.2513         calculate D2E/DX2 analytically  !
 ! A104  A(48,47,49)           107.9077         calculate D2E/DX2 analytically  !
 ! A105  A(48,47,50)           111.4737         calculate D2E/DX2 analytically  !
 ! A106  A(49,47,50)           111.2198         calculate D2E/DX2 analytically  !
 ! A107  A(47,50,75)           112.6314         calculate D2E/DX2 analytically  !
 ! A108  A(43,51,52)           114.3814         calculate D2E/DX2 analytically  !
 ! A109  A(43,51,53)           113.8783         calculate D2E/DX2 analytically  !
 ! A110  A(43,51,54)           106.7829         calculate D2E/DX2 analytically  !
 ! A111  A(52,51,53)           112.0257         calculate D2E/DX2 analytically  !
 ! A112  A(52,51,54)           104.129          calculate D2E/DX2 analytically  !
 ! A113  A(53,51,54)           104.4702         calculate D2E/DX2 analytically  !
 ! A114  A(37,52,51)            92.8783         calculate D2E/DX2 analytically  !
 ! A115  A(37,52,83)            63.2904         calculate D2E/DX2 analytically  !
 ! A116  A(51,52,83)           140.6465         calculate D2E/DX2 analytically  !
 ! A117  A(34,53,51)           115.0066         calculate D2E/DX2 analytically  !
 ! A118  A(51,54,55)           119.4187         calculate D2E/DX2 analytically  !
 ! A119  A(51,54,56)           119.6137         calculate D2E/DX2 analytically  !
 ! A120  A(55,54,56)           120.8519         calculate D2E/DX2 analytically  !
 ! A121  A(54,55,57)           119.196          calculate D2E/DX2 analytically  !
 ! A122  A(54,55,58)           120.067          calculate D2E/DX2 analytically  !
 ! A123  A(57,55,58)           120.7359         calculate D2E/DX2 analytically  !
 ! A124  A(54,56,59)           119.3639         calculate D2E/DX2 analytically  !
 ! A125  A(54,56,60)           120.1464         calculate D2E/DX2 analytically  !
 ! A126  A(59,56,60)           120.489          calculate D2E/DX2 analytically  !
 ! A127  A(55,57,61)           120.6447         calculate D2E/DX2 analytically  !
 ! A128  A(55,57,93)           119.4211         calculate D2E/DX2 analytically  !
 ! A129  A(61,57,93)           119.842          calculate D2E/DX2 analytically  !
 ! A130  A(56,59,61)           120.5631         calculate D2E/DX2 analytically  !
 ! A131  A(56,59,97)           120.0454         calculate D2E/DX2 analytically  !
 ! A132  A(61,59,97)           119.3498         calculate D2E/DX2 analytically  !
 ! A133  A(57,61,59)           119.3749         calculate D2E/DX2 analytically  !
 ! A134  A(57,61,62)           120.2271         calculate D2E/DX2 analytically  !
 ! A135  A(59,61,62)           120.3979         calculate D2E/DX2 analytically  !
 ! A136  A(44,63,64)           110.9899         calculate D2E/DX2 analytically  !
 ! A137  A(44,63,65)           111.3505         calculate D2E/DX2 analytically  !
 ! A138  A(44,63,66)           106.1129         calculate D2E/DX2 analytically  !
 ! A139  A(64,63,65)           109.1641         calculate D2E/DX2 analytically  !
 ! A140  A(64,63,66)           109.2059         calculate D2E/DX2 analytically  !
 ! A141  A(65,63,66)           109.9637         calculate D2E/DX2 analytically  !
 ! A142  A(45,67,68)           111.4705         calculate D2E/DX2 analytically  !
 ! A143  A(45,67,69)           111.1689         calculate D2E/DX2 analytically  !
 ! A144  A(45,67,70)           106.3978         calculate D2E/DX2 analytically  !
 ! A145  A(68,67,69)           109.1906         calculate D2E/DX2 analytically  !
 ! A146  A(68,67,70)           109.4978         calculate D2E/DX2 analytically  !
 ! A147  A(69,67,70)           109.0483         calculate D2E/DX2 analytically  !
 ! A148  A(46,71,72)           111.1516         calculate D2E/DX2 analytically  !
 ! A149  A(46,71,73)           111.2508         calculate D2E/DX2 analytically  !
 ! A150  A(46,71,74)           106.4205         calculate D2E/DX2 analytically  !
 ! A151  A(72,71,73)           109.2249         calculate D2E/DX2 analytically  !
 ! A152  A(72,71,74)           109.4155         calculate D2E/DX2 analytically  !
 ! A153  A(73,71,74)           109.3188         calculate D2E/DX2 analytically  !
 ! A154  A(50,75,76)           106.9247         calculate D2E/DX2 analytically  !
 ! A155  A(50,75,77)           111.3294         calculate D2E/DX2 analytically  !
 ! A156  A(50,75,78)           111.3239         calculate D2E/DX2 analytically  !
 ! A157  A(76,75,77)           109.2341         calculate D2E/DX2 analytically  !
 ! A158  A(76,75,78)           109.283          calculate D2E/DX2 analytically  !
 ! A159  A(77,75,78)           108.7012         calculate D2E/DX2 analytically  !
 ! A160  A(12,79,80)           106.6866         calculate D2E/DX2 analytically  !
 ! A161  A(12,79,81)           111.6423         calculate D2E/DX2 analytically  !
 ! A162  A(12,79,82)           110.8524         calculate D2E/DX2 analytically  !
 ! A163  A(80,79,81)           109.3879         calculate D2E/DX2 analytically  !
 ! A164  A(80,79,82)           109.2147         calculate D2E/DX2 analytically  !
 ! A165  A(81,79,82)           109.0037         calculate D2E/DX2 analytically  !
 ! A166  A(19,83,52)           109.3095         calculate D2E/DX2 analytically  !
 ! A167  A(19,83,84)           103.4717         calculate D2E/DX2 analytically  !
 ! A168  A(52,83,84)           144.8873         calculate D2E/DX2 analytically  !
 ! A169  A(83,84,85)           134.5698         calculate D2E/DX2 analytically  !
 ! A170  A(83,84,89)           111.6429         calculate D2E/DX2 analytically  !
 ! A171  A(85,84,89)           112.9621         calculate D2E/DX2 analytically  !
 ! A172  A(84,85,86)           110.9694         calculate D2E/DX2 analytically  !
 ! A173  A(84,85,87)           107.3279         calculate D2E/DX2 analytically  !
 ! A174  A(84,85,88)           111.066          calculate D2E/DX2 analytically  !
 ! A175  A(86,85,87)           109.2879         calculate D2E/DX2 analytically  !
 ! A176  A(86,85,88)           108.8134         calculate D2E/DX2 analytically  !
 ! A177  A(87,85,88)           109.3425         calculate D2E/DX2 analytically  !
 ! A178  A(84,89,90)           110.8041         calculate D2E/DX2 analytically  !
 ! A179  A(84,89,91)           106.3951         calculate D2E/DX2 analytically  !
 ! A180  A(84,89,92)           110.6822         calculate D2E/DX2 analytically  !
 ! A181  A(90,89,91)           109.9847         calculate D2E/DX2 analytically  !
 ! A182  A(90,89,92)           108.9074         calculate D2E/DX2 analytically  !
 ! A183  A(91,89,92)           110.0496         calculate D2E/DX2 analytically  !
 ! A184  A(18,91,89)           129.4481         calculate D2E/DX2 analytically  !
 ! A185  A(57,93,94)           111.2849         calculate D2E/DX2 analytically  !
 ! A186  A(57,93,95)           112.0753         calculate D2E/DX2 analytically  !
 ! A187  A(57,93,96)           111.9049         calculate D2E/DX2 analytically  !
 ! A188  A(94,93,95)           106.8177         calculate D2E/DX2 analytically  !
 ! A189  A(94,93,96)           106.7635         calculate D2E/DX2 analytically  !
 ! A190  A(95,93,96)           107.6914         calculate D2E/DX2 analytically  !
 ! A191  A(59,97,98)           112.2175         calculate D2E/DX2 analytically  !
 ! A192  A(59,97,99)           111.6553         calculate D2E/DX2 analytically  !
 ! A193  A(59,97,100)          111.7675         calculate D2E/DX2 analytically  !
 ! A194  A(98,97,99)           106.7907         calculate D2E/DX2 analytically  !
 ! A195  A(98,97,100)          107.4698         calculate D2E/DX2 analytically  !
 ! A196  A(99,97,100)          106.61           calculate D2E/DX2 analytically  !
 ! D1    D(5,1,2,3)            -52.6624         calculate D2E/DX2 analytically  !
 ! D2    D(5,1,2,7)             63.8999         calculate D2E/DX2 analytically  !
 ! D3    D(5,1,2,13)          -173.8756         calculate D2E/DX2 analytically  !
 ! D4    D(8,1,2,3)             66.571          calculate D2E/DX2 analytically  !
 ! D5    D(8,1,2,7)           -176.8666         calculate D2E/DX2 analytically  !
 ! D6    D(8,1,2,13)           -54.6422         calculate D2E/DX2 analytically  !
 ! D7    D(14,1,2,3)          -173.7015         calculate D2E/DX2 analytically  !
 ! D8    D(14,1,2,7)           -57.1391         calculate D2E/DX2 analytically  !
 ! D9    D(14,1,2,13)           65.0854         calculate D2E/DX2 analytically  !
 ! D10   D(2,1,5,4)             49.7853         calculate D2E/DX2 analytically  !
 ! D11   D(2,1,5,10)           -70.6161         calculate D2E/DX2 analytically  !
 ! D12   D(2,1,5,15)           169.6199         calculate D2E/DX2 analytically  !
 ! D13   D(8,1,5,4)            -69.2102         calculate D2E/DX2 analytically  !
 ! D14   D(8,1,5,10)           170.3884         calculate D2E/DX2 analytically  !
 ! D15   D(8,1,5,15)            50.6245         calculate D2E/DX2 analytically  !
 ! D16   D(14,1,5,4)           170.685          calculate D2E/DX2 analytically  !
 ! D17   D(14,1,5,10)           50.2836         calculate D2E/DX2 analytically  !
 ! D18   D(14,1,5,15)          -69.4804         calculate D2E/DX2 analytically  !
 ! D19   D(2,1,14,24)         -126.6342         calculate D2E/DX2 analytically  !
 ! D20   D(5,1,14,24)          111.5214         calculate D2E/DX2 analytically  !
 ! D21   D(8,1,14,24)           -7.8708         calculate D2E/DX2 analytically  !
 ! D22   D(1,2,3,6)            172.6529         calculate D2E/DX2 analytically  !
 ! D23   D(1,2,3,11)            57.5461         calculate D2E/DX2 analytically  !
 ! D24   D(1,2,3,12)           -66.1894         calculate D2E/DX2 analytically  !
 ! D25   D(7,2,3,6)             54.6242         calculate D2E/DX2 analytically  !
 ! D26   D(7,2,3,11)           -60.4826         calculate D2E/DX2 analytically  !
 ! D27   D(7,2,3,12)           175.782          calculate D2E/DX2 analytically  !
 ! D28   D(13,2,3,6)           -64.3829         calculate D2E/DX2 analytically  !
 ! D29   D(13,2,3,11)         -179.4897         calculate D2E/DX2 analytically  !
 ! D30   D(13,2,3,12)           56.7749         calculate D2E/DX2 analytically  !
 ! D31   D(1,2,13,20)         -100.7751         calculate D2E/DX2 analytically  !
 ! D32   D(3,2,13,20)          137.4247         calculate D2E/DX2 analytically  !
 ! D33   D(7,2,13,20)           20.7138         calculate D2E/DX2 analytically  !
 ! D34   D(2,3,11,4)           -61.5134         calculate D2E/DX2 analytically  !
 ! D35   D(6,3,11,4)           179.8512         calculate D2E/DX2 analytically  !
 ! D36   D(12,3,11,4)           59.9577         calculate D2E/DX2 analytically  !
 ! D37   D(2,3,12,79)         -169.7747         calculate D2E/DX2 analytically  !
 ! D38   D(6,3,12,79)          -48.5274         calculate D2E/DX2 analytically  !
 ! D39   D(11,3,12,79)          68.1439         calculate D2E/DX2 analytically  !
 ! D40   D(9,4,5,1)             68.5346         calculate D2E/DX2 analytically  !
 ! D41   D(9,4,5,10)          -171.507          calculate D2E/DX2 analytically  !
 ! D42   D(9,4,5,15)           -51.7514         calculate D2E/DX2 analytically  !
 ! D43   D(11,4,5,1)           -50.053          calculate D2E/DX2 analytically  !
 ! D44   D(11,4,5,10)           69.9054         calculate D2E/DX2 analytically  !
 ! D45   D(11,4,5,15)         -170.3389         calculate D2E/DX2 analytically  !
 ! D46   D(16,4,5,1)          -170.1252         calculate D2E/DX2 analytically  !
 ! D47   D(16,4,5,10)          -50.1668         calculate D2E/DX2 analytically  !
 ! D48   D(16,4,5,15)           69.5888         calculate D2E/DX2 analytically  !
 ! D49   D(5,4,11,3)            57.3184         calculate D2E/DX2 analytically  !
 ! D50   D(9,4,11,3)           -60.8018         calculate D2E/DX2 analytically  !
 ! D51   D(16,4,11,3)         -178.4204         calculate D2E/DX2 analytically  !
 ! D52   D(5,4,16,17)          -57.4855         calculate D2E/DX2 analytically  !
 ! D53   D(5,4,16,18)         -167.9688         calculate D2E/DX2 analytically  !
 ! D54   D(5,4,16,19)           68.5251         calculate D2E/DX2 analytically  !
 ! D55   D(9,4,16,17)           63.2221         calculate D2E/DX2 analytically  !
 ! D56   D(9,4,16,18)          -47.2612         calculate D2E/DX2 analytically  !
 ! D57   D(9,4,16,19)         -170.7673         calculate D2E/DX2 analytically  !
 ! D58   D(11,4,16,17)        -179.4057         calculate D2E/DX2 analytically  !
 ! D59   D(11,4,16,18)          70.1111         calculate D2E/DX2 analytically  !
 ! D60   D(11,4,16,19)         -53.3951         calculate D2E/DX2 analytically  !
 ! D61   D(1,5,15,28)          113.0022         calculate D2E/DX2 analytically  !
 ! D62   D(4,5,15,28)         -124.5984         calculate D2E/DX2 analytically  !
 ! D63   D(10,5,15,28)          -5.5681         calculate D2E/DX2 analytically  !
 ! D64   D(3,12,79,80)         175.548          calculate D2E/DX2 analytically  !
 ! D65   D(3,12,79,81)         -64.9945         calculate D2E/DX2 analytically  !
 ! D66   D(3,12,79,82)          56.7423         calculate D2E/DX2 analytically  !
 ! D67   D(2,13,20,21)         -60.8845         calculate D2E/DX2 analytically  !
 ! D68   D(2,13,20,22)          61.1509         calculate D2E/DX2 analytically  !
 ! D69   D(2,13,20,23)        -179.3835         calculate D2E/DX2 analytically  !
 ! D70   D(1,14,24,25)         -57.8572         calculate D2E/DX2 analytically  !
 ! D71   D(1,14,24,26)          64.1743         calculate D2E/DX2 analytically  !
 ! D72   D(1,14,24,27)        -176.833          calculate D2E/DX2 analytically  !
 ! D73   D(5,15,28,29)         -58.0835         calculate D2E/DX2 analytically  !
 ! D74   D(5,15,28,30)          64.2731         calculate D2E/DX2 analytically  !
 ! D75   D(5,15,28,31)        -176.9219         calculate D2E/DX2 analytically  !
 ! D76   D(4,16,18,91)        -120.5676         calculate D2E/DX2 analytically  !
 ! D77   D(17,16,18,91)        128.8156         calculate D2E/DX2 analytically  !
 ! D78   D(19,16,18,91)          4.9383         calculate D2E/DX2 analytically  !
 ! D79   D(4,16,19,37)         -35.9212         calculate D2E/DX2 analytically  !
 ! D80   D(4,16,19,83)          44.2377         calculate D2E/DX2 analytically  !
 ! D81   D(17,16,19,37)         85.4443         calculate D2E/DX2 analytically  !
 ! D82   D(17,16,19,83)        165.6032         calculate D2E/DX2 analytically  !
 ! D83   D(18,16,19,37)       -155.8551         calculate D2E/DX2 analytically  !
 ! D84   D(18,16,19,83)        -75.6961         calculate D2E/DX2 analytically  !
 ! D85   D(16,18,91,89)        130.5403         calculate D2E/DX2 analytically  !
 ! D86   D(16,19,37,34)       -127.0716         calculate D2E/DX2 analytically  !
 ! D87   D(16,19,37,52)         90.4668         calculate D2E/DX2 analytically  !
 ! D88   D(83,19,37,34)        129.3074         calculate D2E/DX2 analytically  !
 ! D89   D(83,19,37,52)        -13.1542         calculate D2E/DX2 analytically  !
 ! D90   D(16,19,83,52)       -110.3429         calculate D2E/DX2 analytically  !
 ! D91   D(16,19,83,84)         82.4333         calculate D2E/DX2 analytically  !
 ! D92   D(37,19,83,52)         12.4741         calculate D2E/DX2 analytically  !
 ! D93   D(37,19,83,84)       -154.7497         calculate D2E/DX2 analytically  !
 ! D94   D(36,32,33,34)        -48.916          calculate D2E/DX2 analytically  !
 ! D95   D(36,32,33,38)         63.7599         calculate D2E/DX2 analytically  !
 ! D96   D(36,32,33,44)       -173.0234         calculate D2E/DX2 analytically  !
 ! D97   D(39,32,33,34)         70.8404         calculate D2E/DX2 analytically  !
 ! D98   D(39,32,33,38)       -176.4838         calculate D2E/DX2 analytically  !
 ! D99   D(39,32,33,44)        -53.267          calculate D2E/DX2 analytically  !
 ! D100  D(45,32,33,34)       -167.9643         calculate D2E/DX2 analytically  !
 ! D101  D(45,32,33,38)        -55.2885         calculate D2E/DX2 analytically  !
 ! D102  D(45,32,33,44)         67.9283         calculate D2E/DX2 analytically  !
 ! D103  D(33,32,36,35)         58.9531         calculate D2E/DX2 analytically  !
 ! D104  D(33,32,36,41)        -61.2789         calculate D2E/DX2 analytically  !
 ! D105  D(33,32,36,46)        177.1332         calculate D2E/DX2 analytically  !
 ! D106  D(39,32,36,35)        -60.1657         calculate D2E/DX2 analytically  !
 ! D107  D(39,32,36,41)        179.6023         calculate D2E/DX2 analytically  !
 ! D108  D(39,32,36,46)         58.0144         calculate D2E/DX2 analytically  !
 ! D109  D(45,32,36,35)        177.6198         calculate D2E/DX2 analytically  !
 ! D110  D(45,32,36,41)         57.3878         calculate D2E/DX2 analytically  !
 ! D111  D(45,32,36,46)        -64.2001         calculate D2E/DX2 analytically  !
 ! D112  D(33,32,45,67)       -138.1441         calculate D2E/DX2 analytically  !
 ! D113  D(36,32,45,67)        103.6735         calculate D2E/DX2 analytically  !
 ! D114  D(39,32,45,67)        -18.0615         calculate D2E/DX2 analytically  !
 ! D115  D(32,33,34,37)       -161.9052         calculate D2E/DX2 analytically  !
 ! D116  D(32,33,34,42)         33.2749         calculate D2E/DX2 analytically  !
 ! D117  D(32,33,34,53)        -71.0995         calculate D2E/DX2 analytically  !
 ! D118  D(38,33,34,37)         81.5634         calculate D2E/DX2 analytically  !
 ! D119  D(38,33,34,42)        -83.2565         calculate D2E/DX2 analytically  !
 ! D120  D(38,33,34,53)        172.369          calculate D2E/DX2 analytically  !
 ! D121  D(44,33,34,37)        -33.4504         calculate D2E/DX2 analytically  !
 ! D122  D(44,33,34,42)        161.7296         calculate D2E/DX2 analytically  !
 ! D123  D(44,33,34,53)         57.3552         calculate D2E/DX2 analytically  !
 ! D124  D(32,33,44,63)        -77.343          calculate D2E/DX2 analytically  !
 ! D125  D(34,33,44,63)        156.7976         calculate D2E/DX2 analytically  !
 ! D126  D(38,33,44,63)         45.9046         calculate D2E/DX2 analytically  !
 ! D127  D(33,34,37,19)        -58.3098         calculate D2E/DX2 analytically  !
 ! D128  D(33,34,37,52)         78.1194         calculate D2E/DX2 analytically  !
 ! D129  D(42,34,37,19)        107.6785         calculate D2E/DX2 analytically  !
 ! D130  D(42,34,37,52)       -115.8923         calculate D2E/DX2 analytically  !
 ! D131  D(53,34,37,19)       -154.9148         calculate D2E/DX2 analytically  !
 ! D132  D(53,34,37,52)        -18.4857         calculate D2E/DX2 analytically  !
 ! D133  D(33,34,42,35)        -24.3213         calculate D2E/DX2 analytically  !
 ! D134  D(37,34,42,35)        170.0404         calculate D2E/DX2 analytically  !
 ! D135  D(53,34,42,35)         79.646          calculate D2E/DX2 analytically  !
 ! D136  D(33,34,53,51)       -113.9417         calculate D2E/DX2 analytically  !
 ! D137  D(37,34,53,51)          6.6255         calculate D2E/DX2 analytically  !
 ! D138  D(42,34,53,51)        121.2511         calculate D2E/DX2 analytically  !
 ! D139  D(40,35,36,32)         66.0755         calculate D2E/DX2 analytically  !
 ! D140  D(40,35,36,41)       -174.0927         calculate D2E/DX2 analytically  !
 ! D141  D(40,35,36,46)        -54.4521         calculate D2E/DX2 analytically  !
 ! D142  D(42,35,36,32)        -48.9963         calculate D2E/DX2 analytically  !
 ! D143  D(42,35,36,41)         70.8354         calculate D2E/DX2 analytically  !
 ! D144  D(42,35,36,46)       -169.524          calculate D2E/DX2 analytically  !
 ! D145  D(47,35,36,32)       -170.6801         calculate D2E/DX2 analytically  !
 ! D146  D(47,35,36,41)        -50.8483         calculate D2E/DX2 analytically  !
 ! D147  D(47,35,36,46)         68.7922         calculate D2E/DX2 analytically  !
 ! D148  D(36,35,42,34)         31.4069         calculate D2E/DX2 analytically  !
 ! D149  D(40,35,42,34)        -86.5988         calculate D2E/DX2 analytically  !
 ! D150  D(47,35,42,34)        158.0904         calculate D2E/DX2 analytically  !
 ! D151  D(36,35,47,48)        -66.942          calculate D2E/DX2 analytically  !
 ! D152  D(36,35,47,49)        176.1255         calculate D2E/DX2 analytically  !
 ! D153  D(36,35,47,50)         54.408          calculate D2E/DX2 analytically  !
 ! D154  D(40,35,47,48)         56.4339         calculate D2E/DX2 analytically  !
 ! D155  D(40,35,47,49)        -60.4986         calculate D2E/DX2 analytically  !
 ! D156  D(40,35,47,50)        177.7839         calculate D2E/DX2 analytically  !
 ! D157  D(42,35,47,48)        168.61           calculate D2E/DX2 analytically  !
 ! D158  D(42,35,47,49)         51.6775         calculate D2E/DX2 analytically  !
 ! D159  D(42,35,47,50)        -70.0399         calculate D2E/DX2 analytically  !
 ! D160  D(32,36,46,71)        116.4168         calculate D2E/DX2 analytically  !
 ! D161  D(35,36,46,71)       -122.7754         calculate D2E/DX2 analytically  !
 ! D162  D(41,36,46,71)         -3.99           calculate D2E/DX2 analytically  !
 ! D163  D(19,37,52,51)        160.5629         calculate D2E/DX2 analytically  !
 ! D164  D(19,37,52,83)         13.2738         calculate D2E/DX2 analytically  !
 ! D165  D(34,37,52,51)         29.4631         calculate D2E/DX2 analytically  !
 ! D166  D(34,37,52,83)       -117.826          calculate D2E/DX2 analytically  !
 ! D167  D(33,44,63,64)        -40.4133         calculate D2E/DX2 analytically  !
 ! D168  D(33,44,63,65)         81.4226         calculate D2E/DX2 analytically  !
 ! D169  D(33,44,63,66)       -158.941          calculate D2E/DX2 analytically  !
 ! D170  D(32,45,67,68)        -59.0775         calculate D2E/DX2 analytically  !
 ! D171  D(32,45,67,69)         63.002          calculate D2E/DX2 analytically  !
 ! D172  D(32,45,67,70)       -178.3923         calculate D2E/DX2 analytically  !
 ! D173  D(36,46,71,72)        -62.4839         calculate D2E/DX2 analytically  !
 ! D174  D(36,46,71,73)         59.4733         calculate D2E/DX2 analytically  !
 ! D175  D(36,46,71,74)        178.4638         calculate D2E/DX2 analytically  !
 ! D176  D(35,47,50,75)        179.8155         calculate D2E/DX2 analytically  !
 ! D177  D(48,47,50,75)        -61.0284         calculate D2E/DX2 analytically  !
 ! D178  D(49,47,50,75)         59.4486         calculate D2E/DX2 analytically  !
 ! D179  D(47,50,75,76)        179.8665         calculate D2E/DX2 analytically  !
 ! D180  D(47,50,75,77)        -60.8927         calculate D2E/DX2 analytically  !
 ! D181  D(47,50,75,78)         60.5693         calculate D2E/DX2 analytically  !
 ! D182  D(43,51,52,37)       -147.7769         calculate D2E/DX2 analytically  !
 ! D183  D(43,51,52,83)        -98.1987         calculate D2E/DX2 analytically  !
 ! D184  D(53,51,52,37)        -16.265          calculate D2E/DX2 analytically  !
 ! D185  D(53,51,52,83)         33.3131         calculate D2E/DX2 analytically  !
 ! D186  D(54,51,52,37)         96.0557         calculate D2E/DX2 analytically  !
 ! D187  D(54,51,52,83)        145.6339         calculate D2E/DX2 analytically  !
 ! D188  D(43,51,53,34)        144.4278         calculate D2E/DX2 analytically  !
 ! D189  D(52,51,53,34)         12.6625         calculate D2E/DX2 analytically  !
 ! D190  D(54,51,53,34)        -99.4453         calculate D2E/DX2 analytically  !
 ! D191  D(43,51,54,55)        -34.9363         calculate D2E/DX2 analytically  !
 ! D192  D(43,51,54,56)        148.9393         calculate D2E/DX2 analytically  !
 ! D193  D(52,51,54,55)         86.4323         calculate D2E/DX2 analytically  !
 ! D194  D(52,51,54,56)        -89.6921         calculate D2E/DX2 analytically  !
 ! D195  D(53,51,54,55)       -155.8994         calculate D2E/DX2 analytically  !
 ! D196  D(53,51,54,56)         27.9762         calculate D2E/DX2 analytically  !
 ! D197  D(37,52,83,19)        -11.5704         calculate D2E/DX2 analytically  !
 ! D198  D(37,52,83,84)        146.4737         calculate D2E/DX2 analytically  !
 ! D199  D(51,52,83,19)        -69.9077         calculate D2E/DX2 analytically  !
 ! D200  D(51,52,83,84)         88.1364         calculate D2E/DX2 analytically  !
 ! D201  D(51,54,55,57)       -175.1872         calculate D2E/DX2 analytically  !
 ! D202  D(51,54,55,58)          5.186          calculate D2E/DX2 analytically  !
 ! D203  D(56,54,55,57)          0.888          calculate D2E/DX2 analytically  !
 ! D204  D(56,54,55,58)       -178.7388         calculate D2E/DX2 analytically  !
 ! D205  D(51,54,56,59)        175.5091         calculate D2E/DX2 analytically  !
 ! D206  D(51,54,56,60)         -4.1843         calculate D2E/DX2 analytically  !
 ! D207  D(55,54,56,59)         -0.5585         calculate D2E/DX2 analytically  !
 ! D208  D(55,54,56,60)        179.7481         calculate D2E/DX2 analytically  !
 ! D209  D(54,55,57,61)         -0.602          calculate D2E/DX2 analytically  !
 ! D210  D(54,55,57,93)        175.9011         calculate D2E/DX2 analytically  !
 ! D211  D(58,55,57,61)        179.0222         calculate D2E/DX2 analytically  !
 ! D212  D(58,55,57,93)         -4.4746         calculate D2E/DX2 analytically  !
 ! D213  D(54,56,59,61)         -0.0651         calculate D2E/DX2 analytically  !
 ! D214  D(54,56,59,97)        177.5699         calculate D2E/DX2 analytically  !
 ! D215  D(60,56,59,61)        179.6272         calculate D2E/DX2 analytically  !
 ! D216  D(60,56,59,97)         -2.7377         calculate D2E/DX2 analytically  !
 ! D217  D(55,57,61,59)         -0.0067         calculate D2E/DX2 analytically  !
 ! D218  D(55,57,61,62)        179.9667         calculate D2E/DX2 analytically  !
 ! D219  D(93,57,61,59)       -176.4951         calculate D2E/DX2 analytically  !
 ! D220  D(93,57,61,62)          3.4783         calculate D2E/DX2 analytically  !
 ! D221  D(55,57,93,94)        -84.7237         calculate D2E/DX2 analytically  !
 ! D222  D(55,57,93,95)        155.7338         calculate D2E/DX2 analytically  !
 ! D223  D(55,57,93,96)         34.6347         calculate D2E/DX2 analytically  !
 ! D224  D(61,57,93,94)         91.8079         calculate D2E/DX2 analytically  !
 ! D225  D(61,57,93,95)        -27.7346         calculate D2E/DX2 analytically  !
 ! D226  D(61,57,93,96)       -148.8337         calculate D2E/DX2 analytically  !
 ! D227  D(56,59,61,57)          0.3436         calculate D2E/DX2 analytically  !
 ! D228  D(56,59,61,62)       -179.6297         calculate D2E/DX2 analytically  !
 ! D229  D(97,59,61,57)       -177.3077         calculate D2E/DX2 analytically  !
 ! D230  D(97,59,61,62)          2.7189         calculate D2E/DX2 analytically  !
 ! D231  D(56,59,97,98)         21.7678         calculate D2E/DX2 analytically  !
 ! D232  D(56,59,97,99)        -98.0943         calculate D2E/DX2 analytically  !
 ! D233  D(56,59,97,100)       142.5834         calculate D2E/DX2 analytically  !
 ! D234  D(61,59,97,98)       -160.5685         calculate D2E/DX2 analytically  !
 ! D235  D(61,59,97,99)         79.5694         calculate D2E/DX2 analytically  !
 ! D236  D(61,59,97,100)       -39.7529         calculate D2E/DX2 analytically  !
 ! D237  D(19,83,84,85)       -171.2463         calculate D2E/DX2 analytically  !
 ! D238  D(19,83,84,89)         -2.7146         calculate D2E/DX2 analytically  !
 ! D239  D(52,83,84,85)         30.0286         calculate D2E/DX2 analytically  !
 ! D240  D(52,83,84,89)       -161.4397         calculate D2E/DX2 analytically  !
 ! D241  D(83,84,85,86)       -131.0544         calculate D2E/DX2 analytically  !
 ! D242  D(83,84,85,87)        -11.705          calculate D2E/DX2 analytically  !
 ! D243  D(83,84,85,88)        107.7664         calculate D2E/DX2 analytically  !
 ! D244  D(89,84,85,86)         60.5242         calculate D2E/DX2 analytically  !
 ! D245  D(89,84,85,87)        179.8736         calculate D2E/DX2 analytically  !
 ! D246  D(89,84,85,88)        -60.655          calculate D2E/DX2 analytically  !
 ! D247  D(83,84,89,90)       -110.9362         calculate D2E/DX2 analytically  !
 ! D248  D(83,84,89,91)          8.5946         calculate D2E/DX2 analytically  !
 ! D249  D(83,84,89,92)        128.1362         calculate D2E/DX2 analytically  !
 ! D250  D(85,84,89,90)         60.2148         calculate D2E/DX2 analytically  !
 ! D251  D(85,84,89,91)        179.7456         calculate D2E/DX2 analytically  !
 ! D252  D(85,84,89,92)        -60.7128         calculate D2E/DX2 analytically  !
 ! D253  D(84,89,91,18)        -89.3171         calculate D2E/DX2 analytically  !
 ! D254  D(90,89,91,18)         30.7457         calculate D2E/DX2 analytically  !
 ! D255  D(92,89,91,18)        150.7303         calculate D2E/DX2 analytically  !
 --------------------------------------------------------------------------------
 Trust Radius=5.00D-02 FncErr=1.00D-07 GrdErr=1.00D-06 EigMax=2.50D+02 EigMin=1.00D-04
 Number of steps in this run=    566 maximum allowed number of steps=    600.
 Search for a saddle point of order  1.
 GradGradGradGradGradGradGradGradGradGradGradGradGradGradGradGradGradGrad

 Leave Link  103 at Wed Jun  5 06:09:38 2019, MaxMem=  6442450944 cpu:               3.6 elap:               0.2
 (Enter /home/ekwan/sw/g16/l202.exe)
 Stoichiometry    C30H47F6NaO15S
 Framework group  C1[X(C30H47F6NaO15S)]
 Deg. of freedom   294
 Full point group                 C1      NOp   1
 Largest Abelian subgroup         C1      NOp   1
 Largest concise Abelian subgroup C1      NOp   1
                         Standard orientation:                         
 ---------------------------------------------------------------------
 Center     Atomic      Atomic             Coordinates (Angstroms)
 Number     Number       Type             X           Y           Z
 ---------------------------------------------------------------------
      1          6           0       -2.058604    1.565720    2.233320
      2          6           0       -2.403097    2.351285    0.963486
      3          6           0       -1.599129    3.658356    0.921496
      4          6           0        0.229464    2.694477    2.190468
      5          6           0       -0.541929    1.376518    2.366687
      6          1           0       -1.740049    4.164472   -0.044006
      7          1           0       -2.096733    1.765394    0.086635
      8          1           0       -2.419560    2.134393    3.098816
      9          1           0        0.006129    3.335643    3.053847
     10          1           0       -0.215744    0.666296    1.597199
     11          8           0       -0.205973    3.371906    0.981747
     12          8           0       -2.025178    4.484070    1.968898
     13          8           0       -3.788897    2.659323    0.890351
     14          8           0       -2.699689    0.288195    2.189480
     15          8           0       -0.251304    0.860630    3.667797
     16          6           0        1.759654    2.514766    2.076834
     17          1           0        2.059126    1.986127    3.007512
     18          1           0        2.183731    3.540889    2.180351
     19          8           0        2.188574    1.898034    0.924135
     20          6           0       -4.535051    1.807024    0.030166
     21          1           0       -4.173699    1.863388   -1.007183
     22          1           0       -4.497668    0.763679    0.360502
     23          1           0       -5.569710    2.160148    0.060116
     24          6           0       -3.490274   -0.015030    3.330964
     25          1           0       -2.896451    0.021228    4.253142
     26          1           0       -4.340683    0.674911    3.426683
     27          1           0       -3.866127   -1.030647    3.185932
     28          6           0        0.260342   -0.465541    3.685172
     29          1           0       -0.432744   -1.169808    3.208728
     30          1           0        1.237530   -0.534983    3.188446
     31          1           0        0.379642   -0.739130    4.737926
     32          6           0        4.129504   -1.263143   -1.244521
     33          6           0        3.338286   -0.004110   -0.854753
     34          6           0        2.040350   -0.356382   -0.185178
     35          6           0        2.770569   -2.576973    0.437458
     36          6           0        4.181626   -2.194351   -0.022575
     37          1           0        1.249119    0.364667   -0.110765
     38          1           0        3.884877    0.530849   -0.059750
     39          1           0        3.620543   -1.762919   -2.077780
     40          1           0        2.291245   -3.185958   -0.334923
     41          1           0        4.699915   -1.675321    0.791451
     42          8           0        1.899300   -1.391986    0.566256
     43          8           0       -0.351142   -0.279182   -3.914773
     44          8           0        3.057987    0.898328   -1.903894
     45          8           0        5.446689   -0.884962   -1.609981
     46          8           0        4.846355   -3.405617   -0.346529
     47          6           0        2.696695   -3.309977    1.761637
     48          1           0        3.166275   -4.296222    1.628875
     49          1           0        1.639385   -3.470918    2.023813
     50          8           0        3.358731   -2.551378    2.751136
     51         16           0       -0.188631   -0.328122   -2.449444
     52          8           0       -0.245124    1.009260   -1.775765
     53          8           0        0.997337   -1.141885   -1.993265
     54          6           0       -1.621614   -1.212524   -1.794904
     55          6           0       -2.860683   -1.059080   -2.412036
     56          6           0       -1.490460   -1.973036   -0.634111
     57          6           0       -3.984667   -1.663306   -1.843475
     58          1           0       -2.944623   -0.481567   -3.325896
     59          6           0       -2.618996   -2.576407   -0.080999
     60          1           0       -0.520896   -2.088079   -0.166046
     61          6           0       -3.871075   -2.422714   -0.678857
     62          1           0       -4.747715   -2.888080   -0.243203
     63          6           0        4.155327    1.727686   -2.307346
     64          1           0        4.725339    2.075420   -1.437622
     65          1           0        4.826360    1.196795   -2.987152
     66          1           0        3.714423    2.587764   -2.815029
     67          6           0        5.957899   -1.559500   -2.758662
     68          1           0        5.975734   -2.644522   -2.611458
     69          1           0        5.363765   -1.326052   -3.653052
     70          1           0        6.977586   -1.194169   -2.902549
     71          6           0        6.057641   -3.624402    0.376983
     72          1           0        6.797287   -2.846050    0.154829
     73          1           0        5.875364   -3.651504    1.459068
     74          1           0        6.441395   -4.593703    0.050770
     75          6           0        3.329015   -3.173491    4.027773
     76          1           0        3.864341   -2.514921    4.714857
     77          1           0        2.297309   -3.306829    4.383761
     78          1           0        3.824140   -4.155279    4.005850
     79          6           0       -1.518994    5.814088    1.899565
     80          1           0       -1.984065    6.369594    2.716708
     81          1           0       -0.429328    5.838590    2.016748
     82          1           0       -1.786920    6.285469    0.943013
     83         11           0        1.163707    2.664333   -0.934589
     84          8           0        2.359232    4.601296   -1.455675
     85          6           0        2.183601    5.661896   -2.384906
     86          1           0        3.109813    5.851040   -2.945558
     87          1           0        1.396788    5.358917   -3.079563
     88          1           0        1.882435    6.587933   -1.875174
     89          6           0        3.370390    4.872215   -0.486509
     90          1           0        3.120552    5.768564    0.098111
     91          1           0        3.411718    3.998570    0.168609
     92          1           0        4.344037    5.024501   -0.973453
     93          6           0       -5.340661   -1.424767   -2.453162
     94          9           0       -5.895955   -0.277742   -1.986174
     95          9           0       -6.206276   -2.420978   -2.170485
     96          9           0       -5.275275   -1.307002   -3.795782
     97          6           0       -2.486470   -3.445772    1.140917
     98          9           0       -1.359543   -3.176745    1.840657
     99          9           0       -2.441410   -4.758418    0.817143
    100          9           0       -3.534098   -3.290859    1.982918
 ---------------------------------------------------------------------
 Rotational constants (GHZ):           0.0554086           0.0419014           0.0353129
 Leave Link  202 at Wed Jun  5 06:09:39 2019, MaxMem=  6442450944 cpu:               5.4 elap:               0.3
 (Enter /home/ekwan/sw/g16/l301.exe)
 Standard basis: 6-31G(d) (6D, 7F)
 Ernie: Thresh=  0.10000D-02 Tol=  0.10000D-05 Strict=F.
 There are   897 symmetry adapted cartesian basis functions of A   symmetry.
 There are   897 symmetry adapted basis functions of A   symmetry.
   897 basis functions,  1720 primitive gaussians,   897 cartesian basis functions
   214 alpha electrons      214 beta electrons
       nuclear repulsion energy      9549.1926009643 Hartrees.
 IExCor=  402 DFT=T Ex+Corr=B3LYP ExCW=0 ScaHFX=  0.200000
 ScaDFX=  0.800000  0.720000  1.000000  0.810000 ScalE2=  1.000000  1.000000
 IRadAn=      5 IRanWt=     -1 IRanGd=            0 ICorTp=0 IEmpDi=  4
 NAtoms=  100 NActive=  100 NUniq=  100 SFac= 1.00D+00 NAtFMM=   60 NAOKFM=T Big=T
 Integral buffers will be    131072 words long.
 Raffenetti 2 integral format.
 Two-electron integral symmetry is turned on.
 Force inversion solution in PCM.
 ------------------------------------------------------------------------------
 Polarizable Continuum Model (PCM)
 =================================
 Model                : PCM.
 Atomic radii         : UFF (Universal Force Field).
 Polarization charges : Total charges.
 Charge compensation  : None.
 Solution method      : Matrix inversion.
 Cavity type          : Scaled VdW (van der Waals Surface) (Alpha=1.100).
 Cavity algorithm     : GePol (No added spheres)
                        Default sphere list used, NSphG=  100.
                        Lebedev-Laikov grids with approx.  5.0 points / Ang**2.
                        Smoothing algorithm: York/Karplus (Gamma=1.0000).
                        Polarization charges: spherical gaussians, with
                                              point-specific exponents (IZeta= 3).
                        Self-potential: point-specific (ISelfS= 7).
                        Self-field    : sphere-specific E.n sum rule (ISelfD= 2).
 1st derivatives      : Analytical E(r).r(x)/FMM algorithm (CHGder, D1EAlg=3).
                        Cavity 1st derivative terms included.
 2nd derivatives      : Analytical E(r).r(xy)/FMM algorithm (CHGder, D2EAlg=3).
                        Cavity 2nd derivative terms included.
 Solvent              : TetraHydroFuran, Eps=   7.425700 Eps(inf)=   1.974025
 ------------------------------------------------------------------------------
 GePol: Number of generator spheres                  =     100
 GePol: Total number of spheres                      =     100
 GePol: Number of exposed spheres                    =     100 (100.00%)
 GePol: Number of points                             =    6525
 GePol: Average weight of points                     =       0.12
 GePol: Minimum weight of points                     =   0.14D-11
 GePol: Maximum weight of points                     =    0.21593
 GePol: Number of points with low weight             =     477
 GePol: Fraction of low-weight points (<1% of avg)   =       7.31%
 GePol: Cavity surface area                          =    799.833 Ang**2
 GePol: Cavity volume                                =    994.607 Ang**3
 Leave Link  301 at Wed Jun  5 06:09:39 2019, MaxMem=  6442450944 cpu:               5.5 elap:               0.3
 (Enter /home/ekwan/sw/g16/l302.exe)
[...]
 .00012366,0.00004440,0.00006819,-0.00011587,0.00012521,0.00000191,0.00
 015630,-0.00000432,-0.00004104,-0.00009264,0.00003172,-0.00000874,0.00
 009558,-0.00010758,0.00003817,-0.00006163,0.00010960,-0.00005736,0.003
 36550,0.00141551,-0.00115531,-0.00077344,-0.00109701,-0.00003000,-0.00
 158159,0.00005760,-0.00009811,-0.00046212,0.00083758,0.00226391,0.0001
 4945,-0.00081953,0.00044664,0.00377465,-0.00088438,0.00081942,-0.00004
 695,0.00062114,0.00217681,0.00010206,-0.00018238,-0.00014420,0.0017688
 6,-0.04377471,0.00123043,0.00029478,-0.00071522,-0.00086896,-0.0033942
 2,-0.00080144,0.00000320,0.00046737,-0.00081942,-0.00080180,0.00009466
 ,0.00007568,-0.00004919,-0.00001871,-0.00000997,-0.00000693,-0.0000243
 1,-0.00000416,0.00001536,0.00000358,-0.00000772,0.00000586,0.00003090,
 -0.00005165,-0.00006417,-0.00000498,0.00001530,0.00000324,0.00000071,0
 .00000008,0.00000664,-0.00000866,0.00000373,0.00000950,0.00005000,-0.0
 0001860,0.00003693,-0.00000310,0.00000356,-0.00000565,-0.00000252,-0.0
 0000710,-0.00000819,-0.00001976,0.00001109,0.00000147,0.00004392,-0.00
 006500,0.00006499,0.00000195,0.00000680,-0.00000496,0.00000577,-0.0000
 1260,0.00000429,-0.00003020,0.00002411,-0.00000190,0.00003410,0.000112
 58,-0.00000984,0.00000151,-0.00001952,-0.00000931,-0.00001380,-0.00001
 096,0.00000407,-0.00000471,-0.00001459,0.00001182,0.00014692,0.0001899
 8,0.00002302,-0.00004398,-0.00004264,-0.00000247,0.00000623,0.00002988
 ,-0.00002059,-0.00000987,-0.00000449,0.00000514,0.00000341,0.00000579,
 -0.00000573,0.00000115,-0.00000631,-0.00000117,0.00002830,0.00001133,0
 .00001390,-0.00000038,-0.00000622,-0.00000238,0.00001791,0.00001394,-0
 .00000156,-0.00001048,-0.00000712,0.00000673,-0.00274038,0.00014279,-0
 .00095472,0.00078474,-0.00046940,0.00008184,0.00086166,0.00032257,0.00
 017549,0.00067818,-0.00014227,0.00086230,0.00899898,-0.25381316,-0.020
 18451,-0.03220567,-0.03326200,-0.03028822,-0.00957182,0.35992847,0.000
 09999,0.00017682,-0.00001660,-0.00004128,-0.00001470,-0.00011011,-0.00
 000079,-0.00000068,-0.00000491,-0.00001486,0.00006406,-0.00004332,-0.0
 0001874,0.00005184,-0.00015720,-0.00000183,-0.00002028,0.00000868,0.00
 000402,-0.00000181,0.00001098,-0.00001130,-0.00001746,0.00000680,-0.00
 000684,-0.00000215,0.00000875,0.00000098,0.00001557,-0.00000278,0.0000
 1229,-0.00003570,0.00006971,0.00000178,-0.00000417,0.00002463,0.000064
 10,0.00003965,0.00011174,-0.00008959,-0.00032227,0.00011890,0.00000159
 ,-0.00032580,0.00009047,0.00006484,-0.00001795,-0.00010584,0.00000760,
 -0.00000324,0.00003196,-0.00001836,0.00001162,0.00002575,-0.00003962,0
 .00005833,0.00012774,-0.00002533,-0.00006415,-0.00009445,-0.00000688,-
 0.00004092,0.00004344,0.00001699,-0.00000516,-0.00005381,-0.00000461,0
 .00001621,0.00000975,0.00025323,0.00036235,-0.00009904,-0.00002958,-0.
 00004627,0.00001261,-0.00001435,-0.00011724,-0.00000458,-0.00026847,0.
 00009642,0.00023198,0.00022750,0.00040159,0.00012261,-0.00008598,0.000
 03261,0.00006574,-0.00005530,-0.00004485,-0.00002354,-0.00002705,-0.00
 003314,-0.00003054,-0.00003914,0.00000407,-0.00002009,-0.00000102,0.00
 001065,0.00000110,-0.00020924,-0.00007598,-0.00039653,-0.00007323,0.00
 004359,-0.00008454,0.00000555,-0.00000511,0.00000164,0.00001076,-0.000
 00990,-0.00001236,0.00001211,-0.00000098,-0.00000855,-0.00000876,0.000
 00870,0.00001394,0.00000101,0.00000352,0.00000255,0.00000945,0.0000033
 0,-0.00000009,0.00006413,-0.00009701,0.00018299,0.00035736,0.00023124,
 -0.00033685,0.00004332,0.00001193,0.00001802,0.00002152,-0.00000256,0.
 00001767,0.00002263,-0.00001612,0.00002443,0.00016117,0.00004050,-0.00
 007179,-0.00002846,0.00000456,0.00001504,0.00003311,-0.00004086,0.0000
 3160,-0.00007078,-0.00001716,0.00004917,-0.00137435,-0.00072215,0.0002
 7207,0.00030623,0.00049691,0.00009617,0.00069395,0.00004723,0.00016410
 ,-0.00006577,-0.00073113,-0.00109463,0.00010583,0.00051078,-0.00043993
 ,-0.00185754,0.00024695,0.00024927,0.00041700,-0.00059602,-0.00049893,
 -0.00002567,0.00005659,0.00008874,-0.00088054,0.02422134,0.00762956,0.
 00011398,0.00045853,0.00014384,0.00124665,0.00049886,0.00023449,-0.000
 17170,0.00021095,0.00006368,-0.00002362,-0.00002417,0.00001056,0.00000
 811,0.00000476,0.00000433,0.00000365,0.00000162,-0.00000292,-0.0000021
 7,-0.00000062,-0.00000203,-0.00000681,-0.00000058,-0.00000623,-0.00000
 153,-0.00000039,-0.00000287,0.00000099,-0.00000266,0.00000445,0.000003
 62,0.00000145,-0.00000017,-0.00001492,0.00000292,-0.00002072,0.0000015
 3,0.00000060,0.00000154,0.00000409,-0.00000076,0.00000772,0.00000073,0
 .00000051,0.00000055,0.00006636,0.00000821,-0.00003453,-0.00000778,-0.
 00000454,0.00000254,-0.00001824,-0.00000175,0.00001595,-0.00001002,0.0
 0000515,0.00000406,-0.00000011,0.00001033,-0.00000492,-0.00000097,0.00
 000154,0.00000067,0.00000029,-0.00000024,-0.00000124,0.00000136,-0.000
 00315,0.00000418,-0.00004457,-0.00007221,-0.00006317,0.00001527,0.0000
 1087,0.00001785,-0.00000319,-0.00000520,-0.00000363,0.00000095,-0.0000
 0028,-0.00000028,0.00000153,-0.00000269,0.00000274,-0.00000036,0.00000
 258,0.00000203,-0.00001177,-0.00000348,-0.00001452,0.00000086,0.000004
 59,0.00000200,-0.00000140,-0.00000348,-0.00000042,0.00000229,0.0000011
 3,0.00000086,0.00111951,-0.00028922,0.00032350,-0.00032460,0.00024803,
 -0.00000548,-0.00034033,-0.00005716,-0.00005489,-0.00026978,0.00009158
 ,-0.00025947,0.00025416,-0.01996372,-0.07497445,-0.01931336,-0.0391369
 0,-0.00777969,-0.00334319,0.07744885,0.08961333,-0.00024466,-0.0003482
 9,0.00000275,-0.00001189,0.00007128,0.00008391,-0.00013979,0.00002883,
 -0.00001001,0.00005593,-0.00000558,-0.00002075,-0.00012010,0.00021415,
 -0.00005281,0.00001720,0.00002011,-0.00000331,-0.00001192,0.00000088,-
 0.00002212,0.00002279,0.00000637,-0.00001135,0.00000183,-0.00001972,-0
 .00000774,0.00003307,-0.00002481,-0.00003434,0.00008613,-0.00005567,0.
 00001435,0.00004400,-0.00001127,-0.00003230,0.00010436,0.00002397,-0.0
 0005688,0.00057166,0.00049478,-0.00024346,0.00016257,-0.00042868,-0.00
 000994,-0.00009474,0.00006435,0.00014462,0.00001616,0.00000380,-0.0000
 2364,0.00001882,-0.00005390,-0.00003869,0.00003955,-0.00016913,-0.0001
 5373,-0.00003261,-0.00009343,0.00006413,0.00001692,0.00006033,-0.00005
 333,-0.00002753,0.00002714,0.00004527,0.00001174,-0.00001154,-0.000001
 39,-0.00092613,-0.00111473,0.00051788,0.00010713,0.00025944,0.00006546
 ,0.00008827,0.00026538,0.00000425,0.00062916,-0.00027563,-0.00078019,0
 .00020803,0.00053954,0.00016796,-0.00015361,0.00010865,0.00014558,0.00
 000572,-0.00001747,-0.00001735,-0.00005536,-0.00006205,-0.00007358,0.0
 0006249,0.00002030,-0.00004379,-0.00002090,0.00004098,-0.00002444,0.00
 024065,0.00049612,0.00003139,0.00008826,0.00001193,-0.00003091,0.00010
 981,-0.00004847,-0.00000697,-0.00002565,0.00003193,-0.00000545,-0.0000
 0167,0.00000361,0.00001962,0.00000634,-0.00000712,-0.00001004,0.000031
 72,-0.00000683,-0.00004521,-0.00001752,-0.00000097,0.00000030,-0.00020
 392,-0.00025559,0.00013960,-0.00024983,-0.00020225,0.00046845,-0.00007
 622,-0.00009228,0.00004944,-0.00011104,-0.00001777,0.00006721,-0.00012
 710,0.00003812,-0.00000319,0.00049939,0.00018962,0.00003562,-0.0000762
 6,-0.00000430,0.00001307,0.00011675,-0.00012165,0.00016126,-0.00023029
 ,-0.00007788,-0.00022489,0.00108785,0.00077902,-0.00044287,-0.00022890
 ,-0.00056782,-0.00009175,-0.00048412,-0.00016917,0.00005718,-0.0003032
 4,-0.00057438,-0.00027007,0.00033996,0.00007451,0.00015967,0.00150224,
 -0.00053316,0.00199154,0.00095132,-0.00104996,0.00061627,0.00013093,0.
 00012563,0.00003541,-0.00756926,0.00098020,0.01513191,0.00049438,0.000
 61852,-0.00036041,-0.00288585,-0.00051676,-0.00248262,0.00182715,0.000
 94809,0.00056236,0.00006720,0.00006244,-0.00002347,-0.00001279,-0.0000
 0468,-0.00000708,-0.00001349,-0.00000210,0.00000600,-0.00000042,-0.000
 00890,0.00000760,0.00002607,-0.00002356,-0.00004792,0.00000500,0.00000
 470,0.00000452,0.00000216,0.00000428,0.00000671,-0.00001245,-0.0000010
 0,0.00000709,0.00008833,-0.00001323,0.00004292,-0.00001567,-0.00000828
 ,-0.00000124,0.00000298,-0.00000172,-0.00000481,-0.00000721,0.00000744
 ,-0.00000235,0.00006367,-0.00007435,0.00012939,-0.00002154,-0.00000775
 ,-0.00002269,0.00000044,0.00002141,0.00001149,-0.00000681,0.00002662,-
 0.00000956,-0.00000999,-0.00000234,0.00000158,0.00000130,-0.00000273,-
 0.00000235,0.00000497,0.00000266,0.00000208,-0.00000083,0.00000168,-0.
 00000061,0.00002032,0.00012395,0.00002195,-0.00000587,-0.00002835,-0.0
 0000218,-0.00000327,0.00001937,-0.00000974,-0.00000123,-0.00000191,0.0
 0000202,-0.00000004,0.00000320,0.00000024,0.00000035,-0.00000677,-0.00
 000199,0.00000486,0.00000981,0.00000508,0.00000064,-0.00000720,-0.0000
 0105,0.00000870,0.00001042,0.00000074,-0.00000165,-0.00000247,0.000001
 60,-0.00111472,-0.00002085,0.00008152,0.00035390,-0.00021977,-0.000061
 26,0.00035854,0.00015083,-0.00005540,0.00024632,-0.00004650,0.00013200
 ,-0.16463303,0.00436331,0.09378289,-0.07903314,-0.00418016,0.01342916,
 -0.00955561,0.02994269,0.02343968,0.25789386,0.00019335,0.00031427,-0.
 00001047,-0.00006651,0.00001206,-0.00000387,0.00005548,0.00009983,0.00
 004481,-0.00001984,0.00006401,-0.00000186,0.00004239,-0.00003386,0.000
 08022,-0.00000926,-0.00002632,0.00000344,0.00000463,0.00000582,-0.0000
 0645,-0.00002340,-0.00003563,-0.00000138,-0.00000133,-0.00001331,-0.00
 000709,0.00001406,-0.00000584,-0.00001272,-0.00003409,-0.00004175,-0.0
 0001317,-0.00001501,-0.00010641,-0.00002699,0.00000404,-0.00008922,-0.
 00000284,-0.00014911,-0.00038733,-0.00014879,-0.00009749,0.00004081,-0
 .00006040,0.00002122,-0.00001866,0.00003520,0.00000062,0.00000538,-0.0
 0001459,-0.00001838,-0.00002478,-0.00000798,-0.00004900,-0.00003137,-0
 .00003152,-0.00000437,0.00010592,-0.00000692,-0.00000148,0.00001274,0.
 00000203,-0.00003056,-0.00001581,0.00003816,0.00002077,-0.00002733,-0.
 00000034,0.00072481,0.00072334,-0.00014252,-0.00010127,-0.00024125,-0.
 00007760,-0.00012004,-0.00035927,-0.00008694,-0.00056174,-0.00194262,-
 0.00037759,0.00005902,-0.00004130,0.00003775,0.00001409,-0.00004038,-0
 .00001736,-0.00001824,-0.00000408,0.00000162,-0.00000934,-0.00000011,-
 0.00002282,0.00003666,-0.00001947,-0.00000570,0.00000256,-0.00000420,-
 0.00001879,0.00016961,0.00004813,0.00023523,0.00007815,-0.00013479,0.0
 0002129,0.00001894,-0.00000964,0.00000345,0.00000187,0.00000876,-0.000
 00567,-0.00000603,-0.00000263,0.00000977,0.00000606,-0.00000634,-0.000
 00606,-0.00000413,-0.00000367,0.00001040,0.00000013,0.00000149,0.00000
 083,-0.00010471,0.00011777,-0.00009562,-0.00027653,-0.00010670,0.00037
 334,-0.00005295,-0.00001241,0.00000977,-0.00003648,0.00001689,0.000014
 40,-0.00003247,0.00004103,-0.00000420,-0.00001651,-0.00002239,-0.00000
 480,-0.00001564,0.00000945,-0.00000712,0.00002474,-0.00001497,0.000010
 04,0.00001172,0.00004558,-0.00001399,0.00136279,0.00034459,-0.00044248
 ,-0.00036569,-0.00042889,-0.00003195,-0.00057108,0.00003348,-0.0000643
 3,0.00016363,-0.00138424,0.00034406,-0.00056957,-0.00032080,0.00037973
 ,0.00148410,0.00066119,0.00135622,-0.00008271,-0.00004911,-0.00032761,
 -0.00000859,0.00004885,0.00002140,-0.01330433,0.00793628,0.01574200,-0
 .00004510,0.00043516,0.00005773,-0.00021417,-0.00038917,0.00088699,-0.
 00006586,-0.00030312,0.00056100,0.00003092,0.00002494,-0.00001698,-0.0
 0000648,-0.00000384,-0.00000250,-0.00000789,-0.00000141,0.00000535,0.0
 0000185,-0.00000203,0.00000155,0.00000954,-0.00001511,-0.00001687,-0.0
 0000166,0.00000478,0.00000134,-0.00000006,0.00000018,0.00000094,-0.000
 00263,0.00000097,0.00000266,0.00001286,-0.00000569,0.00001300,-0.00000
 013,0.00000155,-0.00000210,-0.00000194,-0.00000201,-0.00000381,-0.0000
 0588,0.00000299,0.00000051,-0.00000741,-0.00001831,0.00002135,0.000004
 68,0.00000359,-0.00000042,0.00000630,-0.00000509,-0.00000357,-0.000006
 32,0.00000497,-0.00000083,0.00001862,0.00005589,-0.00000375,0.00000041
 ,-0.00000954,-0.00000443,-0.00000773,-0.00000624,0.00000171,-0.0000026
 3,-0.00000804,0.00000573,0.00006500,0.00006870,0.00000577,-0.00001834,
 -0.00001479,-0.00000214,0.00000288,0.00001042,-0.00000704,-0.00000384,
 -0.00000147,0.00000199,0.00000124,0.00000232,-0.00000244,0.00000053,-0
 .00000195,-0.00000044,0.00001185,0.00000381,0.00000652,-0.00000020,-0.
 00000198,-0.00000105,0.00000635,0.00000448,-0.00000070,-0.00000425,-0.
 00000263,0.00000254,-0.00088478,0.00005200,-0.00042825,0.00025783,-0.0
 0013158,0.00004650,0.00028945,0.00009722,0.00006981,0.00018420,-0.0000
 3307,0.00024558,0.00514069,-0.07202293,-0.00222519,-0.00494722,0.01144
 296,0.00242233,0.04215136,-0.02636026,-0.04327589,-0.02969953,0.082432
 51,0.00028203,0.00047894,-0.00000127,-0.00006793,-0.00007114,-0.000200
 49,0.00009951,-0.00003352,0.00000321,-0.00006446,0.00008005,-0.0000430
 7,0.00006546,-0.00010513,-0.00013950,-0.00001513,-0.00003953,0.0000127
 7,0.00001710,-0.00000479,0.00003167,-0.00002845,-0.00001679,0.00002043
 ,-0.00000966,0.00001212,0.00001754,-0.00002271,0.00003952,0.00002215,-
 0.00004048,0.00000377,0.00007748,-0.00002665,0.00001254,0.00005627,0.0
 0003227,0.00005462,0.00018729,-0.00052366,-0.00067141,0.00037310,-0.00
 011868,-0.00003023,0.00012881,0.00014680,-0.00006998,-0.00023828,-0.00
 000334,-0.00000736,0.00005834,-0.00003525,0.00005660,0.00006061,-0.000
 06730,0.00019749,0.00027588,-0.00002447,-0.00005662,-0.00015400,-0.000
 01743,-0.00008139,0.00008161,0.00002904,-0.00001725,-0.00010621,-0.000
 01219,0.00002754,0.00001318,0.00135934,0.00130498,-0.00042033,-0.00013
 389,-0.00023344,-0.00001349,-0.00015050,-0.00046660,-0.00002854,-0.001
 05727,-0.00047332,0.00030027,0.00003706,0.00001101,-0.00000167,0.00006
 798,-0.00005675,-0.00008133,-0.00005917,-0.00003621,-0.00001017,0.0000
 2527,0.00001855,0.00003393,-0.00009808,0.00000214,0.00000909,0.0000112
 3,-0.00000769,0.00002442,-0.00047570,-0.00043125,-0.00060895,-0.000170
 91,0.00011198,-0.00008348,-0.00006896,0.00002672,0.00000186,0.00002826
 ,-0.00003601,-0.00001528,0.00001931,-0.00000348,-0.00002723,-0.0000169
 9,0.00001813,0.00002487,-0.00001697,0.00001004,0.00002442,0.00002033,0
 .00000332,-0.00000052,0.00025110,-0.00000609,0.00017118,0.00075712,0.0
 0042641,-0.00102938,0.00012488,0.00007713,-0.00001270,0.00010862,-0.00
 000020,-0.00002943,0.00011522,-0.00005802,0.00002921,-0.00007870,-0.00
 005056,-0.00011841,0.00001496,0.00000408,0.00001435,0.00000990,0.00001
 682,-0.00001372,0.00005095,0.00001326,0.00018827,-0.00329397,-0.001400
 02,0.00075131,0.00077096,0.00131739,0.00027276,0.00145209,0.00011212,0
 .00020200,0.00162671,0.00204212,-0.00046314,0.00031157,0.00043472,-0.0
 0061282,-0.00463078,0.00123973,-0.00583936,0.00009784,0.00049460,-0.00
 005151,-0.00004026,-0.00007374,-0.00004322,0.03756841,0.00209319,-0.02
 621848,-0.00004996,-0.00051288,0.00004432,0.00168067,0.00024131,-0.000
 07099,-0.00004039,0.00006736,-0.00154543,-0.00008254,-0.00007864,0.000
 03568,0.00002072,0.00001043,0.00000997,0.00001669,0.00000419,-0.000009
 48,-0.00000305,0.00000592,-0.00000787,-0.00002761,0.00002102,0.0000314
 3,-0.00000355,-0.00000553,-0.00000621,-0.00000030,-0.00000525,-0.00000
 004,0.00001263,0.00000146,-0.00000589,-0.00007395,0.00001249,-0.000053
 01,0.00001116,0.00000531,0.00000293,0.00000352,0.00000055,0.00001240,0
 .00000747,-0.00000516,0.00000236,0.00003632,0.00005549,-0.00011734,0.0
 0000454,-0.00000030,0.00001604,-0.00002058,-0.00001448,0.00001084,-0.0
 0000690,-0.00001093,0.00001080,0.00000446,0.00000844,-0.00000640,-0.00
 000237,0.00000449,0.00000258,-0.00000197,-0.00000171,-0.00000318,0.000
 00228,-0.00000444,0.00000509,-0.00008810,-0.00019838,-0.00010294,0.000
 02671,0.00003617,0.00002306,-0.00000216,-0.00002192,0.00000462,0.00000
 298,0.00000151,-0.00000221,0.00000151,-0.00000606,0.00000375,-0.000000
 66,0.00000823,0.00000366,-0.00002060,-0.00001144,-0.00002256,0.0000008
 5,0.00001092,0.00000335,-0.00000914,-0.00001243,-0.00000092,0.00000501
 ,0.00000367,-0.00000055,0.00225639,-0.00043533,0.00066511,-0.00072201,
 0.00052220,0.00000779,-0.00072581,-0.00016406,-0.00010348,-0.00048575,
 0.00014181,-0.00053261,0.08586353,0.00023095,-0.16576934,-0.00056970,0
 .00146443,0.02163463,0.02481771,-0.03254542,-0.01349852,-0.14596949,0.
 02497291,0.19246626\\0.00000054,-0.00000080,0.00000122,-0.00000004,-0.
 00000053,0.00000145,-0.00000009,-0.00000015,0.00000152,0.00000052,-0.0
 0000057,0.00000070,0.00000040,-0.00000060,0.00000071,-0.00000038,-0.00
 000009,0.00000177,-0.00000012,-0.00000021,0.00000112,0.00000068,-0.000
 00096,0.00000142,0.00000064,-0.00000083,0.00000102,0.00000026,-0.00000
 050,0.00000039,-0.00000016,-0.00000013,0.00000128,0.00000019,-0.000000
 74,0.00000191,-0.00000011,-0.00000049,0.00000194,0.00000022,-0.0000008
 9,0.00000109,0.00000091,-0.00000101,0.00000028,0.00000010,-0.00000006,
 0.00000071,0.00000071,-0.00000069,-0.00000004,0.00000036,-0.00000050,0
 .00000031,0.00000029,-0.00000039,-0.00000023,-0.00000018,-0.00000032,0
 .00000194,-0.00000051,0.00000003,0.00000185,0.,-0.00000033,0.00000162,
 -0.00000020,-0.00000040,0.00000235,0.00000094,-0.00000114,0.00000103,0
 .00000123,-0.00000138,0.00000094,0.00000093,-0.00000132,0.00000162,0.0
 0000096,-0.00000116,0.00000094,0.00000095,-0.00000087,-0.00000008,0.00
 000094,-0.00000082,-0.00000017,0.00000101,-0.00000094,-0.00000046,0.00
 000142,-0.00000126,-0.00000025,-0.00000021,0.00000057,-0.00000150,-0.0
 0000013,0.00000040,-0.00000099,-0.00000015,-0.00000019,-0.00000036,0.0
 0000009,0.00000022,-0.00000133,0.00000012,0.00000054,-0.00000178,-0.00
 000007,0.00000038,-0.00000036,-0.00000018,0.00000047,-0.00000081,-0.00
 000055,0.00000092,-0.00000144,0.00000009,0.00000033,-0.00000158,0.0000
 0031,0.00000018,-0.00000191,0.00000017,0.00000026,-0.00000094,-0.00000
 123,0.00000115,0.00000017,-0.00000079,0.00000076,-0.00000025,-0.000000
 60,0.00000095,-0.00000169,0.00000005,0.00000055,-0.00000230,0.00000077
 ,-0.00000029,-0.00000163,0.00000074,-0.00000011,-0.00000206,0.00000075
 ,-0.00000050,-0.00000129,0.00000084,-0.00000030,-0.00000166,-0.0000008
 3,0.00000066,-0.00000010,-0.00000035,0.00000073,0.00000064,-0.00000059
 ,0.00000078,-0.00000072,-0.00000059,0.00000042,0.00000020,-0.00000078,
 0.00000043,0.00000074,0.00000032,0.00000031,-0.00000020,-0.00000044,0.
 00000043,0.00000075,-0.00000089,0.00000076,0.00000085,0.00000033,-0.00
 000029,0.00000019,-0.00000004,0.00000017,-0.00000044,-0.00000012,-0.00
 000015,0.00000047,0.00000013,-0.00000028,0.00000073,-0.00000069,0.0000
 0090,-0.00000073,-0.00000070,0.00000082,-0.00000077,-0.00000107,0.0000
 0131,-0.00000100,-0.00000115,0.00000113,-0.00000029,-0.00000075,0.0000
 0123,-0.00000217,-0.00000063,0.00000124,-0.00000243,-0.00000105,0.0000
 0147,-0.00000188,-0.00000083,0.00000139,-0.00000231,0.00000038,0.00000
 040,-0.00000268,0.00000018,0.00000051,-0.00000271,0.00000063,0.0000000
 9,-0.00000269,0.00000031,0.00000052,-0.00000311,0.00000140,-0.00000090
 ,-0.00000176,0.00000152,-0.00000098,-0.00000176,0.00000154,-0.00000103
 ,-0.00000151,0.00000143,-0.00000079,-0.00000221,0.00000007,-0.00000065
 ,0.00000217,0.00000025,-0.00000088,0.00000244,0.00000009,-0.00000057,0
 .00000184,-0.00000028,-0.00000036,0.00000237,0.00000021,0.00000002,0.0
 0000074,-0.00000198,0.00000068,0.00000024,-0.00000122,0.00000088,0.000
 00104,-0.00000142,0.00000111,0.00000080,-0.00000139,0.00000101,0.00000
 118,-0.00000112,0.00000071,0.00000137,-0.00000054,0.00000056,0.0000003
 2,-0.00000048,0.00000025,0.00000077,-0.00000037,0.00000024,0.00000046,
 -0.00000071,0.00000065,0.00000020,-0.00000062,0.00000025,0.00000123,-0
 .00000055,-0.00000002,0.00000169,-0.00000055,0.00000019,0.00000126,-0.
 00000111,0.00000064,0.00000136,0.00000032,-0.00000072,-0.00000005,0.00
 000092,-0.00000046,-0.00000036,0.00000054,-0.00000033,-0.00000053,0.00
 000082,-0.00000072,0.00000020\\\@


 IF MATHEMATICALLY YOU END UP WITH THE INCORRECT ANSWER,
 TRY MULTIPLYING BY THE PAGE NUMBER.
 Job cpu time:       3 days 23 hours 17 minutes 26.8 seconds.
 Elapsed time:       0 days  3 hours 33 minutes 28.6 seconds.
 File lengths (MBytes):  RWF=   9836 Int=      0 D2E=      0 Chk=    110 Scr=      1
 Normal termination of Gaussian 16 at Wed Jun  5 13:31:15 2019.
