 Entering Gaussian System, Link 0=g16
 Input=clay_new-glu_gluC6-bisCF3-sm-b97d3_d3bj-631gd-pcm_thf.gjf
 Output=clay_new-glu_gluC6-bisCF3-sm-b97d3_d3bj-631gd-pcm_thf.out
 Initial command:
 /home/ekwan/sw/g16/l1.exe "/scratch/users/ekwan/clay_new-glu_gluC6-bisCF3-sm-b97d3_d3bj-631gd-pcm_thf/Gau-56372.inp" -scrdir="/scratch/users/ekwan/clay_new-glu_gluC6-bisCF3-sm-b97d3_d3bj-631gd-pcm_thf/"
 Entering Link 1 = /home/ekwan/sw/g16/l1.exe PID=     56373.
  
 Copyright (c) 1988,1990,1992,1993,1995,1998,2003,2009,2016,
            Gaussian, Inc.  All Rights Reserved.
  
 This is part of the Gaussian(R) 16 program.  It is based on
 the Gaussian(R) 09 system (copyright 2009, Gaussian, Inc.),
 the Gaussian(R) 03 system (copyright 2003, Gaussian, Inc.),
 the Gaussian(R) 98 system (copyright 1998, Gaussian, Inc.),
 the Gaussian(R) 94 system (copyright 1995, Gaussian, Inc.),
 the Gaussian 92(TM) system (copyright 1992, Gaussian, Inc.),
 the Gaussian 90(TM) system (copyright 1990, Gaussian, Inc.),
 the Gaussian 88(TM) system (copyright 1988, Gaussian, Inc.),
 the Gaussian 86(TM) system (copyright 1986, Carnegie Mellon
 University), and the Gaussian 82(TM) system (copyright 1983,
 Carnegie Mellon University). Gaussian is a federally registered
 trademark of Gaussian, Inc.
  
 This software contains proprietary and confidential information,
 including trade secrets, belonging to Gaussian, Inc.
  
 This software is provided under written license and may be
 used, copied, transmitted, or stored only in accord with that
 written license.
  
 The following legend is applicable only to US Government
 contracts under FAR:
  
                    RESTRICTED RIGHTS LEGEND
  
 Use, reproduction and disclosure by the US Government is
 subject to restrictions as set forth in subparagraphs (a)
 and (c) of the Commercial Computer Software - Restricted
 Rights clause in FAR 52.227-19.
  
 Gaussian, Inc.
 340 Quinnipiac St., Bldg. 40, Wallingford CT 06492
  
  
 ---------------------------------------------------------------
 Warning -- This program may not be used in any manner that
 competes with the business of Gaussian, Inc. or will provide
 assistance to any competitor of Gaussian, Inc.  The licensee
 of this program is prohibited from giving any competitor of
 Gaussian, Inc. access to this program.  By using this program,
 the user acknowledges that Gaussian, Inc. is engaged in the
 business of creating and licensing software in the field of
 computational chemistry and represents and warrants to the
 licensee that it is not a competitor of Gaussian, Inc. and that
 it will not use this program in any manner prohibited above.
 ---------------------------------------------------------------
  

 Cite this work as:
 Gaussian 16, Revision A.03,
 M. J. Frisch, G. W. Trucks, H. B. Schlegel, G. E. Scuseria, 
 M. A. Robb, J. R. Cheeseman, G. Scalmani, V. Barone, 
 G. A. Petersson, H. Nakatsuji, X. Li, M. Caricato, A. V. Marenich, 
 J. Bloino, B. G. Janesko, R. Gomperts, B. Mennucci, H. P. Hratchian, 
 J. V. Ortiz, A. F. Izmaylov, J. L. Sonnenberg, D. Williams-Young, 
 F. Ding, F. Lipparini, F. Egidi, J. Goings, B. Peng, A. Petrone, 
 T. Henderson, D. Ranasinghe, V. G. Zakrzewski, J. Gao, N. Rega, 
 G. Zheng, W. Liang, M. Hada, M. Ehara, K. Toyota, R. Fukuda, 
 J. Hasegawa, M. Ishida, T. Nakajima, Y. Honda, O. Kitao, H. Nakai, 
 T. Vreven, K. Throssell, J. A. Montgomery, Jr., J. E. Peralta, 
 F. Ogliaro, M. J. Bearpark, J. J. Heyd, E. N. Brothers, K. N. Kudin, 
 V. N. Staroverov, T. A. Keith, R. Kobayashi, J. Normand, 
 K. Raghavachari, A. P. Rendell, J. C. Burant, S. S. Iyengar, 
 J. Tomasi, M. Cossi, J. M. Millam, M. Klene, C. Adamo, R. Cammi, 
 J. W. Ochterski, R. L. Martin, K. Morokuma, O. Farkas, 
 J. B. Foresman, and D. J. Fox, Gaussian, Inc., Wallingford CT, 2016.
 
 ******************************************
 Gaussian 16:  AS64L-G16RevA.03 25-Dec-2016
                10-Jun-2019 
 ******************************************
 %nprocshared=64
 Will use up to   64 processors via shared memory.
 %mem=96GB
 ----------------------------------------------------------------------
 #p opt freq=noraman 6-31g(d) scrf=(solvent=tetrahydrofuran,pcm) pop=no
 ne b97d3 empiricaldispersion=gd3bj
 ----------------------------------------------------------------------
 1/18=20,19=15,26=3,38=1/1,3;
 2/9=110,12=2,17=6,18=5,40=1/2;
 3/5=1,6=6,7=1,11=2,25=1,30=1,70=2201,71=1,72=20,74=-59,124=41/1,2,3;
 4//1;
 5/5=2,38=5,53=20/2;
 7//1,2,3,16;
 1/18=20,19=15,26=3/3(2);
 2/9=110/2;
 99//99;
 2/9=110/2;
 3/5=1,6=6,7=1,11=2,25=1,30=1,70=2205,71=1,72=20,74=-59,124=41/1,2,3;
 4/5=5,16=3,69=1/1;
 5/5=2,38=5,53=20/2;
 7//1,2,3,16;
 1/18=20,19=15,26=3/3(-5);
 2/9=110/2;
 99/9=1/99;
 Leave Link    1 at Mon Jun 10 05:38:17 2019, MaxMem= 12884901888 cpu:              20.3 elap:               0.4
 (Enter /home/ekwan/sw/g16/l101.exe)
 -----
 title
 -----
 Symbolic Z-matrix:
 Charge =  0 Multiplicity = 1
 C                     3.42623   0.49477   0.44027 
 C                     3.30661  -0.64367  -0.58453 
 C                     1.82975  -1.03536  -0.8122 
 C                     1.02714   1.12168  -0.13231 
 C                     2.45594   1.63397   0.10192 
 H                     1.71318  -1.74094  -1.64007 
 H                     3.66928  -0.2684   -1.56069 
 H                     3.17458   0.10541   1.44006 
 H                     0.62889   0.72212   0.81443 
 H                     2.80272   2.13118  -0.81627 
 O                     1.01952   0.05567  -1.12174 
 O                     1.40001  -1.7034    0.42556 
 O                     4.10295  -1.72847  -0.14437 
 O                     4.7447    1.0406    0.4326 
 O                     2.40128   2.55944   1.18797 
 C                     0.07447   2.22193  -0.60982 
 H                    -0.10892   2.88483   0.24493 
 H                    -0.88109   1.76216  -0.91176 
 O                     0.57966   3.0575   -1.64418 
 S                     0.09344  -2.71502   0.32721 
 O                     0.09113  -3.41773   1.61416 
 O                     0.13766  -3.44163  -0.95232 
 C                    -1.28683  -1.5661    0.28805 
 C                    -1.71258  -0.98796   1.48647 
 C                    -1.86053  -1.23802  -0.9434 
 C                    -2.75077  -0.0474    1.44274 
 H                    -1.24516  -1.2626    2.42878 
 C                    -2.89943  -0.30198  -0.96463 
 H                    -1.49911  -1.6981   -1.8581 
 C                    -3.34553   0.29618   0.22284 
 H                    -4.14781   1.02962   0.19544 
 C                     4.2796   -2.7577   -1.1199 
 H                     3.35818  -3.34426  -1.27155 
 H                     4.60529  -2.34017  -2.08877 
 H                     5.06028  -3.42133  -0.73023 
 C                     5.58772   0.5503    1.47698 
 H                     6.54435   1.07795   1.37264 
 H                     5.16007   0.77374   2.47025 
 H                     5.75302  -0.53353   1.38949 
 C                     3.02628   3.81406   0.90458 
 H                     2.90233   4.43044   1.80411 
 H                     4.09881   3.68498   0.69285 
 H                     2.54099   4.31429   0.05002 
 C                     0.55894   2.46157  -2.94447 
 H                     0.76868   3.26899  -3.65756 
 H                    -0.43112   2.02786  -3.16488 
 H                     1.31967   1.67333  -3.05069 
 C                    -3.2699    0.55588   2.73065 
 F                    -2.29509   0.64132   3.67219 
 F                    -4.27337  -0.19942   3.2548 
 F                    -3.76609   1.80503   2.53435 
 C                    -3.49988   0.14358  -2.27943 
 F                    -3.01433   1.36881  -2.64227 
 F                    -4.84979   0.266    -2.19562 
 F                    -3.22141  -0.71592  -3.28924 
 
 ITRead=  0  0  0  0  0  0  0  0  0  0  0  0  0  0  0  0  0  0  0  0
 ITRead=  0  0  0  0  0  0  0  0  0  0  0  0  0  0  0  0  0  0  0  0
 ITRead=  0  0  0  0  0  0  0  0  0  0  0  0  0  0  0
 MicOpt= -1 -1 -1 -1 -1 -1 -1 -1 -1 -1 -1 -1 -1 -1 -1 -1 -1 -1 -1 -1
 MicOpt= -1 -1 -1 -1 -1 -1 -1 -1 -1 -1 -1 -1 -1 -1 -1 -1 -1 -1 -1 -1
 MicOpt= -1 -1 -1 -1 -1 -1 -1 -1 -1 -1 -1 -1 -1 -1 -1
 NAtoms=     55 NQM=       55 NQMF=       0 NMMI=      0 NMMIF=      0
                NMic=       0 NMicF=      0.
                    Isotopes and Nuclear Properties:
 (Nuclear quadrupole moments (NQMom) in fm**2, nuclear magnetic moments (NMagM)
  in nuclear magnetons)

  Atom         1           2           3           4           5           6           7           8           9          10
 IAtWgt=          12          12          12          12          12           1           1           1           1           1
 AtmWgt=  12.0000000  12.0000000  12.0000000  12.0000000  12.0000000   1.0078250   1.0078250   1.0078250   1.0078250   1.0078250
 NucSpn=           0           0           0           0           0           1           1           1           1           1
 AtZEff=   0.0000000   0.0000000   0.0000000   0.0000000   0.0000000   0.0000000   0.0000000   0.0000000   0.0000000   0.0000000
 NQMom=    0.0000000   0.0000000   0.0000000   0.0000000   0.0000000   0.0000000   0.0000000   0.0000000   0.0000000   0.0000000
 NMagM=    0.0000000   0.0000000   0.0000000   0.0000000   0.0000000   2.7928460   2.7928460   2.7928460   2.7928460   2.7928460
 AtZNuc=   6.0000000   6.0000000   6.0000000   6.0000000   6.0000000   1.0000000   1.0000000   1.0000000   1.0000000   1.0000000

  Atom        11          12          13          14          15          16          17          18          19          20
 IAtWgt=          16          16          16          16          16          12           1           1          16          32
 AtmWgt=  15.9949146  15.9949146  15.9949146  15.9949146  15.9949146  12.0000000   1.0078250   1.0078250  15.9949146  31.9720718
 NucSpn=           0           0           0           0           0           0           1           1           0           0
 AtZEff=   0.0000000   0.0000000   0.0000000   0.0000000   0.0000000   0.0000000   0.0000000   0.0000000   0.0000000   0.0000000
 NQMom=    0.0000000   0.0000000   0.0000000   0.0000000   0.0000000   0.0000000   0.0000000   0.0000000   0.0000000   0.0000000
 NMagM=    0.0000000   0.0000000   0.0000000   0.0000000   0.0000000   0.0000000   2.7928460   2.7928460   0.0000000   0.0000000
 AtZNuc=   8.0000000   8.0000000   8.0000000   8.0000000   8.0000000   6.0000000   1.0000000   1.0000000   8.0000000  16.0000000

  Atom        21          22          23          24          25          26          27          28          29          30
 IAtWgt=          16          16          12          12          12          12           1          12           1          12
 AtmWgt=  15.9949146  15.9949146  12.0000000  12.0000000  12.0000000  12.0000000   1.0078250  12.0000000   1.0078250  12.0000000
 NucSpn=           0           0           0           0           0           0           1           0           1           0
 AtZEff=   0.0000000   0.0000000   0.0000000   0.0000000   0.0000000   0.0000000   0.0000000   0.0000000   0.0000000   0.0000000
 NQMom=    0.0000000   0.0000000   0.0000000   0.0000000   0.0000000   0.0000000   0.0000000   0.0000000   0.0000000   0.0000000
 NMagM=    0.0000000   0.0000000   0.0000000   0.0000000   0.0000000   0.0000000   2.7928460   0.0000000   2.7928460   0.0000000
 AtZNuc=   8.0000000   8.0000000   6.0000000   6.0000000   6.0000000   6.0000000   1.0000000   6.0000000   1.0000000   6.0000000

  Atom        31          32          33          34          35          36          37          38          39          40
 IAtWgt=           1          12           1           1           1          12           1           1           1          12
 AtmWgt=   1.0078250  12.0000000   1.0078250   1.0078250   1.0078250  12.0000000   1.0078250   1.0078250   1.0078250  12.0000000
 NucSpn=           1           0           1           1           1           0           1           1           1           0
 AtZEff=   0.0000000   0.0000000   0.0000000   0.0000000   0.0000000   0.0000000   0.0000000   0.0000000   0.0000000   0.0000000
 NQMom=    0.0000000   0.0000000   0.0000000   0.0000000   0.0000000   0.0000000   0.0000000   0.0000000   0.0000000   0.0000000
 NMagM=    2.7928460   0.0000000   2.7928460   2.7928460   2.7928460   0.0000000   2.7928460   2.7928460   2.7928460   0.0000000
 AtZNuc=   1.0000000   6.0000000   1.0000000   1.0000000   1.0000000   6.0000000   1.0000000   1.0000000   1.0000000   6.0000000

  Atom        41          42          43          44          45          46          47          48          49          50
 IAtWgt=           1           1           1          12           1           1           1          12          19          19
 AtmWgt=   1.0078250   1.0078250   1.0078250  12.0000000   1.0078250   1.0078250   1.0078250  12.0000000  18.9984033  18.9984033
 NucSpn=           1           1           1           0           1           1           1           0           1           1
 AtZEff=   0.0000000   0.0000000   0.0000000   0.0000000   0.0000000   0.0000000   0.0000000   0.0000000   0.0000000   0.0000000
 NQMom=    0.0000000   0.0000000   0.0000000   0.0000000   0.0000000   0.0000000   0.0000000   0.0000000   0.0000000   0.0000000
 NMagM=    2.7928460   2.7928460   2.7928460   0.0000000   2.7928460   2.7928460   2.7928460   0.0000000   2.6288670   2.6288670
 AtZNuc=   1.0000000   1.0000000   1.0000000   6.0000000   1.0000000   1.0000000   1.0000000   6.0000000   9.0000000   9.0000000

  Atom        51          52          53          54          55
 IAtWgt=          19          12          19          19          19
 AtmWgt=  18.9984033  12.0000000  18.9984033  18.9984033  18.9984033
 NucSpn=           1           0           1           1           1
 AtZEff=   0.0000000   0.0000000   0.0000000   0.0000000   0.0000000
 NQMom=    0.0000000   0.0000000   0.0000000   0.0000000   0.0000000
 NMagM=    2.6288670   0.0000000   2.6288670   2.6288670   2.6288670
 AtZNuc=   9.0000000   6.0000000   9.0000000   9.0000000   9.0000000
 Leave Link  101 at Mon Jun 10 05:38:17 2019, MaxMem= 12884901888 cpu:              36.7 elap:               0.6
 (Enter /home/ekwan/sw/g16/l103.exe)

 GradGradGradGradGradGradGradGradGradGradGradGradGradGradGradGradGradGrad
 Berny optimization.
 Initialization pass.
                           ----------------------------
                           !    Initial Parameters    !
                           ! (Angstroms and Degrees)  !
 --------------------------                            --------------------------
 ! Name  Definition              Value          Derivative Info.                !
 --------------------------------------------------------------------------------
 ! R1    R(1,2)                  1.5364         estimate D2E/DX2                !
 ! R2    R(1,5)                  1.5342         estimate D2E/DX2                !
 ! R3    R(1,8)                  1.1021         estimate D2E/DX2                !
 ! R4    R(1,14)                 1.427          estimate D2E/DX2                !
 ! R5    R(2,3)                  1.5448         estimate D2E/DX2                !
 ! R6    R(2,7)                  1.1069         estimate D2E/DX2                !
 ! R7    R(2,13)                 1.4159         estimate D2E/DX2                !
 ! R8    R(3,6)                  1.094          estimate D2E/DX2                !
 ! R9    R(3,11)                 1.3938         estimate D2E/DX2                !
 ! R10   R(3,12)                 1.4707         estimate D2E/DX2                !
 ! R11   R(4,5)                  1.5358         estimate D2E/DX2                !
 ! R12   R(4,9)                  1.1021         estimate D2E/DX2                !
 ! R13   R(4,11)                 1.4545         estimate D2E/DX2                !
 ! R14   R(4,16)                 1.5317         estimate D2E/DX2                !
 ! R15   R(5,10)                 1.1002         estimate D2E/DX2                !
 ! R16   R(5,15)                 1.4279         estimate D2E/DX2                !
 ! R17   R(12,20)                1.6553         estimate D2E/DX2                !
 ! R18   R(13,32)                1.429          estimate D2E/DX2                !
 ! R19   R(14,36)                1.4289         estimate D2E/DX2                !
 ! R20   R(15,40)                1.43           estimate D2E/DX2                !
 ! R21   R(16,17)                1.0971         estimate D2E/DX2                !
 ! R22   R(16,18)                1.1026         estimate D2E/DX2                !
 ! R23   R(16,19)                1.4224         estimate D2E/DX2                !
 ! R24   R(19,44)                1.4305         estimate D2E/DX2                !
 ! R25   R(20,21)                1.4663         estimate D2E/DX2                !
 ! R26   R(20,22)                1.4721         estimate D2E/DX2                !
 ! R27   R(20,23)                1.7963         estimate D2E/DX2                !
 ! R28   R(23,24)                1.397          estimate D2E/DX2                !
 ! R29   R(23,25)                1.3976         estimate D2E/DX2                !
 ! R30   R(24,26)                1.4016         estimate D2E/DX2                !
 ! R31   R(24,27)                1.0871         estimate D2E/DX2                !
 ! R32   R(25,28)                1.3985         estimate D2E/DX2                !
 ! R33   R(25,29)                1.0858         estimate D2E/DX2                !
 ! R34   R(26,30)                1.4            estimate D2E/DX2                !
 ! R35   R(26,48)                1.514          estimate D2E/DX2                !
 ! R36   R(28,30)                1.4025         estimate D2E/DX2                !
 ! R37   R(28,52)                1.5125         estimate D2E/DX2                !
 ! R38   R(30,31)                1.0874         estimate D2E/DX2                !
 ! R39   R(32,33)                1.1028         estimate D2E/DX2                !
 ! R40   R(32,34)                1.1041         estimate D2E/DX2                !
 ! R41   R(32,35)                1.0962         estimate D2E/DX2                !
 ! R42   R(36,37)                1.0975         estimate D2E/DX2                !
 ! R43   R(36,38)                1.1043         estimate D2E/DX2                !
 ! R44   R(36,39)                1.0998         estimate D2E/DX2                !
 ! R45   R(40,41)                1.0975         estimate D2E/DX2                !
 ! R46   R(40,42)                1.1008         estimate D2E/DX2                !
 ! R47   R(40,43)                1.1027         estimate D2E/DX2                !
 ! R48   R(44,45)                1.0975         estimate D2E/DX2                !
 ! R49   R(44,46)                1.1031         estimate D2E/DX2                !
 ! R50   R(44,47)                1.1006         estimate D2E/DX2                !
 ! R51   R(48,49)                1.358          estimate D2E/DX2                !
 ! R52   R(48,50)                1.3609         estimate D2E/DX2                !
 ! R53   R(48,51)                1.3584         estimate D2E/DX2                !
 ! R54   R(52,53)                1.367          estimate D2E/DX2                !
 ! R55   R(52,54)                1.358          estimate D2E/DX2                !
 ! R56   R(52,55)                1.355          estimate D2E/DX2                !
 ! A1    A(2,1,5)              110.7236         estimate D2E/DX2                !
 ! A2    A(2,1,8)              108.9987         estimate D2E/DX2                !
 ! A3    A(2,1,14)             110.5961         estimate D2E/DX2                !
 ! A4    A(5,1,8)              108.542          estimate D2E/DX2                !
 ! A5    A(5,1,14)             107.4061         estimate D2E/DX2                !
 ! A6    A(8,1,14)             110.5479         estimate D2E/DX2                !
 ! A7    A(1,2,3)              111.1379         estimate D2E/DX2                !
 ! A8    A(1,2,7)              108.1498         estimate D2E/DX2                !
 ! A9    A(1,2,13)             108.4553         estimate D2E/DX2                !
 ! A10   A(3,2,7)              105.6185         estimate D2E/DX2                !
 ! A11   A(3,2,13)             112.9083         estimate D2E/DX2                !
 ! A12   A(7,2,13)             110.4642         estimate D2E/DX2                !
 ! A13   A(2,3,6)              112.1433         estimate D2E/DX2                !
 ! A14   A(2,3,11)             112.9551         estimate D2E/DX2                !
 ! A15   A(2,3,12)             105.6935         estimate D2E/DX2                !
 ! A16   A(6,3,11)             105.9537         estimate D2E/DX2                !
 ! A17   A(6,3,12)             108.2267         estimate D2E/DX2                !
 ! A18   A(11,3,12)            111.8772         estimate D2E/DX2                !
 ! A19   A(5,4,9)              109.0328         estimate D2E/DX2                !
 ! A20   A(5,4,11)             110.6769         estimate D2E/DX2                !
 ! A21   A(5,4,16)             112.7411         estimate D2E/DX2                !
 ! A22   A(9,4,11)             108.4679         estimate D2E/DX2                !
 ! A23   A(9,4,16)             107.6665         estimate D2E/DX2                !
 ! A24   A(11,4,16)            108.1278         estimate D2E/DX2                !
 ! A25   A(1,5,4)              111.9828         estimate D2E/DX2                !
 ! A26   A(1,5,10)             108.6787         estimate D2E/DX2                !
 ! A27   A(1,5,15)             109.7385         estimate D2E/DX2                !
 ! A28   A(4,5,10)             108.4628         estimate D2E/DX2                !
 ! A29   A(4,5,15)             107.2517         estimate D2E/DX2                !
 ! A30   A(10,5,15)            110.726          estimate D2E/DX2                !
 ! A31   A(3,11,4)             114.809          estimate D2E/DX2                !
 ! A32   A(3,12,20)            117.2728         estimate D2E/DX2                !
 ! A33   A(2,13,32)            114.1495         estimate D2E/DX2                !
 ! A34   A(1,14,36)            114.2004         estimate D2E/DX2                !
 ! A35   A(5,15,40)            113.6511         estimate D2E/DX2                !
 ! A36   A(4,16,17)            107.1638         estimate D2E/DX2                !
 ! A37   A(4,16,18)            108.9584         estimate D2E/DX2                !
 ! A38   A(4,16,19)            115.3254         estimate D2E/DX2                !
 ! A39   A(17,16,18)           108.6901         estimate D2E/DX2                !
 ! A40   A(17,16,19)           105.7212         estimate D2E/DX2                !
 ! A41   A(18,16,19)           110.7091         estimate D2E/DX2                !
 ! A42   A(16,19,44)           114.2758         estimate D2E/DX2                !
 ! A43   A(12,20,21)           104.0031         estimate D2E/DX2                !
 ! A44   A(12,20,22)           109.2425         estimate D2E/DX2                !
 ! A45   A(12,20,23)           102.528          estimate D2E/DX2                !
 ! A46   A(21,20,22)           121.7604         estimate D2E/DX2                !
 ! A47   A(21,20,23)           108.9322         estimate D2E/DX2                !
 ! A48   A(22,20,23)           108.6524         estimate D2E/DX2                !
 ! A49   A(20,23,24)           118.6956         estimate D2E/DX2                !
 ! A50   A(20,23,25)           118.9981         estimate D2E/DX2                !
 ! A51   A(24,23,25)           122.2497         estimate D2E/DX2                !
 ! A52   A(23,24,26)           118.4691         estimate D2E/DX2                !
 ! A53   A(23,24,27)           120.5289         estimate D2E/DX2                !
 ! A54   A(26,24,27)           121.0018         estimate D2E/DX2                !
 ! A55   A(23,25,28)           118.387          estimate D2E/DX2                !
 ! A56   A(23,25,29)           120.4088         estimate D2E/DX2                !
 ! A57   A(28,25,29)           121.203          estimate D2E/DX2                !
 ! A58   A(24,26,30)           120.4356         estimate D2E/DX2                !
 ! A59   A(24,26,48)           119.6599         estimate D2E/DX2                !
 ! A60   A(30,26,48)           119.8539         estimate D2E/DX2                !
 ! A61   A(25,28,30)           120.5905         estimate D2E/DX2                !
 ! A62   A(25,28,52)           120.3478         estimate D2E/DX2                !
 ! A63   A(30,28,52)           118.9535         estimate D2E/DX2                !
 ! A64   A(26,30,28)           119.8669         estimate D2E/DX2                !
 ! A65   A(26,30,31)           120.0626         estimate D2E/DX2                !
 ! A66   A(28,30,31)           120.0696         estimate D2E/DX2                !
 ! A67   A(13,32,33)           111.9425         estimate D2E/DX2                !
 ! A68   A(13,32,34)           111.292          estimate D2E/DX2                !
 ! A69   A(13,32,35)           106.3426         estimate D2E/DX2                !
 ! A70   A(33,32,34)           109.0829         estimate D2E/DX2                !
 ! A71   A(33,32,35)           108.78           estimate D2E/DX2                !
 ! A72   A(34,32,35)           109.316          estimate D2E/DX2                !
 ! A73   A(14,36,37)           106.2484         estimate D2E/DX2                !
 ! A74   A(14,36,38)           111.0706         estimate D2E/DX2                !
 ! A75   A(14,36,39)           111.6334         estimate D2E/DX2                !
 ! A76   A(37,36,38)           109.0133         estimate D2E/DX2                !
 ! A77   A(37,36,39)           109.586          estimate D2E/DX2                !
 ! A78   A(38,36,39)           109.2173         estimate D2E/DX2                !
 ! A79   A(15,40,41)           106.3177         estimate D2E/DX2                !
 ! A80   A(15,40,42)           111.1657         estimate D2E/DX2                !
 ! A81   A(15,40,43)           111.0525         estimate D2E/DX2                !
 ! A82   A(41,40,42)           109.4832         estimate D2E/DX2                !
 ! A83   A(41,40,43)           109.3111         estimate D2E/DX2                !
 ! A84   A(42,40,43)           109.4452         estimate D2E/DX2                !
 ! A85   A(19,44,45)           106.3413         estimate D2E/DX2                !
 ! A86   A(19,44,46)           111.0022         estimate D2E/DX2                !
 ! A87   A(19,44,47)           112.0905         estimate D2E/DX2                !
 ! A88   A(45,44,46)           109.3271         estimate D2E/DX2                !
 ! A89   A(45,44,47)           109.3976         estimate D2E/DX2                !
 ! A90   A(46,44,47)           108.6313         estimate D2E/DX2                !
 ! A91   A(26,48,49)           111.6378         estimate D2E/DX2                !
 ! A92   A(26,48,50)           111.058          estimate D2E/DX2                !
 ! A93   A(26,48,51)           111.639          estimate D2E/DX2                !
 ! A94   A(49,48,50)           107.2881         estimate D2E/DX2                !
 ! A95   A(49,48,51)           107.7314         estimate D2E/DX2                !
 ! A96   A(50,48,51)           107.259          estimate D2E/DX2                !
 ! A97   A(28,52,53)           110.7175         estimate D2E/DX2                !
 ! A98   A(28,52,54)           111.5625         estimate D2E/DX2                !
 ! A99   A(28,52,55)           112.2956         estimate D2E/DX2                !
 ! A100  A(53,52,54)           106.7775         estimate D2E/DX2                !
 ! A101  A(53,52,55)           107.3213         estimate D2E/DX2                !
 ! A102  A(54,52,55)           107.9062         estimate D2E/DX2                !
 ! D1    D(5,1,2,3)            -48.6377         estimate D2E/DX2                !
 ! D2    D(5,1,2,7)             66.8621         estimate D2E/DX2                !
 ! D3    D(5,1,2,13)          -173.3178         estimate D2E/DX2                !
 ! D4    D(8,1,2,3)             70.693          estimate D2E/DX2                !
 ! D5    D(8,1,2,7)           -173.8072         estimate D2E/DX2                !
 ! D6    D(8,1,2,13)           -53.9871         estimate D2E/DX2                !
 ! D7    D(14,1,2,3)          -167.5751         estimate D2E/DX2                !
 ! D8    D(14,1,2,7)           -52.0753         estimate D2E/DX2                !
 ! D9    D(14,1,2,13)           67.7448         estimate D2E/DX2                !
 ! D10   D(2,1,5,4)             50.3195         estimate D2E/DX2                !
 ! D11   D(2,1,5,10)           -69.4808         estimate D2E/DX2                !
 ! D12   D(2,1,5,15)           169.3077         estimate D2E/DX2                !
 ! D13   D(8,1,5,4)            -69.2859         estimate D2E/DX2                !
 ! D14   D(8,1,5,10)           170.9139         estimate D2E/DX2                !
 ! D15   D(8,1,5,15)            49.7024         estimate D2E/DX2                !
 ! D16   D(14,1,5,4)           171.168          estimate D2E/DX2                !
 ! D17   D(14,1,5,10)           51.3678         estimate D2E/DX2                !
 ! D18   D(14,1,5,15)          -69.8437         estimate D2E/DX2                !
 ! D19   D(2,1,14,36)          -99.0965         estimate D2E/DX2                !
 ! D20   D(5,1,14,36)          139.9746         estimate D2E/DX2                !
 ! D21   D(8,1,14,36)           21.7184         estimate D2E/DX2                !
 ! D22   D(1,2,3,6)            171.772          estimate D2E/DX2                !
 ! D23   D(1,2,3,11)            52.1269         estimate D2E/DX2                !
 ! D24   D(1,2,3,12)           -70.5115         estimate D2E/DX2                !
 ! D25   D(7,2,3,6)             54.716          estimate D2E/DX2                !
 ! D26   D(7,2,3,11)           -64.9292         estimate D2E/DX2                !
 ! D27   D(7,2,3,12)           172.4324         estimate D2E/DX2                !
 ! D28   D(13,2,3,6)           -66.0976         estimate D2E/DX2                !
 ! D29   D(13,2,3,11)          174.2572         estimate D2E/DX2                !
 ! D30   D(13,2,3,12)           51.6188         estimate D2E/DX2                !
 ! D31   D(1,2,13,32)         -169.0709         estimate D2E/DX2                !
 ! D32   D(3,2,13,32)           67.3047         estimate D2E/DX2                !
 ! D33   D(7,2,13,32)          -50.7083         estimate D2E/DX2                !
 ! D34   D(2,3,11,4)           -57.0389         estimate D2E/DX2                !
 ! D35   D(6,3,11,4)           179.8121         estimate D2E/DX2                !
 ! D36   D(12,3,11,4)           62.0798         estimate D2E/DX2                !
 ! D37   D(2,3,12,20)         -158.1733         estimate D2E/DX2                !
 ! D38   D(6,3,12,20)          -37.8603         estimate D2E/DX2                !
 ! D39   D(11,3,12,20)          78.5032         estimate D2E/DX2                !
 ! D40   D(9,4,5,1)             66.3114         estimate D2E/DX2                !
 ! D41   D(9,4,5,10)          -173.762          estimate D2E/DX2                !
 ! D42   D(9,4,5,15)           -54.1343         estimate D2E/DX2                !
 ! D43   D(11,4,5,1)           -52.9212         estimate D2E/DX2                !
 ! D44   D(11,4,5,10)           67.0054         estimate D2E/DX2                !
 ! D45   D(11,4,5,15)         -173.367          estimate D2E/DX2                !
 ! D46   D(16,4,5,1)          -174.1718         estimate D2E/DX2                !
 ! D47   D(16,4,5,10)          -54.2452         estimate D2E/DX2                !
 ! D48   D(16,4,5,15)           65.3825         estimate D2E/DX2                !
 ! D49   D(5,4,11,3)            57.0643         estimate D2E/DX2                !
 ! D50   D(9,4,11,3)           -62.5086         estimate D2E/DX2                !
 ! D51   D(16,4,11,3)         -178.996          estimate D2E/DX2                !
 ! D52   D(5,4,16,17)          -71.5459         estimate D2E/DX2                !
 ! D53   D(5,4,16,18)          171.0205         estimate D2E/DX2                !
 ! D54   D(5,4,16,19)           45.8349         estimate D2E/DX2                !
 ! D55   D(9,4,16,17)           48.7587         estimate D2E/DX2                !
 ! D56   D(9,4,16,18)          -68.6749         estimate D2E/DX2                !
 ! D57   D(9,4,16,19)          166.1395         estimate D2E/DX2                !
 ! D58   D(11,4,16,17)         165.7649         estimate D2E/DX2                !
 ! D59   D(11,4,16,18)          48.3313         estimate D2E/DX2                !
 ! D60   D(11,4,16,19)         -76.8543         estimate D2E/DX2                !
 ! D61   D(1,5,15,40)          109.1801         estimate D2E/DX2                !
 ! D62   D(4,5,15,40)         -128.9592         estimate D2E/DX2                !
 ! D63   D(10,5,15,40)         -10.7912         estimate D2E/DX2                !
 ! D64   D(3,12,20,21)         168.7758         estimate D2E/DX2                !
 ! D65   D(3,12,20,22)          37.3504         estimate D2E/DX2                !
 ! D66   D(3,12,20,23)         -77.7736         estimate D2E/DX2                !
 ! D67   D(2,13,32,33)         -72.2479         estimate D2E/DX2                !
 ! D68   D(2,13,32,34)          50.1159         estimate D2E/DX2                !
 ! D69   D(2,13,32,35)         169.0783         estimate D2E/DX2                !
 ! D70   D(1,14,36,37)        -177.8711         estimate D2E/DX2                !
 ! D71   D(1,14,36,38)         -59.4502         estimate D2E/DX2                !
 ! D72   D(1,14,36,39)          62.7085         estimate D2E/DX2                !
 ! D73   D(5,15,40,41)         179.1786         estimate D2E/DX2                !
 ! D74   D(5,15,40,42)         -61.742          estimate D2E/DX2                !
 ! D75   D(5,15,40,43)          60.3684         estimate D2E/DX2                !
 ! D76   D(4,16,19,44)          77.1876         estimate D2E/DX2                !
 ! D77   D(17,16,19,44)       -164.6235         estimate D2E/DX2                !
 ! D78   D(18,16,19,44)        -47.087          estimate D2E/DX2                !
 ! D79   D(16,19,44,45)        168.3977         estimate D2E/DX2                !
 ! D80   D(16,19,44,46)         49.5817         estimate D2E/DX2                !
 ! D81   D(16,19,44,47)        -72.0957         estimate D2E/DX2                !
 ! D82   D(12,20,23,24)        -78.7208         estimate D2E/DX2                !
 ! D83   D(12,20,23,25)         98.6036         estimate D2E/DX2                !
 ! D84   D(21,20,23,24)         31.0508         estimate D2E/DX2                !
 ! D85   D(21,20,23,25)       -151.6248         estimate D2E/DX2                !
 ! D86   D(22,20,23,24)        165.7273         estimate D2E/DX2                !
 ! D87   D(22,20,23,25)        -16.9483         estimate D2E/DX2                !
 ! D88   D(20,23,24,26)        177.2096         estimate D2E/DX2                !
 ! D89   D(20,23,24,27)         -2.6622         estimate D2E/DX2                !
 ! D90   D(25,23,24,26)         -0.0233         estimate D2E/DX2                !
 ! D91   D(25,23,24,27)       -179.8951         estimate D2E/DX2                !
 ! D92   D(20,23,25,28)       -177.5002         estimate D2E/DX2                !
 ! D93   D(20,23,25,29)          2.1266         estimate D2E/DX2                !
 ! D94   D(24,23,25,28)         -0.2754         estimate D2E/DX2                !
 ! D95   D(24,23,25,29)        179.3514         estimate D2E/DX2                !
 ! D96   D(23,24,26,30)          0.2167         estimate D2E/DX2                !
 ! D97   D(23,24,26,48)        177.6267         estimate D2E/DX2                !
 ! D98   D(27,24,26,30)       -179.9122         estimate D2E/DX2                !
 ! D99   D(27,24,26,48)         -2.5022         estimate D2E/DX2                !
 ! D100  D(23,25,28,30)          0.385          estimate D2E/DX2                !
 ! D101  D(23,25,28,52)        176.5632         estimate D2E/DX2                !
 ! D102  D(29,25,28,30)       -179.2387         estimate D2E/DX2                !
 ! D103  D(29,25,28,52)         -3.0605         estimate D2E/DX2                !
 ! D104  D(24,26,30,28)         -0.1076         estimate D2E/DX2                !
 ! D105  D(24,26,30,31)       -179.7518         estimate D2E/DX2                !
 ! D106  D(48,26,30,28)       -177.5125         estimate D2E/DX2                !
 ! D107  D(48,26,30,31)          2.8432         estimate D2E/DX2                !
 ! D108  D(24,26,48,49)         30.8279         estimate D2E/DX2                !
 ! D109  D(24,26,48,50)        -88.8628         estimate D2E/DX2                !
 ! D110  D(24,26,48,51)        151.4823         estimate D2E/DX2                !
 ! D111  D(30,26,48,49)       -151.7469         estimate D2E/DX2                !
 ! D112  D(30,26,48,50)         88.5624         estimate D2E/DX2                !
 ! D113  D(30,26,48,51)        -31.0925         estimate D2E/DX2                !
 ! D114  D(25,28,30,26)         -0.2002         estimate D2E/DX2                !
 ! D115  D(25,28,30,31)        179.444          estimate D2E/DX2                !
 ! D116  D(52,28,30,26)       -176.431          estimate D2E/DX2                !
 ! D117  D(52,28,30,31)          3.2132         estimate D2E/DX2                !
 ! D118  D(25,28,52,53)       -101.5292         estimate D2E/DX2                !
 ! D119  D(25,28,52,54)        139.7007         estimate D2E/DX2                !
 ! D120  D(25,28,52,55)         18.4125         estimate D2E/DX2                !
 ! D121  D(30,28,52,53)         74.711          estimate D2E/DX2                !
 ! D122  D(30,28,52,54)        -44.0591         estimate D2E/DX2                !
 ! D123  D(30,28,52,55)       -165.3473         estimate D2E/DX2                !
 --------------------------------------------------------------------------------
 Trust Radius=3.00D-01 FncErr=1.00D-07 GrdErr=1.00D-06 EigMax=2.50D+02 EigMin=1.00D-04
 Number of steps in this run=    291 maximum allowed number of steps=    330.
 GradGradGradGradGradGradGradGradGradGradGradGradGradGradGradGradGradGrad

 Leave Link  103 at Mon Jun 10 05:38:18 2019, MaxMem= 12884901888 cpu:               5.0 elap:               0.1
 (Enter /home/ekwan/sw/g16/l202.exe)
 Stoichiometry    C18H22F6O8S
 Framework group  C1[X(C18H22F6O8S)]
 Deg. of freedom   159
 Full point group                 C1      NOp   1
 Largest Abelian subgroup         C1      NOp   1
 Largest concise Abelian subgroup C1      NOp   1
                         Standard orientation:                         
 ---------------------------------------------------------------------
 Center     Atomic      Atomic             Coordinates (Angstroms)
 Number     Number       Type             X           Y           Z
 ---------------------------------------------------------------------
      1          6           0       -3.426234   -0.494774    0.440265
      2          6           0       -3.306609    0.643666   -0.584530
      3          6           0       -1.829746    1.035355   -0.812195
      4          6           0       -1.027140   -1.121683   -0.132306
      5          6           0       -2.455935   -1.633972    0.101917
      6          1           0       -1.713182    1.740944   -1.640068
      7          1           0       -3.669281    0.268402   -1.560686
      8          1           0       -3.174582   -0.105412    1.440062
      9          1           0       -0.628886   -0.722124    0.814426
     10          1           0       -2.802719   -2.131175   -0.816268
     11          8           0       -1.019520   -0.055665   -1.121743
     12          8           0       -1.400007    1.703401    0.425556
     13          8           0       -4.102955    1.728470   -0.144368
     14          8           0       -4.744695   -1.040598    0.432602
     15          8           0       -2.401278   -2.559443    1.187967
     16          6           0       -0.074468   -2.221925   -0.609817
     17          1           0        0.108916   -2.884832    0.244929
     18          1           0        0.881091   -1.762160   -0.911757
     19          8           0       -0.579657   -3.057504   -1.644176
     20         16           0       -0.093437    2.715021    0.327214
     21          8           0       -0.091129    3.417732    1.614161
     22          8           0       -0.137656    3.441630   -0.952323
     23          6           0        1.286833    1.566104    0.288051
     24          6           0        1.712579    0.987956    1.486474
     25          6           0        1.860528    1.238015   -0.943397
     26          6           0        2.750769    0.047395    1.442741
     27          1           0        1.245157    1.262600    2.428782
     28          6           0        2.899429    0.301980   -0.964625
     29          1           0        1.499107    1.698103   -1.858099
     30          6           0        3.345532   -0.296180    0.222836
     31          1           0        4.147812   -1.029620    0.195440
     32          6           0       -4.279604    2.757700   -1.119900
     33          1           0       -3.358178    3.344255   -1.271553
     34          1           0       -4.605294    2.340165   -2.088768
     35          1           0       -5.060278    3.421325   -0.730234
     36          6           0       -5.587716   -0.550295    1.476975
     37          1           0       -6.544347   -1.077953    1.372643
     38          1           0       -5.160074   -0.773739    2.470251
     39          1           0       -5.753018    0.533530    1.389491
     40          6           0       -3.026276   -3.814055    0.904580
     41          1           0       -2.902333   -4.430444    1.804110
     42          1           0       -4.098810   -3.684981    0.692852
     43          1           0       -2.540993   -4.314289    0.050023
     44          6           0       -0.558942   -2.461571   -2.944474
     45          1           0       -0.768681   -3.268990   -3.657556
     46          1           0        0.431119   -2.027855   -3.164885
     47          1           0       -1.319668   -1.673325   -3.050685
     48          6           0        3.269904   -0.555879    2.730648
     49          9           0        2.295091   -0.641317    3.672187
     50          9           0        4.273366    0.199418    3.254800
     51          9           0        3.766085   -1.805034    2.534353
     52          6           0        3.499878   -0.143580   -2.279428
     53          9           0        3.014327   -1.368813   -2.642272
     54          9           0        4.849794   -0.266004   -2.195621
     55          9           0        3.221405    0.715917   -3.289242
 ---------------------------------------------------------------------
 Rotational constants (GHZ):           0.1491029           0.0843568           0.0826811
 Leave Link  202 at Mon Jun 10 05:38:18 2019, MaxMem= 12884901888 cpu:               9.3 elap:               0.2
 (Enter /home/ekwan/sw/g16/l301.exe)
 Standard basis: 6-31G(d) (6D, 7F)
 Ernie: Thresh=  0.10000D-02 Tol=  0.10000D-05 Strict=F.
 There are   543 symmetry adapted cartesian basis functions of A   symmetry.
 There are   543 symmetry adapted basis functions of A   symmetry.
   543 basis functions,  1036 primitive gaussians,   543 cartesian basis functions
   132 alpha electrons      132 beta electrons
       nuclear repulsion energy      4322.3979441694 Hartrees.
 IExCor= 3630 DFT=T Ex+Corr=B97D3 ExCW=0 ScaHFX=  0.000000
 ScaDFX=  1.000000  1.000000  1.000000  1.000000 ScalE2=  1.000000  1.000000
 IRadAn=      5 IRanWt=     -1 IRanGd=            0 ICorTp=0 IEmpDi=141
 NAtoms=   55 NActive=   55 NUniq=   55 SFac= 1.00D+00 NAtFMM=   60 NAOKFM=F Big=F
 Integral buffers will be    131072 words long.
 Raffenetti 2 integral format.
 Two-electron integral symmetry is turned on.
 R6Disp:  Grimme-D3(BJ) Dispersion energy=       -0.1875709291 Hartrees.
 Nuclear repulsion after empirical dispersion term =     4322.2103732403 Hartrees.
 ------------------------------------------------------------------------------
 Polarizable Continuum Model (PCM)
 =================================
 Model                : PCM.
 Atomic radii         : UFF (Universal Force Field).
 Polarization charges : Total charges.
 Charge compensation  : None.
 Solution method      : On-the-fly selection.
 Cavity type          : Scaled VdW (van der Waals Surface) (Alpha=1.100).
 Cavity algorithm     : GePol (No added spheres)
                        Default sphere list used, NSphG=   55.
                        Lebedev-Laikov grids with approx.  5.0 points / Ang**2.
                        Smoothing algorithm: York/Karplus (Gamma=1.0000).
                        Polarization charges: spherical gaussians, with
                                              point-specific exponents (IZeta= 3).
                        Self-potential: point-specific (ISelfS= 7).
                        Self-field    : sphere-specific E.n sum rule (ISelfD= 2).
 1st derivatives      : Analytical E(r).r(x)/FMM algorithm (CHGder, D1EAlg=3).
                        Cavity 1st derivative terms included.
 Solvent              : TetraHydroFuran, Eps=   7.425700 Eps(inf)=   1.974025
 ------------------------------------------------------------------------------
 GePol: Number of generator spheres                  =      55
 GePol: Total number of spheres                      =      55
 GePol: Number of exposed spheres                    =      55 (100.00%)
 GePol: Number of points                             =    3977
 GePol: Average weight of points                     =       0.13
 GePol: Minimum weight of points                     =   0.18D-11
 GePol: Maximum weight of points                     =    0.20577
 GePol: Number of points with low weight             =     268
 GePol: Fraction of low-weight points (<1% of avg)   =       6.74%
 GePol: Cavity surface area                          =    497.758 Ang**2
 GePol: Cavity volume                                =    580.580 Ang**3
 Leave Link  301 at Mon Jun 10 05:38:18 2019, MaxMem= 12884901888 cpu:              15.3 elap:               0.3
 (Enter /home/ekwan/sw/g16/l302.exe)
 NPDir=0 NMtPBC=     1 NCelOv=     1 NCel=       1 NClECP=     1 NCelD=      1
         NCelK=      1 NCelE2=     1 NClLst=     1 CellRange=     0.0.
 One-electron integrals computed using PRISM.
 One-electron integral symmetry used in STVInt
 NBasis=   543 RedAO= T EigKep=  4.33D-04  NBF=   543
 NBsUse=   543 1.00D-06 EigRej= -1.00D+00 NBFU=   543
 Precomputing XC quadrature grid using
 IXCGrd= 4 IRadAn=           5 IRanWt=          -1 IRanGd=           0 AccXCQ= 0.00D+00.
 Generated NRdTot=       0 NPtTot=           0 NUsed=           0 NTot=          32
 NSgBfM=   533   532   533   533   533 MxSgAt=    55 MxSgA2=    55.
 Leave Link  302 at Mon Jun 10 05:38:26 2019, MaxMem= 12884901888 cpu:             440.9 elap:               7.3
 (Enter /home/ekwan/sw/g16/l303.exe)
 DipDrv:  MaxL=1.
 Leave Link  303 at Mon Jun 10 05:38:26 2019, MaxMem= 12884901888 cpu:              17.2 elap:               0.4
 (Enter /home/ekwan/sw/g16/l401.exe)
 ExpMin= 1.17D-01 ExpMax= 2.19D+04 ExpMxC= 3.30D+03 IAcc=3 IRadAn=         5 AccDes= 0.00D+00
 Harris functional with IExCor= 3630 and IRadAn=       5 diagonalized for initial guess.
 HarFok:  IExCor= 3630 AccDes= 0.00D+00 IRadAn=         5 IDoV= 1 UseB2=F ITyADJ=14
 ICtDFT=  3500011 ScaDFX=  1.000000  1.000000  1.000000  1.000000
 FoFCou: FMM=F IPFlag=           0 FMFlag=      100000 FMFlg1=           0
         NFxFlg=           0 DoJE=T BraDBF=F KetDBF=T FulRan=T
         wScrn=  0.000000 ICntrl=       500 IOpCl=  0 I1Cent=   200000004 NGrid=           0
         NMat0=    1 NMatS0=      1 NMatT0=    0 NMatD0=    1 NMtDS0=    0 NMtDT0=    0
 Petite list used in FoFCou.
 Harris En= -2297.25419941750    
 JPrj=0 DoOrth=F DoCkMO=F.
 Leave Link  401 at Mon Jun 10 05:38:32 2019, MaxMem= 12884901888 cpu:             369.8 elap:               6.1
 (Enter /home/ekwan/sw/g16/l502.exe)
 Integral symmetry usage will be decided dynamically.
 Closed shell SCF:
 Using DIIS extrapolation, IDIIS=  1040.
 NGot= 12884901888 LenX= 12884271583 LenY= 12883976191
 Requested convergence on RMS density matrix=1.00D-08 within 128 cycles.
 Requested convergence on MAX density matrix=1.00D-06.
 Requested convergence on             energy=1.00D-06.
 No special actions if energy rises.
 Fock matrices will be formed incrementally for  20 cycles.

 Cycle   1  Pass 1  IDiag  1:
 FoFJK:  IHMeth= 1 ICntrl=     500 DoSepK=F KAlg= 0 I1Cent=           0 FoldK=F
 IRaf= 700000000 NMat=       1 IRICut=       1 DoRegI=T DoRafI=F ISym2E= 0 IDoP0=0 IntGTp=1.
 FoFCou: FMM=F IPFlag=           0 FMFlag=      100000 FMFlg1=           0
         NFxFlg=           0 DoJE=T BraDBF=F KetDBF=F FulRan=T
         wScrn=  0.000000 ICntrl=       500 IOpCl=  0 I1Cent=           0 NGrid=           0
         NMat0=    1 NMatS0=      1 NMatT0=    0 NMatD0=    1 NMtDS0=    0 NMtDT0=    0
 Symmetry not used in FoFCou.
 Inv3:  Mode=1 IEnd=    47449587.
 Iteration    1 A*A^-1 deviation from unit magnitude is 7.99D-15 for   3956.
 Iteration    1 A*A^-1 deviation from orthogonality  is 3.32D-15 for   3972   2848.
 Iteration    1 A^-1*A deviation from unit magnitude is 7.99D-15 for   3956.
 Iteration    1 A^-1*A deviation from orthogonality  is 3.65D-15 for   3964   2710.
 E= -2296.28514314984    
 DIIS: error= 3.17D-02 at cycle   1 NSaved=   1.
 NSaved= 1 IEnMin= 1 EnMin= -2296.28514314984     IErMin= 1 ErrMin= 3.17D-02
 ErrMax= 3.17D-02  0.00D+00 EMaxC= 1.00D-01 BMatC= 8.80D-01 BMatP= 8.80D-01
 IDIUse=3 WtCom= 6.83D-01 WtEn= 3.17D-01
 Coeff-Com:  0.100D+01
 Coeff-En:   0.100D+01
 Coeff:      0.100D+01
 Gap=     0.080 Goal=   None    Shift=    0.000
 GapD=    0.080 DampG=0.500 DampE=0.500 DampFc=0.2500 IDamp=-1.
 Damping current iteration by 2.50D-01
 RMSDP=5.03D-03 MaxDP=7.35D-01              OVMax= 2.53D-01

 Cycle   2  Pass 1  IDiag  1:
 RMSU=  1.26D-03    CP:  1.00D+00
 E= -2296.53437618066     Delta-E=       -0.249233030818 Rises=F Damp=T
 DIIS: error= 1.07D-02 at cycle   2 NSaved=   2.
 NSaved= 2 IEnMin= 2 EnMin= -2296.53437618066     IErMin= 2 ErrMin= 1.07D-02
 ErrMax= 1.07D-02  0.00D+00 EMaxC= 1.00D-01 BMatC= 1.09D-01 BMatP= 8.80D-01
 IDIUse=3 WtCom= 8.93D-01 WtEn= 1.07D-01
 Coeff-Com: -0.347D+00 0.135D+01
 Coeff-En:   0.000D+00 0.100D+01
 Coeff:     -0.309D+00 0.131D+01
 Gap=     0.128 Goal=   None    Shift=    0.000
 RMSDP=1.20D-03 MaxDP=5.59D-02 DE=-2.49D-01 OVMax= 2.24D-01

 Cycle   3  Pass 1  IDiag  1:
 RMSU=  1.19D-03    CP:  9.98D-01  1.11D+00
 E= -2296.89138957533     Delta-E=       -0.357013394673 Rises=F Damp=F
 DIIS: error= 1.29D-02 at cycle   3 NSaved=   3.
 NSaved= 3 IEnMin= 3 EnMin= -2296.89138957533     IErMin= 2 ErrMin= 1.07D-02
 ErrMax= 1.29D-02  0.00D+00 EMaxC= 1.00D-01 BMatC= 1.41D-01 BMatP= 1.09D-01
 IDIUse=2 WtCom= 0.00D+00 WtEn= 1.00D+00
 Coeff-En:   0.000D+00 0.000D+00 0.100D+01
 Coeff:      0.000D+00 0.000D+00 0.100D+01
 Gap=     0.085 Goal=   None    Shift=    0.000
 RMSDP=2.93D-03 MaxDP=2.50D-01 DE=-3.57D-01 OVMax= 2.88D-01

 Cycle   4  Pass 1  IDiag  1:
 RMSU=  1.27D-03    CP:  1.01D+00  2.18D+00 -8.96D-01
 E= -2295.98999390972     Delta-E=        0.901395665609 Rises=F Damp=F
 DIIS: error= 3.78D-02 at cycle   4 NSaved=   4.
 NSaved= 4 IEnMin= 3 EnMin= -2296.89138957533     IErMin= 2 ErrMin= 1.07D-02
 ErrMax= 3.78D-02  0.00D+00 EMaxC= 1.00D-01 BMatC= 1.24D+00 BMatP= 1.09D-01
 IDIUse=2 WtCom= 0.00D+00 WtEn= 1.00D+00
 Coeff-En:   0.000D+00 0.000D+00 0.832D+00 0.168D+00
 Coeff:      0.000D+00 0.000D+00 0.832D+00 0.168D+00
 Gap=     0.140 Goal=   None    Shift=    0.000
 RMSDP=1.71D-03 MaxDP=1.56D-01 DE= 9.01D-01 OVMax= 2.03D-01

 Cycle   5  Pass 1  IDiag  1:
 RMSU=  3.55D-04    CP:  1.00D+00  1.42D+00  6.78D-02  4.14D-01
 E= -2296.92982253942     Delta-E=       -0.939828629702 Rises=F Damp=F
 DIIS: error= 1.02D-02 at cycle   5 NSaved=   5.
 NSaved= 5 IEnMin= 5 EnMin= -2296.92982253942     IErMin= 5 ErrMin= 1.02D-02
 ErrMax= 1.02D-02  0.00D+00 EMaxC= 1.00D-01 BMatC= 1.04D-01 BMatP= 1.09D-01
 IDIUse=3 WtCom= 8.98D-01 WtEn= 1.02D-01
 Coeff-Com: -0.483D-01 0.128D+00 0.388D+00-0.566D-01 0.589D+00
 Coeff-En:   0.000D+00 0.000D+00 0.436D+00 0.000D+00 0.564D+00
 Coeff:     -0.434D-01 0.115D+00 0.393D+00-0.508D-01 0.586D+00
 Gap=     0.105 Goal=   None    Shift=    0.000
 RMSDP=6.19D-04 MaxDP=4.71D-02 DE=-9.40D-01 OVMax= 5.76D-02

 Cycle   6  Pass 1  IDiag  1:
 RMSU=  1.18D-04    CP:  1.00D+00  1.27D+00  4.82D-01  2.04D-01  6.33D-01
 E= -2297.01725338726     Delta-E=       -0.087430847838 Rises=F Damp=F
 DIIS: error= 1.79D-03 at cycle   6 NSaved=   6.
 NSaved= 6 IEnMin= 6 EnMin= -2297.01725338726     IErMin= 6 ErrMin= 1.79D-03
 ErrMax= 1.79D-03  0.00D+00 EMaxC= 1.00D-01 BMatC= 1.70D-03 BMatP= 1.04D-01
 IDIUse=3 WtCom= 9.82D-01 WtEn= 1.79D-02
 Coeff-Com: -0.298D-01 0.640D-01 0.231D+00-0.546D-01 0.425D+00 0.365D+00
 Coeff-En:   0.000D+00 0.000D+00 0.000D+00 0.000D+00 0.000D+00 0.100D+01
 Coeff:     -0.292D-01 0.628D-01 0.226D+00-0.536D-01 0.417D+00 0.376D+00
 Gap=     0.105 Goal=   None    Shift=    0.000
 RMSDP=8.82D-05 MaxDP=6.71D-03 DE=-8.74D-02 OVMax= 1.02D-02

 Cycle   7  Pass 1  IDiag  1:
 RMSU=  3.97D-05    CP:  1.00D+00  1.27D+00  4.81D-01  2.04D-01  7.00D-01
                    CP:  3.66D-01
 E= -2297.01849893693     Delta-E=       -0.001245549671 Rises=F Damp=F
 DIIS: error= 5.80D-04 at cycle   7 NSaved=   7.
 NSaved= 7 IEnMin= 7 EnMin= -2297.01849893693     IErMin= 7 ErrMin= 5.80D-04
 ErrMax= 5.80D-04  0.00D+00 EMaxC= 1.00D-01 BMatC= 1.69D-04 BMatP= 1.70D-03
 IDIUse=3 WtCom= 9.94D-01 WtEn= 5.80D-03
 Coeff-Com: -0.121D-01 0.240D-01 0.916D-01-0.263D-01 0.179D+00 0.250D+00
 Coeff-Com:  0.494D+00
 Coeff-En:   0.000D+00 0.000D+00 0.000D+00 0.000D+00 0.000D+00 0.926D-01
 Coeff-En:   0.907D+00
 Coeff:     -0.120D-01 0.239D-01 0.910D-01-0.261D-01 0.178D+00 0.249D+00
 Coeff:      0.496D+00
 Gap=     0.105 Goal=   None    Shift=    0.000
 RMSDP=2.84D-05 MaxDP=2.21D-03 DE=-1.25D-03 OVMax= 3.39D-03

 Cycle   8  Pass 1  IDiag  1:
 RMSU=  1.50D-05    CP:  1.00D+00  1.27D+00  4.83D-01  2.03D-01  6.96D-01
                    CP:  4.70D-01  5.01D-01
 E= -2297.01861201213     Delta-E=       -0.000113075198 Rises=F Damp=F
 DIIS: error= 1.48D-04 at cycle   8 NSaved=   8.
 NSaved= 8 IEnMin= 8 EnMin= -2297.01861201213     IErMin= 8 ErrMin= 1.48D-04
 ErrMax= 1.48D-04  0.00D+00 EMaxC= 1.00D-01 BMatC= 2.46D-05 BMatP= 1.69D-04
 IDIUse=3 WtCom= 9.99D-01 WtEn= 1.48D-03
 Coeff-Com: -0.147D-02 0.254D-02 0.226D-01-0.624D-02 0.406D-01 0.995D-01
 Coeff-Com:  0.333D+00 0.509D+00
 Coeff-En:   0.000D+00 0.000D+00 0.000D+00 0.000D+00 0.000D+00 0.000D+00
 Coeff-En:   0.127D+00 0.873D+00
 Coeff:     -0.147D-02 0.254D-02 0.226D-01-0.624D-02 0.405D-01 0.994D-01
 Coeff:      0.333D+00 0.510D+00
 Gap=     0.105 Goal=   None    Shift=    0.000
 RMSDP=1.03D-05 MaxDP=5.38D-04 DE=-1.13D-04 OVMax= 9.82D-04

 Cycle   9  Pass 1  IDiag  1:
 RMSU=  4.99D-06    CP:  1.00D+00  1.27D+00  4.85D-01  2.03D-01  6.92D-01
                    CP:  4.62D-01  6.08D-01  5.00D-01
 E= -2297.01863116555     Delta-E=       -0.000019153423 Rises=F Damp=F
 DIIS: error= 3.50D-05 at cycle   9 NSaved=   9.
 NSaved= 9 IEnMin= 9 EnMin= -2297.01863116555     IErMin= 9 ErrMin= 3.50D-05
 ErrMax= 3.50D-05  0.00D+00 EMaxC= 1.00D-01 BMatC= 2.30D-06 BMatP= 2.46D-05
 IDIUse=1 WtCom= 1.00D+00 WtEn= 0.00D+00
 Coeff-Com:  0.276D-03-0.739D-03 0.710D-02-0.162D-02 0.105D-01 0.422D-01
 Coeff-Com:  0.170D+00 0.326D+00 0.447D+00
 Coeff:      0.276D-03-0.739D-03 0.710D-02-0.162D-02 0.105D-01 0.422D-01
 Coeff:      0.170D+00 0.326D+00 0.447D+00
 Gap=     0.105 Goal=   None    Shift=    0.000
 RMSDP=3.32D-06 MaxDP=1.99D-04 DE=-1.92D-05 OVMax= 2.59D-04

 Cycle  10  Pass 1  IDiag  1:
 RMSU=  1.45D-06    CP:  1.00D+00  1.27D+00  4.85D-01  2.02D-01  6.91D-01
                    CP:  4.63D-01  6.06D-01  5.47D-01  4.42D-01
 E= -2297.01863297257     Delta-E=       -0.000001807020 Rises=F Damp=F
 DIIS: error= 1.17D-05 at cycle  10 NSaved=  10.
 NSaved=10 IEnMin=10 EnMin= -2297.01863297257     IErMin=10 ErrMin= 1.17D-05
 ErrMax= 1.17D-05  0.00D+00 EMaxC= 1.00D-01 BMatC= 2.04D-07 BMatP= 2.30D-06
 IDIUse=1 WtCom= 1.00D+00 WtEn= 0.00D+00
 Coeff-Com:  0.238D-03-0.453D-03 0.192D-02-0.367D-03 0.183D-02 0.150D-01
 Coeff-Com:  0.676D-01 0.147D+00 0.274D+00 0.493D+00
 Coeff:      0.238D-03-0.453D-03 0.192D-02-0.367D-03 0.183D-02 0.150D-01
 Coeff:      0.676D-01 0.147D+00 0.274D+00 0.493D+00
 Gap=     0.105 Goal=   None    Shift=    0.000
 RMSDP=1.04D-06 MaxDP=7.95D-05 DE=-1.81D-06 OVMax= 1.31D-04

 Cycle  11  Pass 1  IDiag  1:
 RMSU=  6.41D-07    CP:  1.00D+00  1.27D+00  4.85D-01  2.02D-01  6.91D-01
                    CP:  4.63D-01  6.07D-01  5.48D-01  5.04D-01  4.83D-01
 E= -2297.01863311509     Delta-E=       -0.000000142517 Rises=F Damp=F
 DIIS: error= 5.75D-06 at cycle  11 NSaved=  11.
 NSaved=11 IEnMin=11 EnMin= -2297.01863311509     IErMin=11 ErrMin= 5.75D-06
 ErrMax= 5.75D-06  0.00D+00 EMaxC= 1.00D-01 BMatC= 3.18D-08 BMatP= 2.04D-07
 IDIUse=1 WtCom= 1.00D+00 WtEn= 0.00D+00
 Coeff-Com:  0.104D-03-0.168D-03 0.494D-03-0.106D-03 0.140D-03 0.526D-02
 Coeff-Com:  0.250D-01 0.609D-01 0.132D+00 0.342D+00 0.434D+00
 Coeff:      0.104D-03-0.168D-03 0.494D-03-0.106D-03 0.140D-03 0.526D-02
 Coeff:      0.250D-01 0.609D-01 0.132D+00 0.342D+00 0.434D+00
 Gap=     0.105 Goal=   None    Shift=    0.000
 RMSDP=3.87D-07 MaxDP=2.81D-05 DE=-1.43D-07 OVMax= 7.16D-05

 Cycle  12  Pass 1  IDiag  1:
 RMSU=  1.65D-07    CP:  1.00D+00  1.27D+00  4.85D-01  2.02D-01  6.91D-01
                    CP:  4.63D-01  6.07D-01  5.52D-01  5.05D-01  5.46D-01
                    CP:  5.07D-01
 E= -2297.01863314622     Delta-E=       -0.000000031132 Rises=F Damp=F
 DIIS: error= 1.47D-06 at cycle  12 NSaved=  12.
 NSaved=12 IEnMin=12 EnMin= -2297.01863314622     IErMin=12 ErrMin= 1.47D-06
 ErrMax= 1.47D-06  0.00D+00 EMaxC= 1.00D-01 BMatC= 1.34D-09 BMatP= 3.18D-08
 IDIUse=1 WtCom= 1.00D+00 WtEn= 0.00D+00
 Coeff-Com:  0.432D-04-0.668D-04 0.396D-04-0.240D-06-0.208D-03 0.128D-02
 Coeff-Com:  0.643D-02 0.183D-01 0.447D-01 0.141D+00 0.231D+00 0.558D+00
 Coeff:      0.432D-04-0.668D-04 0.396D-04-0.240D-06-0.208D-03 0.128D-02
 Coeff:      0.643D-02 0.183D-01 0.447D-01 0.141D+00 0.231D+00 0.558D+00
 Gap=     0.105 Goal=   None    Shift=    0.000
 RMSDP=9.70D-08 MaxDP=6.95D-06 DE=-3.11D-08 OVMax= 1.26D-05

 Cycle  13  Pass 1  IDiag  1:
 RMSU=  5.71D-08    CP:  1.00D+00  1.27D+00  4.85D-01  2.02D-01  6.91D-01
                    CP:  4.63D-01  6.07D-01  5.51D-01  5.05D-01  5.62D-01
                    CP:  5.46D-01  5.85D-01
 E= -2297.01863314721     Delta-E=       -0.000000000993 Rises=F Damp=F
 DIIS: error= 6.42D-07 at cycle  13 NSaved=  13.
 NSaved=13 IEnMin=13 EnMin= -2297.01863314721     IErMin=13 ErrMin= 6.42D-07
 ErrMax= 6.42D-07  0.00D+00 EMaxC= 1.00D-01 BMatC= 2.41D-10 BMatP= 1.34D-09
 IDIUse=1 WtCom= 1.00D+00 WtEn= 0.00D+00
 Coeff-Com:  0.124D-04-0.162D-04-0.474D-05 0.531D-05-0.989D-04 0.287D-03
 Coeff-Com:  0.136D-02 0.484D-02 0.136D-01 0.515D-01 0.943D-01 0.347D+00
 Coeff-Com:  0.487D+00
 Coeff:      0.124D-04-0.162D-04-0.474D-05 0.531D-05-0.989D-04 0.287D-03
 Coeff:      0.136D-02 0.484D-02 0.136D-01 0.515D-01 0.943D-01 0.347D+00
 Coeff:      0.487D+00
 Gap=     0.105 Goal=   None    Shift=    0.000
 RMSDP=3.32D-08 MaxDP=2.05D-06 DE=-9.93D-10 OVMax= 5.36D-06

 Cycle  14  Pass 1  IDiag  1:
 RMSU=  1.45D-08    CP:  1.00D+00  1.27D+00  4.85D-01  2.02D-01  6.91D-01
                    CP:  4.63D-01  6.07D-01  5.52D-01  5.05D-01  5.62D-01
                    CP:  5.39D-01  6.49D-01  5.30D-01
 E= -2297.01863314749     Delta-E=       -0.000000000282 Rises=F Damp=F
 DIIS: error= 1.45D-07 at cycle  14 NSaved=  14.
 NSaved=14 IEnMin=14 EnMin= -2297.01863314749     IErMin=14 ErrMin= 1.45D-07
 ErrMax= 1.45D-07  0.00D+00 EMaxC= 1.00D-01 BMatC= 1.24D-11 BMatP= 2.41D-10
 IDIUse=1 WtCom= 1.00D+00 WtEn= 0.00D+00
 Coeff-Com:  0.339D-05-0.383D-05-0.265D-05 0.199D-05-0.314D-04 0.700D-04
 Coeff-Com:  0.279D-03 0.128D-02 0.420D-02 0.178D-01 0.341D-01 0.145D+00
 Coeff-Com:  0.260D+00 0.538D+00
 Coeff:      0.339D-05-0.383D-05-0.265D-05 0.199D-05-0.314D-04 0.700D-04
 Coeff:      0.279D-03 0.128D-02 0.420D-02 0.178D-01 0.341D-01 0.145D+00
 Coeff:      0.260D+00 0.538D+00
 Gap=     0.105 Goal=   None    Shift=    0.000
 RMSDP=9.87D-09 MaxDP=8.32D-07 DE=-2.82D-10 OVMax= 2.03D-06

 Error on total polarization charges =  0.00904
 SCF Done:  E(RB97D3) =  -2297.01863315     A.U. after   14 cycles
            NFock= 14  Conv=0.99D-08     -V/T= 2.0067
 KE= 2.281802024258D+03 PE=-1.405441252740D+04 EE= 5.153381496756D+03
 Leave Link  502 at Mon Jun 10 05:41:45 2019, MaxMem= 12884901888 cpu:           11407.2 elap:             192.7
 (Enter /home/ekwan/sw/g16/l701.exe)
 ... and contract with generalized density number  0.
 Compute integral first derivatives.
 R6Disp: Adding Grimme-D3(BJ) dispersion energy 1st derivatives to the gradient.
 D1PCM: PCM CHGder 1st derivatives, ID1Alg=3 FixD1E=F DoIter=F DoCFld=F I1PDM=0.
 GePol: Maximum number of non-zero 1st derivatives   =     217
 Leave Link  701 at Mon Jun 10 05:41:54 2019, MaxMem= 12884901888 cpu:             521.2 elap:               8.6
 (Enter /home/ekwan/sw/g16/l702.exe)
 L702 exits ... SP integral derivatives will be done elsewhere.
 Leave Link  702 at Mon Jun 10 05:41:54 2019, MaxMem= 12884901888 cpu:               5.7 elap:               0.1
 (Enter /home/ekwan/sw/g16/l703.exe)
 Integral derivatives from FoFJK, PRISM(SPDF).
 Compute integral first derivatives, UseDBF=F ICtDFT=           0.
 Calling FoFJK, ICntrl=      2527 FMM=F ISym2X=0 I1Cent= 0 IOpClX= 0 NMat=1 NMatS=1 NMatT=0.
 FoFJK:  IHMeth= 1 ICntrl=    2527 DoSepK=F KAlg= 0 I1Cent=           0 FoldK=F
 IRaf=         0 NMat=       1 IRICut=       1 DoRegI=T DoRafI=F ISym2E= 0 IDoP0=0 IntGTp=1.
 FoFCou: FMM=F IPFlag=           0 FMFlag=      100000 FMFlg1=         800
         NFxFlg=           0 DoJE=F BraDBF=F KetDBF=F FulRan=T
         wScrn=  0.000000 ICntrl=      2527 IOpCl=  0 I1Cent=           0 NGrid=           0
         NMat0=    1 NMatS0=      1 NMatT0=    0 NMatD0=    1 NMtDS0=    0 NMtDT0=    0
 Symmetry not used in FoFCou.
 Leave Link  703 at Mon Jun 10 05:42:15 2019, MaxMem= 12884901888 cpu:            1312.8 elap:              21.2
 (Enter /home/ekwan/sw/g16/l716.exe)
 Dipole        =-2.18466064D-01-8.24803786D-01-9.14170469D-01
 ***** Axes restored to original set *****
 -------------------------------------------------------------------
 Center     Atomic                   Forces (Hartrees/Bohr)
 Number     Number              X              Y              Z
 -------------------------------------------------------------------
      1        6           0.000004206    0.000007762   -0.000002140
      2        6          -0.000000393   -0.000007350    0.000001824
      3        6           0.000003321    0.000010005   -0.000016868
      4        6          -0.000007158    0.000005471    0.000008343
      5        6           0.000005643   -0.000000134    0.000006293
      6        1           0.000002225    0.000001576    0.000003149
      7        1           0.000001659    0.000002721   -0.000001733
      8        1           0.000001230   -0.000001368    0.000001791
      9        1           0.000000580   -0.000003595   -0.000003648
     10        1          -0.000003992    0.000001397   -0.000002654
     11        8           0.000009875   -0.000007777   -0.000004005
     12        8           0.000018857    0.000013950    0.000015149
     13        8           0.000001342    0.000000987   -0.000003080
     14        8          -0.000003196   -0.000006114    0.000003603
     15        8          -0.000004893    0.000005841   -0.000002063
     16        6          -0.000000592    0.000000765    0.000002274
     17        1          -0.000000679    0.000000407    0.000000451
     18        1          -0.000002663    0.000003515   -0.000000383
     19        8          -0.000001906    0.000001178   -0.000004440
     20       16          -0.000022829   -0.000023624   -0.000008514
     21        8           0.000001814    0.000005019   -0.000012445
     22        8          -0.000001098    0.000000816    0.000010393
     23        6           0.000006083   -0.000006869    0.000018741
     24        6          -0.000004003    0.000000663   -0.000003643
     25        6          -0.000002118   -0.000001522   -0.000006044
     26        6           0.000000397   -0.000003750   -0.000003477
     27        1           0.000002717   -0.000000734   -0.000000331
     28        6           0.000000242    0.000000700    0.000001512
     29        1          -0.000000536    0.000000930   -0.000000989
     30        6           0.000002596    0.000000032   -0.000001139
     31        1          -0.000000165   -0.000001002    0.000000061
     32        6           0.000000422    0.000007993    0.000007883
     33        1          -0.000000039   -0.000001122   -0.000002945
     34        1           0.000001392    0.000000748   -0.000003153
     35        1           0.000002047    0.000000206   -0.000000985
     36        6          -0.000005019    0.000006016   -0.000004763
     37        1           0.000000102    0.000003298    0.000001655
     38        1          -0.000000728   -0.000001231    0.000002079
     39        1           0.000002722   -0.000001944    0.000001096
     40        6           0.000003106   -0.000005116    0.000004037
     41        1          -0.000002014    0.000001529    0.000001238
     42        1          -0.000001826    0.000001481   -0.000000446
     43        1          -0.000002972    0.000001552   -0.000000789
     44        6           0.000000046   -0.000000973    0.000002432
     45        1           0.000000854    0.000001524   -0.000000489
     46        1          -0.000001120    0.000001408   -0.000000247
     47        1          -0.000001819   -0.000000085   -0.000000350
     48        6          -0.000004246   -0.000005168    0.000000924
     49        9           0.000001381   -0.000000534    0.000000828
     50        9           0.000002223    0.000000977   -0.000002188
     51        9          -0.000002286   -0.000001317   -0.000000257
     52        6          -0.000012587   -0.000022811   -0.000002833
     53        9           0.000005985    0.000011699   -0.000003845
     54        9           0.000008880   -0.000003042   -0.000000955
     55        9          -0.000001066    0.000005019    0.000006088
 -------------------------------------------------------------------
 Cartesian Forces:  Max     0.000023624 RMS     0.000005745
 Leave Link  716 at Mon Jun 10 05:42:15 2019, MaxMem= 12884901888 cpu:               6.3 elap:               0.1
 (Enter /home/ekwan/sw/g16/l103.exe)

 GradGradGradGradGradGradGradGradGradGradGradGradGradGradGradGradGradGrad
 Berny optimization.
 FormGI is forming the generalized inverse of G from B-inverse, IUseBI=4.
 GSVD:  received Info=                   1 from GESDD.
 Internal  Forces:  Max     0.000032400 RMS     0.000004299
 Search for a local minimum.
 Step number   1 out of a maximum of  291
 All quantities printed in internal units (Hartrees-Bohrs-Radians)
 RMS Force = .42990D-05 SwitMx=.10000D-02 MixMth= 2
 Mixed Optimization -- En-DIIS/RFO-DIIS
 Second derivative matrix not updated -- first step.
 ITU=  0
     Eigenvalues ---    0.00346   0.00419   0.00494   0.00553   0.00581
     Eigenvalues ---    0.00600   0.00756   0.01288   0.01295   0.01298
     Eigenvalues ---    0.01308   0.01309   0.01322   0.01335   0.01395
     Eigenvalues ---    0.01442   0.01482   0.01503   0.01522   0.01887
     Eigenvalues ---    0.02071   0.02076   0.02090   0.02098   0.02114
     Eigenvalues ---    0.02121   0.02829   0.03203   0.04316   0.04476
     Eigenvalues ---    0.04546   0.04739   0.04821   0.05176   0.05200
     Eigenvalues ---    0.05689   0.05970   0.06525   0.06950   0.07002
     Eigenvalues ---    0.07144   0.07793   0.09186   0.09960   0.09984
     Eigenvalues ---    0.10014   0.10053   0.10537   0.10553   0.10579
     Eigenvalues ---    0.10583   0.10614   0.10674   0.10686   0.10733
     Eigenvalues ---    0.10890   0.10975   0.11471   0.11860   0.11954
     Eigenvalues ---    0.14149   0.14865   0.16000   0.16000   0.16000
     Eigenvalues ---    0.16000   0.16000   0.16000   0.16000   0.16000
     Eigenvalues ---    0.16000   0.16000   0.16000   0.16000   0.16000
     Eigenvalues ---    0.16000   0.16000   0.16493   0.16628   0.17468
     Eigenvalues ---    0.18655   0.19695   0.19732   0.20586   0.22157
     Eigenvalues ---    0.23472   0.23482   0.23493   0.24944   0.24972
     Eigenvalues ---    0.24976   0.25000   0.25000   0.25000   0.25000
     Eigenvalues ---    0.25000   0.25000   0.25000   0.25000   0.25000
     Eigenvalues ---    0.25000   0.25000   0.25000   0.26410   0.26679
     Eigenvalues ---    0.28077   0.28340   0.28587   0.29266   0.30954
     Eigenvalues ---    0.31097   0.32930   0.33215   0.33229   0.33338
     Eigenvalues ---    0.33379   0.33383   0.33400   0.33454   0.33456
     Eigenvalues ---    0.33591   0.33616   0.33655   0.33699   0.33963
     Eigenvalues ---    0.33963   0.33965   0.34003   0.34104   0.34355
     Eigenvalues ---    0.35120   0.35146   0.35301   0.35655   0.36429
     Eigenvalues ---    0.40917   0.40985   0.41126   0.41146   0.41288
     Eigenvalues ---    0.41424   0.41709   0.41831   0.41849   0.42097
     Eigenvalues ---    0.43087   0.44818   0.45373   0.45644   0.45808
     Eigenvalues ---    0.46021   0.51563   0.52759   0.53282   0.53345
     Eigenvalues ---    0.53362   0.53973   0.86704   0.89014
 RFO step:  Lambda=-5.72826986D-08 EMin= 3.46495255D-03
 Linear search not attempted -- first point.
 Iteration  1 RMS(Cart)=  0.00155090 RMS(Int)=  0.00000029
 Iteration  2 RMS(Cart)=  0.00000069 RMS(Int)=  0.00000000
 ITry= 1 IFail=0 DXMaxC= 8.05D-03 DCOld= 1.00D+10 DXMaxT= 3.00D-01 DXLimC= 3.00D+00 Rises=F
 Variable       Old X    -DE/DX   Delta X   Delta X   Delta X     New X
                                 (Linear)    (Quad)   (Total)
    R1        2.90340   0.00000   0.00000  -0.00001  -0.00001   2.90338
    R2        2.89919   0.00000   0.00000   0.00001   0.00001   2.89920
    R3        2.08258   0.00000   0.00000   0.00001   0.00001   2.08259
    R4        2.69663  -0.00001   0.00000  -0.00002  -0.00002   2.69662
    R5        2.91923   0.00000   0.00000  -0.00002  -0.00002   2.91921
    R6        2.09174   0.00000   0.00000   0.00001   0.00001   2.09175
    R7        2.67562   0.00000   0.00000  -0.00001  -0.00001   2.67561
    R8        2.06734   0.00000   0.00000  -0.00001  -0.00001   2.06733
    R9        2.63385   0.00000   0.00000   0.00000   0.00000   2.63385
   R10        2.77924   0.00002   0.00000   0.00005   0.00005   2.77929
   R11        2.90229   0.00000   0.00000   0.00002   0.00002   2.90231
   R12        2.08261   0.00000   0.00000  -0.00001  -0.00001   2.08260
   R13        2.74852   0.00001   0.00000   0.00004   0.00004   2.74856
   R14        2.89451   0.00001   0.00000   0.00003   0.00003   2.89454
   R15        2.07916   0.00000   0.00000   0.00001   0.00001   2.07916
   R16        2.69840   0.00000   0.00000   0.00000   0.00000   2.69840
   R17        3.12815   0.00003   0.00000   0.00008   0.00008   3.12823
   R18        2.70051   0.00000   0.00000  -0.00001  -0.00001   2.70051
   R19        2.70026   0.00000   0.00000  -0.00001  -0.00001   2.70025
   R20        2.70236   0.00000   0.00000  -0.00001  -0.00001   2.70236
   R21        2.07325   0.00000   0.00000   0.00000   0.00000   2.07325
   R22        2.08354   0.00000   0.00000   0.00000   0.00000   2.08354
   R23        2.68800   0.00000   0.00000   0.00001   0.00001   2.68801
   R24        2.70326   0.00000   0.00000   0.00000   0.00000   2.70326
   R25        2.77091  -0.00001   0.00000  -0.00001  -0.00001   2.77089
   R26        2.78190  -0.00001   0.00000  -0.00001  -0.00001   2.78189
   R27        3.39451   0.00000   0.00000  -0.00002  -0.00002   3.39450
   R28        2.64003   0.00000   0.00000   0.00000   0.00000   2.64003
   R29        2.64105   0.00001   0.00000   0.00001   0.00001   2.64106
   R30        2.64859   0.00000   0.00000   0.00000   0.00000   2.64859
   R31        2.05438   0.00000   0.00000   0.00000   0.00000   2.05439
   R32        2.64287   0.00000   0.00000  -0.00001  -0.00001   2.64286
   R33        2.05189   0.00000   0.00000   0.00000   0.00000   2.05188
   R34        2.64559   0.00000   0.00000   0.00000   0.00000   2.64558
   R35        2.86101   0.00000   0.00000   0.00000   0.00000   2.86102
   R36        2.65025   0.00000   0.00000  -0.00001  -0.00001   2.65024
   R37        2.85828   0.00000   0.00000   0.00000   0.00000   2.85828
   R38        2.05480   0.00000   0.00000   0.00000   0.00000   2.05480
   R39        2.08391   0.00000   0.00000   0.00001   0.00001   2.08392
   R40        2.08651   0.00000   0.00000   0.00001   0.00001   2.08652
   R41        2.07155   0.00000   0.00000   0.00000   0.00000   2.07155
   R42        2.07393   0.00000   0.00000   0.00000   0.00000   2.07393
   R43        2.08676   0.00000   0.00000   0.00000   0.00000   2.08676
   R44        2.07840   0.00000   0.00000   0.00001   0.00001   2.07841
   R45        2.07393   0.00000   0.00000   0.00000   0.00000   2.07393
   R46        2.08026   0.00000   0.00000   0.00000   0.00000   2.08026
   R47        2.08385   0.00000   0.00000   0.00001   0.00001   2.08385
   R48        2.07388   0.00000   0.00000   0.00000   0.00000   2.07389
   R49        2.08463   0.00000   0.00000   0.00000   0.00000   2.08463
   R50        2.07983   0.00000   0.00000   0.00000   0.00000   2.07983
   R51        2.56617   0.00000   0.00000   0.00000   0.00000   2.56618
   R52        2.57179   0.00000   0.00000  -0.00001  -0.00001   2.57179
   R53        2.56691   0.00000   0.00000   0.00000   0.00000   2.56691
   R54        2.58320   0.00001   0.00000   0.00003   0.00003   2.58323
   R55        2.56633  -0.00001   0.00000  -0.00002  -0.00002   2.56632
   R56        2.56057  -0.00001   0.00000  -0.00002  -0.00002   2.56055
    A1        1.93249   0.00000   0.00000  -0.00003  -0.00003   1.93246
    A2        1.90239   0.00000   0.00000  -0.00001  -0.00001   1.90237
    A3        1.93027   0.00000   0.00000   0.00002   0.00002   1.93028
    A4        1.89442   0.00000   0.00000   0.00002   0.00002   1.89444
    A5        1.87459   0.00000   0.00000   0.00003   0.00003   1.87462
    A6        1.92942   0.00000   0.00000  -0.00002  -0.00002   1.92940
    A7        1.93972   0.00000   0.00000  -0.00008  -0.00008   1.93965
    A8        1.88757   0.00000   0.00000   0.00001   0.00001   1.88758
    A9        1.89290   0.00000   0.00000   0.00002   0.00002   1.89292
   A10        1.84339   0.00000   0.00000   0.00003   0.00003   1.84342
   A11        1.97062   0.00000   0.00000   0.00001   0.00001   1.97063
   A12        1.92796   0.00000   0.00000   0.00000   0.00000   1.92797
   A13        1.95727   0.00000   0.00000   0.00000   0.00000   1.95727
   A14        1.97144   0.00000   0.00000  -0.00004  -0.00004   1.97140
   A15        1.84470  -0.00001   0.00000  -0.00007  -0.00007   1.84462
   A16        1.84924   0.00000   0.00000   0.00006   0.00006   1.84930
   A17        1.88891   0.00001   0.00000   0.00005   0.00005   1.88896
   A18        1.95263   0.00001   0.00000   0.00001   0.00001   1.95263
   A19        1.90298   0.00000   0.00000  -0.00001  -0.00001   1.90298
   A20        1.93168   0.00000   0.00000   0.00001   0.00001   1.93169
   A21        1.96770  -0.00001   0.00000  -0.00004  -0.00004   1.96766
   A22        1.89312   0.00000   0.00000  -0.00004  -0.00004   1.89308
   A23        1.87913   0.00000   0.00000   0.00002   0.00002   1.87916
   A24        1.88719   0.00001   0.00000   0.00005   0.00005   1.88724
   A25        1.95447   0.00000   0.00000   0.00003   0.00003   1.95450
   A26        1.89680   0.00000   0.00000   0.00000   0.00000   1.89680
   A27        1.91530   0.00000   0.00000   0.00002   0.00002   1.91532
   A28        1.89303   0.00000   0.00000  -0.00004  -0.00004   1.89299
   A29        1.87190   0.00000   0.00000   0.00000   0.00000   1.87190
   A30        1.93253   0.00000   0.00000   0.00000   0.00000   1.93253
   A31        2.00379   0.00000   0.00000   0.00000   0.00000   2.00379
   A32        2.04680   0.00003   0.00000   0.00013   0.00013   2.04692
   A33        1.99228   0.00000   0.00000  -0.00001  -0.00001   1.99227
   A34        1.99317   0.00000   0.00000   0.00000   0.00000   1.99317
   A35        1.98359   0.00000   0.00000   0.00000   0.00000   1.98358
   A36        1.87036   0.00000   0.00000  -0.00002  -0.00002   1.87034
   A37        1.90168   0.00001   0.00000   0.00006   0.00006   1.90174
   A38        2.01281   0.00000   0.00000  -0.00001  -0.00001   2.01280
   A39        1.89700   0.00000   0.00000  -0.00001  -0.00001   1.89699
   A40        1.84518   0.00000   0.00000  -0.00001  -0.00001   1.84517
   A41        1.93224   0.00000   0.00000  -0.00001  -0.00001   1.93223
   A42        1.99449   0.00000   0.00000   0.00001   0.00001   1.99450
   A43        1.81520  -0.00001   0.00000  -0.00004  -0.00004   1.81516
   A44        1.90664   0.00001   0.00000   0.00005   0.00005   1.90669
   A45        1.78945   0.00001   0.00000   0.00005   0.00005   1.78950
   A46        2.12512   0.00000   0.00000  -0.00003  -0.00003   2.12509
   A47        1.90123   0.00000   0.00000  -0.00001  -0.00001   1.90121
   A48        1.89634   0.00000   0.00000   0.00000   0.00000   1.89634
   A49        2.07163   0.00001   0.00000   0.00006   0.00006   2.07168
   A50        2.07691  -0.00001   0.00000  -0.00005  -0.00005   2.07686
   A51        2.13366   0.00000   0.00000  -0.00001  -0.00001   2.13365
   A52        2.06768   0.00000   0.00000   0.00000   0.00000   2.06767
   A53        2.10363   0.00000   0.00000  -0.00001  -0.00001   2.10362
   A54        2.11188   0.00000   0.00000   0.00001   0.00001   2.11189
   A55        2.06624   0.00000   0.00000   0.00001   0.00001   2.06625
   A56        2.10153   0.00000   0.00000   0.00001   0.00001   2.10154
   A57        2.11539   0.00000   0.00000  -0.00002  -0.00002   2.11538
   A58        2.10200   0.00000   0.00000   0.00001   0.00001   2.10201
   A59        2.08846   0.00000   0.00000   0.00001   0.00001   2.08847
   A60        2.09185   0.00000   0.00000  -0.00001  -0.00001   2.09183
   A61        2.10470   0.00000   0.00000   0.00000   0.00000   2.10470
   A62        2.10047   0.00000   0.00000  -0.00002  -0.00002   2.10045
   A63        2.07613   0.00000   0.00000   0.00002   0.00002   2.07615
   A64        2.09207   0.00000   0.00000   0.00000   0.00000   2.09207
   A65        2.09549   0.00000   0.00000   0.00000   0.00000   2.09549
   A66        2.09561   0.00000   0.00000   0.00000   0.00000   2.09561
   A67        1.95377   0.00000   0.00000   0.00002   0.00002   1.95378
   A68        1.94241   0.00000   0.00000   0.00001   0.00001   1.94242
   A69        1.85603   0.00000   0.00000   0.00001   0.00001   1.85604
   A70        1.90386   0.00000   0.00000  -0.00002  -0.00002   1.90384
   A71        1.89857   0.00000   0.00000  -0.00001  -0.00001   1.89856
   A72        1.90792   0.00000   0.00000  -0.00001  -0.00001   1.90791
   A73        1.85439   0.00000   0.00000   0.00000   0.00000   1.85438
   A74        1.93855   0.00000   0.00000   0.00001   0.00001   1.93856
   A75        1.94837   0.00000   0.00000   0.00002   0.00002   1.94839
   A76        1.90264   0.00000   0.00000  -0.00001  -0.00001   1.90264
   A77        1.91264   0.00000   0.00000   0.00000   0.00000   1.91263
   A78        1.90620   0.00000   0.00000  -0.00002  -0.00002   1.90619
   A79        1.85559   0.00000   0.00000   0.00000   0.00000   1.85560
   A80        1.94021   0.00000   0.00000   0.00001   0.00001   1.94022
[...]
 9,-0.00002528,0.00001635,-0.00013454,-0.00032605,0.00011718,0.00000843
 ,0.00004337,0.00000868,0.00005445,0.00002995,-0.00002245,-0.00000260,0
 .00004372,-0.00003837,0.00070383,0.00062985,0.00104404,-0.00008439,-0.
 00001429,-0.00011186,-0.00004357,0.00002881,-0.00028896,-0.00012569,-0
 .00011198,-0.00000886,0.00243675,-0.00248428,-0.00597726,0.00026057,0.
 00061968,0.00208939,-0.00164631,-0.00009894,0.00194794,-0.00082987,0.0
 0140374,0.00126804,0.02399642,-0.00085640,0.54021070,0.00006907,-0.000
 09311,0.00003062,0.00006523,-0.00004342,-0.00002504,0.00013752,-0.0003
 4377,0.00019694,-0.00008301,-0.00045088,-0.00004092,0.00005721,0.00020
 554,0.00004996,-0.00001526,0.00001930,-0.00000780,0.00000431,0.0000029
 6,-0.00000272,-0.00000857,0.00000537,-0.00000918,-0.00000342,0.0000330
 3,-0.00002449,0.00003736,-0.00000760,0.00000576,-0.00018183,0.00027740
 ,-0.00003673,0.00012464,0.00022261,-0.00013469,-0.00008073,0.00009376,
 0.00000148,-0.00014972,0.00002568,-0.00006849,-0.00010435,-0.00006677,
 -0.00005995,0.00134263,0.00091035,0.00003032,-0.00015729,-0.00004873,-
 0.00012106,-0.00133943,-0.00056001,-0.00041484,-0.00057227,-0.00058254
 ,-0.00035753,-0.00009193,-0.00027568,0.00011794,0.00002904,0.00003655,
 -0.00002667,0.00001757,0.00007931,0.00000937,0.00025986,-0.00060157,0.
 00021860,0.00006851,-0.00011823,-0.00034955,-0.00008053,-0.00037058,0.
 00096072,-0.00053025,-0.00020313,-0.00014332,0.00004251,0.00002299,0.0
 0001611,0.01017652,0.00220227,-0.00360065,0.00003822,0.00010453,-0.000
 03063,-0.00003288,0.00114963,-0.00017663,0.00010075,0.00000506,-0.0004
 5078,0.00000866,-0.00003833,-0.00003922,0.00000536,0.00000177,0.000008
 81,0.00000271,0.00000260,0.00000647,-0.00000873,0.00000971,0.00000092,
 0.00003563,-0.00002575,0.00007241,-0.00001495,-0.00000013,-0.00000842,
 0.00000178,0.00000213,-0.00001362,-0.00000542,0.00001198,-0.00000823,0
 .00006495,0.00008438,0.00001071,-0.00000584,-0.00001675,-0.00001634,-0
 .00002289,-0.00001015,0.00000363,0.00001040,0.00001832,0.00000243,0.00
 133439,0.00068012,0.00090664,-0.00027394,-0.00013928,0.00000500,-0.001
 66142,-0.00035163,-0.00016884,-0.00032696,-0.00008481,-0.00000569,-0.0
 0028437,0.00000084,0.00020937,0.00005425,-0.00000856,-0.00007896,0.000
 09015,0.00003205,-0.00006483,0.00005893,-0.00003423,-0.00003007,-0.077
 57105,-0.03353800,0.01446325,0.10646529,-0.00001683,-0.00018972,-0.000
 02075,-0.00012366,-0.00000425,-0.00008324,-0.00015153,-0.00062248,0.00
 074552,-0.00017852,-0.00084514,-0.00004233,-0.00001286,0.00016023,-0.0
 0003010,-0.00004002,0.00004547,-0.00003685,0.00006970,0.00002301,-0.00
 000955,-0.00001450,0.00001281,-0.00002705,-0.00005814,0.00004362,-0.00
 011804,0.00008148,0.00000981,0.00000567,0.00011695,0.00072192,-0.00013
 848,0.00118341,0.00048139,-0.00041410,0.00005434,0.00004931,-0.0000180
 5,-0.00002462,0.00008931,-0.00002375,-0.00005244,0.00012284,-0.0000038
 1,0.00124157,0.00076969,0.00034232,-0.00012327,-0.00002052,-0.00011628
 ,-0.00014482,-0.00086977,0.00046426,-0.00055212,-0.00022778,-0.0005779
 2,-0.00251934,0.00134966,0.00008089,0.00061470,-0.00062012,0.00037841,
 0.00064184,-0.00048953,-0.00022391,0.00136697,0.00049270,0.00038242,-0
 .00010447,-0.00011513,0.00069076,-0.00159632,0.00065278,0.00208683,0.0
 0155577,0.00081698,0.00144584,-0.00016561,-0.00011236,0.00003427,-0.00
 719300,-0.02494222,0.01938978,-0.00090417,-0.00036416,-0.00021973,0.00
 171984,-0.00245163,-0.00132090,-0.00108544,-0.00053506,0.00034282,-0.0
 0005293,-0.00000809,0.00002379,0.00000006,0.00001790,0.00001038,0.0000
 0829,0.00000781,-0.00001418,0.00000696,0.00000042,0.00000299,-0.000003
 88,-0.00000833,0.00002989,0.00000136,0.00000348,-0.00000358,0.00000222
 ,-0.00000389,-0.00000330,-0.00001136,0.00000817,-0.00000557,0.00003423
 ,-0.00003508,0.00006048,0.00000159,-0.00000016,-0.00000875,-0.00001468
 ,0.00000205,-0.00000538,0.00001293,0.00003608,-0.00002206,0.00142586,0
 .00098286,0.00094838,-0.00023012,-0.00012032,-0.00000241,0.00005643,-0
 .00048230,-0.00059543,-0.00046672,-0.00010260,-0.00000808,0.00101199,-
 0.00121912,-0.00163930,0.00007793,0.00029736,0.00079416,-0.00046212,0.
 00004125,0.00054557,-0.00030621,0.00063619,0.00029593,-0.03738051,-0.1
 8454221,0.05143149,0.08652940,0.28442036,0.00007199,0.00004660,0.00003
 749,0.00017223,-0.00004276,0.00004713,0.00025541,0.00030587,-0.0006216
 2,0.00004938,0.00011231,-0.00007608,0.00006412,0.00009280,0.00004460,0
 .00000953,0.00000150,0.00003268,-0.00007177,-0.00002169,0.00000993,0.0
 0000724,-0.00000586,0.00002143,0.00004895,-0.00000636,0.00010237,-0.00
 004718,-0.00002251,0.00000388,-0.00026498,-0.00032103,0.00018134,-0.00
 114358,-0.00022124,0.00036698,-0.00012254,0.00005823,0.00004828,-0.000
 12582,-0.00003966,-0.00003565,-0.00006081,-0.00013757,-0.00002581,0.00
 029200,0.00056991,-0.00039871,-0.00002170,-0.00003235,0.00002544,-0.00
 091575,-0.00006723,-0.00076490,-0.00003539,-0.00014136,0.00071743,0.00
 229881,-0.00186837,-0.00034530,-0.00056612,0.00069288,-0.00034372,-0.0
 0055587,0.00058500,0.00037558,-0.00191445,-0.00037903,-0.00115791,-0.0
 0070825,0.00080706,-0.00036981,0.00284495,-0.00061583,-0.00288340,-0.0
 0065664,-0.00073109,0.00029787,0.00010795,0.00009069,0.00001939,0.0047
 5170,0.03568243,-0.01042377,0.00033904,0.00063476,-0.00005916,-0.00119
 760,0.00098282,0.00097899,0.00037098,0.00037400,0.00007162,0.00005366,
 -0.00004314,-0.00008107,0.00000999,-0.00000897,-0.00000485,-0.00001105
 ,-0.00000773,0.00002445,-0.00001215,0.00000877,0.00000197,0.00003445,-
 0.00001884,0.00003590,-0.00001545,-0.00000338,-0.00000575,-0.00000116,
 0.00000562,-0.00000603,0.00000329,0.00000582,-0.00000421,0.00003584,0.
 00010327,-0.00004161,-0.00000306,-0.00001298,-0.00000168,-0.00001343,-
 0.00000929,0.00000727,0.00000005,-0.00001774,0.00001465,-0.00060167,-0
 .00048406,-0.00061525,0.00009120,0.00004371,0.00004312,0.00015198,0.00
 012217,0.00034104,0.00017186,0.00006669,0.00001716,-0.00081648,0.00085
 815,0.00169492,-0.00005706,-0.00021360,-0.00064575,0.00046149,0.000025
 92,-0.00055839,0.00026476,-0.00046729,-0.00033079,0.01612554,0.0528746
 8,-0.09195656,-0.02663213,-0.06227845,0.08493330,0.00014317,0.00001860
 ,0.00008620,0.00025116,-0.00009200,0.00005682,0.00035383,-0.00002665,-
 0.00036201,0.00005342,0.00008259,0.00004039,0.00010825,0.00020380,0.00
 013369,0.00000944,-0.00000880,0.00002053,-0.00006201,-0.00001933,0.000
 00076,-0.00000255,-0.00000214,0.00000468,0.00004230,0.00001709,0.00005
 133,-0.00000821,-0.00001879,-0.00000046,-0.00043779,-0.00014381,0.0000
 0525,-0.00091893,-0.00006521,0.00014394,-0.00020776,0.00014435,0.00001
 344,-0.00025648,-0.00003392,-0.00011543,-0.00014001,-0.00021860,-0.000
 11530,0.00067588,0.00051303,0.00002615,-0.00007351,-0.00006302,-0.0000
 7146,-0.00004766,-0.00000465,0.00010992,-0.00036090,-0.00035243,-0.000
 03333,0.00233089,-0.00174609,-0.00021256,-0.00072057,0.00093915,-0.000
 63522,-0.00056394,0.00067601,0.00030237,-0.00059346,0.00193523,0.00004
 738,-0.00028292,-0.00014410,-0.00044943,-0.00045722,-0.00183802,-0.005
 82043,0.00026170,0.00043228,-0.00123774,0.00001004,-0.00015850,-0.0000
 2464,-0.03658534,0.00836245,-0.00416210,0.00025914,-0.00076920,0.00042
 299,-0.00105673,0.00244763,0.00252617,-0.00032547,-0.00155880,-0.00148
 798,0.00006529,-0.00007180,-0.00009569,0.00001148,-0.00001393,0.000009
 26,-0.00000097,-0.00000021,0.00002358,-0.00002578,0.00001893,-0.000001
 84,0.00007554,-0.00004556,0.00011426,-0.00002850,-0.00000359,-0.000012
 40,0.00000142,0.00000674,-0.00002464,-0.00000006,0.00001667,-0.0000095
 1,0.00008664,0.00016377,-0.00002398,-0.00000847,-0.00002997,-0.0000193
 9,-0.00003017,-0.00001720,0.00001119,0.00000361,0.00000054,0.00001463,
 0.00060147,0.00033574,0.00028737,-0.00012321,-0.00009772,0.00003429,0.
 00005874,-0.00001604,-0.00028073,-0.00010970,-0.00001897,-0.00001176,-
 0.00129131,0.00091659,0.00161664,0.00003059,-0.00021362,-0.00062722,0.
 00065091,0.00007613,-0.00061032,0.00038103,-0.00052600,-0.00030709,-0.
 23424024,0.02127986,-0.01620200,-0.04939053,-0.03502436,0.01401138,0.3
 5389195,-0.00002504,-0.00004382,-0.00001843,-0.00006514,0.00000739,-0.
 00002263,-0.00008713,-0.00012607,0.00020454,-0.00003738,-0.00019565,-0
 .00000585,-0.00002057,0.00000016,-0.00002949,-0.00001121,0.00001116,-0
 .00001079,0.00002294,0.00000784,-0.00000316,-0.00000301,0.00000324,-0.
 00000675,-0.00002329,0.00000948,-0.00003857,0.00002238,0.00000536,0.00
 000163,0.00009424,0.00018324,-0.00002641,0.00034274,0.00011086,-0.0000
 8569,0.00004311,-0.00000700,-0.00000355,0.00003314,0.00002589,0.000011
 91,0.00000867,0.00006608,0.00001715,0.00015867,0.00003963,0.00007989,-
 0.00001473,0.00000801,-0.00001524,0.00002872,-0.00014760,0.00016786,-0
 .00008232,0.00001167,-0.00015858,-0.00095969,0.00041954,0.00000348,0.0
 0028953,-0.00024006,0.00017615,0.00022488,-0.00018156,-0.00008024,-0.0
 0046656,-0.00070822,0.00060020,0.00030726,-0.00009481,0.00010645,-0.00
 012494,0.00089332,0.00067490,-0.00034471,-0.00023552,0.00047020,0.0000
 1622,0.00008927,-0.00000529,0.01540423,0.00714870,0.00285685,-0.000020
 39,0.00053699,-0.00028137,0.00042326,-0.00095594,-0.00052369,-0.000185
 45,0.00048085,0.00040096,-0.00002247,0.00000570,0.00001729,-0.00000084
 ,0.00000643,0.00000111,0.00000181,0.00000186,-0.00000649,0.00000510,-0
 .00000258,0.00000112,-0.00001157,0.00000409,-0.00001015,0.00000475,0.0
 0000132,0.00000103,0.00000022,-0.00000198,0.00000299,-0.00000276,-0.00
 000028,0.00000017,-0.00000526,-0.00003669,0.00001916,0.00000204,0.0000
 0496,0.00000129,0.00000086,0.00000347,-0.00000316,0.00000253,0.0000089
 0,-0.00000853,0.00029246,0.00017374,0.00021030,-0.00003927,-0.00001516
 ,-0.00000790,0.00011768,-0.00004159,-0.00016541,-0.00009673,-0.0000207
 1,-0.00000120,0.00037120,-0.00047851,-0.00054793,0.00000546,0.00009755
 ,0.00021680,-0.00017530,0.00002803,0.00019189,-0.00012581,0.00023069,0
 .00010097,0.02171332,-0.07002834,0.00134772,-0.04891927,-0.00583709,0.
 00712620,-0.02319220,0.07342915,0.00005456,0.00004095,0.00002643,0.000
 12475,-0.00003010,0.00004033,0.00017287,0.00017906,-0.00042677,0.00007
 647,0.00016986,-0.00002417,0.00004167,0.00003764,0.00004741,0.00000808
 ,0.00000348,0.00002235,-0.00004915,-0.00001690,0.00000636,0.00000416,-
 0.00000373,0.00001356,0.00003524,-0.00000120,0.00006560,-0.00002752,-0
 .00001331,0.00000096,-0.00018359,-0.00020857,0.00009875,-0.00071771,-0
 .00015139,0.00022368,-0.00008943,0.00005043,0.00003149,-0.00008529,-0.
 00002751,-0.00002545,-0.00004087,-0.00009133,-0.00002407,-0.00001584,0
 .00008964,-0.00011633,0.00001491,-0.00001130,0.00001713,0.00001152,0.0
 0010841,-0.00011793,-0.00000595,-0.00004674,0.00024425,0.00182873,-0.0
 0107282,-0.00042015,-0.00057609,0.00059388,-0.00033129,-0.00040481,0.0
 0043251,0.00034012,-0.00053236,0.00179358,-0.00061682,-0.00067448,0.00
 047341,-0.00023878,-0.00038149,-0.00181466,-0.00389532,-0.00014981,0.0
 0013508,0.00069491,-0.00004567,0.00002046,0.00002390,-0.02932602,0.006
 66586,0.00422610,-0.00039480,-0.00005617,0.00005234,-0.00123027,-0.000
 36184,-0.00144800,-0.00129510,0.00056058,-0.00068913,0.00003674,-0.000
 03483,-0.00005900,0.00000808,-0.00000549,-0.00000301,-0.00000760,-0.00
 000521,0.00001708,-0.00000895,0.00000659,0.00000137,0.00002590,-0.0000
 1451,0.00002556,-0.00001045,-0.00000252,-0.00000383,-0.00000095,0.0000
 0384,-0.00000449,0.00000215,0.00000462,-0.00000285,0.00002464,0.000063
 26,-0.00002400,-0.00000159,-0.00000836,-0.00000151,-0.00000981,-0.0000
 0562,0.00000456,-0.00000003,-0.00000958,0.00000798,-0.00016768,-0.0001
 3738,-0.00020458,0.00001995,0.00000269,0.00001894,0.00000039,0.0000287
 2,0.00006209,0.00004039,0.00002321,0.00000006,-0.00049595,0.00050148,0
 .00129821,-0.00006532,-0.00013099,-0.00043899,0.00032098,0.00002586,-0
 .00039613,0.00017412,-0.00029721,-0.00026089,-0.01122437,0.00076692,-0
 .07486615,0.02012412,0.00739291,0.00965991,-0.01783425,0.00282400,0.07
 300184,0.00003053,0.00001782,0.00002327,0.00005474,-0.00002362,0.00001
 269,0.00009561,0.00000408,-0.00003731,0.00001832,0.00008695,0.00005514
 ,0.00002164,0.00003424,0.00002550,0.00001070,-0.00001488,0.00000155,-0
 .00000935,-0.00000212,-0.00000137,-0.00000074,-0.00000133,-0.00000080,
 0.00000749,0.00000184,-0.00000129,-0.00000053,-0.00000175,-0.00000114,
 -0.00007521,-0.00007041,-0.00002752,-0.00017119,-0.00001443,-0.0000081
 3,-0.00004512,0.00002546,-0.00000643,-0.00005345,-0.00001329,-0.000028
 05,-0.00002677,-0.00005521,-0.00003009,0.00004990,0.00004433,0.0000123
 6,-0.00001003,-0.00001366,-0.00001374,-0.00000275,0.00003132,0.0000201
 7,-0.00003365,-0.00006588,-0.00004301,0.00046832,-0.00036193,0.0002963
 2,-0.00008407,0.00012901,-0.00014248,-0.00013463,0.00014230,-0.0000302
 9,0.00061747,-0.00057235,-0.00005562,0.00002010,-0.00003951,-0.0003263
 9,-0.00214785,0.00062687,-0.00120252,0.00014854,-0.00048969,-0.0007022
 8,0.00004812,-0.00004653,-0.00007572,0.00965049,-0.00291530,-0.0071465
 8,0.00026075,-0.00054950,-0.00190544,-0.00077265,0.00137097,-0.0010249
 5,0.00008237,-0.00015786,-0.00038469,0.00001536,-0.00001050,-0.0000124
 0,0.00000092,-0.00000567,0.00000372,0.00000232,0.00000125,0.00000305,-
 0.00000699,0.00000408,-0.00000206,0.00001764,-0.00000966,0.00002665,-0
 .00000607,-0.00000077,-0.00000234,0.00000058,0.00000132,-0.00000658,0.
 00000066,0.00000315,-0.00000138,0.00001613,0.00003532,-0.00000630,-0.0
 0000216,-0.00000693,-0.00000475,-0.00000491,-0.00000376,0.00000285,-0.
 00000040,-0.00000066,0.00000428,0.00009342,0.00006009,0.00005763,-0.00
 001937,-0.00002181,0.00000377,-0.00003958,0.00006583,0.00000430,0.0000
 1967,0.00000092,-0.00000258,-0.00045077,0.00021228,0.00035342,0.000003
 38,-0.00007854,-0.00023989,0.00015922,0.00002224,-0.00014172,0.0001040
 2,-0.00013543,-0.00005897,-0.07447113,0.01619997,0.01886717,0.01229410
 ,-0.00880126,-0.00652768,-0.03200752,0.03512565,0.04290281,0.08626436,
 0.00002446,-0.00005647,-0.00000172,0.00002112,-0.00001416,-0.00001323,
 0.00004958,-0.00017306,0.00000517,-0.00000633,-0.00024370,-0.00007110,
 0.00002445,0.00006945,0.00001505,-0.00001952,0.00002987,0.00000343,-0.
 00000525,-0.00000152,0.00000137,-0.00000247,0.00000237,0.00000050,-0.0
 0000099,0.00001231,0.00001278,0.00001014,-0.00000664,0.00000402,-0.000
 10869,0.00019323,0.00005082,-0.00003277,0.00013564,0.00002717,-0.00003
 290,0.00005937,0.00002594,-0.00005396,0.00002441,-0.00001501,-0.000046
 85,0.00000861,-0.00000446,0.00047923,0.00031441,0.00004467,-0.00003341
 ,-0.00000902,-0.00002304,0.00007815,-0.00018162,0.00017395,-0.00024161
 ,-0.00007316,0.00001566,0.00003486,-0.00038745,-0.00044262,-0.00005570
 ,0.00011826,0.00003228,0.00002627,0.00012816,0.00022593,-0.00065328,0.
 00088282,-0.00023492,-0.00020005,0.00025572,0.00035575,0.00295396,-0.0
 0183276,0.00116213,0.00037569,-0.00066056,0.00027354,-0.00008064,0.000
 05448,0.00008998,0.00259376,0.00253481,-0.00553057,-0.00088713,0.00081
 354,0.00137604,-0.00056218,0.00137820,-0.00087611,-0.00003624,0.000195
 71,0.00040904,-0.00000300,-0.00003490,-0.00003851,0.00000821,0.0000078
 5,0.00000046,-0.00000423,-0.00000158,0.00000727,-0.00000077,0.00000402
 ,0.00000413,0.00001159,-0.00001173,0.00001939,-0.00000483,-0.00000024,
 -0.00000348,-0.00000030,0.00000089,-0.00000105,-0.00000392,0.00000638,
 -0.00000425,0.00002748,0.00001774,0.00000930,0.00000102,-0.00000307,-0
 .00000181,-0.00001290,-0.00000189,0.00000004,0.00000559,0.00000776,-0.
 00000625,0.00039573,0.00014913,0.00010510,-0.00005420,-0.00002883,0.00
 001227,0.00013727,-0.00003384,-0.00016680,-0.00014279,-0.00000935,-0.0
 0000072,-0.00020306,-0.00011149,0.00024715,-0.00005408,-0.00003606,-0.
 00021429,0.00006696,0.00007427,-0.00005627,-0.00001147,0.00004118,-0.0
 0007257,0.01388171,-0.12231065,-0.08124156,-0.00583672,-0.06752642,-0.
 03405844,0.02794805,-0.00465538,-0.01843968,-0.03976304,0.19088495,0.0
 0009207,0.00000835,0.00002954,0.00018388,-0.00004738,0.00002960,0.0003
 1006,0.00012385,-0.00059003,0.00010000,0.00002055,-0.00011965,0.000077
 56,0.00010863,0.00007439,-0.00000331,0.00003129,0.00003197,-0.00007136
 ,-0.00002395,0.00001208,0.00000441,-0.00000370,0.00002153,0.00005217,0
 .00000465,0.00011016,-0.00003305,-0.00002545,0.00000584,-0.00035854,-0
 .00013842,0.00021965,-0.00103567,-0.00006917,0.00029797,-0.00014591,0.
 00011091,0.00007118,-0.00015713,-0.00001802,-0.00004091,-0.00009429,-0
 .00011847,-0.00002995,0.00040808,0.00040537,-0.00015375,-0.00000830,-0
 .00002059,0.00000600,0.00001510,0.00005236,-0.00006822,-0.00021984,-0.
 00014084,0.00041228,0.00239131,-0.00194815,-0.00033783,-0.00061544,0.0
 0068859,-0.00030752,-0.00056683,0.00070062,0.00052924,-0.00000139,0.00
 078468,-0.00027669,-0.00017311,-0.00014596,-0.00064566,0.00174138,-0.0
 0156909,-0.00136963,0.00161335,-0.00095584,-0.00239454,-0.00008048,0.0
 0000816,0.00004248,0.00807811,-0.03026217,-0.03731099,-0.00186311,0.00
 080552,-0.00155900,-0.00677724,0.00436211,-0.00381526,0.00000040,-0.00
 013290,0.00071784,0.00004881,-0.00007382,-0.00011433,0.00001780,-0.000
 00076,-0.00000516,-0.00001550,-0.00000951,0.00003063,-0.00001174,0.000
 01171,0.00000596,0.00004283,-0.00002784,0.00004559,-0.00001812,-0.0000
 0378,-0.00000785,-0.00000177,0.00000626,-0.00000530,-0.00000002,0.0000
 1099,-0.00000736,0.00005582,0.00010448,-0.00002865,-0.00000135,-0.0000
 1317,-0.00000276,-0.00002406,-0.00000954,0.00000629,0.00000479,-0.0000
 0829,0.00000716,0.00005501,-0.00008510,-0.00022397,-0.00001781,-0.0000
 1795,0.00003949,0.00011969,-0.00003608,-0.00007312,-0.00006681,0.00002
 492,0.00000103,-0.00153187,0.00148969,0.00207787,-0.00023784,-0.000408
 95,-0.00120346,0.00082372,0.00007628,-0.00080907,0.00031593,-0.0005351
 0,-0.00043249,0.01368302,-0.07421600,-0.19166093,-0.00430357,-0.019914
 44,0.01160167,0.03067434,-0.01576770,-0.00563366,-0.04247416,0.1368081
 2,0.23280031\\0.,-0.00000285,-0.00000189,-0.00000065,-0.00000186,-0.00
 000126,0.00000099,0.00000061,-0.00000075,-0.00000190,-0.00000034,-0.00
 000169,-0.00000314,0.00000019,0.00000093,0.00000227,0.00000093,-0.0000
 0013,0.00000023,0.00000010,-0.00000136,0.00000081,-0.00000094,0.000000
 34,0.00000089,-0.00000101,-0.00000009,0.00000104,-0.00000140,-0.000000
 91,0.00000303,0.00000485,-0.00000099,0.00000168,-0.00000493,0.00000428
 ,-0.00000087,-0.00000040,0.00000263,0.00000073,-0.00000076,-0.00000165
 ,0.00000386,-0.00000055,0.00000060,0.00000178,0.00000373,0.00000053,0.
 00000105,0.00000110,0.00000005,-0.00000557,-0.00000230,-0.00000093,0.0
 0000103,-0.00000170,0.00000011,-0.00000136,0.00000214,0.00000104,-0.00
 000089,0.00000188,-0.00000343,-0.00000223,-0.00000336,0.00000303,-0.00
 000127,-0.00000054,0.00000342,-0.00000179,0.00000035,-0.00000052,-0.00
 000229,-0.00000089,0.00000047,0.00000067,0.00000049,0.00000010,-0.0000
 0013,0.00000123,0.00000031,-0.00000108,0.00000260,0.00000023,-0.000000
 58,0.00000095,0.00000039,0.00000005,0.00000158,0.00000019,-0.00000026,
 0.00000055,0.00000024,-0.00000161,-0.00000200,0.00000077,-0.00000138,-
 0.00000140,-0.00000006,-0.00000080,-0.00000132,-0.00000085,-0.00000090
 ,-0.00000181,-0.00000004,-0.00000204,-0.00000146,-0.00000002,0.0000010
 8,-0.00000236,-0.00000124,0.00000048,-0.00000039,0.00000017,-0.0000001
 0,-0.00000264,-0.00000021,-0.00000074,-0.00000057,-0.00000041,0.000001
 50,0.00000016,-0.00000034,0.00000176,-0.00000123,-0.00000059,0.0000012
 8,-0.00000011,-0.00000136,-0.00000107,0.00000001,-0.00000118,0.0000009
 5,0.00000027,-0.00000137,0.00000281,0.00000053,0.00000009,0.00000069,-
 0.00000074,-0.00000020,0.00000068,0.00000249,0.00000101,0.00000052,0.0
 0000135,0.00000055,-0.00000032,0.00000203,0.00000022,0.00000052,0.0000
 0248,0.00000059,0.00000227,0.00000496,-0.00000095,-0.00000007,0.000001
 00,0.00000172,-0.00000023,0.00000167,0.00000054,-0.00000139,-0.0000003
 9,-0.00000014\\\@


 Any fool can criticize, condemn, and complain -- and most do.
 -- Dale Carnegie
 Job cpu time:       0 days 20 hours 45 minutes 54.7 seconds.
 Elapsed time:       0 days  0 hours 20 minutes 12.5 seconds.
 File lengths (MBytes):  RWF=   2258 Int=      0 D2E=      0 Chk=     40 Scr=      1
 Normal termination of Gaussian 16 at Mon Jun 10 06:10:34 2019.
