 Entering Gaussian System, Link 0=g16
 Input=clay_new-glu_gluC6-BCDR-Na2_1Me2O-bisCF3-ts-pbe0-631gd-pcm_thf.gjf
 Output=clay_new-glu_gluC6-BCDR-Na2_1Me2O-bisCF3-ts-pbe0-631gd-pcm_thf.out
 Initial command:
 /home/ekwan/sw/g16/l1.exe "/scratch/users/ekwan/clay_new-glu_gluC6-BCDR-Na2_1Me2O-bisCF3-ts-pbe0-631gd-pcm_thf/Gau-12527.inp" -scrdir="/scratch/users/ekwan/clay_new-glu_gluC6-BCDR-Na2_1Me2O-bisCF3-ts-pbe0-631gd-pcm_thf/"
 Entering Link 1 = /home/ekwan/sw/g16/l1.exe PID=     12528.
  
 Copyright (c) 1988,1990,1992,1993,1995,1998,2003,2009,2016,
            Gaussian, Inc.  All Rights Reserved.
  
 This is part of the Gaussian(R) 16 program.  It is based on
 the Gaussian(R) 09 system (copyright 2009, Gaussian, Inc.),
 the Gaussian(R) 03 system (copyright 2003, Gaussian, Inc.),
 the Gaussian(R) 98 system (copyright 1998, Gaussian, Inc.),
 the Gaussian(R) 94 system (copyright 1995, Gaussian, Inc.),
 the Gaussian 92(TM) system (copyright 1992, Gaussian, Inc.),
 the Gaussian 90(TM) system (copyright 1990, Gaussian, Inc.),
 the Gaussian 88(TM) system (copyright 1988, Gaussian, Inc.),
 the Gaussian 86(TM) system (copyright 1986, Carnegie Mellon
 University), and the Gaussian 82(TM) system (copyright 1983,
 Carnegie Mellon University). Gaussian is a federally registered
 trademark of Gaussian, Inc.
  
 This software contains proprietary and confidential information,
 including trade secrets, belonging to Gaussian, Inc.
  
 This software is provided under written license and may be
 used, copied, transmitted, or stored only in accord with that
 written license.
  
 The following legend is applicable only to US Government
 contracts under FAR:
  
                    RESTRICTED RIGHTS LEGEND
  
 Use, reproduction and disclosure by the US Government is
 subject to restrictions as set forth in subparagraphs (a)
 and (c) of the Commercial Computer Software - Restricted
 Rights clause in FAR 52.227-19.
  
 Gaussian, Inc.
 340 Quinnipiac St., Bldg. 40, Wallingford CT 06492
  
  
 ---------------------------------------------------------------
 Warning -- This program may not be used in any manner that
 competes with the business of Gaussian, Inc. or will provide
 assistance to any competitor of Gaussian, Inc.  The licensee
 of this program is prohibited from giving any competitor of
 Gaussian, Inc. access to this program.  By using this program,
 the user acknowledges that Gaussian, Inc. is engaged in the
 business of creating and licensing software in the field of
 computational chemistry and represents and warrants to the
 licensee that it is not a competitor of Gaussian, Inc. and that
 it will not use this program in any manner prohibited above.
 ---------------------------------------------------------------
  

 Cite this work as:
 Gaussian 16, Revision A.03,
 M. J. Frisch, G. W. Trucks, H. B. Schlegel, G. E. Scuseria, 
 M. A. Robb, J. R. Cheeseman, G. Scalmani, V. Barone, 
 G. A. Petersson, H. Nakatsuji, X. Li, M. Caricato, A. V. Marenich, 
 J. Bloino, B. G. Janesko, R. Gomperts, B. Mennucci, H. P. Hratchian, 
 J. V. Ortiz, A. F. Izmaylov, J. L. Sonnenberg, D. Williams-Young, 
 F. Ding, F. Lipparini, F. Egidi, J. Goings, B. Peng, A. Petrone, 
 T. Henderson, D. Ranasinghe, V. G. Zakrzewski, J. Gao, N. Rega, 
 G. Zheng, W. Liang, M. Hada, M. Ehara, K. Toyota, R. Fukuda, 
 J. Hasegawa, M. Ishida, T. Nakajima, Y. Honda, O. Kitao, H. Nakai, 
 T. Vreven, K. Throssell, J. A. Montgomery, Jr., J. E. Peralta, 
 F. Ogliaro, M. J. Bearpark, J. J. Heyd, E. N. Brothers, K. N. Kudin, 
 V. N. Staroverov, T. A. Keith, R. Kobayashi, J. Normand, 
 K. Raghavachari, A. P. Rendell, J. C. Burant, S. S. Iyengar, 
 J. Tomasi, M. Cossi, J. M. Millam, M. Klene, C. Adamo, R. Cammi, 
 J. W. Ochterski, R. L. Martin, K. Morokuma, O. Farkas, 
 J. B. Foresman, and D. J. Fox, Gaussian, Inc., Wallingford CT, 2016.
 
 ******************************************
 Gaussian 16:  AS64L-G16RevA.03 25-Dec-2016
                 5-Jun-2019 
 ******************************************
 %nprocshared=32
 Will use up to   32 processors via shared memory.
 %mem=48GB
 ----------------------------------------------------------------------
 #p opt=(ts,calcfc,noeigentest,maxstep=5) freq=noraman pop=none 6-31g* 
 scrf=(pcm,solvent=tetrahydrofuran) pbe1pbe
 ----------------------------------------------------------------------
 1/5=1,8=5,10=4,11=1,18=20,26=3,38=1/1,3;
 2/9=110,12=2,17=6,18=5,40=1/2;
 3/5=1,6=6,7=1,11=2,25=1,30=1,70=2201,71=2,72=20,74=-13,140=1/1,2,3;
 4//1;
 5/5=2,38=5,53=20/2;
 8/6=4,10=90,11=11/1;
 11/6=1,8=1,9=11,15=111,16=1/1,2,10;
 10/6=1,13=1/2;
 7/10=1,18=20,25=1/1,2,3,16;
 1/5=1,8=5,10=4,11=1,18=20,26=3/3(2);
 2/9=110/2;
 99//99;
 2/9=110/2;
 3/5=1,6=6,7=1,11=2,25=1,30=1,70=2205,71=1,72=20,74=-13/1,2,3;
 4/5=5,16=3,69=1/1;
 5/5=2,38=5,53=20/2;
 7//1,2,3,16;
 1/5=1,8=5,11=1,18=20,26=3/3(-5);
 2/9=110/2;
 99/9=1/99;
 Leave Link    1 at Wed Jun  5 13:31:18 2019, MaxMem=  6442450944 cpu:               4.9 elap:               0.2
 (Enter /home/ekwan/sw/g16/l101.exe)
 -----
 title
 -----
 Symbolic Z-matrix:
 Charge =  0 Multiplicity = 1
 6                    -1.86882   1.64455   2.26699 
 6                    -2.18248   2.40079   0.98158 
 6                    -1.30785   3.64986   0.89461 
 6                     0.46448   2.63138   2.15089 
 6                    -0.37177   1.37123   2.37916 
 1                    -1.43974   4.14161  -0.08083 
 1                    -1.91712   1.77094   0.12034 
 1                    -2.1771    2.27052   3.11536 
 1                     0.29127   3.30701   3.00108 
 1                    -0.10417   0.62253   1.62138 
 8                     0.05654   3.28904   0.9392 
 8                    -1.66466   4.51526   1.92331 
 8                    -3.53787   2.78422   0.91432 
 8                    -2.58953   0.42334   2.27876 
 8                    -0.08506   0.87788   3.67729 
 6                     1.97062   2.35629   2.02494 
 1                     2.24548   1.82096   2.95932 
 1                     2.45941   3.35471   2.11225 
 8                     2.34579   1.70718   0.88032 
 6                    -4.32971   1.94079   0.10498 
 1                    -3.99061   1.95053  -0.94146 
 1                    -4.32226   0.90732   0.46881 
 1                    -5.35036   2.33112   0.14412 
 6                    -3.27739   0.17272   3.48477 
 1                    -2.59469   0.1521    4.34337 
 1                    -4.05535   0.92782   3.66775 
 1                    -3.74976  -0.80652   3.37791 
 6                     0.34274  -0.46638   3.7101 
 1                    -0.40394  -1.13666   3.26501 
 1                     1.30041  -0.60578   3.1906 
 1                     0.47216  -0.7294    4.76419 
 6                     3.92656  -1.46474  -1.2982 
 6                     3.21599  -0.16432  -0.92784 
 6                     1.92098  -0.42787  -0.2242 
 6                     2.52834  -2.64756   0.42921 
 6                     3.94319  -2.35972  -0.05959 
 1                     1.15723   0.32483  -0.17056 
 1                     3.80455   0.35949  -0.15353 
 1                     3.3807   -1.95668  -2.11431 
 1                     2.0004   -3.2407   -0.32552 
 1                     4.49982  -1.84371   0.73291 
 8                     1.74536  -1.42622   0.56653 
 8                    -0.40386  -0.28855  -3.88091 
 8                     2.95539   0.72451  -1.98199 
 8                     5.25056  -1.17061  -1.67931 
 8                     4.53627  -3.60217  -0.35733 
 6                     2.45478  -3.36291   1.75532 
 1                     2.86057  -4.37664   1.61613 
 1                     1.3982   -3.46      2.05228 
 8                     3.18671  -2.64294   2.70973 
 16                   -0.2554   -0.31445  -2.42308 
 8                    -0.22142   1.02745  -1.7806 
 8                     0.86241  -1.19475  -1.94232 
 6                    -1.73303  -1.08405  -1.76638 
 6                    -2.95288  -0.86687  -2.39491 
 6                    -1.65511  -1.83112  -0.59636 
 6                    -4.11082  -1.39332  -1.82745 
 1                    -2.99432  -0.30012  -3.31948 
 6                    -2.81793  -2.35967  -0.04795 
 1                    -0.69518  -1.99673  -0.1203 
 6                    -4.05106  -2.14093  -0.6557 
 1                    -4.9573   -2.55047  -0.22211 
 6                     4.09398   1.40915  -2.48838 
 1                     4.76113   1.72107  -1.67612 
 1                     4.65431   0.78697  -3.19142 
 1                     3.71505   2.29503  -3.00244 
 6                     5.70881  -1.91508  -2.79211 
 1                     5.66143  -2.99274  -2.60209 
 1                     5.1246   -1.68293  -3.69388 
 1                     6.74794  -1.62102  -2.95797 
 6                     5.71563  -3.86569   0.38134 
 1                     6.49931  -3.13374   0.15047 
 1                     5.52021  -3.85471   1.46167 
 1                     6.05379  -4.86157   0.08647 
 6                     3.14162  -3.24855   3.98185 
 1                     3.73521  -2.62701   4.6552 
 1                     2.11103  -3.30801   4.36072 
 1                     3.56582  -4.26297   3.95759 
 6                    -1.05175   5.78571   1.8252 
 1                    -1.4611    6.3983    2.63096 
 1                     0.03701   5.71938   1.93695 
 1                    -1.28233   6.25897   0.85986 
 11                    1.36604   2.57233  -0.97415 
 8                     2.77403   4.37172  -1.40973 
 6                     2.76793   5.47237  -2.29023 
 1                     3.70412   5.52367  -2.86404 
 1                     1.93096   5.33777  -2.97932 
 1                     2.63793   6.4166   -1.74283 
 6                     3.82394   4.43763  -0.463 
 1                     3.73362   5.33966   0.15847 
 1                     3.73585   3.54281   0.16047 
 1                     4.80137   4.45144  -0.96641 
 6                    -5.44327  -1.08689  -2.449 
 9                    -5.93752   0.07857  -1.98791 
 9                    -6.35301  -2.03311  -2.17558 
 9                    -5.35696  -0.97454  -3.78185 
 6                    -2.7463   -3.22353   1.17837 
 9                    -1.61001  -3.03093   1.86839 
 9                    -2.79635  -4.52872   0.86201 
 9                    -3.7736   -2.98816   2.01175 
 
 Add virtual bond connecting atoms H37        and H10        Dist= 4.18D+00.
 Add virtual bond connecting atoms H37        and O19        Dist= 3.98D+00.
 Add virtual bond connecting atoms H38        and O19        Dist= 4.23D+00.
 Add virtual bond connecting atoms O52        and H37        Dist= 4.22D+00.
 Add virtual bond connecting atoms O53        and C34        Dist= 4.08D+00.
 Add virtual bond connecting atoms O84        and Na83       Dist= 4.40D+00.
 Add virtual bond connecting atoms H91        and H18        Dist= 4.42D+00.
 Add virtual bond connecting atoms H91        and O19        Dist= 4.56D+00.
 ITRead=  0  0  0  0  0  0  0  0  0  0  0  0  0  0  0  0  0  0  0  0
 ITRead=  0  0  0  0  0  0  0  0  0  0  0  0  0  0  0  0  0  0  0  0
 ITRead=  0  0  0  0  0  0  0  0  0  0  0  0  0  0  0  0  0  0  0  0
 ITRead=  0  0  0  0  0  0  0  0  0  0  0  0  0  0  0  0  0  0  0  0
 ITRead=  0  0  0  0  0  0  0  0  0  0  0  0  0  0  0  0  0  0  0  0
 MicOpt= -1 -1 -1 -1 -1 -1 -1 -1 -1 -1 -1 -1 -1 -1 -1 -1 -1 -1 -1 -1
 MicOpt= -1 -1 -1 -1 -1 -1 -1 -1 -1 -1 -1 -1 -1 -1 -1 -1 -1 -1 -1 -1
 MicOpt= -1 -1 -1 -1 -1 -1 -1 -1 -1 -1 -1 -1 -1 -1 -1 -1 -1 -1 -1 -1
 MicOpt= -1 -1 -1 -1 -1 -1 -1 -1 -1 -1 -1 -1 -1 -1 -1 -1 -1 -1 -1 -1
 MicOpt= -1 -1 -1 -1 -1 -1 -1 -1 -1 -1 -1 -1 -1 -1 -1 -1 -1 -1 -1 -1
 NAtoms=    100 NQM=      100 NQMF=       0 NMMI=      0 NMMIF=      0
                NMic=       0 NMicF=      0.
                    Isotopes and Nuclear Properties:
 (Nuclear quadrupole moments (NQMom) in fm**2, nuclear magnetic moments (NMagM)
  in nuclear magnetons)

  Atom         1           2           3           4           5           6           7           8           9          10
 IAtWgt=          12          12          12          12          12           1           1           1           1           1
 AtmWgt=  12.0000000  12.0000000  12.0000000  12.0000000  12.0000000   1.0078250   1.0078250   1.0078250   1.0078250   1.0078250
 NucSpn=           0           0           0           0           0           1           1           1           1           1
 AtZEff=   0.0000000   0.0000000   0.0000000   0.0000000   0.0000000   0.0000000   0.0000000   0.0000000   0.0000000   0.0000000
 NQMom=    0.0000000   0.0000000   0.0000000   0.0000000   0.0000000   0.0000000   0.0000000   0.0000000   0.0000000   0.0000000
 NMagM=    0.0000000   0.0000000   0.0000000   0.0000000   0.0000000   2.7928460   2.7928460   2.7928460   2.7928460   2.7928460
 AtZNuc=   6.0000000   6.0000000   6.0000000   6.0000000   6.0000000   1.0000000   1.0000000   1.0000000   1.0000000   1.0000000

  Atom        11          12          13          14          15          16          17          18          19          20
 IAtWgt=          16          16          16          16          16          12           1           1          16          12
 AtmWgt=  15.9949146  15.9949146  15.9949146  15.9949146  15.9949146  12.0000000   1.0078250   1.0078250  15.9949146  12.0000000
 NucSpn=           0           0           0           0           0           0           1           1           0           0
 AtZEff=   0.0000000   0.0000000   0.0000000   0.0000000   0.0000000   0.0000000   0.0000000   0.0000000   0.0000000   0.0000000
 NQMom=    0.0000000   0.0000000   0.0000000   0.0000000   0.0000000   0.0000000   0.0000000   0.0000000   0.0000000   0.0000000
 NMagM=    0.0000000   0.0000000   0.0000000   0.0000000   0.0000000   0.0000000   2.7928460   2.7928460   0.0000000   0.0000000
 AtZNuc=   8.0000000   8.0000000   8.0000000   8.0000000   8.0000000   6.0000000   1.0000000   1.0000000   8.0000000   6.0000000

  Atom        21          22          23          24          25          26          27          28          29          30
 IAtWgt=           1           1           1          12           1           1           1          12           1           1
 AtmWgt=   1.0078250   1.0078250   1.0078250  12.0000000   1.0078250   1.0078250   1.0078250  12.0000000   1.0078250   1.0078250
 NucSpn=           1           1           1           0           1           1           1           0           1           1
 AtZEff=   0.0000000   0.0000000   0.0000000   0.0000000   0.0000000   0.0000000   0.0000000   0.0000000   0.0000000   0.0000000
 NQMom=    0.0000000   0.0000000   0.0000000   0.0000000   0.0000000   0.0000000   0.0000000   0.0000000   0.0000000   0.0000000
 NMagM=    2.7928460   2.7928460   2.7928460   0.0000000   2.7928460   2.7928460   2.7928460   0.0000000   2.7928460   2.7928460
 AtZNuc=   1.0000000   1.0000000   1.0000000   6.0000000   1.0000000   1.0000000   1.0000000   6.0000000   1.0000000   1.0000000

  Atom        31          32          33          34          35          36          37          38          39          40
 IAtWgt=           1          12          12          12          12          12           1           1           1           1
 AtmWgt=   1.0078250  12.0000000  12.0000000  12.0000000  12.0000000  12.0000000   1.0078250   1.0078250   1.0078250   1.0078250
 NucSpn=           1           0           0           0           0           0           1           1           1           1
 AtZEff=   0.0000000   0.0000000   0.0000000   0.0000000   0.0000000   0.0000000   0.0000000   0.0000000   0.0000000   0.0000000
 NQMom=    0.0000000   0.0000000   0.0000000   0.0000000   0.0000000   0.0000000   0.0000000   0.0000000   0.0000000   0.0000000
 NMagM=    2.7928460   0.0000000   0.0000000   0.0000000   0.0000000   0.0000000   2.7928460   2.7928460   2.7928460   2.7928460
 AtZNuc=   1.0000000   6.0000000   6.0000000   6.0000000   6.0000000   6.0000000   1.0000000   1.0000000   1.0000000   1.0000000

  Atom        41          42          43          44          45          46          47          48          49          50
 IAtWgt=           1          16          16          16          16          16          12           1           1          16
 AtmWgt=   1.0078250  15.9949146  15.9949146  15.9949146  15.9949146  15.9949146  12.0000000   1.0078250   1.0078250  15.9949146
 NucSpn=           1           0           0           0           0           0           0           1           1           0
 AtZEff=   0.0000000   0.0000000   0.0000000   0.0000000   0.0000000   0.0000000   0.0000000   0.0000000   0.0000000   0.0000000
 NQMom=    0.0000000   0.0000000   0.0000000   0.0000000   0.0000000   0.0000000   0.0000000   0.0000000   0.0000000   0.0000000
 NMagM=    2.7928460   0.0000000   0.0000000   0.0000000   0.0000000   0.0000000   0.0000000   2.7928460   2.7928460   0.0000000
 AtZNuc=   1.0000000   8.0000000   8.0000000   8.0000000   8.0000000   8.0000000   6.0000000   1.0000000   1.0000000   8.0000000

  Atom        51          52          53          54          55          56          57          58          59          60
 IAtWgt=          32          16          16          12          12          12          12           1          12           1
 AtmWgt=  31.9720718  15.9949146  15.9949146  12.0000000  12.0000000  12.0000000  12.0000000   1.0078250  12.0000000   1.0078250
 NucSpn=           0           0           0           0           0           0           0           1           0           1
 AtZEff=   0.0000000   0.0000000   0.0000000   0.0000000   0.0000000   0.0000000   0.0000000   0.0000000   0.0000000   0.0000000
 NQMom=    0.0000000   0.0000000   0.0000000   0.0000000   0.0000000   0.0000000   0.0000000   0.0000000   0.0000000   0.0000000
 NMagM=    0.0000000   0.0000000   0.0000000   0.0000000   0.0000000   0.0000000   0.0000000   2.7928460   0.0000000   2.7928460
 AtZNuc=  16.0000000   8.0000000   8.0000000   6.0000000   6.0000000   6.0000000   6.0000000   1.0000000   6.0000000   1.0000000

  Atom        61          62          63          64          65          66          67          68          69          70
 IAtWgt=          12           1          12           1           1           1          12           1           1           1
 AtmWgt=  12.0000000   1.0078250  12.0000000   1.0078250   1.0078250   1.0078250  12.0000000   1.0078250   1.0078250   1.0078250
 NucSpn=           0           1           0           1           1           1           0           1           1           1
 AtZEff=   0.0000000   0.0000000   0.0000000   0.0000000   0.0000000   0.0000000   0.0000000   0.0000000   0.0000000   0.0000000
 NQMom=    0.0000000   0.0000000   0.0000000   0.0000000   0.0000000   0.0000000   0.0000000   0.0000000   0.0000000   0.0000000
 NMagM=    0.0000000   2.7928460   0.0000000   2.7928460   2.7928460   2.7928460   0.0000000   2.7928460   2.7928460   2.7928460
 AtZNuc=   6.0000000   1.0000000   6.0000000   1.0000000   1.0000000   1.0000000   6.0000000   1.0000000   1.0000000   1.0000000

  Atom        71          72          73          74          75          76          77          78          79          80
 IAtWgt=          12           1           1           1          12           1           1           1          12           1
 AtmWgt=  12.0000000   1.0078250   1.0078250   1.0078250  12.0000000   1.0078250   1.0078250   1.0078250  12.0000000   1.0078250
 NucSpn=           0           1           1           1           0           1           1           1           0           1
 AtZEff=   0.0000000   0.0000000   0.0000000   0.0000000   0.0000000   0.0000000   0.0000000   0.0000000   0.0000000   0.0000000
 NQMom=    0.0000000   0.0000000   0.0000000   0.0000000   0.0000000   0.0000000   0.0000000   0.0000000   0.0000000   0.0000000
 NMagM=    0.0000000   2.7928460   2.7928460   2.7928460   0.0000000   2.7928460   2.7928460   2.7928460   0.0000000   2.7928460
 AtZNuc=   6.0000000   1.0000000   1.0000000   1.0000000   6.0000000   1.0000000   1.0000000   1.0000000   6.0000000   1.0000000

  Atom        81          82          83          84          85          86          87          88          89          90
 IAtWgt=           1           1          23          16          12           1           1           1          12           1
 AtmWgt=   1.0078250   1.0078250  22.9897697  15.9949146  12.0000000   1.0078250   1.0078250   1.0078250  12.0000000   1.0078250
 NucSpn=           1           1           3           0           0           1           1           1           0           1
 AtZEff=   0.0000000   0.0000000   0.0000000   0.0000000   0.0000000   0.0000000   0.0000000   0.0000000   0.0000000   0.0000000
 NQMom=    0.0000000   0.0000000  10.4000000   0.0000000   0.0000000   0.0000000   0.0000000   0.0000000   0.0000000   0.0000000
 NMagM=    2.7928460   2.7928460   2.2175200   0.0000000   0.0000000   2.7928460   2.7928460   2.7928460   0.0000000   2.7928460
 AtZNuc=   1.0000000   1.0000000  11.0000000   8.0000000   6.0000000   1.0000000   1.0000000   1.0000000   6.0000000   1.0000000

  Atom        91          92          93          94          95          96          97          98          99         100
 IAtWgt=           1           1          12          19          19          19          12          19          19          19
 AtmWgt=   1.0078250   1.0078250  12.0000000  18.9984033  18.9984033  18.9984033  12.0000000  18.9984033  18.9984033  18.9984033
 NucSpn=           1           1           0           1           1           1           0           1           1           1
 AtZEff=   0.0000000   0.0000000   0.0000000   0.0000000   0.0000000   0.0000000   0.0000000   0.0000000   0.0000000   0.0000000
 NQMom=    0.0000000   0.0000000   0.0000000   0.0000000   0.0000000   0.0000000   0.0000000   0.0000000   0.0000000   0.0000000
 NMagM=    2.7928460   2.7928460   0.0000000   2.6288670   2.6288670   2.6288670   0.0000000   2.6288670   2.6288670   2.6288670
 AtZNuc=   1.0000000   1.0000000   6.0000000   9.0000000   9.0000000   9.0000000   6.0000000   9.0000000   9.0000000   9.0000000
 Leave Link  101 at Wed Jun  5 13:31:19 2019, MaxMem=  6442450944 cpu:              14.7 elap:               0.7
 (Enter /home/ekwan/sw/g16/l103.exe)

 GradGradGradGradGradGradGradGradGradGradGradGradGradGradGradGradGradGrad
 Berny optimization.
 Initialization pass.
                           ----------------------------
                           !    Initial Parameters    !
                           ! (Angstroms and Degrees)  !
 --------------------------                            --------------------------
 ! Name  Definition              Value          Derivative Info.                !
 --------------------------------------------------------------------------------
 ! R1    R(1,2)                  1.524          calculate D2E/DX2 analytically  !
 ! R2    R(1,5)                  1.5259         calculate D2E/DX2 analytically  !
 ! R3    R(1,8)                  1.0985         calculate D2E/DX2 analytically  !
 ! R4    R(1,14)                 1.4181         calculate D2E/DX2 analytically  !
 ! R5    R(2,3)                  1.5273         calculate D2E/DX2 analytically  !
 ! R6    R(2,7)                  1.0995         calculate D2E/DX2 analytically  !
 ! R7    R(2,13)                 1.4102         calculate D2E/DX2 analytically  !
 ! R8    R(3,6)                  1.1003         calculate D2E/DX2 analytically  !
 ! R9    R(3,11)                 1.412          calculate D2E/DX2 analytically  !
 ! R10   R(3,12)                 1.3908         calculate D2E/DX2 analytically  !
 ! R11   R(4,5)                  1.5295         calculate D2E/DX2 analytically  !
 ! R12   R(4,9)                  1.0997         calculate D2E/DX2 analytically  !
 ! R13   R(4,11)                 1.4378         calculate D2E/DX2 analytically  !
 ! R14   R(4,16)                 1.5362         calculate D2E/DX2 analytically  !
 ! R15   R(5,10)                 1.0984         calculate D2E/DX2 analytically  !
 ! R16   R(5,15)                 1.418          calculate D2E/DX2 analytically  !
 ! R17   R(10,37)                2.2115         calculate D2E/DX2 analytically  !
 ! R18   R(12,79)                1.414          calculate D2E/DX2 analytically  !
 ! R19   R(13,20)                1.4119         calculate D2E/DX2 analytically  !
 ! R20   R(14,24)                1.4108         calculate D2E/DX2 analytically  !
 ! R21   R(15,28)                1.4111         calculate D2E/DX2 analytically  !
 ! R22   R(16,17)                1.1114         calculate D2E/DX2 analytically  !
 ! R23   R(16,18)                1.1151         calculate D2E/DX2 analytically  !
 ! R24   R(16,19)                1.3683         calculate D2E/DX2 analytically  !
 ! R25   R(18,91)                2.3397         calculate D2E/DX2 analytically  !
 ! R26   R(19,37)                2.1043         calculate D2E/DX2 analytically  !
 ! R27   R(19,38)                2.239          calculate D2E/DX2 analytically  !
 ! R28   R(19,83)                2.2688         calculate D2E/DX2 analytically  !
 ! R29   R(19,91)                2.4125         calculate D2E/DX2 analytically  !
 ! R30   R(20,21)                1.1            calculate D2E/DX2 analytically  !
 ! R31   R(20,22)                1.0957         calculate D2E/DX2 analytically  !
 ! R32   R(20,23)                1.0934         calculate D2E/DX2 analytically  !
 ! R33   R(24,25)                1.0971         calculate D2E/DX2 analytically  !
 ! R34   R(24,26)                1.0995         calculate D2E/DX2 analytically  !
 ! R35   R(24,27)                1.0925         calculate D2E/DX2 analytically  !
 ! R36   R(28,29)                1.0977         calculate D2E/DX2 analytically  !
 ! R37   R(28,30)                1.0984         calculate D2E/DX2 analytically  !
 ! R38   R(28,31)                1.0941         calculate D2E/DX2 analytically  !
 ! R39   R(32,33)                1.5275         calculate D2E/DX2 analytically  !
 ! R40   R(32,36)                1.5282         calculate D2E/DX2 analytically  !
 ! R41   R(32,39)                1.0982         calculate D2E/DX2 analytically  !
 ! R42   R(32,45)                1.4088         calculate D2E/DX2 analytically  !
 ! R43   R(33,34)                1.4972         calculate D2E/DX2 analytically  !
 ! R44   R(33,38)                1.1047         calculate D2E/DX2 analytically  !
 ! R45   R(33,44)                1.4033         calculate D2E/DX2 analytically  !
 ! R46   R(34,37)                1.0737         calculate D2E/DX2 analytically  !
 ! R47   R(34,42)                1.2856         calculate D2E/DX2 analytically  !
 ! R48   R(34,53)                2.1588         calculate D2E/DX2 analytically  !
 ! R49   R(35,36)                1.5243         calculate D2E/DX2 analytically  !
 ! R50   R(35,40)                1.0955         calculate D2E/DX2 analytically  !
 ! R51   R(35,42)                1.4573         calculate D2E/DX2 analytically  !
 ! R52   R(35,47)                1.5086         calculate D2E/DX2 analytically  !
 ! R53   R(36,41)                1.0973         calculate D2E/DX2 analytically  !
 ! R54   R(36,46)                1.4086         calculate D2E/DX2 analytically  !
 ! R55   R(37,52)                2.2331         calculate D2E/DX2 analytically  !
 ! R56   R(43,51)                1.4656         calculate D2E/DX2 analytically  !
 ! R57   R(44,63)                1.4218         calculate D2E/DX2 analytically  !
 ! R58   R(45,67)                1.4151         calculate D2E/DX2 analytically  !
 ! R59   R(46,71)                1.4163         calculate D2E/DX2 analytically  !
 ! R60   R(47,48)                1.1008         calculate D2E/DX2 analytically  !
 ! R61   R(47,49)                1.1018         calculate D2E/DX2 analytically  !
 ! R62   R(47,50)                1.4018         calculate D2E/DX2 analytically  !
 ! R63   R(50,75)                1.4096         calculate D2E/DX2 analytically  !
 ! R64   R(51,52)                1.4882         calculate D2E/DX2 analytically  !
 ! R65   R(51,53)                1.5018         calculate D2E/DX2 analytically  !
 ! R66   R(51,54)                1.7908         calculate D2E/DX2 analytically  !
 ! R67   R(54,55)                1.3893         calculate D2E/DX2 analytically  !
 ! R68   R(54,56)                1.3904         calculate D2E/DX2 analytically  !
 ! R69   R(55,57)                1.3928         calculate D2E/DX2 analytically  !
 ! R70   R(55,58)                1.0852         calculate D2E/DX2 analytically  !
 ! R71   R(56,59)                1.3901         calculate D2E/DX2 analytically  !
 ! R72   R(56,60)                1.0842         calculate D2E/DX2 analytically  !
 ! R73   R(57,61)                1.3912         calculate D2E/DX2 analytically  !
 ! R74   R(57,93)                1.5019         calculate D2E/DX2 analytically  !
 ! R75   R(59,61)                1.3921         calculate D2E/DX2 analytically  !
 ! R76   R(59,97)                1.5017         calculate D2E/DX2 analytically  !
 ! R77   R(61,62)                1.0849         calculate D2E/DX2 analytically  !
 ! R78   R(63,64)                1.0964         calculate D2E/DX2 analytically  !
 ! R79   R(63,65)                1.0933         calculate D2E/DX2 analytically  !
 ! R80   R(63,66)                1.0921         calculate D2E/DX2 analytically  !
 ! R81   R(67,68)                1.0953         calculate D2E/DX2 analytically  !
 ! R82   R(67,69)                1.0993         calculate D2E/DX2 analytically  !
 ! R83   R(67,70)                1.0926         calculate D2E/DX2 analytically  !
 ! R84   R(71,72)                1.0969         calculate D2E/DX2 analytically  !
 ! R85   R(71,73)                1.0979         calculate D2E/DX2 analytically  !
 ! R86   R(71,74)                1.0923         calculate D2E/DX2 analytically  !
 ! R87   R(75,76)                1.0918         calculate D2E/DX2 analytically  !
 ! R88   R(75,77)                1.0996         calculate D2E/DX2 analytically  !
 ! R89   R(75,78)                1.0998         calculate D2E/DX2 analytically  !
 ! R90   R(79,80)                1.0918         calculate D2E/DX2 analytically  !
 ! R91   R(79,81)                1.0965         calculate D2E/DX2 analytically  !
 ! R92   R(79,82)                1.0996         calculate D2E/DX2 analytically  !
 ! R93   R(83,84)                2.3259         calculate D2E/DX2 analytically  !
 ! R94   R(84,85)                1.4095         calculate D2E/DX2 analytically  !
 ! R95   R(84,89)                1.4153         calculate D2E/DX2 analytically  !
 ! R96   R(85,86)                1.0992         calculate D2E/DX2 analytically  !
 ! R97   R(85,87)                1.0925         calculate D2E/DX2 analytically  !
 ! R98   R(85,88)                1.0992         calculate D2E/DX2 analytically  !
 ! R99   R(89,90)                1.0991         calculate D2E/DX2 analytically  !
 ! R100  R(89,91)                1.0942         calculate D2E/DX2 analytically  !
 ! R101  R(89,92)                1.0995         calculate D2E/DX2 analytically  !
 ! R102  R(93,94)                1.3473         calculate D2E/DX2 analytically  !
 ! R103  R(93,95)                1.3408         calculate D2E/DX2 analytically  !
 ! R104  R(93,96)                1.3404         calculate D2E/DX2 analytically  !
 ! R105  R(97,98)                1.3433         calculate D2E/DX2 analytically  !
 ! R106  R(97,99)                1.3439         calculate D2E/DX2 analytically  !
 ! R107  R(97,100)               1.3436         calculate D2E/DX2 analytically  !
 ! A1    A(2,1,5)              110.6594         calculate D2E/DX2 analytically  !
 ! A2    A(2,1,8)              108.1128         calculate D2E/DX2 analytically  !
 ! A3    A(2,1,14)             109.2528         calculate D2E/DX2 analytically  !
 ! A4    A(5,1,8)              108.7013         calculate D2E/DX2 analytically  !
 ! A5    A(5,1,14)             110.1056         calculate D2E/DX2 analytically  !
 ! A6    A(8,1,14)             109.9801         calculate D2E/DX2 analytically  !
 ! A7    A(1,2,3)              109.6326         calculate D2E/DX2 analytically  !
 ! A8    A(1,2,7)              109.0714         calculate D2E/DX2 analytically  !
 ! A9    A(1,2,13)             111.8991         calculate D2E/DX2 analytically  !
 ! A10   A(3,2,7)              106.5994         calculate D2E/DX2 analytically  !
 ! A11   A(3,2,13)             108.985          calculate D2E/DX2 analytically  !
 ! A12   A(7,2,13)             110.51           calculate D2E/DX2 analytically  !
 ! A13   A(2,3,6)              110.3246         calculate D2E/DX2 analytically  !
 ! A14   A(2,3,11)             110.0328         calculate D2E/DX2 analytically  !
 ! A15   A(2,3,12)             108.6525         calculate D2E/DX2 analytically  !
 ! A16   A(6,3,11)             104.9527         calculate D2E/DX2 analytically  !
 ! A17   A(6,3,12)             110.2952         calculate D2E/DX2 analytically  !
 ! A18   A(11,3,12)            112.5529         calculate D2E/DX2 analytically  !
 ! A19   A(5,4,9)              107.7397         calculate D2E/DX2 analytically  !
 ! A20   A(5,4,11)             110.3357         calculate D2E/DX2 analytically  !
 ! A21   A(5,4,16)             113.6242         calculate D2E/DX2 analytically  !
 ! A22   A(9,4,11)             109.0162         calculate D2E/DX2 analytically  !
 ! A23   A(9,4,16)             109.1368         calculate D2E/DX2 analytically  !
 ! A24   A(11,4,16)            106.9171         calculate D2E/DX2 analytically  !
 ! A25   A(1,5,4)              112.2002         calculate D2E/DX2 analytically  !
 ! A26   A(1,5,10)             108.0838         calculate D2E/DX2 analytically  !
 ! A27   A(1,5,15)             109.1465         calculate D2E/DX2 analytically  !
 ! A28   A(4,5,10)             108.992          calculate D2E/DX2 analytically  !
 ! A29   A(4,5,15)             108.2238         calculate D2E/DX2 analytically  !
 ! A30   A(10,5,15)            110.1925         calculate D2E/DX2 analytically  !
 ! A31   A(5,10,37)            142.1623         calculate D2E/DX2 analytically  !
 ! A32   A(3,11,4)             114.6875         calculate D2E/DX2 analytically  !
 ! A33   A(3,12,79)            113.3616         calculate D2E/DX2 analytically  !
 ! A34   A(2,13,20)            113.826          calculate D2E/DX2 analytically  !
 ! A35   A(1,14,24)            114.0718         calculate D2E/DX2 analytically  !
 ! A36   A(5,15,28)            114.4581         calculate D2E/DX2 analytically  !
 ! A37   A(4,16,17)            105.0575         calculate D2E/DX2 analytically  !
 ! A38   A(4,16,18)            105.2488         calculate D2E/DX2 analytically  !
 ! A39   A(4,16,19)            114.9831         calculate D2E/DX2 analytically  !
 ! A40   A(17,16,18)           104.8948         calculate D2E/DX2 analytically  !
 ! A41   A(17,16,19)           114.0151         calculate D2E/DX2 analytically  !
 ! A42   A(18,16,19)           111.7205         calculate D2E/DX2 analytically  !
 ! A43   A(16,18,91)           104.2297         calculate D2E/DX2 analytically  !
 ! A44   A(16,19,37)           125.0672         calculate D2E/DX2 analytically  !
 ! A45   A(16,19,38)           148.2608         calculate D2E/DX2 analytically  !
 ! A46   A(16,19,83)           112.6097         calculate D2E/DX2 analytically  !
 ! A47   A(16,19,91)            92.6727         calculate D2E/DX2 analytically  !
 ! A48   A(37,19,38)            75.0478         calculate D2E/DX2 analytically  !
 ! A49   A(37,19,83)            66.3205         calculate D2E/DX2 analytically  !
 ! A50   A(37,19,91)           132.5545         calculate D2E/DX2 analytically  !
 ! A51   A(38,19,83)            97.6692         calculate D2E/DX2 analytically  !
 ! A52   A(38,19,91)            86.8362         calculate D2E/DX2 analytically  !
 ! A53   A(83,19,91)            73.4279         calculate D2E/DX2 analytically  !
 ! A54   A(13,20,21)           111.5384         calculate D2E/DX2 analytically  !
 ! A55   A(13,20,22)           111.6725         calculate D2E/DX2 analytically  !
 ! A56   A(13,20,23)           106.8417         calculate D2E/DX2 analytically  !
 ! A57   A(21,20,22)           108.7928         calculate D2E/DX2 analytically  !
 ! A58   A(21,20,23)           108.58           calculate D2E/DX2 analytically  !
 ! A59   A(22,20,23)           109.3395         calculate D2E/DX2 analytically  !
 ! A60   A(14,24,25)           111.6494         calculate D2E/DX2 analytically  !
 ! A61   A(14,24,26)           111.4224         calculate D2E/DX2 analytically  !
 ! A62   A(14,24,27)           106.6451         calculate D2E/DX2 analytically  !
 ! A63   A(25,24,26)           108.8414         calculate D2E/DX2 analytically  !
 ! A64   A(25,24,27)           109.1936         calculate D2E/DX2 analytically  !
 ! A65   A(26,24,27)           109.0221         calculate D2E/DX2 analytically  !
 ! A66   A(15,28,29)           111.4735         calculate D2E/DX2 analytically  !
 ! A67   A(15,28,30)           111.9772         calculate D2E/DX2 analytically  !
 ! A68   A(15,28,31)           106.6949         calculate D2E/DX2 analytically  !
 ! A69   A(29,28,30)           108.8935         calculate D2E/DX2 analytically  !
 ! A70   A(29,28,31)           108.9247         calculate D2E/DX2 analytically  !
 ! A71   A(30,28,31)           108.7858         calculate D2E/DX2 analytically  !
 ! A72   A(33,32,36)           107.887          calculate D2E/DX2 analytically  !
 ! A73   A(33,32,39)           109.289          calculate D2E/DX2 analytically  !
 ! A74   A(33,32,45)           108.9677         calculate D2E/DX2 analytically  !
 ! A75   A(36,32,39)           110.2048         calculate D2E/DX2 analytically  !
 ! A76   A(36,32,45)           109.3478         calculate D2E/DX2 analytically  !
 ! A77   A(39,32,45)           111.077          calculate D2E/DX2 analytically  !
 ! A78   A(32,33,34)           111.4971         calculate D2E/DX2 analytically  !
 ! A79   A(32,33,38)           109.0134         calculate D2E/DX2 analytically  !
 ! A80   A(32,33,44)           116.3274         calculate D2E/DX2 analytically  !
 ! A81   A(34,33,38)           102.4084         calculate D2E/DX2 analytically  !
 ! A82   A(34,33,44)           107.6928         calculate D2E/DX2 analytically  !
 ! A83   A(38,33,44)           108.975          calculate D2E/DX2 analytically  !
 ! A84   A(33,34,37)           121.0211         calculate D2E/DX2 analytically  !
 ! A85   A(33,34,42)           122.9504         calculate D2E/DX2 analytically  !
 ! A86   A(33,34,53)            96.4668         calculate D2E/DX2 analytically  !
 ! A87   A(37,34,42)           114.6146         calculate D2E/DX2 analytically  !
 ! A88   A(37,34,53)            86.5593         calculate D2E/DX2 analytically  !
 ! A89   A(42,34,53)            98.434          calculate D2E/DX2 analytically  !
 ! A90   A(36,35,40)           109.1852         calculate D2E/DX2 analytically  !
 ! A91   A(36,35,42)           111.7566         calculate D2E/DX2 analytically  !
 ! A92   A(36,35,47)           114.6255         calculate D2E/DX2 analytically  !
 ! A93   A(40,35,42)           105.0568         calculate D2E/DX2 analytically  !
 ! A94   A(40,35,47)           108.9879         calculate D2E/DX2 analytically  !
 ! A95   A(42,35,47)           106.7618         calculate D2E/DX2 analytically  !
 ! A96   A(32,36,35)           111.1237         calculate D2E/DX2 analytically  !
 ! A97   A(32,36,41)           108.3892         calculate D2E/DX2 analytically  !
 ! A98   A(32,36,46)           110.4772         calculate D2E/DX2 analytically  !
 ! A99   A(35,36,41)           109.1494         calculate D2E/DX2 analytically  !
 ! A100  A(35,36,46)           106.9798         calculate D2E/DX2 analytically  !
 ! A101  A(41,36,46)           110.7234         calculate D2E/DX2 analytically  !
 ! A102  A(10,37,19)            80.1585         calculate D2E/DX2 analytically  !
 ! A103  A(10,37,34)           122.7235         calculate D2E/DX2 analytically  !
 ! A104  A(10,37,52)           100.9363         calculate D2E/DX2 analytically  !
 ! A105  A(19,37,34)            94.801          calculate D2E/DX2 analytically  !
 ! A106  A(19,37,52)           120.1385         calculate D2E/DX2 analytically  !
 ! A107  A(34,37,52)           128.5898         calculate D2E/DX2 analytically  !
 ! A108  A(19,38,33)           105.1857         calculate D2E/DX2 analytically  !
 ! A109  A(34,42,35)           121.2975         calculate D2E/DX2 analytically  !
 ! A110  A(33,44,63)           115.0767         calculate D2E/DX2 analytically  !
 ! A111  A(32,45,67)           114.0307         calculate D2E/DX2 analytically  !
 ! A112  A(36,46,71)           113.8585         calculate D2E/DX2 analytically  !
 ! A113  A(35,47,48)           107.9126         calculate D2E/DX2 analytically  !
 ! A114  A(35,47,49)           108.9941         calculate D2E/DX2 analytically  !
 ! A115  A(35,47,50)           109.2383         calculate D2E/DX2 analytically  !
 ! A116  A(48,47,49)           107.8451         calculate D2E/DX2 analytically  !
 ! A117  A(48,47,50)           111.5073         calculate D2E/DX2 analytically  !
 ! A118  A(49,47,50)           111.2518         calculate D2E/DX2 analytically  !
 ! A119  A(47,50,75)           112.1525         calculate D2E/DX2 analytically  !
 ! A120  A(43,51,52)           114.5708         calculate D2E/DX2 analytically  !
 ! A121  A(43,51,53)           113.839          calculate D2E/DX2 analytically  !
 ! A122  A(43,51,54)           106.7849         calculate D2E/DX2 analytically  !
 ! A123  A(52,51,53)           111.9213         calculate D2E/DX2 analytically  !
 ! A124  A(52,51,54)           104.3615         calculate D2E/DX2 analytically  !
 ! A125  A(53,51,54)           104.173          calculate D2E/DX2 analytically  !
 ! A126  A(37,52,51)            92.3873         calculate D2E/DX2 analytically  !
 ! A127  A(34,53,51)           114.2997         calculate D2E/DX2 analytically  !
 ! A128  A(51,54,55)           119.4322         calculate D2E/DX2 analytically  !
 ! A129  A(51,54,56)           119.5554         calculate D2E/DX2 analytically  !
 ! A130  A(55,54,56)           120.9238         calculate D2E/DX2 analytically  !
 ! A131  A(54,55,57)           119.1134         calculate D2E/DX2 analytically  !
 ! A132  A(54,55,58)           120.0385         calculate D2E/DX2 analytically  !
 ! A133  A(57,55,58)           120.8465         calculate D2E/DX2 analytically  !
 ! A134  A(54,56,59)           119.3026         calculate D2E/DX2 analytically  !
 ! A135  A(54,56,60)           120.0784         calculate D2E/DX2 analytically  !
 ! A136  A(59,56,60)           120.619          calculate D2E/DX2 analytically  !
 ! A137  A(55,57,61)           120.7005         calculate D2E/DX2 analytically  !
 ! A138  A(55,57,93)           119.4617         calculate D2E/DX2 analytically  !
 ! A139  A(61,57,93)           119.7561         calculate D2E/DX2 analytically  !
 ! A140  A(56,59,61)           120.5993         calculate D2E/DX2 analytically  !
 ! A141  A(56,59,97)           120.0654         calculate D2E/DX2 analytically  !
 ! A142  A(61,59,97)           119.2851         calculate D2E/DX2 analytically  !
 ! A143  A(57,61,59)           119.3539         calculate D2E/DX2 analytically  !
 ! A144  A(57,61,62)           120.2379         calculate D2E/DX2 analytically  !
 ! A145  A(59,61,62)           120.4081         calculate D2E/DX2 analytically  !
 ! A146  A(44,63,64)           111.1252         calculate D2E/DX2 analytically  !
 ! A147  A(44,63,65)           111.4324         calculate D2E/DX2 analytically  !
 ! A148  A(44,63,66)           106.284          calculate D2E/DX2 analytically  !
 ! A149  A(64,63,65)           109.0522         calculate D2E/DX2 analytically  !
 ! A150  A(64,63,66)           109.2129         calculate D2E/DX2 analytically  !
 ! A151  A(65,63,66)           109.6799         calculate D2E/DX2 analytically  !
 ! A152  A(45,67,68)           111.5416         calculate D2E/DX2 analytically  !
 ! A153  A(45,67,69)           111.2157         calculate D2E/DX2 analytically  !
 ! A154  A(45,67,70)           106.604          calculate D2E/DX2 analytically  !
 ! A155  A(68,67,69)           109.0941         calculate D2E/DX2 analytically  !
 ! A156  A(68,67,70)           109.4074         calculate D2E/DX2 analytically  !
 ! A157  A(69,67,70)           108.9095         calculate D2E/DX2 analytically  !
 ! A158  A(46,71,72)           111.1612         calculate D2E/DX2 analytically  !
 ! A159  A(46,71,73)           111.2913         calculate D2E/DX2 analytically  !
 ! A160  A(46,71,74)           106.6568         calculate D2E/DX2 analytically  !
 ! A161  A(72,71,73)           109.1229         calculate D2E/DX2 analytically  !
 ! A162  A(72,71,74)           109.2924         calculate D2E/DX2 analytically  !
 ! A163  A(73,71,74)           109.2599         calculate D2E/DX2 analytically  !
 ! A164  A(50,75,76)           107.1336         calculate D2E/DX2 analytically  !
 ! A165  A(50,75,77)           111.354          calculate D2E/DX2 analytically  !
 ! A166  A(50,75,78)           111.347          calculate D2E/DX2 analytically  !
 ! A167  A(76,75,77)           109.1375         calculate D2E/DX2 analytically  !
 ! A168  A(76,75,78)           109.2078         calculate D2E/DX2 analytically  !
 ! A169  A(77,75,78)           108.6149         calculate D2E/DX2 analytically  !
 ! A170  A(12,79,80)           106.8815         calculate D2E/DX2 analytically  !
 ! A171  A(12,79,81)           111.6537         calculate D2E/DX2 analytically  !
 ! A172  A(12,79,82)           110.8999         calculate D2E/DX2 analytically  !
 ! A173  A(80,79,81)           109.3301         calculate D2E/DX2 analytically  !
 ! A174  A(80,79,82)           109.1353         calculate D2E/DX2 analytically  !
 ! A175  A(81,79,82)           108.8886         calculate D2E/DX2 analytically  !
 ! A176  A(19,83,84)           100.7581         calculate D2E/DX2 analytically  !
 ! A177  A(83,84,85)           135.9275         calculate D2E/DX2 analytically  !
 ! A178  A(83,84,89)           111.0897         calculate D2E/DX2 analytically  !
 ! A179  A(85,84,89)           112.6266         calculate D2E/DX2 analytically  !
 ! A180  A(84,85,86)           111.0297         calculate D2E/DX2 analytically  !
 ! A181  A(84,85,87)           107.5258         calculate D2E/DX2 analytically  !
 ! A182  A(84,85,88)           111.113          calculate D2E/DX2 analytically  !
 ! A183  A(86,85,87)           109.2067         calculate D2E/DX2 analytically  !
 ! A184  A(86,85,88)           108.6998         calculate D2E/DX2 analytically  !
 ! A185  A(87,85,88)           109.2299         calculate D2E/DX2 analytically  !
 ! A186  A(84,89,90)           110.824          calculate D2E/DX2 analytically  !
 ! A187  A(84,89,91)           106.4614         calculate D2E/DX2 analytically  !
 ! A188  A(84,89,92)           110.7188         calculate D2E/DX2 analytically  !
 ! A189  A(90,89,91)           110.0213         calculate D2E/DX2 analytically  !
 ! A190  A(90,89,92)           108.7607         calculate D2E/DX2 analytically  !
 ! A191  A(91,89,92)           110.0429         calculate D2E/DX2 analytically  !
 ! A192  A(18,91,19)            51.359          calculate D2E/DX2 analytically  !
 ! A193  A(18,91,89)           125.804          calculate D2E/DX2 analytically  !
 ! A194  A(19,91,89)           147.0017         calculate D2E/DX2 analytically  !
 ! A195  A(57,93,94)           111.1199         calculate D2E/DX2 analytically  !
 ! A196  A(57,93,95)           111.9368         calculate D2E/DX2 analytically  !
 ! A197  A(57,93,96)           111.8081         calculate D2E/DX2 analytically  !
 ! A198  A(94,93,95)           106.9648         calculate D2E/DX2 analytically  !
 ! A199  A(94,93,96)           106.9438         calculate D2E/DX2 analytically  !
 ! A200  A(95,93,96)           107.7957         calculate D2E/DX2 analytically  !
 ! A201  A(59,97,98)           112.1693         calculate D2E/DX2 analytically  !
 ! A202  A(59,97,99)           111.3866         calculate D2E/DX2 analytically  !
 ! A203  A(59,97,100)          111.6702         calculate D2E/DX2 analytically  !
 ! A204  A(98,97,99)           106.958          calculate D2E/DX2 analytically  !
 ! A205  A(98,97,100)          107.6402         calculate D2E/DX2 analytically  !
 ! A206  A(99,97,100)          106.7181         calculate D2E/DX2 analytically  !
 ! D1    D(5,1,2,3)            -53.0569         calculate D2E/DX2 analytically  !
 ! D2    D(5,1,2,7)             63.3187         calculate D2E/DX2 analytically  !
 ! D3    D(5,1,2,13)          -174.0982         calculate D2E/DX2 analytically  !
 ! D4    D(8,1,2,3)             65.8817         calculate D2E/DX2 analytically  !
 ! D5    D(8,1,2,7)           -177.7428         calculate D2E/DX2 analytically  !
 ! D6    D(8,1,2,13)           -55.1597         calculate D2E/DX2 analytically  !
 ! D7    D(14,1,2,3)          -174.4452         calculate D2E/DX2 analytically  !
 ! D8    D(14,1,2,7)           -58.0696         calculate D2E/DX2 analytically  !
 ! D9    D(14,1,2,13)           64.5135         calculate D2E/DX2 analytically  !
 ! D10   D(2,1,5,4)             50.1184         calculate D2E/DX2 analytically  !
 ! D11   D(2,1,5,10)           -70.0813         calculate D2E/DX2 analytically  !
 ! D12   D(2,1,5,15)           170.0678         calculate D2E/DX2 analytically  !
 ! D13   D(8,1,5,4)            -68.4633         calculate D2E/DX2 analytically  !
 ! D14   D(8,1,5,10)           171.337          calculate D2E/DX2 analytically  !
 ! D15   D(8,1,5,15)            51.4861         calculate D2E/DX2 analytically  !
 ! D16   D(14,1,5,4)           171.0018         calculate D2E/DX2 analytically  !
 ! D17   D(14,1,5,10)           50.802          calculate D2E/DX2 analytically  !
 ! D18   D(14,1,5,15)          -69.0488         calculate D2E/DX2 analytically  !
 ! D19   D(2,1,14,24)         -131.7802         calculate D2E/DX2 analytically  !
 ! D20   D(5,1,14,24)          106.4965         calculate D2E/DX2 analytically  !
 ! D21   D(8,1,14,24)          -13.2656         calculate D2E/DX2 analytically  !
 ! D22   D(1,2,3,6)            173.4506         calculate D2E/DX2 analytically  !
 ! D23   D(1,2,3,11)            58.1146         calculate D2E/DX2 analytically  !
 ! D24   D(1,2,3,12)           -65.5237         calculate D2E/DX2 analytically  !
 ! D25   D(7,2,3,6)             55.5241         calculate D2E/DX2 analytically  !
 ! D26   D(7,2,3,11)           -59.812          calculate D2E/DX2 analytically  !
 ! D27   D(7,2,3,12)           176.5498         calculate D2E/DX2 analytically  !
 ! D28   D(13,2,3,6)           -63.7637         calculate D2E/DX2 analytically  !
 ! D29   D(13,2,3,11)         -179.0997         calculate D2E/DX2 analytically  !
 ! D30   D(13,2,3,12)           57.262          calculate D2E/DX2 analytically  !
 ! D31   D(1,2,13,20)         -100.3046         calculate D2E/DX2 analytically  !
 ! D32   D(3,2,13,20)          138.2798         calculate D2E/DX2 analytically  !
 ! D33   D(7,2,13,20)           21.4556         calculate D2E/DX2 analytically  !
 ! D34   D(2,3,11,4)           -61.8536         calculate D2E/DX2 analytically  !
 ! D35   D(6,3,11,4)           179.4583         calculate D2E/DX2 analytically  !
 ! D36   D(12,3,11,4)           59.4813         calculate D2E/DX2 analytically  !
 ! D37   D(2,3,12,79)         -171.461          calculate D2E/DX2 analytically  !
 ! D38   D(6,3,12,79)          -50.4172         calculate D2E/DX2 analytically  !
 ! D39   D(11,3,12,79)          66.4204         calculate D2E/DX2 analytically  !
 ! D40   D(9,4,5,1)             68.5229         calculate D2E/DX2 analytically  !
 ! D41   D(9,4,5,10)          -171.8062         calculate D2E/DX2 analytically  !
 ! D42   D(9,4,5,15)           -51.9622         calculate D2E/DX2 analytically  !
 ! D43   D(11,4,5,1)           -50.3851         calculate D2E/DX2 analytically  !
 ! D44   D(11,4,5,10)           69.2858         calculate D2E/DX2 analytically  !
 ! D45   D(11,4,5,15)         -170.8703         calculate D2E/DX2 analytically  !
 ! D46   D(16,4,5,1)          -170.4396         calculate D2E/DX2 analytically  !
 ! D47   D(16,4,5,10)          -50.7687         calculate D2E/DX2 analytically  !
 ! D48   D(16,4,5,15)           69.0753         calculate D2E/DX2 analytically  !
 ! D49   D(5,4,11,3)            57.465          calculate D2E/DX2 analytically  !
 ! D50   D(9,4,11,3)           -60.6625         calculate D2E/DX2 analytically  !
 ! D51   D(16,4,11,3)         -178.5188         calculate D2E/DX2 analytically  !
 ! D52   D(5,4,16,17)          -56.2747         calculate D2E/DX2 analytically  !
 ! D53   D(5,4,16,18)         -166.7153         calculate D2E/DX2 analytically  !
 ! D54   D(5,4,16,19)           69.9038         calculate D2E/DX2 analytically  !
 ! D55   D(9,4,16,17)           63.9766         calculate D2E/DX2 analytically  !
 ! D56   D(9,4,16,18)          -46.4641         calculate D2E/DX2 analytically  !
 ! D57   D(9,4,16,19)         -169.8449         calculate D2E/DX2 analytically  !
 ! D58   D(11,4,16,17)        -178.2462         calculate D2E/DX2 analytically  !
 ! D59   D(11,4,16,18)          71.3132         calculate D2E/DX2 analytically  !
 ! D60   D(11,4,16,19)         -52.0677         calculate D2E/DX2 analytically  !
 ! D61   D(1,5,10,37)          118.5825         calculate D2E/DX2 analytically  !
 ! D62   D(4,5,10,37)           -3.6087         calculate D2E/DX2 analytically  !
 ! D63   D(15,5,10,37)        -122.2269         calculate D2E/DX2 analytically  !
 ! D64   D(1,5,15,28)          112.8551         calculate D2E/DX2 analytically  !
 ! D65   D(4,5,15,28)         -124.7738         calculate D2E/DX2 analytically  !
 ! D66   D(10,5,15,28)          -5.6862         calculate D2E/DX2 analytically  !
 ! D67   D(5,10,37,19)          30.6905         calculate D2E/DX2 analytically  !
 ! D68   D(5,10,37,34)         120.089          calculate D2E/DX2 analytically  !
 ! D69   D(5,10,37,52)         -88.3545         calculate D2E/DX2 analytically  !
 ! D70   D(3,12,79,80)         175.686          calculate D2E/DX2 analytically  !
 ! D71   D(3,12,79,81)         -64.7983         calculate D2E/DX2 analytically  !
 ! D72   D(3,12,79,82)          56.8325         calculate D2E/DX2 analytically  !
 ! D73   D(2,13,20,21)         -62.2037         calculate D2E/DX2 analytically  !
 ! D74   D(2,13,20,22)          59.7693         calculate D2E/DX2 analytically  !
 ! D75   D(2,13,20,23)         179.2823         calculate D2E/DX2 analytically  !
 ! D76   D(1,14,24,25)         -58.4492         calculate D2E/DX2 analytically  !
 ! D77   D(1,14,24,26)          63.4872         calculate D2E/DX2 analytically  !
 ! D78   D(1,14,24,27)        -177.6486         calculate D2E/DX2 analytically  !
 ! D79   D(5,15,28,29)         -58.0825         calculate D2E/DX2 analytically  !
 ! D80   D(5,15,28,30)          64.1925         calculate D2E/DX2 analytically  !
 ! D81   D(5,15,28,31)        -176.8878         calculate D2E/DX2 analytically  !
 ! D82   D(4,16,18,91)        -124.094          calculate D2E/DX2 analytically  !
 ! D83   D(17,16,18,91)        125.3489         calculate D2E/DX2 analytically  !
 ! D84   D(19,16,18,91)          1.3437         calculate D2E/DX2 analytically  !
 ! D85   D(4,16,19,37)         -30.7104         calculate D2E/DX2 analytically  !
 ! D86   D(4,16,19,38)        -153.0939         calculate D2E/DX2 analytically  !
 ! D87   D(4,16,19,83)          45.45           calculate D2E/DX2 analytically  !
 ! D88   D(4,16,19,91)         118.6002         calculate D2E/DX2 analytically  !
 ! D89   D(17,16,19,37)         90.7135         calculate D2E/DX2 analytically  !
 ! D90   D(17,16,19,38)        -31.67           calculate D2E/DX2 analytically  !
 ! D91   D(17,16,19,83)        166.8739         calculate D2E/DX2 analytically  !
 ! D92   D(17,16,19,91)       -119.9759         calculate D2E/DX2 analytically  !
 ! D93   D(18,16,19,37)       -150.5751         calculate D2E/DX2 analytically  !
 ! D94   D(18,16,19,38)         87.0414         calculate D2E/DX2 analytically  !
 ! D95   D(18,16,19,83)        -74.4147         calculate D2E/DX2 analytically  !
 ! D96   D(18,16,19,91)         -1.2645         calculate D2E/DX2 analytically  !
 ! D97   D(16,18,91,19)         -0.9064         calculate D2E/DX2 analytically  !
 ! D98   D(16,18,91,89)        137.4493         calculate D2E/DX2 analytically  !
 ! D99   D(16,19,37,10)         -7.3181         calculate D2E/DX2 analytically  !
 ! D100  D(16,19,37,34)       -129.7314         calculate D2E/DX2 analytically  !
 ! D101  D(16,19,37,52)         89.6856         calculate D2E/DX2 analytically  !
 ! D102  D(38,19,37,10)        145.3069         calculate D2E/DX2 analytically  !
 ! D103  D(38,19,37,34)         22.8937         calculate D2E/DX2 analytically  !
 ! D104  D(38,19,37,52)       -117.6894         calculate D2E/DX2 analytically  !
 ! D105  D(83,19,37,10)       -109.1512         calculate D2E/DX2 analytically  !
 ! D106  D(83,19,37,34)        128.4356         calculate D2E/DX2 analytically  !
 ! D107  D(83,19,37,52)        -12.1474         calculate D2E/DX2 analytically  !
 ! D108  D(91,19,37,10)       -143.5211         calculate D2E/DX2 analytically  !
 ! D109  D(91,19,37,34)         94.0657         calculate D2E/DX2 analytically  !
 ! D110  D(91,19,37,52)        -46.5173         calculate D2E/DX2 analytically  !
 ! D111  D(16,19,38,33)        150.6305         calculate D2E/DX2 analytically  !
 ! D112  D(37,19,38,33)         16.3076         calculate D2E/DX2 analytically  !
 ! D113  D(83,19,38,33)        -46.6013         calculate D2E/DX2 analytically  !
 ! D114  D(91,19,38,33)       -119.403          calculate D2E/DX2 analytically  !
 ! D115  D(16,19,83,84)         82.643          calculate D2E/DX2 analytically  !
 ! D116  D(37,19,83,84)       -157.5585         calculate D2E/DX2 analytically  !
 ! D117  D(38,19,83,84)        -87.6383         calculate D2E/DX2 analytically  !
 ! D118  D(91,19,83,84)         -3.2724         calculate D2E/DX2 analytically  !
 ! D119  D(16,19,91,18)          0.7167         calculate D2E/DX2 analytically  !
 ! D120  D(16,19,91,89)        -97.5695         calculate D2E/DX2 analytically  !
 ! D121  D(37,19,91,18)        146.1691         calculate D2E/DX2 analytically  !
 ! D122  D(37,19,91,89)         47.8828         calculate D2E/DX2 analytically  !
 ! D123  D(38,19,91,18)       -147.5054         calculate D2E/DX2 analytically  !
 ! D124  D(38,19,91,89)        114.2083         calculate D2E/DX2 analytically  !
 ! D125  D(83,19,91,18)        113.5256         calculate D2E/DX2 analytically  !
 ! D126  D(83,19,91,89)         15.2394         calculate D2E/DX2 analytically  !
 ! D127  D(36,32,33,34)        -48.4641         calculate D2E/DX2 analytically  !
 ! D128  D(36,32,33,38)         63.8688         calculate D2E/DX2 analytically  !
 ! D129  D(36,32,33,44)       -172.4732         calculate D2E/DX2 analytically  !
 ! D130  D(39,32,33,34)         71.3677         calculate D2E/DX2 analytically  !
 ! D131  D(39,32,33,38)       -176.2994         calculate D2E/DX2 analytically  !
 ! D132  D(39,32,33,44)        -52.6415         calculate D2E/DX2 analytically  !
 ! D133  D(45,32,33,34)       -167.087          calculate D2E/DX2 analytically  !
 ! D134  D(45,32,33,38)        -54.7541         calculate D2E/DX2 analytically  !
 ! D135  D(45,32,33,44)         68.9039         calculate D2E/DX2 analytically  !
 ! D136  D(33,32,36,35)         58.8304         calculate D2E/DX2 analytically  !
 ! D137  D(33,32,36,41)        -61.1051         calculate D2E/DX2 analytically  !
 ! D138  D(33,32,36,46)        177.4152         calculate D2E/DX2 analytically  !
 ! D139  D(39,32,36,35)        -60.4213         calculate D2E/DX2 analytically  !
 ! D140  D(39,32,36,41)        179.6433         calculate D2E/DX2 analytically  !
 ! D141  D(39,32,36,46)         58.1636         calculate D2E/DX2 analytically  !
 ! D142  D(45,32,36,35)        177.21           calculate D2E/DX2 analytically  !
 ! D143  D(45,32,36,41)         57.2746         calculate D2E/DX2 analytically  !
 ! D144  D(45,32,36,46)        -64.2051         calculate D2E/DX2 analytically  !
 ! D145  D(33,32,45,67)       -139.504          calculate D2E/DX2 analytically  !
 ! D146  D(36,32,45,67)        102.7923         calculate D2E/DX2 analytically  !
 ! D147  D(39,32,45,67)        -19.0527         calculate D2E/DX2 analytically  !
 ! D148  D(32,33,34,37)       -160.3709         calculate D2E/DX2 analytically  !
 ! D149  D(32,33,34,42)         33.9368         calculate D2E/DX2 analytically  !
 ! D150  D(32,33,34,53)        -70.5037         calculate D2E/DX2 analytically  !
 ! D151  D(38,33,34,37)         83.1944         calculate D2E/DX2 analytically  !
 ! D152  D(38,33,34,42)        -82.4978         calculate D2E/DX2 analytically  !
 ! D153  D(38,33,34,53)        173.0617         calculate D2E/DX2 analytically  !
 ! D154  D(44,33,34,37)        -31.618          calculate D2E/DX2 analytically  !
 ! D155  D(44,33,34,42)        162.6898         calculate D2E/DX2 analytically  !
 ! D156  D(44,33,34,53)         58.2492         calculate D2E/DX2 analytically  !
 ! D157  D(32,33,38,19)       -157.3645         calculate D2E/DX2 analytically  !
 ! D158  D(34,33,38,19)        -39.1557         calculate D2E/DX2 analytically  !
 ! D159  D(44,33,38,19)         74.7175         calculate D2E/DX2 analytically  !
 ! D160  D(32,33,44,63)        -73.0332         calculate D2E/DX2 analytically  !
 ! D161  D(34,33,44,63)        161.0214         calculate D2E/DX2 analytically  !
 ! D162  D(38,33,44,63)         50.6446         calculate D2E/DX2 analytically  !
 ! D163  D(33,34,37,10)       -142.4849         calculate D2E/DX2 analytically  !
 ! D164  D(33,34,37,19)        -61.1068         calculate D2E/DX2 analytically  !
 ! D165  D(33,34,37,52)         74.2627         calculate D2E/DX2 analytically  !
 ! D166  D(42,34,37,10)         24.3296         calculate D2E/DX2 analytically  !
 ! D167  D(42,34,37,19)        105.7077         calculate D2E/DX2 analytically  !
 ! D168  D(42,34,37,52)       -118.9229         calculate D2E/DX2 analytically  !
 ! D169  D(53,34,37,10)        122.0348         calculate D2E/DX2 analytically  !
 ! D170  D(53,34,37,19)       -156.5871         calculate D2E/DX2 analytically  !
 ! D171  D(53,34,37,52)        -21.2177         calculate D2E/DX2 analytically  !
 ! D172  D(33,34,42,35)        -26.0768         calculate D2E/DX2 analytically  !
 ! D173  D(37,34,42,35)        167.3943         calculate D2E/DX2 analytically  !
 ! D174  D(53,34,42,35)         77.3258         calculate D2E/DX2 analytically  !
 ! D175  D(33,34,53,51)       -112.3114         calculate D2E/DX2 analytically  !
 ! D176  D(37,34,53,51)          8.5374         calculate D2E/DX2 analytically  !
 ! D177  D(42,34,53,51)        122.9253         calculate D2E/DX2 analytically  !
 ! D178  D(40,35,36,32)         65.5275         calculate D2E/DX2 analytically  !
 ! D179  D(40,35,36,41)       -174.9898         calculate D2E/DX2 analytically  !
 ! D180  D(40,35,36,46)        -55.1428         calculate D2E/DX2 analytically  !
 ! D181  D(42,35,36,32)        -50.2584         calculate D2E/DX2 analytically  !
 ! D182  D(42,35,36,41)         69.2242         calculate D2E/DX2 analytically  !
 ! D183  D(42,35,36,46)       -170.9287         calculate D2E/DX2 analytically  !
 ! D184  D(47,35,36,32)       -171.8938         calculate D2E/DX2 analytically  !
 ! D185  D(47,35,36,41)        -52.4112         calculate D2E/DX2 analytically  !
 ! D186  D(47,35,36,46)         67.4359         calculate D2E/DX2 analytically  !
 ! D187  D(36,35,42,34)         33.3131         calculate D2E/DX2 analytically  !
 ! D188  D(40,35,42,34)        -84.9659         calculate D2E/DX2 analytically  !
 ! D189  D(47,35,42,34)        159.3818         calculate D2E/DX2 analytically  !
 ! D190  D(36,35,47,48)        -67.0721         calculate D2E/DX2 analytically  !
 ! D191  D(36,35,47,49)        176.0647         calculate D2E/DX2 analytically  !
 ! D192  D(36,35,47,50)         54.3199         calculate D2E/DX2 analytically  !
 ! D193  D(40,35,47,48)         55.6132         calculate D2E/DX2 analytically  !
 ! D194  D(40,35,47,49)        -61.25           calculate D2E/DX2 analytically  !
 ! D195  D(40,35,47,50)        177.0052         calculate D2E/DX2 analytically  !
 ! D196  D(42,35,47,48)        168.6021         calculate D2E/DX2 analytically  !
 ! D197  D(42,35,47,49)         51.7388         calculate D2E/DX2 analytically  !
 ! D198  D(42,35,47,50)        -70.006          calculate D2E/DX2 analytically  !
 ! D199  D(32,36,46,71)        117.7736         calculate D2E/DX2 analytically  !
 ! D200  D(35,36,46,71)       -121.1454         calculate D2E/DX2 analytically  !
 ! D201  D(41,36,46,71)         -2.3141         calculate D2E/DX2 analytically  !
 ! D202  D(10,37,52,51)       -117.3226         calculate D2E/DX2 analytically  !
 ! D203  D(19,37,52,51)        157.79           calculate D2E/DX2 analytically  !
 ! D204  D(34,37,52,51)         31.8372         calculate D2E/DX2 analytically  !
 ! D205  D(33,44,63,64)        -40.5385         calculate D2E/DX2 analytically  !
 ! D206  D(33,44,63,65)         81.3059         calculate D2E/DX2 analytically  !
 ! D207  D(33,44,63,66)       -159.25           calculate D2E/DX2 analytically  !
 ! D208  D(32,45,67,68)        -58.6072         calculate D2E/DX2 analytically  !
 ! D209  D(32,45,67,69)         63.4316         calculate D2E/DX2 analytically  !
 ! D210  D(32,45,67,70)       -177.9799         calculate D2E/DX2 analytically  !
 ! D211  D(36,46,71,72)        -62.8421         calculate D2E/DX2 analytically  !
 ! D212  D(36,46,71,73)         59.0196         calculate D2E/DX2 analytically  !
 ! D213  D(36,46,71,74)        178.1054         calculate D2E/DX2 analytically  !
 ! D214  D(35,47,50,75)        179.0725         calculate D2E/DX2 analytically  !
 ! D215  D(48,47,50,75)        -61.7407         calculate D2E/DX2 analytically  !
 ! D216  D(49,47,50,75)         58.7014         calculate D2E/DX2 analytically  !
 ! D217  D(47,50,75,76)        179.8596         calculate D2E/DX2 analytically  !
 ! D218  D(47,50,75,77)        -60.8735         calculate D2E/DX2 analytically  !
 ! D219  D(47,50,75,78)         60.5113         calculate D2E/DX2 analytically  !
 ! D220  D(43,51,52,37)       -147.6884         calculate D2E/DX2 analytically  !
 ! D221  D(53,51,52,37)        -16.1559         calculate D2E/DX2 analytically  !
 ! D222  D(54,51,52,37)         95.8984         calculate D2E/DX2 analytically  !
 ! D223  D(43,51,53,34)        143.3354         calculate D2E/DX2 analytically  !
 ! D224  D(52,51,53,34)         11.4339         calculate D2E/DX2 analytically  !
 ! D225  D(54,51,53,34)       -100.7383         calculate D2E/DX2 analytically  !
 ! D226  D(43,51,54,55)        -34.9317         calculate D2E/DX2 analytically  !
 ! D227  D(43,51,54,56)        148.4589         calculate D2E/DX2 analytically  !
 ! D228  D(52,51,54,55)         86.7743         calculate D2E/DX2 analytically  !
 ! D229  D(52,51,54,56)        -89.8351         calculate D2E/DX2 analytically  !
 ! D230  D(53,51,54,55)       -155.7008         calculate D2E/DX2 analytically  !
 ! D231  D(53,51,54,56)         27.6898         calculate D2E/DX2 analytically  !
 ! D232  D(51,54,55,57)       -175.6693         calculate D2E/DX2 analytically  !
 ! D233  D(51,54,55,58)          4.7956         calculate D2E/DX2 analytically  !
 ! D234  D(56,54,55,57)          0.8925         calculate D2E/DX2 analytically  !
 ! D235  D(56,54,55,58)       -178.6426         calculate D2E/DX2 analytically  !
 ! D236  D(51,54,56,59)        176.1998         calculate D2E/DX2 analytically  !
 ! D237  D(51,54,56,60)         -3.7851         calculate D2E/DX2 analytically  !
 ! D238  D(55,54,56,59)         -0.3578         calculate D2E/DX2 analytically  !
 ! D239  D(55,54,56,60)        179.6572         calculate D2E/DX2 analytically  !
 ! D240  D(54,55,57,61)         -0.7606         calculate D2E/DX2 analytically  !
 ! D241  D(54,55,57,93)        175.9443         calculate D2E/DX2 analytically  !
 ! D242  D(58,55,57,61)        178.7706         calculate D2E/DX2 analytically  !
 ! D243  D(58,55,57,93)         -4.5245         calculate D2E/DX2 analytically  !
 ! D244  D(54,56,59,61)         -0.3213         calculate D2E/DX2 analytically  !
 ! D245  D(54,56,59,97)        177.0864         calculate D2E/DX2 analytically  !
 ! D246  D(60,56,59,61)        179.6636         calculate D2E/DX2 analytically  !
 ! D247  D(60,56,59,97)         -2.9287         calculate D2E/DX2 analytically  !
 ! D248  D(55,57,61,59)          0.0986         calculate D2E/DX2 analytically  !
 ! D249  D(55,57,61,62)       -179.78           calculate D2E/DX2 analytically  !
 ! D250  D(93,57,61,59)       -176.5967         calculate D2E/DX2 analytically  !
 ! D251  D(93,57,61,62)          3.5247         calculate D2E/DX2 analytically  !
 ! D252  D(55,57,93,94)        -85.7791         calculate D2E/DX2 analytically  !
 ! D253  D(55,57,93,95)        154.6975         calculate D2E/DX2 analytically  !
 ! D254  D(55,57,93,96)         33.6313         calculate D2E/DX2 analytically  !
 ! D255  D(61,57,93,94)         90.9573         calculate D2E/DX2 analytically  !
 ! D256  D(61,57,93,95)        -28.566          calculate D2E/DX2 analytically  !
 ! D257  D(61,57,93,96)       -149.6323         calculate D2E/DX2 analytically  !
 ! D258  D(56,59,61,57)          0.4486         calculate D2E/DX2 analytically  !
 ! D259  D(56,59,61,62)       -179.673          calculate D2E/DX2 analytically  !
 ! D260  D(97,59,61,57)       -176.9791         calculate D2E/DX2 analytically  !
 ! D261  D(97,59,61,62)          2.8993         calculate D2E/DX2 analytically  !
 ! D262  D(56,59,97,98)         20.9419         calculate D2E/DX2 analytically  !
 ! D263  D(56,59,97,99)        -98.914          calculate D2E/DX2 analytically  !
 ! D264  D(56,59,97,100)       141.874          calculate D2E/DX2 analytically  !
 ! D265  D(61,59,97,98)       -161.6164         calculate D2E/DX2 analytically  !
 ! D266  D(61,59,97,99)         78.5277         calculate D2E/DX2 analytically  !
 ! D267  D(61,59,97,100)       -40.6843         calculate D2E/DX2 analytically  !
 ! D268  D(19,83,84,85)       -171.6658         calculate D2E/DX2 analytically  !
 ! D269  D(19,83,84,89)          0.7142         calculate D2E/DX2 analytically  !
 ! D270  D(83,84,85,86)       -127.096          calculate D2E/DX2 analytically  !
 ! D271  D(83,84,85,87)         -7.6884         calculate D2E/DX2 analytically  !
 ! D272  D(83,84,85,88)        111.7958         calculate D2E/DX2 analytically  !
 ! D273  D(89,84,85,86)         60.6069         calculate D2E/DX2 analytically  !
 ! D274  D(89,84,85,87)       -179.9855         calculate D2E/DX2 analytically  !
 ! D275  D(89,84,85,88)        -60.5012         calculate D2E/DX2 analytically  !
 ! D276  D(83,84,89,90)       -113.7595         calculate D2E/DX2 analytically  !
 ! D277  D(83,84,89,91)          5.8665         calculate D2E/DX2 analytically  !
 ! D278  D(83,84,89,92)        125.4602         calculate D2E/DX2 analytically  !
 ! D279  D(85,84,89,90)         60.5056         calculate D2E/DX2 analytically  !
 ! D280  D(85,84,89,91)       -179.8683         calculate D2E/DX2 analytically  !
 ! D281  D(85,84,89,92)        -60.2747         calculate D2E/DX2 analytically  !
 ! D282  D(84,89,91,18)        -88.806          calculate D2E/DX2 analytically  !
 ! D283  D(84,89,91,19)        -16.4387         calculate D2E/DX2 analytically  !
 ! D284  D(90,89,91,18)         31.3401         calculate D2E/DX2 analytically  !
 ! D285  D(90,89,91,19)        103.7074         calculate D2E/DX2 analytically  !
 ! D286  D(92,89,91,18)        151.162          calculate D2E/DX2 analytically  !
 ! D287  D(92,89,91,19)       -136.4706         calculate D2E/DX2 analytically  !
 --------------------------------------------------------------------------------
 Trust Radius=5.00D-02 FncErr=1.00D-07 GrdErr=1.00D-06 EigMax=2.50D+02 EigMin=1.00D-04
 Number of steps in this run=    600 maximum allowed number of steps=    600.
 Search for a saddle point of order  1.
 GradGradGradGradGradGradGradGradGradGradGradGradGradGradGradGradGradGrad

 Leave Link  103 at Wed Jun  5 13:31:19 2019, MaxMem=  6442450944 cpu:               4.1 elap:               0.2
 (Enter /home/ekwan/sw/g16/l202.exe)
 Stoichiometry    C30H47F6NaO15S
 Framework group  C1[X(C30H47F6NaO15S)]
 Deg. of freedom   294
 Full point group                 C1      NOp   1
 Largest Abelian subgroup         C1      NOp   1
 Largest concise Abelian subgroup C1      NOp   1
                         Standard orientation:                         
 ---------------------------------------------------------------------
 Center     Atomic      Atomic             Coordinates (Angstroms)
 Number     Number       Type             X           Y           Z
 ---------------------------------------------------------------------
      1          6           0       -1.868816    1.644554    2.266985
      2          6           0       -2.182479    2.400788    0.981583
      3          6           0       -1.307852    3.649864    0.894608
      4          6           0        0.464475    2.631379    2.150889
      5          6           0       -0.371769    1.371227    2.379161
      6          1           0       -1.439738    4.141609   -0.080829
      7          1           0       -1.917116    1.770936    0.120337
      8          1           0       -2.177097    2.270515    3.115364
      9          1           0        0.291268    3.307014    3.001075
     10          1           0       -0.104168    0.622529    1.621383
     11          8           0        0.056539    3.289039    0.939197
     12          8           0       -1.664662    4.515264    1.923307
     13          8           0       -3.537867    2.784216    0.914321
     14          8           0       -2.589531    0.423344    2.278764
     15          8           0       -0.085060    0.877876    3.677294
     16          6           0        1.970619    2.356291    2.024937
     17          1           0        2.245477    1.820962    2.959319
     18          1           0        2.459412    3.354714    2.112250
     19          8           0        2.345791    1.707176    0.880324
     20          6           0       -4.329706    1.940786    0.104975
     21          1           0       -3.990610    1.950533   -0.941459
     22          1           0       -4.322261    0.907317    0.468812
     23          1           0       -5.350361    2.331121    0.144122
     24          6           0       -3.277390    0.172718    3.484765
     25          1           0       -2.594690    0.152101    4.343369
     26          1           0       -4.055349    0.927821    3.667747
     27          1           0       -3.749762   -0.806523    3.377911
     28          6           0        0.342736   -0.466381    3.710100
     29          1           0       -0.403936   -1.136663    3.265013
     30          1           0        1.300412   -0.605777    3.190597
     31          1           0        0.472156   -0.729395    4.764187
     32          6           0        3.926559   -1.464736   -1.298195
     33          6           0        3.215994   -0.164319   -0.927844
     34          6           0        1.920980   -0.427874   -0.224200
     35          6           0        2.528335   -2.647559    0.429206
     36          6           0        3.943188   -2.359722   -0.059591
     37          1           0        1.157226    0.324831   -0.170564
     38          1           0        3.804548    0.359486   -0.153531
     39          1           0        3.380696   -1.956684   -2.114308
     40          1           0        2.000401   -3.240698   -0.325516
     41          1           0        4.499819   -1.843712    0.732913
     42          8           0        1.745364   -1.426217    0.566534
     43          8           0       -0.403863   -0.288552   -3.880910
     44          8           0        2.955393    0.724507   -1.981990
     45          8           0        5.250555   -1.170608   -1.679310
     46          8           0        4.536265   -3.602166   -0.357334
     47          6           0        2.454778   -3.362914    1.755324
     48          1           0        2.860565   -4.376642    1.616125
     49          1           0        1.398199   -3.459999    2.052285
     50          8           0        3.186709   -2.642939    2.709725
     51         16           0       -0.255403   -0.314452   -2.423078
     52          8           0       -0.221416    1.027453   -1.780595
     53          8           0        0.862406   -1.194745   -1.942318
     54          6           0       -1.733031   -1.084045   -1.766376
     55          6           0       -2.952880   -0.866866   -2.394905
     56          6           0       -1.655111   -1.831119   -0.596355
     57          6           0       -4.110818   -1.393324   -1.827446
     58          1           0       -2.994321   -0.300124   -3.319480
     59          6           0       -2.817933   -2.359668   -0.047945
     60          1           0       -0.695175   -1.996734   -0.120297
     61          6           0       -4.051063   -2.140928   -0.655697
     62          1           0       -4.957302   -2.550473   -0.222109
     63          6           0        4.093979    1.409153   -2.488375
     64          1           0        4.761125    1.721071   -1.676116
     65          1           0        4.654306    0.786971   -3.191420
     66          1           0        3.715049    2.295033   -3.002437
     67          6           0        5.708807   -1.915084   -2.792110
     68          1           0        5.661428   -2.992739   -2.602087
     69          1           0        5.124600   -1.682926   -3.693878
     70          1           0        6.747936   -1.621016   -2.957967
     71          6           0        5.715631   -3.865689    0.381338
     72          1           0        6.499312   -3.133744    0.150473
     73          1           0        5.520207   -3.854713    1.461665
     74          1           0        6.053787   -4.861567    0.086469
     75          6           0        3.141625   -3.248547    3.981854
     76          1           0        3.735213   -2.627007    4.655199
     77          1           0        2.111025   -3.308006    4.360720
     78          1           0        3.565815   -4.262973    3.957587
     79          6           0       -1.051748    5.785708    1.825202
     80          1           0       -1.461099    6.398295    2.630962
     81          1           0        0.037006    5.719384    1.936946
     82          1           0       -1.282325    6.258970    0.859862
     83         11           0        1.366039    2.572332   -0.974151
     84          8           0        2.774026    4.371724   -1.409726
     85          6           0        2.767932    5.472366   -2.290232
     86          1           0        3.704115    5.523670   -2.864040
     87          1           0        1.930959    5.337771   -2.979317
     88          1           0        2.637929    6.416601   -1.742825
     89          6           0        3.823936    4.437630   -0.462998
     90          1           0        3.733618    5.339655    0.158466
     91          1           0        3.735850    3.542809    0.160474
     92          1           0        4.801369    4.451441   -0.966411
     93          6           0       -5.443275   -1.086891   -2.448997
     94          9           0       -5.937517    0.078572   -1.987906
     95          9           0       -6.353007   -2.033108   -2.175585
     96          9           0       -5.356963   -0.974542   -3.781847
[...]
 0005939,-0.00012494,0.00005658,0.00007244,-0.00011269,0.00013676,-0.00
 000003,0.00014137,-0.00001413,-0.00003871,-0.00009417,0.00003347,-0.00
 000909,0.00006793,-0.00011739,0.00004620,-0.00005637,0.00011447,-0.000
 06396,0.00358662,0.00119051,-0.00116351,-0.00087573,-0.00105540,-0.000
 03693,-0.00162739,0.00014803,-0.00014897,-0.00055862,0.00088219,0.0023
 7256,0.00003728,-0.00083985,0.00049499,0.00385275,-0.00122600,0.001095
 87,-0.00002035,0.00076605,0.00208990,0.00008744,-0.00019431,-0.0001534
 3,-0.00238073,-0.04520112,0.00091850,0.00025687,-0.00074241,-0.0009015
 9,-0.00335515,-0.00026283,0.00008780,0.00042044,-0.00085662,-0.0008288
 6,0.00010160,0.00006765,-0.00006202,-0.00002070,-0.00000960,-0.0000043
 7,-0.00002351,-0.00000189,0.00001638,-0.00000334,-0.00000605,0.0000049
 0,0.00002725,-0.00005605,-0.00006543,-0.00000407,0.00001532,0.00000207
 ,0.00000098,0.00000032,0.00000765,-0.00000881,0.00000423,0.00000961,0.
 00005026,-0.00001974,0.00003771,-0.00000301,0.00000329,-0.00000603,-0.
 00000156,-0.00000795,-0.00000834,-0.00001965,0.00001234,0.00000159,0.0
 0003636,-0.00006703,0.00006981,0.00000290,0.00000595,-0.00000586,0.000
 00358,-0.00001354,0.00000110,-0.00002708,0.00002708,0.00000016,0.00004
 755,0.00011405,-0.00001315,0.00000030,-0.00002071,-0.00000952,-0.00001
 643,-0.00000731,0.00000355,-0.00000589,-0.00001301,0.00001443,0.000164
 82,0.00018541,0.00001691,-0.00003267,-0.00004606,0.00000644,0.00001383
 ,0.00003289,-0.00002314,-0.00000981,-0.00000318,0.00000596,-0.00000267
 ,0.00000048,-0.00000464,0.00000015,-0.00000678,-0.00000081,0.00002582,
 0.00000428,0.00001223,-0.00000129,-0.00000654,-0.00000191,0.00002562,0
 .00001608,-0.00000391,-0.00001086,-0.00000529,0.00000719,-0.00274970,0
 .00024621,-0.00100514,0.00077327,-0.00050537,0.00009887,0.00088695,0.0
 0028951,0.00018003,0.00066182,-0.00017502,0.00087983,-0.00485617,-0.27
 544600,-0.02373442,-0.03451919,-0.02900305,-0.02919593,0.01185305,0.38
 535647,0.00013231,0.00019174,-0.00003559,-0.00005154,-0.00001389,-0.00
 011265,0.00000180,-0.00000464,-0.00000560,-0.00001551,0.00006349,-0.00
 004920,-0.00001722,0.00003907,-0.00014443,-0.00000361,-0.00002155,0.00
 000957,0.00000468,-0.00001512,0.00000143,-0.00001516,-0.00002400,0.000
 00507,-0.00000656,-0.00000185,0.00000911,-0.00000013,0.00001380,-0.000
 00562,0.00001303,-0.00003159,0.00007144,0.00000061,-0.00000111,0.00002
 871,0.00007868,0.00005184,0.00012520,-0.00007253,-0.00038505,0.0001227
 0,-0.00002065,-0.00030021,0.00009657,0.00006160,-0.00002548,-0.0001057
 7,0.00000898,-0.00000240,0.00003067,-0.00001636,0.00001328,0.00002576,
 -0.00002985,0.00007025,0.00013759,-0.00003384,-0.00006367,-0.00010465,
 -0.00001106,-0.00004504,0.00005704,0.00002251,-0.00001434,-0.00007215,
 -0.00000552,0.00001831,0.00001068,0.00024298,0.00033604,-0.00013301,-0
 .00003144,-0.00004634,0.00001510,-0.00002219,-0.00011312,-0.00000284,-
 0.00021352,0.00009909,0.00028649,0.00022282,0.00036789,0.00009529,-0.0
 0007981,0.00002482,0.00007450,-0.00005081,-0.00003628,-0.00002239,-0.0
 0002821,-0.00003178,-0.00002754,-0.00004163,0.00000682,-0.00001859,0.0
 0000575,0.00001485,0.00000845,-0.00024603,-0.00009197,-0.00043749,-0.0
 0007300,0.00005006,-0.00008282,0.00000421,-0.00000376,0.00000105,0.000
 00144,-0.00000255,-0.00001499,0.00001365,-0.00000371,-0.00001394,-0.00
 001018,0.00000993,0.00001332,0.00000175,0.00000450,-0.00000099,0.00000
 930,0.00000250,-0.00000043,0.00006929,-0.00010987,0.00018939,0.0003891
 5,0.00021455,-0.00035476,0.00005026,0.00001169,0.00001320,0.00002431,-
 0.00000421,0.00001654,0.00002395,-0.00001932,0.00002521,0.00015547,0.0
 0003191,-0.00007139,-0.00002687,0.00000487,0.00001539,0.00001765,-0.00
 004053,0.00004022,-0.00007179,-0.00001374,0.00004974,-0.00148107,-0.00
 063526,0.00027776,0.00035237,0.00048564,0.00009637,0.00072486,0.000006
 42,0.00019175,-0.00008557,-0.00077866,-0.00118230,0.00018515,0.0005232
 4,-0.00045555,-0.00186299,0.00034056,0.00020587,0.00040696,-0.00071742
 ,-0.00046309,-0.00001961,0.00006349,0.00009668,0.00098189,0.02520197,0
 .00746495,0.00013777,0.00049407,0.00014046,0.00117818,0.00037710,0.000
 21462,-0.00018106,0.00024203,0.00004974,-0.00002545,-0.00002318,0.0000
 1459,0.00000884,0.00000421,0.00000337,0.00000323,0.00000179,-0.0000028
 8,-0.00000016,-0.00000110,-0.00000170,-0.00000676,0.00000093,-0.000004
 55,-0.00000156,-0.00000066,-0.00000299,0.00000110,-0.00000327,0.000004
 14,0.00000385,0.00000109,-0.00000047,-0.00001594,0.00000381,-0.0000213
 8,0.00000159,0.00000058,0.00000167,0.00000431,-0.00000054,0.00000765,0
 .00000094,0.00000018,0.00000039,0.00005962,0.00000330,-0.00003221,-0.0
 0000698,-0.00000379,0.00000253,-0.00001653,0.00000165,0.00001195,-0.00
 000811,0.00000412,0.00000289,0.00000036,0.00000934,-0.00000425,-0.0000
 0077,0.00000193,0.00000059,0.00000030,0.00000002,-0.00000151,0.0000011
 8,-0.00000342,0.00000390,-0.00005052,-0.00007216,-0.00006109,0.0000115
 9,0.00001145,0.00001463,-0.00000438,-0.00000580,-0.00000234,0.00000056
 ,-0.00000029,-0.00000057,0.00000312,-0.00000145,0.00000210,0.00000011,
 0.00000269,0.00000188,-0.00001121,-0.00000125,-0.00001313,0.00000126,0
 .00000461,0.00000185,-0.00000281,-0.00000397,-0.00000044,0.00000209,0.
 00000050,0.00000076,0.00111595,-0.00034181,0.00034679,-0.00032083,0.00
 026761,-0.00001173,-0.00035009,-0.00004236,-0.00005970,-0.00026416,0.0
 0010543,-0.00026837,-0.00147833,-0.02280790,-0.07772124,-0.02249564,-0
 .03879277,-0.00756073,0.00243035,0.08231607,0.09245318,-0.00023363,-0.
 00028163,0.00002439,-0.00002735,0.00007554,0.00007825,-0.00012935,0.00
 005101,-0.00000113,0.00005452,-0.00000227,-0.00002465,-0.00009874,0.00
 020878,-0.00002930,0.00001551,0.00001576,-0.00000324,-0.00001084,0.000
 01449,-0.00001324,0.00001898,0.00000175,-0.00000894,-0.00000102,-0.000
 02211,-0.00000791,0.00004414,-0.00002176,-0.00003655,0.00007633,-0.000
 06435,0.00001424,0.00004193,-0.00003119,-0.00003911,0.00012002,0.00000
 973,-0.00006051,0.00056030,0.00028966,-0.00030365,0.00012743,-0.000424
 75,-0.00001750,-0.00008168,0.00006566,0.00014435,0.00001535,0.00000341
 ,-0.00002400,0.00001038,-0.00005599,-0.00003787,0.00001573,-0.00019176
 ,-0.00016610,-0.00004280,-0.00010241,0.00006999,0.00002211,0.00006765,
 -0.00006609,-0.00002549,0.00000375,0.00007746,0.00001622,-0.00002016,-
 0.00000064,-0.00071589,-0.00088269,0.00057705,0.00011324,0.00023379,0.
 00005192,0.00008115,0.00017767,-0.00001309,0.00027027,-0.00052224,-0.0
 0097939,0.00022218,0.00052485,0.00013330,-0.00014874,0.00009374,0.0001
 7441,0.00000588,-0.00000922,-0.00001767,-0.00006117,-0.00006133,-0.000
 07046,0.00006802,0.00001341,-0.00004532,-0.00002445,0.00003552,-0.0000
 3352,0.00030185,0.00051578,0.00007353,0.00007493,-0.00002885,-0.000030
 20,0.00010676,-0.00005616,-0.00001018,-0.00001801,0.00001889,-0.000003
 51,-0.00000510,0.00001072,0.00002791,0.00000932,-0.00000862,-0.0000097
 5,0.00002490,-0.00001175,-0.00004658,-0.00001763,-0.00000102,0.0000011
 2,-0.00020893,-0.00023710,0.00011984,-0.00029254,-0.00019155,0.0005165
 9,-0.00009203,-0.00009028,0.00006113,-0.00011647,-0.00000798,0.0000718
 1,-0.00012958,0.00004834,-0.00000583,0.00047854,0.00015210,0.00001452,
 -0.00007320,0.00000114,0.00001448,0.00006802,-0.00012586,0.00019687,-0
 .00023842,-0.00006072,-0.00022399,0.00127216,0.00073219,-0.00049059,-0
 .00030408,-0.00059026,-0.00009459,-0.00054701,-0.00014342,0.00004219,-
 0.00036910,-0.00069717,-0.00025903,0.00034204,0.00004886,0.00020726,0.
 00153463,-0.00070702,0.00216365,0.00087697,-0.00112859,0.00058922,0.00
 013376,0.00012924,0.00003723,-0.00862584,0.00263114,0.01638174,0.00053
 581,0.00071214,-0.00039503,-0.00279202,-0.00044305,-0.00234910,0.00177
 008,0.00072370,0.00069822,0.00007308,0.00005754,-0.00003232,-0.0000139
 1,-0.00000409,-0.00000543,-0.00001307,-0.00000152,0.00000593,-0.000003
 66,-0.00000806,0.00000752,0.00002446,-0.00002897,-0.00004898,0.0000055
 2,0.00000500,0.00000345,0.00000211,0.00000542,0.00000699,-0.00001289,-
 0.00000005,0.00000716,0.00008864,-0.00001768,0.00004475,-0.00001596,-0
 .00000771,-0.00000146,0.00000413,-0.00000154,-0.00000445,-0.00000657,0
 .00000820,-0.00000184,0.00005237,-0.00007874,0.00013213,-0.00002113,-0
 .00000664,-0.00002161,0.00000258,0.00002220,0.00000661,-0.00000367,0.0
 0002389,-0.00001075,-0.00000707,0.00000494,0.00000043,0.00000076,-0.00
 000416,-0.00000279,0.00000398,0.00000225,0.00000218,-0.00000120,0.0000
 0106,0.00000038,0.00003602,0.00013104,0.00002137,-0.00000387,-0.000032
 81,0.00000123,0.00000113,0.00002207,-0.00001128,-0.00000160,-0.0000018
 2,0.00000248,-0.00000161,0.00000141,0.00000069,-0.00000087,-0.00000679
 ,-0.00000191,0.00000445,0.00000706,0.00000454,-0.00000022,-0.00000747,
 -0.00000095,0.00001386,0.00001267,-0.00000100,-0.00000191,-0.00000196,
 0.00000174,-0.00120567,0.00005648,0.00004038,0.00036983,-0.00025155,-0
 .00005677,0.00039355,0.00013748,-0.00004262,0.00026100,-0.00006431,0.0
 0016197,-0.17758969,0.01449418,0.10304096,-0.08188316,0.00267227,0.014
 53336,-0.00477841,0.02900889,0.02071189,0.27023030,0.00025672,0.000334
 87,-0.00005520,-0.00005870,0.00000949,-0.00000678,0.00007748,0.0001008
 6,0.00004257,-0.00002097,0.00006648,0.00000077,0.00005300,-0.00005826,
 0.00007939,-0.00001275,-0.00002694,0.00000388,0.00000784,0.00001535,-0
 .00000032,-0.00003312,-0.00004395,-0.00000107,-0.00000081,-0.00001126,
 -0.00000581,0.00001478,-0.00000612,-0.00000794,-0.00004994,-0.00003571
 ,-0.00001278,-0.00003048,-0.00010908,-0.00002056,-0.00002365,-0.000109
 28,-0.00001014,-0.00016159,-0.00037229,-0.00010227,-0.00011542,0.00008
 844,-0.00005859,0.00002665,-0.00002701,0.00002397,0.00000036,0.0000055
 9,-0.00001231,-0.00002213,-0.00001962,-0.00000459,-0.00005655,-0.00001
 836,-0.00002047,0.00001318,0.00013013,-0.00000573,-0.00000180,0.000006
 12,0.00000165,-0.00005727,0.00002409,0.00002105,0.00001878,-0.00002838
 ,-0.00000098,0.00072525,0.00065611,-0.00028686,-0.00012786,-0.00026312
 ,-0.00007177,-0.00014787,-0.00034385,-0.00006929,-0.00076543,-0.001751
 30,-0.00036410,0.00003919,-0.00009865,0.00002100,0.00001255,-0.0000385
 9,-0.00002224,-0.00001558,0.00000265,0.00000304,-0.00000457,0.00000506
 ,-0.00001707,0.00003148,-0.00002288,-0.00000347,0.00000102,-0.00000879
 ,-0.00001892,0.00016950,0.00001877,0.00024696,0.00007122,-0.00013692,0
 .00002118,0.00001151,-0.00000770,0.00000452,0.00001027,-0.00000199,-0.
 00000281,-0.00000659,-0.00000166,0.00000906,0.00000590,-0.00000656,-0.
 00000490,-0.00000536,-0.00000475,0.00001393,0.00000191,0.00000109,0.00
 000109,-0.00008809,0.00013881,-0.00010921,-0.00026346,-0.00006824,0.00
 034477,-0.00005146,-0.00000387,0.00001066,-0.00002892,0.00002101,0.000
 01110,-0.00002260,0.00004113,-0.00000418,-0.00005109,-0.00003208,-0.00
 000456,-0.00001161,0.00000948,-0.00000822,0.00001664,-0.00000911,-0.00
 000666,0.00002958,0.00004940,-0.00000040,0.00131655,0.00018635,-0.0004
 0957,-0.00037840,-0.00035529,-0.00002556,-0.00053784,0.00007631,-0.000
 08321,0.00010295,-0.00139660,0.00036361,-0.00061789,-0.00027560,0.0003
 8423,0.00141020,0.00056376,0.00114425,-0.00013093,-0.00000479,-0.00040
 646,-0.00001826,0.00004902,0.00001787,-0.01216317,0.00900947,0.0146298
 0,-0.00006396,0.00040885,0.00009505,-0.00005747,-0.00038404,0.00093816
 ,-0.00015269,-0.00032011,0.00046685,0.00002795,0.00001844,-0.00001898,
 -0.00000615,-0.00000340,-0.00000118,-0.00000667,-0.00000058,0.00000526
 ,-0.00000047,-0.00000092,0.00000060,0.00000674,-0.00001448,-0.00001432
 ,-0.00000176,0.00000447,0.00000080,-0.00000012,-0.00000009,0.00000090,
 -0.00000181,0.00000113,0.00000226,0.00000705,-0.00000471,0.00001005,0.
 00000098,0.00000193,-0.00000214,-0.00000203,-0.00000223,-0.00000349,-0
 .00000545,0.00000285,0.00000067,-0.00001019,-0.00001206,0.00001312,0.0
 0000613,0.00000336,0.00000067,0.00000481,-0.00000798,-0.00000335,-0.00
 000587,0.00000471,0.00000090,0.00002580,0.00005668,-0.00000524,-0.0000
 0024,-0.00000977,-0.00000436,-0.00000924,-0.00000470,0.00000139,-0.000
 00321,-0.00000759,0.00000707,0.00006804,0.00005614,0.00000004,-0.00001
 345,-0.00001360,0.00000156,0.00000549,0.00000999,-0.00000738,-0.000003
 66,-0.00000089,0.00000215,-0.00000096,0.00000016,-0.00000204,0.0000003
 0,-0.00000171,-0.00000014,0.00001048,0.00000071,0.00000529,-0.00000046
 ,-0.00000155,-0.00000079,0.00000814,0.00000425,-0.00000138,-0.00000423
 ,-0.00000181,0.00000267,-0.00079206,0.00007987,-0.00043813,0.00022251,
 -0.00012023,0.00005530,0.00026912,0.00007778,0.00007267,0.00016060,-0.
 00003496,0.00023845,0.01508046,-0.07553918,-0.01148533,0.00137291,0.01
 200026,0.00147461,0.04205764,-0.03311638,-0.04641292,-0.04653533,0.090
 96014,0.00033021,0.00047396,-0.00002878,-0.00008213,-0.00007172,-0.000
 20383,0.00009969,-0.00004870,-0.00000011,-0.00006649,0.00008418,-0.000
 04922,0.00005532,-0.00011783,-0.00014120,-0.00001718,-0.00004079,0.000
 01449,0.00001882,-0.00003020,0.00001397,-0.00002990,-0.00001740,0.0000
 1840,-0.00000742,0.00001357,0.00001804,-0.00003128,0.00003567,0.000020
 35,-0.00003371,0.00001150,0.00008129,-0.00002715,0.00002349,0.00006508
 ,0.00004762,0.00007749,0.00020730,-0.00050615,-0.00064142,0.00043940,-
 0.00012822,-0.00000784,0.00013971,0.00013664,-0.00008247,-0.00023891,-
 0.00000089,-0.00000596,0.00005696,-0.00002834,0.00005900,0.00006032,-0
 .00004158,0.00022852,0.00029882,-0.00003180,-0.00005182,-0.00016711,-0
 .00002492,-0.00009063,0.00010418,0.00004126,-0.00004204,-0.00013344,-0
 .00001448,0.00003430,0.00001314,0.00137489,0.00114447,-0.00069184,-0.0
 0015436,-0.00025854,-0.00000506,-0.00019298,-0.00044719,-0.00001515,-0
 .00099464,-0.00055377,0.00044565,0.00003645,-0.00001857,0.00000003,0.0
 0004277,-0.00005297,-0.00009103,-0.00005631,-0.00003161,-0.00000784,0.
 00002775,0.00001829,0.00003143,-0.00010311,0.00000931,0.00001214,0.000
 02393,0.00000184,0.00003909,-0.00056195,-0.00047025,-0.00068397,-0.000
 16130,0.00013873,-0.00008111,-0.00006854,0.00003362,0.00000343,0.00000
 904,-0.00001544,-0.00002259,0.00002359,-0.00001232,-0.00003947,-0.0000
 2028,0.00002063,0.00002389,-0.00001315,0.00001552,0.00002307,0.0000204
 5,0.00000278,-0.00000151,0.00025677,-0.00002645,0.00018910,0.00081125,
 0.00037265,-0.00107869,0.00014299,0.00007420,-0.00002703,0.00011451,-0
 .00000866,-0.00003371,0.00011775,-0.00006784,0.00003212,-0.00007799,-0
 .00004403,-0.00010870,0.00001498,0.00000195,0.00001375,0.00001547,0.00
 002157,-0.00002872,0.00005574,0.00000967,0.00019272,-0.00351568,-0.001
 18420,0.00078761,0.00089468,0.00129263,0.00027342,0.00150766,0.0000348
 7,0.00025049,0.00183550,0.00209604,-0.00049508,0.00034272,0.00038432,-
 0.00065655,-0.00449539,0.00162702,-0.00608830,0.00011644,0.00050502,-0
 .00001777,-0.00004122,-0.00008068,-0.00003645,0.03854832,-0.00106107,-
 0.02707753,-0.00009311,-0.00057674,0.00003925,0.00185270,0.00012937,0.
 00018787,-0.00015607,-0.00009243,-0.00148431,-0.00008850,-0.00007281,0
 .00004726,0.00002244,0.00000916,0.00000743,0.00001570,0.00000345,-0.00
 000952,0.00000218,0.00000466,-0.00000735,-0.00002589,0.00002593,0.0000
 3364,-0.00000418,-0.00000583,-0.00000557,-0.00000025,-0.00000662,-0.00
 000065,0.00001317,0.00000049,-0.00000623,-0.00007577,0.00001617,-0.000
 05517,0.00001154,0.00000513,0.00000318,0.00000296,0.00000067,0.0000121
 2,0.00000710,-0.00000604,0.00000194,0.00003661,0.00005318,-0.00011874,
 0.00000529,-0.00000011,0.00001577,-0.00001983,-0.00001144,0.00000981,-
 0.00000701,-0.00001051,0.00001033,0.00000401,0.00000592,-0.00000495,-0
 .00000181,0.00000548,0.00000252,-0.00000170,-0.00000161,-0.00000350,0.
 00000215,-0.00000499,0.00000449,-0.00010586,-0.00020054,-0.00009975,0.
 00001960,0.00003941,0.00001663,-0.00000692,-0.00002424,0.00000685,0.00
 000258,0.00000124,-0.00000278,0.00000492,-0.00000289,0.00000250,0.0000
 0080,0.00000834,0.00000343,-0.00001900,-0.00000622,-0.00002025,0.00000
 196,0.00001112,0.00000302,-0.00001449,-0.00001453,0.00000029,0.0000047
 5,0.00000228,-0.00000067,0.00228014,-0.00055871,0.00069812,-0.00071179
 ,0.00056088,-0.00000322,-0.00074765,-0.00013277,-0.00010838,-0.0004810
 9,0.00017055,-0.00055137,0.09569090,-0.00889590,-0.17576858,-0.0008439
 0,0.00153813,0.02194344,0.02302708,-0.03508035,-0.01349942,-0.15513841
 ,0.03984935,0.20308185\\-0.00000120,-0.00000017,-0.00000140,-0.0000010
 6,-0.00000086,-0.00000164,-0.00000132,-0.00000039,-0.00000179,-0.00000
 159,0.00000053,-0.00000068,-0.00000118,0.00000034,-0.00000074,-0.00000
 119,-0.00000082,-0.00000196,-0.00000043,-0.00000089,-0.00000141,-0.000
 00175,-0.00000012,-0.00000172,-0.00000213,0.00000070,-0.00000103,-0.00
 000064,0.00000020,-0.00000044,-0.00000144,-0.00000013,-0.00000124,-0.0
 0000241,-0.00000022,-0.00000224,-0.00000094,-0.00000133,-0.00000236,-0
 .00000091,-0.00000062,-0.00000131,-0.00000153,0.00000082,-0.00000048,-
 0.00000129,0.00000084,-0.00000034,-0.00000161,0.00000139,0.00000020,-0
 .00000184,0.00000124,-0.00000021,-0.00000083,0.00000100,0.00000040,-0.
 00000051,-0.00000172,-0.00000244,-0.00000011,-0.00000197,-0.00000231,-
 0.00000038,-0.00000145,-0.00000211,-0.00000067,-0.00000211,-0.00000296
 ,-0.00000122,-0.00000038,-0.00000146,-0.00000157,0.00000012,-0.0000012
 3,-0.00000150,-0.00000061,-0.00000204,-0.00000084,-0.00000057,-0.00000
 138,-0.00000110,0.00000095,0.00000010,-0.00000071,0.00000061,0.0000000
 4,-0.00000077,0.00000105,0.00000053,-0.00000142,0.00000131,0.00000024,
 0.00000122,0.00000065,0.00000187,0.00000076,0.00000051,0.00000112,0.00
 000053,0.00000048,0.00000091,0.00000111,0.00000069,0.00000157,0.000000
 98,0.00000118,0.00000206,0.00000010,0.00000001,0.00000025,-0.00000002,
 0.00000092,0.00000123,0.00000168,0.00000019,0.00000176,0.00000149,0.00
 000033,0.00000159,0.00000048,0.00000150,0.00000217,0.00000044,0.000000
 28,0.00000101,0.00000180,-0.00000164,-0.00000028,0.00000075,0.00000021
 ,0.00000075,0.00000127,0.00000101,0.00000223,0.00000160,0.00000115,0.0
 0000273,0.00000068,0.00000108,0.00000185,0.00000104,0.00000119,0.00000
 227,0.00000048,0.00000082,0.00000142,0.00000002,0.00000168,0.00000190,
 0.00000124,-0.00000099,-0.00000009,0.00000043,-0.00000094,-0.00000070,
 0.00000134,-0.00000068,0.00000039,0.00000118,-0.00000148,-0.00000053,0
 .00000145,-0.00000215,-0.00000102,0.00000108,-0.00000100,-0.00000028,0
 .00000139,-0.00000222,-0.00000140,0.00000157,-0.00000238,-0.00000123,0
 .00000120,-0.00000146,-0.00000044,0.00000085,-0.00000061,0.00000023,0.
 00000114,-0.00000183,-0.00000117,0.00000114,-0.00000212,-0.00000130,0.
 00000061,0.00000040,0.00000099,0.00000028,0.00000081,0.00000117,0.0000
 0117,0.00000035,0.00000142,0.00000066,0.,0.00000074,0.00000195,0.00000
 084,0.00000268,0.00000225,0.00000087,0.00000296,0.00000222,0.00000035,
 0.00000235,0.00000192,0.00000113,0.00000297,0.00000137,0.00000181,0.00
 000324,0.00000126,0.00000202,0.00000334,0.00000100,0.00000208,0.000003
 18,0.00000185,0.00000183,0.00000369,-0.00000022,0.00000202,0.00000204,
 -0.00000070,0.00000242,0.00000210,-0.00000033,0.00000175,0.00000168,0.
 00000012,0.00000211,0.00000252,-0.00000253,-0.00000010,-0.00000235,-0.
 00000304,0.,-0.00000268,-0.00000254,0.00000030,-0.00000189,-0.00000231
 ,-0.00000048,-0.00000256,-0.00000018,-0.00000030,-0.00000028,-0.000000
 79,0.00000062,-0.00000059,-0.00000076,-0.00000007,-0.00000070,-0.00000
 058,0.00000012,-0.00000040,-0.00000047,-0.00000051,-0.00000104,-0.0000
 0135,0.00000010,-0.00000109,-0.00000122,0.00000082,-0.00000001,-0.0000
 0171,0.00000105,-0.00000033,-0.00000100,0.00000101,0.00000019,-0.00000
 097,0.00000107,0.00000036,0.00000150,-0.00000288,-0.00000199,0.0000009
 9,-0.00000304,-0.00000251,0.00000179,-0.00000313,-0.00000203,0.0000020
 4,-0.00000328,-0.00000186,0.00000095,-0.00000091,-0.00000019,0.0000005
 4,-0.00000032,0.00000003,0.00000144,-0.00000099,0.00000013,0.00000048,
 -0.00000098,-0.00000074\\\@


 When cryptography is outlawed, bayl bhgynjf jvyy unir cevinpl.
 Job cpu time:       4 days  8 hours  8 minutes  0.7 seconds.
 Elapsed time:       0 days  3 hours 18 minutes 58.5 seconds.
 File lengths (MBytes):  RWF=   9789 Int=      0 D2E=      0 Chk=    109 Scr=      1
 Normal termination of Gaussian 16 at Wed Jun  5 20:38:05 2019.
