 Entering Gaussian System, Link 0=g16
 Input=clay_new-glu_gluC6-bisCF3-sm-m062x_d3-631gd-pcm_thf.gjf
 Output=clay_new-glu_gluC6-bisCF3-sm-m062x_d3-631gd-pcm_thf.out
 Initial command:
 /home/ekwan/sw/g16/l1.exe "/scratch/users/ekwan/clay_new-glu_gluC6-bisCF3-sm-m062x_d3-631gd-pcm_thf/Gau-20282.inp" -scrdir="/scratch/users/ekwan/clay_new-glu_gluC6-bisCF3-sm-m062x_d3-631gd-pcm_thf/"
 Entering Link 1 = /home/ekwan/sw/g16/l1.exe PID=     20283.
  
 Copyright (c) 1988,1990,1992,1993,1995,1998,2003,2009,2016,
            Gaussian, Inc.  All Rights Reserved.
  
 This is part of the Gaussian(R) 16 program.  It is based on
 the Gaussian(R) 09 system (copyright 2009, Gaussian, Inc.),
 the Gaussian(R) 03 system (copyright 2003, Gaussian, Inc.),
 the Gaussian(R) 98 system (copyright 1998, Gaussian, Inc.),
 the Gaussian(R) 94 system (copyright 1995, Gaussian, Inc.),
 the Gaussian 92(TM) system (copyright 1992, Gaussian, Inc.),
 the Gaussian 90(TM) system (copyright 1990, Gaussian, Inc.),
 the Gaussian 88(TM) system (copyright 1988, Gaussian, Inc.),
 the Gaussian 86(TM) system (copyright 1986, Carnegie Mellon
 University), and the Gaussian 82(TM) system (copyright 1983,
 Carnegie Mellon University). Gaussian is a federally registered
 trademark of Gaussian, Inc.
  
 This software contains proprietary and confidential information,
 including trade secrets, belonging to Gaussian, Inc.
  
 This software is provided under written license and may be
 used, copied, transmitted, or stored only in accord with that
 written license.
  
 The following legend is applicable only to US Government
 contracts under FAR:
  
                    RESTRICTED RIGHTS LEGEND
  
 Use, reproduction and disclosure by the US Government is
 subject to restrictions as set forth in subparagraphs (a)
 and (c) of the Commercial Computer Software - Restricted
 Rights clause in FAR 52.227-19.
  
 Gaussian, Inc.
 340 Quinnipiac St., Bldg. 40, Wallingford CT 06492
  
  
 ---------------------------------------------------------------
 Warning -- This program may not be used in any manner that
 competes with the business of Gaussian, Inc. or will provide
 assistance to any competitor of Gaussian, Inc.  The licensee
 of this program is prohibited from giving any competitor of
 Gaussian, Inc. access to this program.  By using this program,
 the user acknowledges that Gaussian, Inc. is engaged in the
 business of creating and licensing software in the field of
 computational chemistry and represents and warrants to the
 licensee that it is not a competitor of Gaussian, Inc. and that
 it will not use this program in any manner prohibited above.
 ---------------------------------------------------------------
  

 Cite this work as:
 Gaussian 16, Revision A.03,
 M. J. Frisch, G. W. Trucks, H. B. Schlegel, G. E. Scuseria, 
 M. A. Robb, J. R. Cheeseman, G. Scalmani, V. Barone, 
 G. A. Petersson, H. Nakatsuji, X. Li, M. Caricato, A. V. Marenich, 
 J. Bloino, B. G. Janesko, R. Gomperts, B. Mennucci, H. P. Hratchian, 
 J. V. Ortiz, A. F. Izmaylov, J. L. Sonnenberg, D. Williams-Young, 
 F. Ding, F. Lipparini, F. Egidi, J. Goings, B. Peng, A. Petrone, 
 T. Henderson, D. Ranasinghe, V. G. Zakrzewski, J. Gao, N. Rega, 
 G. Zheng, W. Liang, M. Hada, M. Ehara, K. Toyota, R. Fukuda, 
 J. Hasegawa, M. Ishida, T. Nakajima, Y. Honda, O. Kitao, H. Nakai, 
 T. Vreven, K. Throssell, J. A. Montgomery, Jr., J. E. Peralta, 
 F. Ogliaro, M. J. Bearpark, J. J. Heyd, E. N. Brothers, K. N. Kudin, 
 V. N. Staroverov, T. A. Keith, R. Kobayashi, J. Normand, 
 K. Raghavachari, A. P. Rendell, J. C. Burant, S. S. Iyengar, 
 J. Tomasi, M. Cossi, J. M. Millam, M. Klene, C. Adamo, R. Cammi, 
 J. W. Ochterski, R. L. Martin, K. Morokuma, O. Farkas, 
 J. B. Foresman, and D. J. Fox, Gaussian, Inc., Wallingford CT, 2016.
 
 ******************************************
 Gaussian 16:  AS64L-G16RevA.03 25-Dec-2016
                 9-Jun-2019 
 ******************************************
 %nprocshared=64
 Will use up to   64 processors via shared memory.
 %mem=96GB
 ----------------------------------------------------------------------
 #p opt freq=noraman 6-31g(d) scrf=(solvent=tetrahydrofuran,pcm) pop=no
 ne empiricaldispersion=gd3 m062x
 ----------------------------------------------------------------------
 1/18=20,19=15,26=3,38=1/1,3;
 2/9=110,12=2,17=6,18=5,40=1/2;
 3/5=1,6=6,7=1,11=2,25=1,30=1,70=2201,71=1,72=20,74=-55,124=31/1,2,3;
 4//1;
 5/5=2,38=5,53=20/2;
 7//1,2,3,16;
 1/18=20,19=15,26=3/3(2);
 2/9=110/2;
 99//99;
 2/9=110/2;
 3/5=1,6=6,7=1,11=2,25=1,30=1,70=2205,71=1,72=20,74=-55,124=31/1,2,3;
 4/5=5,16=3,69=1/1;
 5/5=2,38=5,53=20/2;
 7//1,2,3,16;
 1/18=20,19=15,26=3/3(-5);
 2/9=110/2;
 99/9=1/99;
 Leave Link    1 at Sun Jun  9 23:17:37 2019, MaxMem= 12884901888 cpu:              16.5 elap:               0.3
 (Enter /home/ekwan/sw/g16/l101.exe)
 -----
 title
 -----
 Symbolic Z-matrix:
 Charge =  0 Multiplicity = 1
 C                     3.36875   0.36038   0.60348 
 C                     3.30291  -0.49708  -0.65783 
 C                     1.84865  -0.81775  -1.02834 
 C                     1.01486   1.09855   0.10835 
 C                     2.42473   1.54942   0.48196 
 H                     1.76936  -1.30588  -2.00125 
 H                     3.71117   0.08947  -1.49829 
 H                     3.05838  -0.24838   1.46609 
 H                     0.6042    0.49104   0.92869 
 H                     2.79876   2.21736  -0.30671 
 O                     1.044     0.30791  -1.08953 
 O                     1.38117  -1.74039  -0.01431 
 O                     4.06702  -1.65095  -0.44244 
 O                     4.67123   0.86274   0.7944 
 O                     2.34167   2.22884   1.71326 
 C                     0.08293   2.28251  -0.11403 
 H                    -0.15394   2.70673   0.86465 
 H                    -0.84582   1.92322  -0.58085 
 O                     0.64394   3.32881  -0.87006 
 S                     0.09747  -2.65429  -0.3559 
 O                     0.07052  -3.65168   0.68914 
 O                     0.15483  -3.02148  -1.75799 
 C                    -1.26593  -1.54184  -0.11796 
 C                    -1.7376   -1.33256   1.17309 
 C                    -1.80252  -0.88828  -1.21965 
 C                    -2.77892  -0.42898   1.35461 
 H                    -1.30304  -1.86455   2.01348 
 C                    -2.84429   0.0085   -1.00857 
 H                    -1.41465  -1.07596  -2.21554 
 C                    -3.33481   0.24582   0.27165 
 H                    -4.14478   0.95168   0.42481 
 C                     4.18726  -2.48805  -1.57744 
 H                     3.25012  -3.0188   -1.78925 
 H                     4.48356  -1.91171  -2.46372 
 H                     4.96134  -3.22118  -1.3492 
 C                     5.45259   0.11893   1.71212 
 H                     6.42307   0.61466   1.77232 
 H                     4.98782   0.11887   2.70661 
 H                     5.58745  -0.91316   1.37551 
 C                     2.99646   3.48547   1.7137 
 H                     2.86106   3.91234   2.70904 
 H                     4.06565   3.36781   1.50811 
 H                     2.54934   4.15271   0.96661 
 C                     0.76543   3.0451   -2.25189 
 H                     0.95312   3.99495  -2.75575 
 H                    -0.16067   2.60276  -2.64107 
 H                     1.59318   2.35658  -2.45642 
 C                    -3.35383  -0.21312   2.72923 
 F                    -2.46533  -0.50619   3.68498 
 F                    -4.43033  -0.98428   2.9325 
 F                    -3.74076   1.05724   2.89913 
 C                    -3.38957   0.79091  -2.17211 
 F                    -2.69899   1.93066  -2.35248 
 F                    -4.66772   1.13283  -1.98144 
 F                    -3.3093    0.09754  -3.31218 
 
 ITRead=  0  0  0  0  0  0  0  0  0  0  0  0  0  0  0  0  0  0  0  0
 ITRead=  0  0  0  0  0  0  0  0  0  0  0  0  0  0  0  0  0  0  0  0
 ITRead=  0  0  0  0  0  0  0  0  0  0  0  0  0  0  0
 MicOpt= -1 -1 -1 -1 -1 -1 -1 -1 -1 -1 -1 -1 -1 -1 -1 -1 -1 -1 -1 -1
 MicOpt= -1 -1 -1 -1 -1 -1 -1 -1 -1 -1 -1 -1 -1 -1 -1 -1 -1 -1 -1 -1
 MicOpt= -1 -1 -1 -1 -1 -1 -1 -1 -1 -1 -1 -1 -1 -1 -1
 NAtoms=     55 NQM=       55 NQMF=       0 NMMI=      0 NMMIF=      0
                NMic=       0 NMicF=      0.
                    Isotopes and Nuclear Properties:
 (Nuclear quadrupole moments (NQMom) in fm**2, nuclear magnetic moments (NMagM)
  in nuclear magnetons)

  Atom         1           2           3           4           5           6           7           8           9          10
 IAtWgt=          12          12          12          12          12           1           1           1           1           1
 AtmWgt=  12.0000000  12.0000000  12.0000000  12.0000000  12.0000000   1.0078250   1.0078250   1.0078250   1.0078250   1.0078250
 NucSpn=           0           0           0           0           0           1           1           1           1           1
 AtZEff=   0.0000000   0.0000000   0.0000000   0.0000000   0.0000000   0.0000000   0.0000000   0.0000000   0.0000000   0.0000000
 NQMom=    0.0000000   0.0000000   0.0000000   0.0000000   0.0000000   0.0000000   0.0000000   0.0000000   0.0000000   0.0000000
 NMagM=    0.0000000   0.0000000   0.0000000   0.0000000   0.0000000   2.7928460   2.7928460   2.7928460   2.7928460   2.7928460
 AtZNuc=   6.0000000   6.0000000   6.0000000   6.0000000   6.0000000   1.0000000   1.0000000   1.0000000   1.0000000   1.0000000

  Atom        11          12          13          14          15          16          17          18          19          20
 IAtWgt=          16          16          16          16          16          12           1           1          16          32
 AtmWgt=  15.9949146  15.9949146  15.9949146  15.9949146  15.9949146  12.0000000   1.0078250   1.0078250  15.9949146  31.9720718
 NucSpn=           0           0           0           0           0           0           1           1           0           0
 AtZEff=   0.0000000   0.0000000   0.0000000   0.0000000   0.0000000   0.0000000   0.0000000   0.0000000   0.0000000   0.0000000
 NQMom=    0.0000000   0.0000000   0.0000000   0.0000000   0.0000000   0.0000000   0.0000000   0.0000000   0.0000000   0.0000000
 NMagM=    0.0000000   0.0000000   0.0000000   0.0000000   0.0000000   0.0000000   2.7928460   2.7928460   0.0000000   0.0000000
 AtZNuc=   8.0000000   8.0000000   8.0000000   8.0000000   8.0000000   6.0000000   1.0000000   1.0000000   8.0000000  16.0000000

  Atom        21          22          23          24          25          26          27          28          29          30
 IAtWgt=          16          16          12          12          12          12           1          12           1          12
 AtmWgt=  15.9949146  15.9949146  12.0000000  12.0000000  12.0000000  12.0000000   1.0078250  12.0000000   1.0078250  12.0000000
 NucSpn=           0           0           0           0           0           0           1           0           1           0
 AtZEff=   0.0000000   0.0000000   0.0000000   0.0000000   0.0000000   0.0000000   0.0000000   0.0000000   0.0000000   0.0000000
 NQMom=    0.0000000   0.0000000   0.0000000   0.0000000   0.0000000   0.0000000   0.0000000   0.0000000   0.0000000   0.0000000
 NMagM=    0.0000000   0.0000000   0.0000000   0.0000000   0.0000000   0.0000000   2.7928460   0.0000000   2.7928460   0.0000000
 AtZNuc=   8.0000000   8.0000000   6.0000000   6.0000000   6.0000000   6.0000000   1.0000000   6.0000000   1.0000000   6.0000000

  Atom        31          32          33          34          35          36          37          38          39          40
 IAtWgt=           1          12           1           1           1          12           1           1           1          12
 AtmWgt=   1.0078250  12.0000000   1.0078250   1.0078250   1.0078250  12.0000000   1.0078250   1.0078250   1.0078250  12.0000000
 NucSpn=           1           0           1           1           1           0           1           1           1           0
 AtZEff=   0.0000000   0.0000000   0.0000000   0.0000000   0.0000000   0.0000000   0.0000000   0.0000000   0.0000000   0.0000000
 NQMom=    0.0000000   0.0000000   0.0000000   0.0000000   0.0000000   0.0000000   0.0000000   0.0000000   0.0000000   0.0000000
 NMagM=    2.7928460   0.0000000   2.7928460   2.7928460   2.7928460   0.0000000   2.7928460   2.7928460   2.7928460   0.0000000
 AtZNuc=   1.0000000   6.0000000   1.0000000   1.0000000   1.0000000   6.0000000   1.0000000   1.0000000   1.0000000   6.0000000

  Atom        41          42          43          44          45          46          47          48          49          50
 IAtWgt=           1           1           1          12           1           1           1          12          19          19
 AtmWgt=   1.0078250   1.0078250   1.0078250  12.0000000   1.0078250   1.0078250   1.0078250  12.0000000  18.9984033  18.9984033
 NucSpn=           1           1           1           0           1           1           1           0           1           1
 AtZEff=   0.0000000   0.0000000   0.0000000   0.0000000   0.0000000   0.0000000   0.0000000   0.0000000   0.0000000   0.0000000
 NQMom=    0.0000000   0.0000000   0.0000000   0.0000000   0.0000000   0.0000000   0.0000000   0.0000000   0.0000000   0.0000000
 NMagM=    2.7928460   2.7928460   2.7928460   0.0000000   2.7928460   2.7928460   2.7928460   0.0000000   2.6288670   2.6288670
 AtZNuc=   1.0000000   1.0000000   1.0000000   6.0000000   1.0000000   1.0000000   1.0000000   6.0000000   9.0000000   9.0000000

  Atom        51          52          53          54          55
 IAtWgt=          19          12          19          19          19
 AtmWgt=  18.9984033  12.0000000  18.9984033  18.9984033  18.9984033
 NucSpn=           1           0           1           1           1
 AtZEff=   0.0000000   0.0000000   0.0000000   0.0000000   0.0000000
 NQMom=    0.0000000   0.0000000   0.0000000   0.0000000   0.0000000
 NMagM=    2.6288670   0.0000000   2.6288670   2.6288670   2.6288670
 AtZNuc=   9.0000000   6.0000000   9.0000000   9.0000000   9.0000000
 Leave Link  101 at Sun Jun  9 23:17:38 2019, MaxMem= 12884901888 cpu:              36.8 elap:               0.6
 (Enter /home/ekwan/sw/g16/l103.exe)

 GradGradGradGradGradGradGradGradGradGradGradGradGradGradGradGradGradGrad
 Berny optimization.
 Initialization pass.
                           ----------------------------
                           !    Initial Parameters    !
                           ! (Angstroms and Degrees)  !
 --------------------------                            --------------------------
 ! Name  Definition              Value          Derivative Info.                !
 --------------------------------------------------------------------------------
 ! R1    R(1,2)                  1.5266         estimate D2E/DX2                !
 ! R2    R(1,5)                  1.5231         estimate D2E/DX2                !
 ! R3    R(1,8)                  1.1005         estimate D2E/DX2                !
 ! R4    R(1,14)                 1.409          estimate D2E/DX2                !
 ! R5    R(2,3)                  1.5346         estimate D2E/DX2                !
 ! R6    R(2,7)                  1.1032         estimate D2E/DX2                !
 ! R7    R(2,13)                 1.4006         estimate D2E/DX2                !
 ! R8    R(3,6)                  1.0914         estimate D2E/DX2                !
 ! R9    R(3,11)                 1.385          estimate D2E/DX2                !
 ! R10   R(3,12)                 1.4485         estimate D2E/DX2                !
 ! R11   R(4,5)                  1.5266         estimate D2E/DX2                !
 ! R12   R(4,9)                  1.1003         estimate D2E/DX2                !
 ! R13   R(4,11)                 1.4356         estimate D2E/DX2                !
 ! R14   R(4,16)                 1.5231         estimate D2E/DX2                !
 ! R15   R(5,10)                 1.0991         estimate D2E/DX2                !
 ! R16   R(5,15)                 1.4088         estimate D2E/DX2                !
 ! R17   R(12,20)                1.6124         estimate D2E/DX2                !
 ! R18   R(13,32)                1.4154         estimate D2E/DX2                !
 ! R19   R(14,36)                1.4163         estimate D2E/DX2                !
 ! R20   R(15,40)                1.417          estimate D2E/DX2                !
 ! R21   R(16,17)                1.0927         estimate D2E/DX2                !
 ! R22   R(16,18)                1.0998         estimate D2E/DX2                !
 ! R23   R(16,19)                1.4075         estimate D2E/DX2                !
 ! R24   R(19,44)                1.4159         estimate D2E/DX2                !
 ! R25   R(20,21)                1.4449         estimate D2E/DX2                !
 ! R26   R(20,22)                1.4505         estimate D2E/DX2                !
 ! R27   R(20,23)                1.7757         estimate D2E/DX2                !
 ! R28   R(23,24)                1.3904         estimate D2E/DX2                !
 ! R29   R(23,25)                1.3888         estimate D2E/DX2                !
 ! R30   R(24,26)                1.3906         estimate D2E/DX2                !
 ! R31   R(24,27)                1.0854         estimate D2E/DX2                !
 ! R32   R(25,28)                1.3907         estimate D2E/DX2                !
 ! R33   R(25,29)                1.0851         estimate D2E/DX2                !
 ! R34   R(26,30)                1.3918         estimate D2E/DX2                !
 ! R35   R(26,48)                1.5056         estimate D2E/DX2                !
 ! R36   R(28,30)                1.3914         estimate D2E/DX2                !
 ! R37   R(28,52)                1.5044         estimate D2E/DX2                !
 ! R38   R(30,31)                1.0852         estimate D2E/DX2                !
 ! R39   R(32,33)                1.0976         estimate D2E/DX2                !
 ! R40   R(32,34)                1.0979         estimate D2E/DX2                !
 ! R41   R(32,35)                1.0903         estimate D2E/DX2                !
 ! R42   R(36,37)                1.0914         estimate D2E/DX2                !
 ! R43   R(36,38)                1.0977         estimate D2E/DX2                !
 ! R44   R(36,39)                1.0939         estimate D2E/DX2                !
 ! R45   R(40,41)                1.0914         estimate D2E/DX2                !
 ! R46   R(40,42)                1.0951         estimate D2E/DX2                !
 ! R47   R(40,43)                1.0969         estimate D2E/DX2                !
 ! R48   R(44,45)                1.0915         estimate D2E/DX2                !
 ! R49   R(44,46)                1.0976         estimate D2E/DX2                !
 ! R50   R(44,47)                1.0959         estimate D2E/DX2                !
 ! R51   R(48,49)                1.3375         estimate D2E/DX2                !
 ! R52   R(48,50)                1.3397         estimate D2E/DX2                !
 ! R53   R(48,51)                1.3388         estimate D2E/DX2                !
 ! R54   R(52,53)                1.3448         estimate D2E/DX2                !
 ! R55   R(52,54)                1.3368         estimate D2E/DX2                !
 ! R56   R(52,55)                1.3368         estimate D2E/DX2                !
 ! A1    A(2,1,5)              110.2333         estimate D2E/DX2                !
 ! A2    A(2,1,8)              108.9514         estimate D2E/DX2                !
 ! A3    A(2,1,14)             110.6149         estimate D2E/DX2                !
 ! A4    A(5,1,8)              108.6383         estimate D2E/DX2                !
 ! A5    A(5,1,14)             107.7839         estimate D2E/DX2                !
 ! A6    A(8,1,14)             110.5934         estimate D2E/DX2                !
 ! A7    A(1,2,3)              110.9606         estimate D2E/DX2                !
 ! A8    A(1,2,7)              108.3516         estimate D2E/DX2                !
 ! A9    A(1,2,13)             108.1888         estimate D2E/DX2                !
 ! A10   A(3,2,7)              106.1322         estimate D2E/DX2                !
 ! A11   A(3,2,13)             112.4562         estimate D2E/DX2                !
 ! A12   A(7,2,13)             110.6881         estimate D2E/DX2                !
 ! A13   A(2,3,6)              112.1809         estimate D2E/DX2                !
 ! A14   A(2,3,11)             113.0407         estimate D2E/DX2                !
 ! A15   A(2,3,12)             105.6598         estimate D2E/DX2                !
 ! A16   A(6,3,11)             106.3745         estimate D2E/DX2                !
 ! A17   A(6,3,12)             108.4055         estimate D2E/DX2                !
 ! A18   A(11,3,12)            111.1689         estimate D2E/DX2                !
 ! A19   A(5,4,9)              108.9827         estimate D2E/DX2                !
 ! A20   A(5,4,11)             110.3721         estimate D2E/DX2                !
 ! A21   A(5,4,16)             111.7917         estimate D2E/DX2                !
 ! A22   A(9,4,11)             109.0021         estimate D2E/DX2                !
 ! A23   A(9,4,16)             108.0407         estimate D2E/DX2                !
 ! A24   A(11,4,16)            108.5853         estimate D2E/DX2                !
 ! A25   A(1,5,4)              111.1845         estimate D2E/DX2                !
 ! A26   A(1,5,10)             108.7085         estimate D2E/DX2                !
 ! A27   A(1,5,15)             110.0791         estimate D2E/DX2                !
 ! A28   A(4,5,10)             108.5512         estimate D2E/DX2                !
 ! A29   A(4,5,15)             107.5709         estimate D2E/DX2                !
 ! A30   A(10,5,15)            110.7405         estimate D2E/DX2                !
 ! A31   A(3,11,4)             114.9952         estimate D2E/DX2                !
 ! A32   A(3,12,20)            118.0128         estimate D2E/DX2                !
 ! A33   A(2,13,32)            114.221          estimate D2E/DX2                !
 ! A34   A(1,14,36)            114.2385         estimate D2E/DX2                !
 ! A35   A(5,15,40)            113.6239         estimate D2E/DX2                !
 ! A36   A(4,16,17)            107.6782         estimate D2E/DX2                !
 ! A37   A(4,16,18)            108.9494         estimate D2E/DX2                !
 ! A38   A(4,16,19)            114.3564         estimate D2E/DX2                !
 ! A39   A(17,16,18)           108.902          estimate D2E/DX2                !
 ! A40   A(17,16,19)           106.1952         estimate D2E/DX2                !
 ! A41   A(18,16,19)           110.5758         estimate D2E/DX2                !
 ! A42   A(16,19,44)           114.1719         estimate D2E/DX2                !
 ! A43   A(12,20,21)           104.6479         estimate D2E/DX2                !
 ! A44   A(12,20,22)           108.4687         estimate D2E/DX2                !
 ! A45   A(12,20,23)           103.1684         estimate D2E/DX2                !
 ! A46   A(21,20,22)           121.677          estimate D2E/DX2                !
 ! A47   A(21,20,23)           108.7372         estimate D2E/DX2                !
 ! A48   A(22,20,23)           108.5713         estimate D2E/DX2                !
 ! A49   A(20,23,24)           118.6335         estimate D2E/DX2                !
 ! A50   A(20,23,25)           119.0245         estimate D2E/DX2                !
 ! A51   A(24,23,25)           122.3239         estimate D2E/DX2                !
 ! A52   A(23,24,26)           118.2323         estimate D2E/DX2                !
 ! A53   A(23,24,27)           120.6217         estimate D2E/DX2                !
 ! A54   A(26,24,27)           121.1459         estimate D2E/DX2                !
 ! A55   A(23,25,28)           118.195          estimate D2E/DX2                !
 ! A56   A(23,25,29)           120.5665         estimate D2E/DX2                !
 ! A57   A(28,25,29)           121.2385         estimate D2E/DX2                !
 ! A58   A(24,26,30)           120.8337         estimate D2E/DX2                !
 ! A59   A(24,26,48)           119.887          estimate D2E/DX2                !
 ! A60   A(30,26,48)           119.235          estimate D2E/DX2                !
 ! A61   A(25,28,30)           120.9134         estimate D2E/DX2                !
 ! A62   A(25,28,52)           119.3064         estimate D2E/DX2                !
 ! A63   A(30,28,52)           119.6787         estimate D2E/DX2                !
 ! A64   A(26,30,28)           119.5004         estimate D2E/DX2                !
 ! A65   A(26,30,31)           120.24           estimate D2E/DX2                !
 ! A66   A(28,30,31)           120.2596         estimate D2E/DX2                !
 ! A67   A(13,32,33)           111.6036         estimate D2E/DX2                !
 ! A68   A(13,32,34)           111.0862         estimate D2E/DX2                !
 ! A69   A(13,32,35)           106.8648         estimate D2E/DX2                !
 ! A70   A(33,32,34)           109.1761         estimate D2E/DX2                !
 ! A71   A(33,32,35)           108.7487         estimate D2E/DX2                !
 ! A72   A(34,32,35)           109.2899         estimate D2E/DX2                !
 ! A73   A(14,36,37)           106.724          estimate D2E/DX2                !
 ! A74   A(14,36,38)           110.6994         estimate D2E/DX2                !
 ! A75   A(14,36,39)           111.3527         estimate D2E/DX2                !
 ! A76   A(37,36,38)           109.058          estimate D2E/DX2                !
 ! A77   A(37,36,39)           109.6262         estimate D2E/DX2                !
 ! A78   A(38,36,39)           109.3234         estimate D2E/DX2                !
 ! A79   A(15,40,41)           106.8462         estimate D2E/DX2                !
 ! A80   A(15,40,42)           110.8433         estimate D2E/DX2                !
 ! A81   A(15,40,43)           110.5409         estimate D2E/DX2                !
 ! A82   A(41,40,42)           109.5319         estimate D2E/DX2                !
 ! A83   A(41,40,43)           109.4291         estimate D2E/DX2                !
 ! A84   A(42,40,43)           109.6001         estimate D2E/DX2                !
 ! A85   A(19,44,45)           106.9127         estimate D2E/DX2                !
 ! A86   A(19,44,46)           110.7567         estimate D2E/DX2                !
 ! A87   A(19,44,47)           111.8908         estimate D2E/DX2                !
 ! A88   A(45,44,46)           109.3973         estimate D2E/DX2                !
 ! A89   A(45,44,47)           109.3109         estimate D2E/DX2                !
 ! A90   A(46,44,47)           108.5359         estimate D2E/DX2                !
 ! A91   A(26,48,49)           111.5528         estimate D2E/DX2                !
 ! A92   A(26,48,50)           111.2749         estimate D2E/DX2                !
 ! A93   A(26,48,51)           111.2399         estimate D2E/DX2                !
 ! A94   A(49,48,50)           107.4121         estimate D2E/DX2                !
 ! A95   A(49,48,51)           108.0129         estimate D2E/DX2                !
 ! A96   A(50,48,51)           107.1397         estimate D2E/DX2                !
 ! A97   A(28,52,53)           111.0006         estimate D2E/DX2                !
 ! A98   A(28,52,54)           111.6704         estimate D2E/DX2                !
 ! A99   A(28,52,55)           111.5975         estimate D2E/DX2                !
 ! A100  A(53,52,54)           107.059          estimate D2E/DX2                !
 ! A101  A(53,52,55)           107.1204         estimate D2E/DX2                !
 ! A102  A(54,52,55)           108.1637         estimate D2E/DX2                !
 ! D1    D(5,1,2,3)            -49.6573         estimate D2E/DX2                !
 ! D2    D(5,1,2,7)             66.4822         estimate D2E/DX2                !
 ! D3    D(5,1,2,13)          -173.4662         estimate D2E/DX2                !
 ! D4    D(8,1,2,3)             69.4665         estimate D2E/DX2                !
 ! D5    D(8,1,2,7)           -174.3939         estimate D2E/DX2                !
 ! D6    D(8,1,2,13)           -54.3424         estimate D2E/DX2                !
 ! D7    D(14,1,2,3)          -168.764          estimate D2E/DX2                !
 ! D8    D(14,1,2,7)           -52.6244         estimate D2E/DX2                !
 ! D9    D(14,1,2,13)           67.4271         estimate D2E/DX2                !
 ! D10   D(2,1,5,4)             52.4752         estimate D2E/DX2                !
 ! D11   D(2,1,5,10)           -66.9635         estimate D2E/DX2                !
 ! D12   D(2,1,5,15)           171.5784         estimate D2E/DX2                !
 ! D13   D(8,1,5,4)            -66.8392         estimate D2E/DX2                !
 ! D14   D(8,1,5,10)           173.7221         estimate D2E/DX2                !
 ! D15   D(8,1,5,15)            52.2641         estimate D2E/DX2                !
 ! D16   D(14,1,5,4)           173.2922         estimate D2E/DX2                !
 ! D17   D(14,1,5,10)           53.8535         estimate D2E/DX2                !
 ! D18   D(14,1,5,15)          -67.6046         estimate D2E/DX2                !
 ! D19   D(2,1,14,36)          -98.0578         estimate D2E/DX2                !
 ! D20   D(5,1,14,36)          141.3646         estimate D2E/DX2                !
 ! D21   D(8,1,14,36)           22.7403         estimate D2E/DX2                !
 ! D22   D(1,2,3,6)            171.7806         estimate D2E/DX2                !
 ! D23   D(1,2,3,11)            51.4998         estimate D2E/DX2                !
 ! D24   D(1,2,3,12)           -70.2883         estimate D2E/DX2                !
 ! D25   D(7,2,3,6)             54.2785         estimate D2E/DX2                !
 ! D26   D(7,2,3,11)           -66.0022         estimate D2E/DX2                !
 ! D27   D(7,2,3,12)           172.2097         estimate D2E/DX2                !
 ! D28   D(13,2,3,6)           -66.8853         estimate D2E/DX2                !
 ! D29   D(13,2,3,11)          172.8339         estimate D2E/DX2                !
 ! D30   D(13,2,3,12)           51.0458         estimate D2E/DX2                !
 ! D31   D(1,2,13,32)         -174.9199         estimate D2E/DX2                !
 ! D32   D(3,2,13,32)           62.1758         estimate D2E/DX2                !
 ! D33   D(7,2,13,32)          -56.3437         estimate D2E/DX2                !
 ! D34   D(2,3,11,4)           -56.3064         estimate D2E/DX2                !
 ! D35   D(6,3,11,4)          -179.8502         estimate D2E/DX2                !
 ! D36   D(12,3,11,4)           62.3302         estimate D2E/DX2                !
 ! D37   D(2,3,12,20)         -159.7026         estimate D2E/DX2                !
 ! D38   D(6,3,12,20)          -39.2711         estimate D2E/DX2                !
 ! D39   D(11,3,12,20)          77.3107         estimate D2E/DX2                !
 ! D40   D(9,4,5,1)             64.7048         estimate D2E/DX2                !
 ! D41   D(9,4,5,10)          -175.7627         estimate D2E/DX2                !
 ! D42   D(9,4,5,15)           -55.8888         estimate D2E/DX2                !
 ! D43   D(11,4,5,1)           -54.9677         estimate D2E/DX2                !
 ! D44   D(11,4,5,10)           64.5648         estimate D2E/DX2                !
 ! D45   D(11,4,5,15)         -175.5612         estimate D2E/DX2                !
 ! D46   D(16,4,5,1)          -175.9391         estimate D2E/DX2                !
 ! D47   D(16,4,5,10)          -56.4066         estimate D2E/DX2                !
 ! D48   D(16,4,5,15)           63.4674         estimate D2E/DX2                !
 ! D49   D(5,4,11,3)            57.6689         estimate D2E/DX2                !
 ! D50   D(9,4,11,3)           -61.9918         estimate D2E/DX2                !
 ! D51   D(16,4,11,3)         -179.4666         estimate D2E/DX2                !
 ! D52   D(5,4,16,17)          -73.8287         estimate D2E/DX2                !
 ! D53   D(5,4,16,18)          168.2072         estimate D2E/DX2                !
 ! D54   D(5,4,16,19)           43.9216         estimate D2E/DX2                !
 ! D55   D(9,4,16,17)           46.0819         estimate D2E/DX2                !
 ! D56   D(9,4,16,18)          -71.8823         estimate D2E/DX2                !
 ! D57   D(9,4,16,19)          163.8322         estimate D2E/DX2                !
 ! D58   D(11,4,16,17)         164.168          estimate D2E/DX2                !
 ! D59   D(11,4,16,18)          46.2039         estimate D2E/DX2                !
 ! D60   D(11,4,16,19)         -78.0816         estimate D2E/DX2                !
 ! D61   D(1,5,15,40)          108.1686         estimate D2E/DX2                !
 ! D62   D(4,5,15,40)         -130.5436         estimate D2E/DX2                !
 ! D63   D(10,5,15,40)         -12.0696         estimate D2E/DX2                !
 ! D64   D(3,12,20,21)         167.3165         estimate D2E/DX2                !
 ! D65   D(3,12,20,22)          36.0518         estimate D2E/DX2                !
 ! D66   D(3,12,20,23)         -78.9716         estimate D2E/DX2                !
 ! D67   D(2,13,32,33)         -72.9824         estimate D2E/DX2                !
 ! D68   D(2,13,32,34)          49.1135         estimate D2E/DX2                !
 ! D69   D(2,13,32,35)         168.248          estimate D2E/DX2                !
 ! D70   D(1,14,36,37)        -179.5382         estimate D2E/DX2                !
 ! D71   D(1,14,36,38)         -60.9827         estimate D2E/DX2                !
 ! D72   D(1,14,36,39)          60.8558         estimate D2E/DX2                !
 ! D73   D(5,15,40,41)         179.7921         estimate D2E/DX2                !
 ! D74   D(5,15,40,42)         -60.9286         estimate D2E/DX2                !
 ! D75   D(5,15,40,43)          60.8051         estimate D2E/DX2                !
 ! D76   D(4,16,19,44)          73.6016         estimate D2E/DX2                !
 ! D77   D(17,16,19,44)       -167.8048         estimate D2E/DX2                !
 ! D78   D(18,16,19,44)        -49.8127         estimate D2E/DX2                !
 ! D79   D(16,19,44,45)        165.3022         estimate D2E/DX2                !
 ! D80   D(16,19,44,46)         46.1936         estimate D2E/DX2                !
 ! D81   D(16,19,44,47)        -75.0493         estimate D2E/DX2                !
 ! D82   D(12,20,23,24)        -81.8521         estimate D2E/DX2                !
 ! D83   D(12,20,23,25)         96.6368         estimate D2E/DX2                !
 ! D84   D(21,20,23,24)         28.8559         estimate D2E/DX2                !
 ! D85   D(21,20,23,25)       -152.6553         estimate D2E/DX2                !
 ! D86   D(22,20,23,24)        163.1983         estimate D2E/DX2                !
 ! D87   D(22,20,23,25)        -18.3129         estimate D2E/DX2                !
 ! D88   D(20,23,24,26)        178.0826         estimate D2E/DX2                !
 ! D89   D(20,23,24,27)         -2.0684         estimate D2E/DX2                !
 ! D90   D(25,23,24,26)         -0.3537         estimate D2E/DX2                !
 ! D91   D(25,23,24,27)        179.4954         estimate D2E/DX2                !
 ! D92   D(20,23,25,28)       -178.1612         estimate D2E/DX2                !
 ! D93   D(20,23,25,29)          1.7953         estimate D2E/DX2                !
 ! D94   D(24,23,25,28)          0.2692         estimate D2E/DX2                !
 ! D95   D(24,23,25,29)       -179.7743         estimate D2E/DX2                !
 ! D96   D(23,24,26,30)          0.0986         estimate D2E/DX2                !
 ! D97   D(23,24,26,48)        177.6586         estimate D2E/DX2                !
 ! D98   D(27,24,26,30)       -179.7496         estimate D2E/DX2                !
 ! D99   D(27,24,26,48)         -2.1896         estimate D2E/DX2                !
 ! D100  D(23,25,28,30)          0.0723         estimate D2E/DX2                !
 ! D101  D(23,25,28,52)        176.3972         estimate D2E/DX2                !
 ! D102  D(29,25,28,30)       -179.8839         estimate D2E/DX2                !
 ! D103  D(29,25,28,52)         -3.559          estimate D2E/DX2                !
 ! D104  D(24,26,30,28)          0.2281         estimate D2E/DX2                !
 ! D105  D(24,26,30,31)       -179.7748         estimate D2E/DX2                !
 ! D106  D(48,26,30,28)       -177.3476         estimate D2E/DX2                !
 ! D107  D(48,26,30,31)          2.6495         estimate D2E/DX2                !
 ! D108  D(24,26,48,49)         25.2035         estimate D2E/DX2                !
 ! D109  D(24,26,48,50)        -94.7345         estimate D2E/DX2                !
 ! D110  D(24,26,48,51)        145.8824         estimate D2E/DX2                !
 ! D111  D(30,26,48,49)       -157.1974         estimate D2E/DX2                !
 ! D112  D(30,26,48,50)         82.8645         estimate D2E/DX2                !
 ! D113  D(30,26,48,51)        -36.5185         estimate D2E/DX2                !
 ! D114  D(25,28,30,26)         -0.3161         estimate D2E/DX2                !
 ! D115  D(25,28,30,31)        179.6869         estimate D2E/DX2                !
 ! D116  D(52,28,30,26)       -176.6273         estimate D2E/DX2                !
 ! D117  D(52,28,30,31)          3.3756         estimate D2E/DX2                !
 ! D118  D(25,28,52,53)        -87.6108         estimate D2E/DX2                !
 ! D119  D(25,28,52,54)        153.0053         estimate D2E/DX2                !
 ! D120  D(25,28,52,55)         31.8023         estimate D2E/DX2                !
 ! D121  D(30,28,52,53)         88.76           estimate D2E/DX2                !
 ! D122  D(30,28,52,54)        -30.6238         estimate D2E/DX2                !
 ! D123  D(30,28,52,55)       -151.8268         estimate D2E/DX2                !
 --------------------------------------------------------------------------------
 Trust Radius=3.00D-01 FncErr=1.00D-07 GrdErr=1.00D-06 EigMax=2.50D+02 EigMin=1.00D-04
 Number of steps in this run=    291 maximum allowed number of steps=    330.
 GradGradGradGradGradGradGradGradGradGradGradGradGradGradGradGradGradGrad

 Leave Link  103 at Sun Jun  9 23:17:38 2019, MaxMem= 12884901888 cpu:               5.6 elap:               0.1
 (Enter /home/ekwan/sw/g16/l202.exe)
 Stoichiometry    C18H22F6O8S
 Framework group  C1[X(C18H22F6O8S)]
 Deg. of freedom   159
 Full point group                 C1      NOp   1
 Largest Abelian subgroup         C1      NOp   1
 Largest concise Abelian subgroup C1      NOp   1
                         Standard orientation:                         
 ---------------------------------------------------------------------
 Center     Atomic      Atomic             Coordinates (Angstroms)
 Number     Number       Type             X           Y           Z
 ---------------------------------------------------------------------
      1          6           0        3.368754    0.360381    0.603482
      2          6           0        3.302911   -0.497083   -0.657829
      3          6           0        1.848646   -0.817754   -1.028339
      4          6           0        1.014855    1.098549    0.108351
      5          6           0        2.424730    1.549418    0.481962
      6          1           0        1.769361   -1.305883   -2.001250
      7          1           0        3.711171    0.089470   -1.498292
      8          1           0        3.058383   -0.248380    1.466093
      9          1           0        0.604197    0.491042    0.928689
     10          1           0        2.798763    2.217360   -0.306705
     11          8           0        1.043998    0.307905   -1.089527
     12          8           0        1.381167   -1.740393   -0.014306
     13          8           0        4.067018   -1.650954   -0.442440
     14          8           0        4.671228    0.862737    0.794401
     15          8           0        2.341672    2.228835    1.713255
     16          6           0        0.082929    2.282507   -0.114032
     17          1           0       -0.153939    2.706727    0.864651
     18          1           0       -0.845817    1.923217   -0.580849
     19          8           0        0.643937    3.328807   -0.870064
     20         16           0        0.097473   -2.654287   -0.355904
     21          8           0        0.070522   -3.651675    0.689137
     22          8           0        0.154833   -3.021476   -1.757993
     23          6           0       -1.265929   -1.541835   -0.117963
     24          6           0       -1.737595   -1.332561    1.173094
     25          6           0       -1.802515   -0.888275   -1.219653
     26          6           0       -2.778918   -0.428975    1.354612
     27          1           0       -1.303035   -1.864547    2.013476
     28          6           0       -2.844285    0.008500   -1.008566
     29          1           0       -1.414646   -1.075959   -2.215535
     30          6           0       -3.334812    0.245818    0.271649
     31          1           0       -4.144777    0.951681    0.424805
     32          6           0        4.187258   -2.488050   -1.577443
     33          1           0        3.250116   -3.018801   -1.789254
     34          1           0        4.483562   -1.911706   -2.463721
     35          1           0        4.961344   -3.221182   -1.349200
     36          6           0        5.452591    0.118931    1.712116
     37          1           0        6.423073    0.614660    1.772324
     38          1           0        4.987819    0.118866    2.706606
     39          1           0        5.587448   -0.913155    1.375510
     40          6           0        2.996455    3.485469    1.713697
     41          1           0        2.861063    3.912336    2.709040
     42          1           0        4.065650    3.367808    1.508112
     43          1           0        2.549342    4.152707    0.966610
     44          6           0        0.765427    3.045102   -2.251886
     45          1           0        0.953119    3.994953   -2.755750
     46          1           0       -0.160666    2.602755   -2.641072
     47          1           0        1.593179    2.356581   -2.456421
     48          6           0       -3.353832   -0.213121    2.729227
     49          9           0       -2.465329   -0.506192    3.684977
     50          9           0       -4.430329   -0.984279    2.932502
     51          9           0       -3.740760    1.057242    2.899131
     52          6           0       -3.389571    0.790910   -2.172108
     53          9           0       -2.698990    1.930660   -2.352476
     54          9           0       -4.667721    1.132828   -1.981435
     55          9           0       -3.309302    0.097539   -3.312180
 ---------------------------------------------------------------------
 Rotational constants (GHZ):           0.1519710           0.0861476           0.0841954
 Leave Link  202 at Sun Jun  9 23:17:38 2019, MaxMem= 12884901888 cpu:               8.8 elap:               0.2
 (Enter /home/ekwan/sw/g16/l301.exe)
 Standard basis: 6-31G(d) (6D, 7F)
 Ernie: Thresh=  0.10000D-02 Tol=  0.10000D-05 Strict=F.
 There are   543 symmetry adapted cartesian basis functions of A   symmetry.
 There are   543 symmetry adapted basis functions of A   symmetry.
   543 basis functions,  1036 primitive gaussians,   543 cartesian basis functions
   132 alpha electrons      132 beta electrons
       nuclear repulsion energy      4370.9250638886 Hartrees.
 IExCor= 4336 DFT=T Ex+Corr=M062X ExCW=0 ScaHFX=  0.540000
 ScaDFX=  1.000000  1.000000  1.000000  1.000000 ScalE2=  1.000000  1.000000
 IRadAn=      5 IRanWt=     -1 IRanGd=            0 ICorTp=0 IEmpDi=131
 NAtoms=   55 NActive=   55 NUniq=   55 SFac= 1.00D+00 NAtFMM=   60 NAOKFM=F Big=F
 Integral buffers will be    131072 words long.
 Raffenetti 2 integral format.
 Two-electron integral symmetry is turned on.
 R6Disp:  Grimme-D3 Dispersion energy=       -0.0059159702 Hartrees.
 Nuclear repulsion after empirical dispersion term =     4370.9191479184 Hartrees.
 ------------------------------------------------------------------------------
 Polarizable Continuum Model (PCM)
 =================================
 Model                : PCM.
 Atomic radii         : UFF (Universal Force Field).
 Polarization charges : Total charges.
 Charge compensation  : None.
 Solution method      : On-the-fly selection.
 Cavity type          : Scaled VdW (van der Waals Surface) (Alpha=1.100).
 Cavity algorithm     : GePol (No added spheres)
                        Default sphere list used, NSphG=   55.
                        Lebedev-Laikov grids with approx.  5.0 points / Ang**2.
                        Smoothing algorithm: York/Karplus (Gamma=1.0000).
                        Polarization charges: spherical gaussians, with
                                              point-specific exponents (IZeta= 3).
                        Self-potential: point-specific (ISelfS= 7).
                        Self-field    : sphere-specific E.n sum rule (ISelfD= 2).
 1st derivatives      : Analytical E(r).r(x)/FMM algorithm (CHGder, D1EAlg=3).
                        Cavity 1st derivative terms included.
 Solvent              : TetraHydroFuran, Eps=   7.425700 Eps(inf)=   1.974025
 ------------------------------------------------------------------------------
 GePol: Number of generator spheres                  =      55
 GePol: Total number of spheres                      =      55
 GePol: Number of exposed spheres                    =      55 (100.00%)
 GePol: Number of points                             =    3896
 GePol: Average weight of points                     =       0.12
 GePol: Minimum weight of points                     =   0.24D-09
 GePol: Maximum weight of points                     =    0.20577
 GePol: Number of points with low weight             =     266
 GePol: Fraction of low-weight points (<1% of avg)   =       6.83%
 GePol: Cavity surface area                          =    485.842 Ang**2
 GePol: Cavity volume                                =    569.940 Ang**3
 Leave Link  301 at Sun Jun  9 23:17:39 2019, MaxMem= 12884901888 cpu:              15.4 elap:               0.3
 (Enter /home/ekwan/sw/g16/l302.exe)
 NPDir=0 NMtPBC=     1 NCelOv=     1 NCel=       1 NClECP=     1 NCelD=      1
         NCelK=      1 NCelE2=     1 NClLst=     1 CellRange=     0.0.
 One-electron integrals computed using PRISM.
 One-electron integral symmetry used in STVInt
 NBasis=   543 RedAO= T EigKep=  4.10D-04  NBF=   543
 NBsUse=   543 1.00D-06 EigRej= -1.00D+00 NBFU=   543
 Precomputing XC quadrature grid using
 IXCGrd= 4 IRadAn=           5 IRanWt=          -1 IRanGd=           0 AccXCQ= 0.00D+00.
 Generated NRdTot=       0 NPtTot=           0 NUsed=           0 NTot=          32
 NSgBfM=   531   531   531   531   531 MxSgAt=    55 MxSgA2=    55.
 Leave Link  302 at Sun Jun  9 23:17:45 2019, MaxMem= 12884901888 cpu:             390.8 elap:               6.5
 (Enter /home/ekwan/sw/g16/l303.exe)
 DipDrv:  MaxL=1.
 Leave Link  303 at Sun Jun  9 23:17:46 2019, MaxMem= 12884901888 cpu:              23.6 elap:               0.5
 (Enter /home/ekwan/sw/g16/l401.exe)
 ExpMin= 1.17D-01 ExpMax= 2.19D+04 ExpMxC= 3.30D+03 IAcc=3 IRadAn=         5 AccDes= 0.00D+00
 Harris functional with IExCor= 1009 and IRadAn=       5 diagonalized for initial guess.
 HarFok:  IExCor= 1009 AccDes= 0.00D+00 IRadAn=         5 IDoV= 1 UseB2=F ITyADJ=14
 ICtDFT=  3500011 ScaDFX=  1.000000  1.000000  1.000000  1.000000
 FoFCou: FMM=F IPFlag=           0 FMFlag=      100000 FMFlg1=           0
         NFxFlg=           0 DoJE=T BraDBF=F KetDBF=T FulRan=T
         wScrn=  0.000000 ICntrl=       500 IOpCl=  0 I1Cent=   200000004 NGrid=           0
         NMat0=    1 NMatS0=      1 NMatT0=    0 NMatD0=    1 NMtDS0=    0 NMtDT0=    0
 Petite list used in FoFCou.
 Harris En= -2296.15030660341    
 JPrj=0 DoOrth=F DoCkMO=F.
 Leave Link  401 at Sun Jun  9 23:17:50 2019, MaxMem= 12884901888 cpu:             247.4 elap:               4.0
 (Enter /home/ekwan/sw/g16/l502.exe)
 Integral symmetry usage will be decided dynamically.
 Closed shell SCF:
 Using DIIS extrapolation, IDIIS=  1040.
 NGot= 12884901888 LenX= 12884271583 LenY= 12883976191
 Requested convergence on RMS density matrix=1.00D-08 within 128 cycles.
 Requested convergence on MAX density matrix=1.00D-06.
 Requested convergence on             energy=1.00D-06.
 No special actions if energy rises.
 Fock matrices will be formed incrementally for  20 cycles.

 Cycle   1  Pass 1  IDiag  1:
 FoFJK:  IHMeth= 1 ICntrl=       0 DoSepK=F KAlg= 0 I1Cent=           0 FoldK=F
 IRaf= 710000000 NMat=       1 IRICut=       1 DoRegI=T DoRafI=F ISym2E= 0 IDoP0=0 IntGTp=1.
 FoFCou: FMM=F IPFlag=           0 FMFlag=      100000 FMFlg1=           0
         NFxFlg=           0 DoJE=F BraDBF=F KetDBF=F FulRan=T
         wScrn=  0.000000 ICntrl=         0 IOpCl=  0 I1Cent=           0 NGrid=           0
         NMat0=    1 NMatS0=      1 NMatT0=    0 NMatD0=    1 NMtDS0=    0 NMtDT0=    0
 Symmetry not used in FoFCou.
 Inv3:  Mode=1 IEnd=    45536448.
 Iteration    1 A*A^-1 deviation from unit magnitude is 4.66D-15 for   3875.
 Iteration    1 A*A^-1 deviation from orthogonality  is 2.26D-15 for   2970    331.
 Iteration    1 A^-1*A deviation from unit magnitude is 4.88D-15 for   3886.
 Iteration    1 A^-1*A deviation from orthogonality  is 1.42D-14 for   2988   2970.
 E= -2296.69473355302    
 DIIS: error= 2.34D-02 at cycle   1 NSaved=   1.
 NSaved= 1 IEnMin= 1 EnMin= -2296.69473355302     IErMin= 1 ErrMin= 2.34D-02
 ErrMax= 2.34D-02  0.00D+00 EMaxC= 1.00D-01 BMatC= 9.26D-01 BMatP= 9.26D-01
 IDIUse=3 WtCom= 7.66D-01 WtEn= 2.34D-01
 Coeff-Com:  0.100D+01
 Coeff-En:   0.100D+01
 Coeff:      0.100D+01
 Gap=     0.280 Goal=   None    Shift=    0.000
 GapD=    0.280 DampG=1.000 DampE=0.500 DampFc=0.5000 IDamp=-1.
 Damping current iteration by 5.00D-01
 RMSDP=2.92D-03 MaxDP=3.73D-01              OVMax= 1.47D-01

 Cycle   2  Pass 1  IDiag  1:
 RMSU=  1.46D-03    CP:  9.95D-01
 E= -2297.00350077658     Delta-E=       -0.308767223556 Rises=F Damp=T
 DIIS: error= 1.01D-02 at cycle   2 NSaved=   2.
 NSaved= 2 IEnMin= 2 EnMin= -2297.00350077658     IErMin= 2 ErrMin= 1.01D-02
 ErrMax= 1.01D-02  0.00D+00 EMaxC= 1.00D-01 BMatC= 8.41D-02 BMatP= 9.26D-01
 IDIUse=3 WtCom= 8.99D-01 WtEn= 1.01D-01
 Coeff-Com: -0.223D-01 0.102D+01
 Coeff-En:   0.208D-02 0.998D+00
 Coeff:     -0.199D-01 0.102D+01
 Gap=     0.302 Goal=   None    Shift=    0.000
 RMSDP=8.30D-04 MaxDP=9.46D-02 DE=-3.09D-01 OVMax= 1.02D-01

 Cycle   3  Pass 1  IDiag  1:
 RMSU=  8.15D-04    CP:  9.89D-01  9.12D-01
 E= -2297.33058451336     Delta-E=       -0.327083736784 Rises=F Damp=F
 DIIS: error= 7.31D-03 at cycle   3 NSaved=   3.
 NSaved= 3 IEnMin= 3 EnMin= -2297.33058451336     IErMin= 3 ErrMin= 7.31D-03
 ErrMax= 7.31D-03  0.00D+00 EMaxC= 1.00D-01 BMatC= 3.86D-02 BMatP= 8.41D-02
 IDIUse=3 WtCom= 9.27D-01 WtEn= 7.31D-02
 Coeff-Com: -0.937D-01 0.415D+00 0.679D+00
 Coeff-En:   0.000D+00 0.000D+00 0.100D+01
 Coeff:     -0.869D-01 0.385D+00 0.702D+00
 Gap=     0.272 Goal=   None    Shift=    0.000
 RMSDP=4.65D-04 MaxDP=4.54D-02 DE=-3.27D-01 OVMax= 4.23D-02

 Cycle   4  Pass 1  IDiag  1:
 RMSU=  2.94D-04    CP:  9.91D-01  1.04D+00  6.30D-01
 E= -2297.35403643071     Delta-E=       -0.023451917348 Rises=F Damp=F
 DIIS: error= 2.35D-03 at cycle   4 NSaved=   4.
 NSaved= 4 IEnMin= 4 EnMin= -2297.35403643071     IErMin= 4 ErrMin= 2.35D-03
 ErrMax= 2.35D-03  0.00D+00 EMaxC= 1.00D-01 BMatC= 8.12D-03 BMatP= 3.86D-02
 IDIUse=3 WtCom= 9.77D-01 WtEn= 2.35D-02
 Coeff-Com: -0.404D-01 0.100D+00 0.367D+00 0.574D+00
 Coeff-En:   0.000D+00 0.000D+00 0.159D+00 0.841D+00
 Coeff:     -0.395D-01 0.979D-01 0.362D+00 0.580D+00
 Gap=     0.274 Goal=   None    Shift=    0.000
 RMSDP=1.75D-04 MaxDP=1.27D-02 DE=-2.35D-02 OVMax= 1.59D-02

 Cycle   5  Pass 1  IDiag  1:
 RMSU=  6.54D-05    CP:  9.91D-01  1.03D+00  7.51D-01  5.72D-01
 E= -2297.36051132651     Delta-E=       -0.006474895801 Rises=F Damp=F
 DIIS: error= 4.80D-04 at cycle   5 NSaved=   5.
 NSaved= 5 IEnMin= 5 EnMin= -2297.36051132651     IErMin= 5 ErrMin= 4.80D-04
 ErrMax= 4.80D-04  0.00D+00 EMaxC= 1.00D-01 BMatC= 2.81D-04 BMatP= 8.12D-03
 IDIUse=3 WtCom= 9.95D-01 WtEn= 4.80D-03
 Coeff-Com: -0.123D-01 0.239D-01 0.118D+00 0.251D+00 0.619D+00
 Coeff-En:   0.000D+00 0.000D+00 0.000D+00 0.000D+00 0.100D+01
 Coeff:     -0.123D-01 0.238D-01 0.117D+00 0.250D+00 0.621D+00
 Gap=     0.274 Goal=   None    Shift=    0.000
 RMSDP=3.14D-05 MaxDP=2.18D-03 DE=-6.47D-03 OVMax= 3.85D-03

 Cycle   6  Pass 1  IDiag  1:
 RMSU=  1.98D-05    CP:  9.90D-01  1.03D+00  7.53D-01  6.25D-01  7.36D-01
 E= -2297.36073558959     Delta-E=       -0.000224263079 Rises=F Damp=F
 DIIS: error= 1.79D-04 at cycle   6 NSaved=   6.
 NSaved= 6 IEnMin= 6 EnMin= -2297.36073558959     IErMin= 6 ErrMin= 1.79D-04
 ErrMax= 1.79D-04  0.00D+00 EMaxC= 1.00D-01 BMatC= 1.73D-05 BMatP= 2.81D-04
 IDIUse=3 WtCom= 9.98D-01 WtEn= 1.79D-03
 Coeff-Com: -0.167D-02 0.160D-02 0.143D-01 0.489D-01 0.242D+00 0.694D+00
 Coeff-En:   0.000D+00 0.000D+00 0.000D+00 0.000D+00 0.000D+00 0.100D+01
 Coeff:     -0.167D-02 0.160D-02 0.142D-01 0.488D-01 0.242D+00 0.695D+00
 Gap=     0.274 Goal=   None    Shift=    0.000
 RMSDP=8.71D-06 MaxDP=4.69D-04 DE=-2.24D-04 OVMax= 1.26D-03

 Cycle   7  Pass 1  IDiag  1:
 RMSU=  6.34D-06    CP:  9.90D-01  1.03D+00  7.54D-01  6.31D-01  7.87D-01
                    CP:  7.76D-01
 E= -2297.36075068142     Delta-E=       -0.000015091829 Rises=F Damp=F
 DIIS: error= 2.94D-05 at cycle   7 NSaved=   7.
 NSaved= 7 IEnMin= 7 EnMin= -2297.36075068142     IErMin= 7 ErrMin= 2.94D-05
 ErrMax= 2.94D-05  0.00D+00 EMaxC= 1.00D-01 BMatC= 9.27D-07 BMatP= 1.73D-05
 IDIUse=1 WtCom= 1.00D+00 WtEn= 0.00D+00
 Coeff-Com:  0.694D-03-0.190D-02-0.836D-02-0.109D-01 0.908D-02 0.180D+00
 Coeff-Com:  0.831D+00
 Coeff:      0.694D-03-0.190D-02-0.836D-02-0.109D-01 0.908D-02 0.180D+00
 Coeff:      0.831D+00
 Gap=     0.274 Goal=   None    Shift=    0.000
 RMSDP=2.99D-06 MaxDP=2.01D-04 DE=-1.51D-05 OVMax= 4.58D-04

 Cycle   8  Pass 1  IDiag  1:
 RMSU=  1.90D-06    CP:  9.90D-01  1.03D+00  7.54D-01  6.32D-01  8.06D-01
                    CP:  8.66D-01  9.38D-01
 E= -2297.36075167790     Delta-E=       -0.000000996486 Rises=F Damp=F
 DIIS: error= 1.50D-05 at cycle   8 NSaved=   8.
 NSaved= 8 IEnMin= 8 EnMin= -2297.36075167790     IErMin= 8 ErrMin= 1.50D-05
 ErrMax= 1.50D-05  0.00D+00 EMaxC= 1.00D-01 BMatC= 1.58D-07 BMatP= 9.27D-07
 IDIUse=1 WtCom= 1.00D+00 WtEn= 0.00D+00
 Coeff-Com:  0.395D-03-0.797D-03-0.452D-02-0.868D-02-0.181D-01 0.987D-02
 Coeff-Com:  0.345D+00 0.677D+00
 Coeff:      0.395D-03-0.797D-03-0.452D-02-0.868D-02-0.181D-01 0.987D-02
 Coeff:      0.345D+00 0.677D+00
 Gap=     0.274 Goal=   None    Shift=    0.000
 RMSDP=9.28D-07 MaxDP=5.02D-05 DE=-9.96D-07 OVMax= 1.18D-04

 Cycle   9  Pass 1  IDiag  1:
 RMSU=  5.74D-07    CP:  9.90D-01  1.03D+00  7.55D-01  6.33D-01  8.08D-01
                    CP:  8.71D-01  1.03D+00  8.10D-01
 E= -2297.36075183082     Delta-E=       -0.000000152921 Rises=F Damp=F
 DIIS: error= 3.53D-06 at cycle   9 NSaved=   9.
 NSaved= 9 IEnMin= 9 EnMin= -2297.36075183082     IErMin= 9 ErrMin= 3.53D-06
 ErrMax= 3.53D-06  0.00D+00 EMaxC= 1.00D-01 BMatC= 1.39D-08 BMatP= 1.58D-07
 IDIUse=1 WtCom= 1.00D+00 WtEn= 0.00D+00
 Coeff-Com:  0.869D-04-0.128D-03-0.972D-03-0.239D-02-0.839D-02-0.118D-01
 Coeff-Com:  0.601D-01 0.256D+00 0.708D+00
 Coeff:      0.869D-04-0.128D-03-0.972D-03-0.239D-02-0.839D-02-0.118D-01
 Coeff:      0.601D-01 0.256D+00 0.708D+00
 Gap=     0.274 Goal=   None    Shift=    0.000
 RMSDP=3.18D-07 MaxDP=2.04D-05 DE=-1.53D-07 OVMax= 3.93D-05

 Cycle  10  Pass 1  IDiag  1:
 RMSU=  2.37D-07    CP:  9.90D-01  1.03D+00  7.55D-01  6.33D-01  8.09D-01
                    CP:  8.74D-01  1.05D+00  8.75D-01  8.65D-01
 E= -2297.36075184383     Delta-E=       -0.000000013011 Rises=F Damp=F
 DIIS: error= 1.24D-06 at cycle  10 NSaved=  10.
 NSaved=10 IEnMin=10 EnMin= -2297.36075184383     IErMin=10 ErrMin= 1.24D-06
 ErrMax= 1.24D-06  0.00D+00 EMaxC= 1.00D-01 BMatC= 2.64D-09 BMatP= 1.39D-08
 IDIUse=1 WtCom= 1.00D+00 WtEn= 0.00D+00
 Coeff-Com: -0.200D-04 0.570D-04 0.268D-03 0.298D-03-0.107D-02-0.636D-02
 Coeff-Com: -0.286D-01-0.138D-02 0.311D+00 0.726D+00
 Coeff:     -0.200D-04 0.570D-04 0.268D-03 0.298D-03-0.107D-02-0.636D-02
 Coeff:     -0.286D-01-0.138D-02 0.311D+00 0.726D+00
 Gap=     0.274 Goal=   None    Shift=    0.000
 RMSDP=1.37D-07 MaxDP=9.53D-06 DE=-1.30D-08 OVMax= 2.51D-05

 Cycle  11  Pass 1  IDiag  1:
 RMSU=  8.00D-08    CP:  9.90D-01  1.03D+00  7.55D-01  6.33D-01  8.09D-01
                    CP:  8.76D-01  1.05D+00  8.98D-01  9.97D-01  8.26D-01
 E= -2297.36075184657     Delta-E=       -0.000000002732 Rises=F Damp=F
 DIIS: error= 8.37D-07 at cycle  11 NSaved=  11.
 NSaved=11 IEnMin=11 EnMin= -2297.36075184657     IErMin=11 ErrMin= 8.37D-07
 ErrMax= 8.37D-07  0.00D+00 EMaxC= 1.00D-01 BMatC= 2.93D-10 BMatP= 2.64D-09
 IDIUse=1 WtCom= 1.00D+00 WtEn= 0.00D+00
 Coeff-Com: -0.160D-04 0.336D-04 0.213D-03 0.382D-03 0.443D-03-0.110D-02
 Coeff-Com: -0.179D-01-0.303D-01 0.464D-01 0.299D+00 0.703D+00
 Coeff:     -0.160D-04 0.336D-04 0.213D-03 0.382D-03 0.443D-03-0.110D-02
 Coeff:     -0.179D-01-0.303D-01 0.464D-01 0.299D+00 0.703D+00
 Gap=     0.274 Goal=   None    Shift=    0.000
 RMSDP=4.40D-08 MaxDP=2.85D-06 DE=-2.73D-09 OVMax= 7.50D-06

 Cycle  12  Pass 1  IDiag  1:
 RMSU=  3.13D-08    CP:  9.90D-01  1.03D+00  7.55D-01  6.33D-01  8.09D-01
                    CP:  8.77D-01  1.06D+00  9.03D-01  1.02D+00  9.18D-01
                    CP:  8.50D-01
 E= -2297.36075184684     Delta-E=       -0.000000000276 Rises=F Damp=F
 DIIS: error= 1.44D-07 at cycle  12 NSaved=  12.
 NSaved=12 IEnMin=12 EnMin= -2297.36075184684     IErMin=12 ErrMin= 1.44D-07
 ErrMax= 1.44D-07  0.00D+00 EMaxC= 1.00D-01 BMatC= 4.01D-11 BMatP= 2.93D-10
 IDIUse=1 WtCom= 1.00D+00 WtEn= 0.00D+00
 Coeff-Com: -0.330D-05 0.559D-05 0.521D-04 0.114D-03 0.297D-03 0.417D-03
 Coeff-Com: -0.337D-02-0.121D-01-0.214D-01 0.262D-01 0.301D+00 0.708D+00
 Coeff:     -0.330D-05 0.559D-05 0.521D-04 0.114D-03 0.297D-03 0.417D-03
 Coeff:     -0.337D-02-0.121D-01-0.214D-01 0.262D-01 0.301D+00 0.708D+00
 Gap=     0.274 Goal=   None    Shift=    0.000
 RMSDP=1.51D-08 MaxDP=7.71D-07 DE=-2.76D-10 OVMax= 2.79D-06

 Cycle  13  Pass 1  IDiag  1:
 RMSU=  8.87D-09    CP:  9.90D-01  1.03D+00  7.55D-01  6.33D-01  8.09D-01
                    CP:  8.77D-01  1.06D+00  9.03D-01  1.03D+00  9.37D-01
                    CP:  9.50D-01  8.25D-01
 E= -2297.36075184685     Delta-E=       -0.000000000009 Rises=F Damp=F
 DIIS: error= 3.51D-08 at cycle  13 NSaved=  13.
 NSaved=13 IEnMin=13 EnMin= -2297.36075184685     IErMin=13 ErrMin= 3.51D-08
 ErrMax= 3.51D-08  0.00D+00 EMaxC= 1.00D-01 BMatC= 3.17D-12 BMatP= 4.01D-11
 IDIUse=1 WtCom= 1.00D+00 WtEn= 0.00D+00
 Coeff-Com:  0.592D-06-0.168D-05-0.209D-05 0.188D-05 0.633D-04 0.275D-03
 Coeff-Com:  0.548D-03-0.119D-02-0.121D-01-0.236D-01 0.304D-01 0.251D+00
 Coeff-Com:  0.755D+00
 Coeff:      0.592D-06-0.168D-05-0.209D-05 0.188D-05 0.633D-04 0.275D-03
 Coeff:      0.548D-03-0.119D-02-0.121D-01-0.236D-01 0.304D-01 0.251D+00
 Coeff:      0.755D+00
 Gap=     0.274 Goal=   None    Shift=    0.000
 RMSDP=4.76D-09 MaxDP=2.33D-07 DE=-9.09D-12 OVMax= 7.12D-07

 Error on total polarization charges =  0.00892
 SCF Done:  E(RM062X) =  -2297.36075185     A.U. after   13 cycles
            NFock= 13  Conv=0.48D-08     -V/T= 2.0069
 KE= 2.281656125153D+03 PE=-1.414705469838D+04 EE= 5.197118673460D+03
 Leave Link  502 at Sun Jun  9 23:21:15 2019, MaxMem= 12884901888 cpu:           12603.4 elap:             205.5
 (Enter /home/ekwan/sw/g16/l701.exe)
 ... and contract with generalized density number  0.
 Compute integral first derivatives.
 R6Disp: Adding Grimme-D3 dispersion energy 1st derivatives to the gradient.
 D1PCM: PCM CHGder 1st derivatives, ID1Alg=3 FixD1E=F DoIter=F DoCFld=F I1PDM=0.
 GePol: Maximum number of non-zero 1st derivatives   =     228
 Leave Link  701 at Sun Jun  9 23:21:24 2019, MaxMem= 12884901888 cpu:             519.7 elap:               8.6
 (Enter /home/ekwan/sw/g16/l702.exe)
 L702 exits ... SP integral derivatives will be done elsewhere.
 Leave Link  702 at Sun Jun  9 23:21:24 2019, MaxMem= 12884901888 cpu:               5.7 elap:               0.1
 (Enter /home/ekwan/sw/g16/l703.exe)
 Integral derivatives from FoFJK, PRISM(SPDF).
 Compute integral first derivatives, UseDBF=F ICtDFT=           0.
 Calling FoFJK, ICntrl=      2127 FMM=F ISym2X=0 I1Cent= 0 IOpClX= 0 NMat=1 NMatS=1 NMatT=0.
 FoFJK:  IHMeth= 1 ICntrl=    2127 DoSepK=F KAlg= 0 I1Cent=           0 FoldK=F
 IRaf=         0 NMat=       1 IRICut=       1 DoRegI=T DoRafI=F ISym2E= 0 IDoP0=0 IntGTp=1.
 FoFCou: FMM=F IPFlag=           0 FMFlag=      100000 FMFlg1=         800
         NFxFlg=           0 DoJE=F BraDBF=F KetDBF=F FulRan=T
         wScrn=  0.000000 ICntrl=      2127 IOpCl=  0 I1Cent=           0 NGrid=           0
         NMat0=    1 NMatS0=      1 NMatT0=    0 NMatD0=    1 NMtDS0=    0 NMtDT0=    0
 Symmetry not used in FoFCou.
 Leave Link  703 at Sun Jun  9 23:21:47 2019, MaxMem= 12884901888 cpu:            1419.3 elap:              23.0
 (Enter /home/ekwan/sw/g16/l716.exe)
 Dipole        = 2.79168821D-01 9.87399964D-01-6.90984270D-01
 ***** Axes restored to original set *****
 -------------------------------------------------------------------
 Center     Atomic                   Forces (Hartrees/Bohr)
 Number     Number              X              Y              Z
 -------------------------------------------------------------------
      1        6          -0.000011961    0.000002295    0.000003705
      2        6           0.000011079   -0.000005038   -0.000002340
      3        6          -0.000002988    0.000001851    0.000007107
      4        6          -0.000001207    0.000003202    0.000005136
      5        6          -0.000005561   -0.000002535    0.000002924
      6        1          -0.000003936   -0.000002219   -0.000000623
      7        1          -0.000000912   -0.000002235    0.000002010
      8        1           0.000001753   -0.000001523   -0.000001672
      9        1          -0.000000305    0.000003617   -0.000002462
     10        1           0.000002830   -0.000001704   -0.000000180
     11        8           0.000005355    0.000007447   -0.000006137
     12        8          -0.000002412   -0.000007502   -0.000010821
     13        8          -0.000008254    0.000001558    0.000001529
     14        8           0.000009114   -0.000006245   -0.000004910
     15        8           0.000006642   -0.000004638    0.000003337
     16        6           0.000001788    0.000006669   -0.000006194
     17        1          -0.000004523    0.000002176    0.000000797
     18        1           0.000001737   -0.000002421    0.000000173
     19        8           0.000009512   -0.000010083    0.000007137
     20       16           0.000004938    0.000003577    0.000007581
     21        8          -0.000001179    0.000002604   -0.000000136
     22        8          -0.000000339   -0.000000644   -0.000000902
     23        6          -0.000003541    0.000001000   -0.000001668
     24        6          -0.000008576    0.000007540   -0.000000071
     25        6           0.000010053   -0.000001245   -0.000000316
     26        6           0.000004419   -0.000009085    0.000005851
     27        1          -0.000000570   -0.000003155   -0.000002151
     28        6          -0.000009619    0.000014262    0.000006419
     29        1          -0.000001618    0.000002270   -0.000001482
     30        6           0.000007603   -0.000000642   -0.000013039
     31        1          -0.000003124   -0.000000575   -0.000001973
     32        6           0.000002073    0.000001857    0.000000666
     33        1          -0.000000496   -0.000001029    0.000000448
     34        1           0.000000301   -0.000001383    0.000001917
     35        1          -0.000001508   -0.000002616    0.000001767
     36        6          -0.000006298    0.000005455    0.000005793
     37        1           0.000000513   -0.000002422    0.000002114
     38        1          -0.000001081   -0.000003111   -0.000000426
     39        1           0.000000771   -0.000003877    0.000000641
     40        6          -0.000005292    0.000000155    0.000001016
     41        1           0.000000514   -0.000000805    0.000001071
     42        1           0.000001638   -0.000001392    0.000000954
     43        1           0.000002537   -0.000000060   -0.000000590
     44        6          -0.000004937   -0.000005660   -0.000006135
     45        1           0.000002277    0.000000454    0.000000487
     46        1           0.000002030    0.000001386    0.000001976
     47        1           0.000002658   -0.000001147    0.000003316
     48        6          -0.000005857   -0.000008055    0.000002129
     49        9          -0.000002277    0.000002974   -0.000005403
     50        9           0.000002449    0.000007060    0.000000728
     51        9          -0.000001835    0.000008188   -0.000002435
     52        6          -0.000021441   -0.000015606   -0.000001386
     53        9           0.000012735    0.000014395   -0.000003246
     54        9           0.000012737    0.000000942   -0.000004471
     55        9           0.000001591    0.000005718    0.000002445
 -------------------------------------------------------------------
 Cartesian Forces:  Max     0.000021441 RMS     0.000005232
 Leave Link  716 at Sun Jun  9 23:21:47 2019, MaxMem= 12884901888 cpu:               6.2 elap:               0.1
 (Enter /home/ekwan/sw/g16/l103.exe)

 GradGradGradGradGradGradGradGradGradGradGradGradGradGradGradGradGradGrad
 Berny optimization.
 FormGI is forming the generalized inverse of G from B-inverse, IUseBI=4.
 Internal  Forces:  Max     0.000021650 RMS     0.000003547
 Search for a local minimum.
 Step number   1 out of a maximum of  291
 All quantities printed in internal units (Hartrees-Bohrs-Radians)
 RMS Force = .35474D-05 SwitMx=.10000D-02 MixMth= 2
 Mixed Optimization -- En-DIIS/RFO-DIIS
 Second derivative matrix not updated -- first step.
 ITU=  0
     Eigenvalues ---    0.00461   0.00610   0.00692   0.00693   0.00706
     Eigenvalues ---    0.00707   0.01051   0.01430   0.01467   0.01476
     Eigenvalues ---    0.01482   0.01488   0.01573   0.01576   0.01582
     Eigenvalues ---    0.01593   0.01640   0.01654   0.01684   0.02200
     Eigenvalues ---    0.02204   0.02210   0.02215   0.02222   0.02227
     Eigenvalues ---    0.02455   0.02966   0.03356   0.04519   0.04653
     Eigenvalues ---    0.04762   0.04874   0.04942   0.05251   0.05285
     Eigenvalues ---    0.05820   0.06034   0.06583   0.06999   0.07074
     Eigenvalues ---    0.07200   0.07796   0.09316   0.10083   0.10106
     Eigenvalues ---    0.10140   0.10198   0.10562   0.10585   0.10614
     Eigenvalues ---    0.10620   0.10693   0.10779   0.10846   0.10893
     Eigenvalues ---    0.10963   0.11003   0.11411   0.11816   0.12024
     Eigenvalues ---    0.14101   0.14807   0.16000   0.16000   0.16000
     Eigenvalues ---    0.16000   0.16000   0.16000   0.16000   0.16000
     Eigenvalues ---    0.16000   0.16000   0.16000   0.16000   0.16000
     Eigenvalues ---    0.16000   0.16000   0.16426   0.16888   0.17413
     Eigenvalues ---    0.18630   0.19606   0.19780   0.20762   0.22148
     Eigenvalues ---    0.23477   0.23488   0.23501   0.24948   0.24978
     Eigenvalues ---    0.24991   0.25000   0.25000   0.25000   0.25000
     Eigenvalues ---    0.25000   0.25000   0.25000   0.25000   0.25000
     Eigenvalues ---    0.25000   0.25000   0.25000   0.27374   0.28130
     Eigenvalues ---    0.28905   0.29264   0.29430   0.30074   0.31802
     Eigenvalues ---    0.31916   0.33328   0.33631   0.33649   0.33703
     Eigenvalues ---    0.33781   0.33912   0.33934   0.33945   0.33946
     Eigenvalues ---    0.34024   0.34136   0.34228   0.34362   0.34508
     Eigenvalues ---    0.34642   0.34646   0.34649   0.34654   0.34776
     Eigenvalues ---    0.35350   0.35369   0.35385   0.38446   0.38764
     Eigenvalues ---    0.42916   0.42925   0.43019   0.43052   0.43089
     Eigenvalues ---    0.43157   0.44163   0.44200   0.44400   0.45522
     Eigenvalues ---    0.46249   0.47072   0.47181   0.47206   0.47404
     Eigenvalues ---    0.48897   0.56145   0.57268   0.57473   0.57779
     Eigenvalues ---    0.57933   0.57937   0.95713   0.98272
 RFO step:  Lambda=-5.14210253D-08 EMin= 4.60972855D-03
 Linear search not attempted -- first point.
 Iteration  1 RMS(Cart)=  0.00096154 RMS(Int)=  0.00000011
 Iteration  2 RMS(Cart)=  0.00000025 RMS(Int)=  0.00000000
 ITry= 1 IFail=0 DXMaxC= 4.69D-03 DCOld= 1.00D+10 DXMaxT= 3.00D-01 DXLimC= 3.00D+00 Rises=F
 Variable       Old X    -DE/DX   Delta X   Delta X   Delta X     New X
                                 (Linear)    (Quad)   (Total)
    R1        2.88484   0.00000   0.00000   0.00000   0.00000   2.88484
    R2        2.87819   0.00000   0.00000   0.00000   0.00000   2.87819
    R3        2.07957   0.00000   0.00000  -0.00001  -0.00001   2.07957
    R4        2.66260   0.00000   0.00000   0.00001   0.00001   2.66261
    R5        2.89997   0.00000   0.00000   0.00000   0.00000   2.89998
    R6        2.08479   0.00000   0.00000  -0.00001  -0.00001   2.08478
    R7        2.64674  -0.00001   0.00000  -0.00001  -0.00001   2.64673
    R8        2.06241   0.00000   0.00000   0.00001   0.00001   2.06242
    R9        2.61733   0.00000   0.00000   0.00000   0.00000   2.61733
   R10        2.73721   0.00000   0.00000  -0.00001  -0.00001   2.73720
   R11        2.88492   0.00000   0.00000  -0.00001  -0.00001   2.88492
   R12        2.07926   0.00000   0.00000  -0.00001  -0.00001   2.07925
   R13        2.71285   0.00000   0.00000   0.00000   0.00000   2.71285
   R14        2.87816  -0.00001   0.00000  -0.00003  -0.00003   2.87813
   R15        2.07702   0.00000   0.00000   0.00000   0.00000   2.07702
   R16        2.66216   0.00000   0.00000   0.00000   0.00000   2.66216
   R17        3.04695  -0.00001   0.00000  -0.00002  -0.00002   3.04693
   R18        2.67476   0.00000   0.00000   0.00000   0.00000   2.67476
   R19        2.67647   0.00000   0.00000  -0.00001  -0.00001   2.67646
   R20        2.67773   0.00000   0.00000   0.00000   0.00000   2.67773
   R21        2.06481   0.00000   0.00000   0.00001   0.00001   2.06482
   R22        2.07833   0.00000   0.00000   0.00000   0.00000   2.07833
   R23        2.65979  -0.00001   0.00000  -0.00003  -0.00003   2.65976
   R24        2.67560   0.00000   0.00000   0.00000   0.00000   2.67560
   R25        2.73039   0.00000   0.00000   0.00000   0.00000   2.73039
   R26        2.74106   0.00000   0.00000   0.00000   0.00000   2.74106
   R27        3.35554   0.00000   0.00000   0.00001   0.00001   3.35555
   R28        2.62739   0.00000   0.00000   0.00000   0.00000   2.62740
   R29        2.62447   0.00000   0.00000   0.00000   0.00000   2.62446
   R30        2.62785   0.00000   0.00000  -0.00001  -0.00001   2.62784
   R31        2.05111   0.00000   0.00000   0.00000   0.00000   2.05111
   R32        2.62804   0.00001   0.00000   0.00001   0.00001   2.62805
   R33        2.05055   0.00000   0.00000   0.00000   0.00000   2.05055
   R34        2.63017   0.00001   0.00000   0.00001   0.00001   2.63018
   R35        2.84508   0.00000   0.00000   0.00001   0.00001   2.84509
   R36        2.62929  -0.00001   0.00000  -0.00002  -0.00002   2.62927
   R37        2.84297   0.00000   0.00000   0.00000   0.00000   2.84297
   R38        2.05080   0.00000   0.00000   0.00000   0.00000   2.05081
   R39        2.07422   0.00000   0.00000   0.00000   0.00000   2.07422
   R40        2.07479   0.00000   0.00000   0.00000   0.00000   2.07479
   R41        2.06040   0.00000   0.00000   0.00000   0.00000   2.06040
   R42        2.06249   0.00000   0.00000   0.00000   0.00000   2.06250
   R43        2.07442   0.00000   0.00000   0.00000   0.00000   2.07441
   R44        2.06724   0.00000   0.00000   0.00001   0.00001   2.06724
   R45        2.06253   0.00000   0.00000   0.00000   0.00000   2.06253
   R46        2.06948   0.00000   0.00000   0.00000   0.00000   2.06948
   R47        2.07290   0.00000   0.00000   0.00000   0.00000   2.07290
   R48        2.06259   0.00000   0.00000   0.00000   0.00000   2.06260
   R49        2.07421   0.00000   0.00000   0.00000   0.00000   2.07421
   R50        2.07101   0.00000   0.00000   0.00000   0.00000   2.07102
   R51        2.52742   0.00000   0.00000  -0.00001  -0.00001   2.52742
   R52        2.53170  -0.00001   0.00000  -0.00001  -0.00001   2.53170
   R53        2.52998   0.00001   0.00000   0.00001   0.00001   2.52999
   R54        2.54129   0.00002   0.00000   0.00003   0.00003   2.54132
   R55        2.52611  -0.00001   0.00000  -0.00002  -0.00002   2.52609
   R56        2.52614  -0.00001   0.00000  -0.00001  -0.00001   2.52613
    A1        1.92393   0.00000   0.00000   0.00004   0.00004   1.92397
    A2        1.90156   0.00000   0.00000  -0.00001  -0.00001   1.90155
    A3        1.93059   0.00000   0.00000  -0.00002  -0.00002   1.93057
    A4        1.89610   0.00000   0.00000   0.00001   0.00001   1.89610
    A5        1.88118   0.00000   0.00000  -0.00001  -0.00001   1.88118
    A6        1.93022   0.00000   0.00000   0.00000   0.00000   1.93021
    A7        1.93663   0.00000   0.00000  -0.00002  -0.00002   1.93661
    A8        1.89109   0.00000   0.00000   0.00000   0.00000   1.89109
    A9        1.88825   0.00000   0.00000  -0.00001  -0.00001   1.88824
   A10        1.85236   0.00000   0.00000   0.00001   0.00001   1.85237
   A11        1.96273   0.00000   0.00000   0.00000   0.00000   1.96273
   A12        1.93187   0.00000   0.00000   0.00002   0.00002   1.93189
   A13        1.95793   0.00000   0.00000   0.00003   0.00003   1.95796
   A14        1.97293   0.00000   0.00000  -0.00001  -0.00001   1.97293
   A15        1.84411   0.00000   0.00000   0.00000   0.00000   1.84412
   A16        1.85658   0.00000   0.00000  -0.00003  -0.00003   1.85656
   A17        1.89203   0.00000   0.00000  -0.00003  -0.00003   1.89201
   A18        1.94026   0.00000   0.00000   0.00002   0.00002   1.94028
   A19        1.90211   0.00000   0.00000   0.00002   0.00002   1.90213
   A20        1.92636   0.00000   0.00000  -0.00002  -0.00002   1.92633
   A21        1.95113   0.00001   0.00000   0.00001   0.00001   1.95114
   A22        1.90245   0.00000   0.00000   0.00006   0.00006   1.90251
   A23        1.88567   0.00000   0.00000   0.00002   0.00002   1.88569
   A24        1.89517  -0.00001   0.00000  -0.00008  -0.00008   1.89509
   A25        1.94054   0.00000   0.00000   0.00002   0.00002   1.94056
   A26        1.89732   0.00000   0.00000  -0.00002  -0.00002   1.89730
   A27        1.92124   0.00000   0.00000  -0.00001  -0.00001   1.92123
   A28        1.89458   0.00000   0.00000  -0.00001  -0.00001   1.89457
   A29        1.87747   0.00000   0.00000   0.00000   0.00000   1.87747
   A30        1.93279   0.00000   0.00000   0.00001   0.00001   1.93280
   A31        2.00705   0.00000   0.00000   0.00003   0.00003   2.00707
   A32        2.05971   0.00000   0.00000  -0.00001  -0.00001   2.05970
   A33        1.99353   0.00000   0.00000   0.00000   0.00000   1.99354
   A34        1.99384   0.00000   0.00000   0.00000   0.00000   1.99383
   A35        1.98311   0.00000   0.00000   0.00001   0.00001   1.98312
   A36        1.87934   0.00001   0.00000   0.00008   0.00008   1.87942
   A37        1.90153   0.00000   0.00000  -0.00004  -0.00004   1.90149
   A38        1.99590  -0.00002   0.00000  -0.00010  -0.00010   1.99580
   A39        1.90070   0.00000   0.00000   0.00000   0.00000   1.90070
   A40        1.85346   0.00001   0.00000   0.00008   0.00008   1.85354
   A41        1.92991   0.00001   0.00000  -0.00002  -0.00002   1.92990
   A42        1.99268  -0.00002   0.00000  -0.00009  -0.00009   1.99259
   A43        1.82645   0.00000   0.00000   0.00002   0.00002   1.82647
   A44        1.89314   0.00000   0.00000  -0.00002  -0.00002   1.89311
   A45        1.80063   0.00000   0.00000  -0.00001  -0.00001   1.80062
   A46        2.12366   0.00000   0.00000   0.00001   0.00001   2.12367
   A47        1.89782   0.00000   0.00000   0.00000   0.00000   1.89783
   A48        1.89493   0.00000   0.00000   0.00000   0.00000   1.89493
   A49        2.07054   0.00000   0.00000   0.00000   0.00000   2.07054
   A50        2.07737   0.00000   0.00000   0.00000   0.00000   2.07737
   A51        2.13495   0.00000   0.00000   0.00000   0.00000   2.13496
   A52        2.06354   0.00000   0.00000   0.00000   0.00000   2.06354
   A53        2.10525   0.00000   0.00000  -0.00002  -0.00002   2.10522
   A54        2.11439   0.00000   0.00000   0.00002   0.00002   2.11441
   A55        2.06289   0.00000   0.00000   0.00000   0.00000   2.06289
   A56        2.10428   0.00000   0.00000   0.00002   0.00002   2.10430
   A57        2.11601   0.00000   0.00000  -0.00001  -0.00001   2.11600
   A58        2.10895   0.00000   0.00000  -0.00001  -0.00001   2.10893
   A59        2.09242   0.00001   0.00000   0.00003   0.00003   2.09245
   A60        2.08104   0.00000   0.00000  -0.00001  -0.00001   2.08103
   A61        2.11034   0.00000   0.00000  -0.00001  -0.00001   2.11033
   A62        2.08229   0.00000   0.00000  -0.00002  -0.00002   2.08227
   A63        2.08879   0.00001   0.00000   0.00002   0.00002   2.08881
   A64        2.08568   0.00000   0.00000   0.00002   0.00002   2.08569
   A65        2.09858   0.00000   0.00000  -0.00001  -0.00001   2.09858
   A66        2.09893   0.00000   0.00000  -0.00001  -0.00001   2.09892
   A67        1.94785   0.00000   0.00000   0.00000   0.00000   1.94785
   A68        1.93882   0.00000   0.00000   0.00000   0.00000   1.93882
   A69        1.86514   0.00000   0.00000   0.00000   0.00000   1.86514
   A70        1.90548   0.00000   0.00000   0.00000   0.00000   1.90548
   A71        1.89802   0.00000   0.00000  -0.00001  -0.00001   1.89802
   A72        1.90747   0.00000   0.00000   0.00000   0.00000   1.90747
   A73        1.86269   0.00000   0.00000   0.00001   0.00001   1.86269
   A74        1.93207   0.00000   0.00000   0.00000   0.00000   1.93207
   A75        1.94347   0.00000   0.00000   0.00000   0.00000   1.94347
   A76        1.90342   0.00000   0.00000   0.00001   0.00001   1.90343
   A77        1.91334   0.00000   0.00000  -0.00001  -0.00001   1.91333
   A78        1.90805   0.00000   0.00000   0.00000   0.00000   1.90805
   A79        1.86482   0.00000   0.00000   0.00000   0.00000   1.86482
   A80        1.93458   0.00000   0.00000  -0.00001  -0.00001   1.93458
   A81        1.92930   0.00000   0.00000   0.00001   0.00001   1.92931
   A82        1.91169   0.00000   0.00000   0.00000   0.00000   1.91169
   A83        1.90990   0.00000   0.00000   0.00001   0.00001   1.90990
   A84        1.91288   0.00000   0.00000  -0.00001  -0.00001   1.91287
   A85        1.86598   0.00000   0.00000   0.00000   0.00000   1.86598
   A86        1.93307   0.00000   0.00000  -0.00001  -0.00001   1.93305
   A87        1.95286   0.00000   0.00000  -0.00003  -0.00003   1.95283
   A88        1.90934   0.00000   0.00000   0.00001   0.00001   1.90935
   A89        1.90784   0.00000   0.00000   0.00001   0.00001   1.90785
   A90        1.89431   0.00000   0.00000   0.00001   0.00001   1.89432
   A91        1.94696   0.00000   0.00000  -0.00002  -0.00002   1.94694
   A92        1.94211   0.00001   0.00000   0.00004   0.00004   1.94215
   A93        1.94150   0.00000   0.00000  -0.00002  -0.00002   1.94148
   A94        1.87469   0.00000   0.00000   0.00001   0.00001   1.87470
   A95        1.88518   0.00000   0.00000   0.00000   0.00000   1.88518
   A96        1.86994   0.00000   0.00000   0.00000   0.00000   1.86994
[...]
 0001209,-0.00000737,-0.00002191,0.00001358,-0.00014834,-0.00028954,0.0
 0001953,0.00000391,0.00003115,0.00001748,0.00004532,0.00002495,-0.0000
 0992,-0.00000693,0.00002158,-0.00001700,0.00023885,0.00026699,0.000923
 35,-0.00002005,0.00003729,-0.00009281,-0.00005203,0.00000526,-0.000086
 20,-0.00005519,-0.00008320,-0.00004470,0.00211278,-0.00014066,-0.00544
 737,0.00005811,-0.00006816,0.00183317,-0.00143212,-0.00052936,0.001373
 24,-0.00063028,0.00077644,0.00147051,0.01072067,-0.01650130,0.62153208
 ,0.00007214,-0.00014721,0.00001364,0.00007603,-0.00003312,-0.00004559,
 0.00013786,-0.00063121,0.00020981,-0.00014742,-0.00066950,-0.00016119,
 0.00006520,0.00027462,0.00012365,-0.00001783,0.00002788,-0.00000790,0.
 00001482,0.00000615,-0.00000153,-0.00001090,0.00001200,-0.00001038,-0.
 00001638,0.00004916,-0.00004120,0.00005546,-0.00000600,0.00001140,-0.0
 0026458,0.00050838,-0.00000596,0.00036362,0.00040661,-0.00015468,-0.00
 009760,0.00012798,0.00001887,-0.00019708,0.00007375,-0.00009318,-0.000
 15196,-0.00006397,-0.00011358,0.00166280,0.00118265,0.00033947,-0.0002
 6269,-0.00004394,-0.00020489,-0.00181867,-0.00033634,-0.00062961,-0.00
 076639,-0.00073973,-0.00053484,-0.00060078,-0.00015943,0.00017198,0.00
 014212,-0.00004658,-0.00000231,0.00014008,0.00003406,-0.00004694,0.000
 76939,-0.00054035,0.00061922,0.00033517,-0.00029310,-0.00048828,-0.000
 56574,-0.00063078,0.00102142,-0.00049974,0.00020444,-0.00023670,0.0000
 0590,-0.00003357,0.00000709,0.00924771,-0.00216074,-0.00184911,-0.0001
 8863,-0.00023191,-0.00000819,0.00018100,0.00075128,0.00054694,-0.00008
 171,0.00003746,-0.00043440,0.00000413,-0.00003981,-0.00004913,0.000003
 02,-0.00000014,0.00001128,0.00000643,0.00000302,0.00000470,-0.00000913
 ,0.00000999,0.00000297,0.00004184,-0.00005602,0.00008408,-0.00001608,0
 .00000376,-0.00001094,0.00000138,0.00000588,-0.00001442,-0.00000532,0.
 00001375,-0.00000740,0.00009029,0.00009874,0.00004394,-0.00000749,-0.0
 0001522,-0.00002469,-0.00002583,-0.00001181,-0.00000096,0.00001850,0.0
 0003294,0.00001112,0.00134090,0.00070408,0.00110093,-0.00027833,-0.000
 18170,-0.00003972,-0.00076448,-0.00004973,-0.00055264,-0.00038832,-0.0
 0013178,-0.00007005,-0.00017845,-0.00011094,-0.00011288,0.00007302,0.0
 0001592,0.00005756,0.00003042,0.00002040,0.00002896,0.00003230,0.00003
 047,0.00003697,-0.11595968,-0.08214339,0.01942159,0.17163696,-0.000022
 96,-0.00018163,-0.00005834,-0.00010594,0.00000426,-0.00006245,-0.00026
 491,-0.00079898,0.00057185,-0.00023850,-0.00087693,-0.00022115,-0.0000
 0527,0.00016782,0.00000947,-0.00004093,0.00004578,-0.00002201,0.000066
 16,0.00002127,-0.00000140,-0.00001746,0.00001692,-0.00002546,-0.000085
 75,0.00004397,-0.00011058,0.00009030,0.00001058,0.00001627,0.00020122,
 0.00080489,0.00000651,0.00133818,0.00059691,-0.00030479,0.00006155,0.0
 0006515,-0.00000836,-0.00002758,0.00010286,-0.00001258,-0.00006219,0.0
 0012361,-0.00000595,0.00116427,0.00066428,0.00056177,-0.00016128,-0.00
 000623,-0.00014590,0.00013667,-0.00093047,0.00073462,-0.00048603,-0.00
 010844,-0.00065164,-0.00297044,0.00151492,0.00048775,0.00071538,-0.000
 84021,0.00024602,0.00077689,-0.00054215,-0.00046206,0.00124375,0.00066
 910,0.00045837,-0.00006958,-0.00033659,0.00095223,-0.00103668,0.000692
 27,0.00199698,0.00171149,0.00063046,0.00168325,-0.00020235,-0.00010938
 ,-0.00010109,-0.01877702,-0.03219308,0.01589136,-0.00079556,-0.0004854
 6,-0.00030732,0.00230096,-0.00282273,-0.00102009,-0.00083817,-0.000722
 91,-0.00009175,-0.00006095,-0.00002179,0.00001710,0.00000106,0.0000172
 4,0.00001107,0.00000923,0.00001061,-0.00000954,0.00000823,0.00000204,0
 .00000296,-0.00000173,-0.00001994,0.00003071,0.00000122,0.00000452,-0.
 00000330,0.00000209,-0.00000273,-0.00000520,-0.00000982,0.00000759,-0.
 00000255,0.00003481,-0.00004063,0.00005432,0.00000023,0.00000027,-0.00
 001018,-0.00001364,0.00000278,-0.00000616,0.00001923,0.00004489,-0.000
 00609,0.00113425,0.00083637,0.00111543,-0.00020341,-0.00012886,-0.0000
 4659,0.00057756,-0.00025266,-0.00068515,-0.00046414,-0.00014464,-0.000
 09742,0.00127064,-0.00070568,-0.00211139,0.00002411,0.00002546,0.00102
 069,-0.00056499,-0.00013404,0.00053369,-0.00029440,0.00055301,0.000539
 23,-0.08388205,-0.23719808,0.04359650,0.15149969,0.32263286,0.00005668
 ,-0.00001420,0.00002842,0.00012185,-0.00003074,0.00000351,0.00027859,0
 .00023862,-0.00036259,0.00000673,-0.00009716,-0.00014890,0.00004430,0.
 00013706,0.00006884,-0.00000282,0.00000804,0.00001201,-0.00004856,-0.0
 0001436,0.00000146,0.00000741,-0.00000352,0.00001654,0.00005238,0.0000
 0395,0.00007538,-0.00003391,-0.00001976,-0.00000283,-0.00029129,-0.000
 18277,0.00014077,-0.00087742,-0.00017921,0.00023215,-0.00010333,0.0000
 4673,0.00005386,-0.00012659,-0.00000421,-0.00004268,-0.00007498,-0.000
 10270,-0.00003851,0.00050210,0.00083014,-0.00019230,-0.00007162,-0.000
 04173,-0.00001895,-0.00136234,0.00015905,-0.00141059,-0.00023160,-0.00
 041007,0.00059930,0.00186968,-0.00141853,-0.00067684,-0.00046063,0.000
 64678,-0.00012888,-0.00046897,0.00042903,0.00047343,-0.00135356,-0.000
 35089,-0.00126307,-0.00067188,0.00079890,-0.00017439,0.00200928,-0.000
 20513,-0.00201974,-0.00090130,-0.00092708,0.00009909,0.00013468,0.0000
 6738,0.00010666,0.01103097,0.03266761,-0.00154885,0.00026561,0.0007491
 1,-0.00000487,-0.00128949,0.00045007,0.00097309,0.00049041,0.00026837,
 0.00016340,0.00004382,-0.00001782,-0.00006896,0.00000579,-0.00000851,-
 0.00000370,-0.00000807,-0.00000955,0.00001473,-0.00001015,0.00000468,0
 .00000305,0.00002809,-0.00002580,0.00003081,-0.00001237,-0.00000048,-0
 .00000626,-0.00000171,0.00000562,-0.00000341,0.00000172,0.00000604,-0.
 00000434,0.00004460,0.00009297,-0.00000706,-0.00000182,-0.00000981,-0.
 00000512,-0.00001312,-0.00000803,0.00000294,0.00000222,-0.00000854,0.0
 0000579,-0.00022132,-0.00021430,-0.00054892,0.00005280,0.00002022,0.00
 005735,0.00006974,0.00004699,0.00011186,0.00009906,0.00005255,0.000048
 42,-0.00071747,0.00021627,0.00139877,0.00000675,0.00000461,-0.00056196
 ,0.00038942,0.00014101,-0.00035990,0.00018026,-0.00025131,-0.00035777,
 0.02018452,0.04445326,-0.08576970,-0.02402160,-0.03536250,0.08100634,0
 .00012182,-0.00001982,0.00007946,0.00020779,-0.00007860,0.00001848,0.0
 0039925,0.00001148,-0.00029342,0.00005921,0.00000060,0.00005946,0.0000
 9513,0.00017215,0.00016633,0.00001684,-0.00000932,0.00001216,-0.000046
 66,-0.00001398,-0.00000464,0.00000040,0.00000282,0.00000811,0.00004375
 ,0.00003148,0.00004127,0.00000064,-0.00001397,-0.00000163,-0.00047704,
 -0.00007555,-0.00004212,-0.00092328,-0.00008817,0.00010419,-0.00018831
 ,0.00012173,0.00002956,-0.00024085,0.00000737,-0.00012440,-0.00014072,
 -0.00017658,-0.00015325,0.00074318,0.00055009,0.00019990,-0.00010847,-
 0.00004151,-0.00009961,-0.00004029,-0.00005200,0.00017920,-0.00040569,
 -0.00039134,-0.00012821,0.00217961,-0.00164102,-0.00054756,-0.00065431
 ,0.00108855,-0.00041793,-0.00056689,0.00060933,0.00041928,-0.00093943,
 0.00154273,0.00095557,-0.00008981,-0.00008610,-0.00056836,-0.00079942,
 0.00140039,-0.00693865,0.00019749,0.00066417,-0.00092165,0.00007222,-0
 .00013617,-0.00002421,-0.03389614,0.01471296,0.00295603,0.00034502,-0.
 00068348,0.00008644,-0.00112042,0.00113699,0.00349033,-0.00021822,-0.0
 0062555,-0.00190787,0.00006380,-0.00003805,-0.00007945,0.00000435,-0.0
 0001759,0.00000591,0.00000121,-0.00000388,0.00001341,-0.00002269,0.000
 01222,0.00000062,0.00006336,-0.00006331,0.00009315,-0.00002232,0.00000
 091,-0.00001173,0.00000031,0.00001029,-0.00001744,0.00000165,0.0000123
 9,-0.00000706,0.00008852,0.00014760,0.00001941,-0.00000801,-0.00002017
 ,-0.00002378,-0.00002283,-0.00001586,0.00000444,0.00000618,0.00000852,
 0.00001511,0.00052641,0.00032792,0.00037268,-0.00011729,-0.00009959,-0
 .00000208,0.00014238,-0.00001078,-0.00026110,-0.00013484,-0.00004040,-
 0.00003237,-0.00122391,0.00040907,0.00147879,0.00008214,-0.00002326,-0
 .00057304,0.00059520,0.00017084,-0.00042302,0.00032473,-0.00039765,-0.
 00038984,-0.28870376,0.07055002,0.00464749,-0.06868138,-0.02805888,0.0
 1432615,0.41291832,-0.00004544,-0.00004539,-0.00004332,-0.00009950,0.0
 0002457,-0.00002501,-0.00020573,-0.00025808,0.00027707,-0.00008942,-0.
 00024830,-0.00007306,-0.00003059,-0.00001438,-0.00005601,-0.00001759,0
 .00001475,-0.00001071,0.00003567,0.00001185,0.00000080,-0.00000545,0.0
 0000378,-0.00001069,-0.00004152,0.00000329,-0.00004971,0.00002734,0.00
 000819,0.00000542,0.00019720,0.00026608,0.00001742,0.00068193,0.000225
 15,-0.00011637,0.00007845,-0.00001651,-0.00001153,0.00006982,0.0000292
 7,0.00003664,0.00002545,0.00009855,0.00005035,0.00008878,-0.00003537,0
 .00006491,-0.00000740,0.00001515,-0.00000215,0.00001873,-0.00018862,0.
 00013600,-0.00003379,0.00010809,-0.00015141,-0.00176874,0.00082704,0.0
 0036522,0.00054030,-0.00064878,0.00024639,0.00042411,-0.00034198,-0.00
 029201,0.00007136,-0.00156476,0.00016377,0.00054470,-0.00030414,0.0000
 7817,0.00053432,0.00033105,0.00378371,-0.00030709,-0.00013577,0.000132
 65,-0.00003165,0.00007366,-0.00000773,0.02974260,-0.00070534,-0.000012
 52,-0.00010348,0.00062733,-0.00012183,0.00053372,-0.00119004,-0.000682
 96,0.00012975,0.00005856,0.00098751,-0.00004016,0.00000361,0.00002972,
 -0.00000091,0.00001094,0.00000195,0.00000278,0.00000481,-0.00000729,0.
 00000950,-0.00000315,0.00000063,-0.00001999,0.00001361,-0.00002090,0.0
 0000767,0.00000098,0.00000286,0.00000047,-0.00000425,0.00000414,-0.000
 00363,-0.00000147,0.00000169,-0.00001818,-0.00006346,0.00001028,0.0000
 0350,0.00000692,0.00000541,0.00000274,0.00000644,-0.00000323,0.0000039
 1,0.00001118,-0.00000798,0.00017407,0.00009928,0.00020158,-0.00001883,
 -0.00000115,-0.00001451,0.00010236,-0.00002688,-0.00010804,-0.00008235
 ,-0.00002348,-0.00001600,0.00063817,-0.00036882,-0.00106472,-0.0000190
 5,0.00003481,0.00039401,-0.00029526,-0.00005339,0.00027626,-0.00019152
 ,0.00031066,0.00027735,0.06822201,-0.09579096,0.00106664,-0.04575732,0
 .00674460,0.00581418,-0.08647838,0.10204975,0.00003970,0.00002224,0.00
 002332,0.00008287,-0.00002460,0.00001868,0.00018339,0.00023102,-0.0002
 9966,0.00008350,0.00013274,0.00000366,0.00002940,0.00001778,0.00003872
 ,0.00000197,-0.00000061,0.00001043,-0.00003663,-0.00001200,-0.00000057
 ,0.00000512,-0.00000299,0.00001187,0.00003610,-0.00000014,0.00004978,-
 0.00002258,-0.00000996,-0.00000279,-0.00016125,-0.00017823,0.00006035,
 -0.00069022,-0.00016678,0.00016803,-0.00006776,0.00002807,0.00003534,-
 0.00006386,-0.00001395,-0.00002140,-0.00003322,-0.00006133,-0.00002196
 ,-0.00000581,0.00008157,-0.00006859,0.00002079,-0.00000658,0.00001950,
 0.00002242,0.00007882,-0.00007869,-0.00003132,-0.00007736,0.00020902,0
 .00162031,-0.00094094,-0.00063198,-0.00047770,0.00061709,-0.00016591,-
 0.00036658,0.00032440,0.00042395,-0.00088880,0.00162411,0.00004427,-0.
 00055443,0.00043287,-0.00016296,-0.00034464,0.00017486,-0.00414690,-0.
 00050352,0.00020410,0.00093149,-0.00004703,0.00004483,0.00006411,-0.02
 474615,0.01057936,0.00835537,-0.00034530,0.00004382,-0.00001301,-0.000
 88105,-0.00020236,-0.00235410,-0.00165258,0.00125492,-0.00061788,0.000
 03102,-0.00001275,-0.00004641,0.00000478,-0.00000631,-0.00000370,-0.00
 000601,-0.00000693,0.00000981,-0.00000718,0.00000271,0.00000160,0.0000
 1778,-0.00001353,0.00001328,-0.00000663,-0.00000104,-0.00000300,-0.000
 00148,0.00000333,-0.00000134,0.00000196,0.00000297,-0.00000189,0.00002
 035,0.00004554,-0.00000710,-0.00000003,-0.00000446,-0.00000129,-0.0000
 0634,-0.00000353,0.00000197,0.00000002,-0.00000637,0.00000235,-0.00011
 307,-0.00009075,-0.00020944,0.00001625,0.00000151,0.00001574,-0.000011
 43,0.00002628,0.00005071,0.00003610,0.00002195,0.00001215,-0.00040892,
 -0.00001618,0.00122410,-0.00005077,0.00002341,-0.00042308,0.00029513,0
 .00011750,-0.00028912,0.00011661,-0.00014966,-0.00031923,0.01261388,-0
 .00171949,-0.08190839,0.01774599,0.00380719,0.00975483,-0.05025932,0.0
 1319689,0.08931257,0.00003935,-0.00000143,0.00003068,0.00006879,-0.000
 02782,0.00000232,0.00014305,-0.00003323,-0.00004384,0.00000787,0.00002
 913,0.00005885,0.00003393,0.00005059,0.00004800,0.00001494,-0.00001050
 ,0.00000270,-0.00000990,-0.00000206,-0.00000156,-0.00000035,0.00000058
 ,0.00000057,0.00001179,0.00000860,0.00000315,0.00000141,-0.00000260,-0
 .00000078,-0.00014860,-0.00002777,-0.00005550,-0.00024206,0.00001866,-
 0.00001114,-0.00006273,0.00004252,0.00000252,-0.00007814,0.00000139,-0
 .00004394,-0.00004522,-0.00005923,-0.00005358,0.00019331,0.00015222,0.
 00005404,-0.00002762,-0.00001313,-0.00002830,-0.00000026,-0.00004251,0
 .00008168,-0.00010612,-0.00010884,-0.00005635,0.00061261,-0.00062293,0
 .00014296,-0.00011817,0.00024287,-0.00013276,-0.00018715,0.00022855,0.
 00004964,0.00048008,-0.00049566,-0.00025932,-0.00003689,0.00007531,-0.
 00025140,-0.00166908,0.00013605,-0.00051359,0.00042756,-0.00034250,-0.
 00096286,0.00005783,-0.00001210,-0.00004852,0.01026247,-0.00336019,-0.
 01132759,0.00009371,-0.00014331,-0.00149274,-0.00166118,0.00170782,-0.
 00096591,0.00009283,0.00002627,-0.00038045,0.00001960,-0.00001289,-0.0
 0002103,0.00000081,-0.00000665,0.00000348,0.00000256,0.00000015,0.0000
 0304,-0.00000819,0.00000432,-0.00000075,0.00002180,-0.00002158,0.00003
 213,-0.00000719,0.00000034,-0.00000373,0.00000030,0.00000328,-0.000006
 32,0.00000058,0.00000402,-0.00000197,0.00002773,0.00004674,0.00000601,
 -0.00000240,-0.00000673,-0.00000772,-0.00000707,-0.00000510,0.00000178
 ,0.00000144,0.00000255,0.00000476,0.00013413,0.00007671,0.00009024,-0.
 00003109,-0.00003153,-0.00000213,-0.00000185,0.00002096,-0.00002873,-0
 .00001357,-0.00000310,-0.00000408,-0.00051522,0.00020116,0.00052515,0.
 00000034,-0.00000639,-0.00031039,0.00023880,0.00007250,-0.00016445,0.0
 0011170,-0.00013018,-0.00013112,-0.07588236,0.00530280,0.00212359,0.00
 545410,-0.02462656,-0.01892770,-0.01950791,0.03280151,0.04976614,0.081
 81494,0.00000824,-0.00006705,-0.00001904,-0.00000934,-0.00000467,-0.00
 001809,-0.00002310,-0.00025668,0.00008090,-0.00005050,-0.00029380,-0.0
 0011448,0.00001435,0.00006784,0.00002007,-0.00002380,0.00002161,-0.000
 00245,0.00000911,0.00000355,-0.00000059,-0.00000423,0.00000478,-0.0000
 0406,-0.00001670,0.00001400,-0.00001211,0.00002071,-0.00000145,0.00000
 415,-0.00002826,0.00027135,0.00006033,0.00021879,0.00018844,0.00000364
 ,-0.00000659,0.00004570,0.00002211,-0.00003722,0.00003815,-0.00000869,
 -0.00004205,0.00002911,-0.00000317,0.00048882,0.00030098,0.00015058,-0
 .00005835,-0.00000653,-0.00003953,0.00004843,-0.00026053,0.00018404,-0
 .00025145,-0.00007415,-0.00007492,-0.00053956,0.00009542,-0.00037984,0
 .00008905,-0.00005295,0.00009146,0.00018752,-0.00006520,0.00012502,-0.
 00056588,0.00084614,-0.00024513,-0.00035648,0.00024185,0.00071638,0.00
 252614,-0.00161393,0.00087739,0.00011186,-0.00091785,0.00065338,-0.000
 08011,0.00002430,0.00006208,0.00106027,0.00936992,0.00590277,-0.000741
 59,0.00011711,0.00111837,0.00078757,0.00038250,-0.00051928,-0.00000154
 ,0.00016175,0.00033756,-0.00001453,-0.00002035,-0.00002287,0.00000454,
 0.00000600,0.00000194,-0.00000025,0.00000030,0.00000182,0.00000088,0.0
 0000198,0.00000284,0.00000645,-0.00001365,0.00001462,-0.00000210,0.000
 00127,-0.00000258,-0.00000019,0.00000018,-0.00000141,-0.00000356,0.000
 00481,-0.00000191,0.00002280,0.00000121,0.00001740,0.00000097,-0.00000
 141,-0.00000313,-0.00000900,-0.00000011,-0.00000171,0.00000791,0.00001
 460,-0.00000292,0.00034019,0.00016464,0.00019226,-0.00005042,-0.000032
 92,-0.00000506,0.00014292,-0.00004583,-0.00016656,-0.00013706,-0.00002
 926,-0.00002462,0.00015771,-0.00036602,-0.00031333,-0.00001125,0.00004
 307,0.00006093,-0.00009965,0.00003910,0.00010574,-0.00007538,0.0001571
 6,0.00006276,0.00325726,-0.12080538,-0.09288483,-0.02086971,-0.0574531
 0,-0.04844053,0.02569837,-0.00998951,-0.02941304,-0.01110104,0.1797135
 0,0.00009920,-0.00002349,0.00003166,0.00017043,-0.00004599,0.00000314,
 0.00041050,0.00014426,-0.00048482,0.00012533,-0.00000792,-0.00012215,0
 .00008339,0.00011421,0.00011889,-0.00001276,0.00002032,0.00001486,-0.0
 0006223,-0.00001990,0.00000023,0.00000634,-0.00000168,0.00002059,0.000
 07548,0.00001600,0.00009895,-0.00002855,-0.00002343,-0.00000167,-0.000
 46912,-0.00010099,0.00018552,-0.00110119,-0.00008176,0.00026876,-0.000
 15746,0.00010586,0.00009179,-0.00018436,0.00000806,-0.00005924,-0.0001
 2148,-0.00011941,-0.00006236,0.00055361,0.00049152,0.00002828,-0.00003
 101,-0.00002164,-0.00001509,0.00000422,0.00002637,-0.00001280,-0.00035
 235,-0.00029648,0.00033375,0.00254602,-0.00207522,-0.00091366,-0.00065
 507,0.00089042,-0.00016621,-0.00061343,0.00065936,0.00079542,0.0002020
 1,0.00108581,-0.00003156,-0.00028994,0.00002171,-0.00076812,0.00232297
 ,-0.00117196,-0.00123539,0.00177338,0.00047457,-0.00224355,-0.00007455
 ,-0.00005891,0.00011488,0.00156188,-0.02481625,-0.04611290,-0.00190638
 ,0.00061278,-0.00084124,-0.00662253,0.00499348,-0.00298965,-0.00028744
 ,-0.00048630,0.00070245,0.00005313,-0.00004463,-0.00011862,0.00001291,
 -0.00000802,-0.00000444,-0.00001186,-0.00001392,0.00002252,-0.00001454
 ,0.00000822,0.00000597,0.00004657,-0.00004396,0.00004699,-0.00001752,-
 0.00000087,-0.00000929,-0.00000309,0.00000793,-0.00000492,0.00000077,0
 .00001135,-0.00000647,0.00007152,0.00011316,0.00000297,-0.00000071,-0.
 00001230,-0.00000858,-0.00002325,-0.00000968,0.00000279,0.00000774,0.0
 0000059,0.00000506,0.00015999,0.00003138,-0.00016966,-0.00003526,-0.00
 004307,0.00002557,0.00011694,-0.00002138,-0.00011272,-0.00007763,0.000
 00645,-0.00000450,-0.00160162,0.00083510,0.00237516,-0.00014279,-0.000
 01317,-0.00126684,0.00086240,0.00025492,-0.00065195,0.00030303,-0.0004
 0764,-0.00060279,-0.00269062,-0.08571290,-0.26862046,-0.01165868,-0.03
 238638,0.00024830,0.03447082,-0.02471994,-0.01906657,-0.01679316,0.161
 85534,0.34116373\\0.00000285,0.00000018,-0.00000305,0.00000124,-0.0000
 0008,-0.00000108,0.00000041,0.00000180,-0.00000287,-0.00000219,-0.0000
 0025,0.00000012,0.00000034,0.00000339,0.00000288,-0.00000016,0.0000004
 3,-0.00000067,-0.00000005,0.00000179,-0.00000004,0.00000055,0.00000175
 ,-0.00000036,-0.00000025,0.00000126,-0.00000046,-0.00000148,0.00000067
 ,-0.00000234,0.00000207,-0.00000122,0.,0.00000153,0.00000400,0.0000002
 4,-0.00000029,0.00000159,-0.00000227,-0.00000199,0.00000290,-0.0000003
 1,-0.00000431,0.00000039,-0.00000296,-0.00000024,-0.00000060,-0.000000
 91,-0.00000175,0.00000010,0.,-0.00000087,-0.00000191,0.00000118,0.0000
 0120,-0.00000156,-0.00000067,-0.00000132,-0.00000149,0.00000078,0.0000
 0267,-0.00000084,-0.00000007,0.00000065,-0.00000096,0.00000076,0.00000
 094,0.00000002,0.00000425,0.00000051,-0.00000137,-0.00000193,0.0000021
 6,0.00000016,-0.00000013,0.00000199,-0.00000729,0.00000371,0.00000104,
 -0.00000211,0.00000076,-0.00000190,0.00000156,0.00000358,-0.00000135,-
 0.00000125,0.00000075,0.00000289,-0.00000356,-0.00000169,-0.00000200,-
 0.00000302,0.00000132,-0.00000010,0.00000113,-0.00000051,0.00000096,0.
 00000151,-0.00000073,0.00000094,0.00000153,-0.00000112,0.00000148,0.00
 000180,-0.00000151,0.00000076,0.00000049,-0.00000067,0.00000100,0.0000
 0212,-0.00000246,0.00000096,0.00000161,-0.00000230,0.00000096,0.000001
 82,-0.00000177,0.00000261,0.00000106,0.00000048,-0.00000064,0.00000078
 ,-0.00000016,-0.00000117,0.00000087,-0.00000090,-0.00000176,0.00000068
 ,-0.00000066,-0.00000309,-0.00000251,0.00000228,-0.00000172,0.00000044
 ,0.00000005,-0.00000301,-0.00000007,0.00000082,-0.00000208,-0.00000110
 ,0.00000092,0.00000289,0.00000041,0.00000230,0.00000092,0.00000199,-0.
 00000097,-0.00000037,-0.00000163,0.00000225,0.00000169,-0.00000190,0.0
 0000162,-0.00000195,-0.00000359,0.00000158,-0.00000066,-0.00000015,0.0
 0000111,0.00000008,-0.00000196,0.00000033,-0.00000159,0.00000018,0.000
 00152\\\@


 A COMPUTER IS LIKE A HORSE, IT WILL SENSE WEAKNESS.
     -- GREG WETTSTEIN
 Job cpu time:       1 days 14 hours 15 minutes  0.5 seconds.
 Elapsed time:       0 days  0 hours 36 minutes 41.3 seconds.
 File lengths (MBytes):  RWF=   2248 Int=      0 D2E=      0 Chk=     37 Scr=      1
 Normal termination of Gaussian 16 at Mon Jun 10 00:08:13 2019.
