 Entering Gaussian System, Link 0=g16
 Input=clay_new-glu_gluC6-BCDR-Na2_1Me2O-bisCF3-ts-m062x-631gd-pcm_thf.gjf
 Output=clay_new-glu_gluC6-BCDR-Na2_1Me2O-bisCF3-ts-m062x-631gd-pcm_thf.out
 Initial command:
 /home/ekwan/sw/g16/l1.exe "/scratch/users/ekwan/clay_new-glu_gluC6-BCDR-Na2_1Me2O-bisCF3-ts-m062x-631gd-pcm_thf/Gau-48725.inp" -scrdir="/scratch/users/ekwan/clay_new-glu_gluC6-BCDR-Na2_1Me2O-bisCF3-ts-m062x-631gd-pcm_thf/"
 Entering Link 1 = /home/ekwan/sw/g16/l1.exe PID=     48726.
  
 Copyright (c) 1988,1990,1992,1993,1995,1998,2003,2009,2016,
            Gaussian, Inc.  All Rights Reserved.
  
 This is part of the Gaussian(R) 16 program.  It is based on
 the Gaussian(R) 09 system (copyright 2009, Gaussian, Inc.),
 the Gaussian(R) 03 system (copyright 2003, Gaussian, Inc.),
 the Gaussian(R) 98 system (copyright 1998, Gaussian, Inc.),
 the Gaussian(R) 94 system (copyright 1995, Gaussian, Inc.),
 the Gaussian 92(TM) system (copyright 1992, Gaussian, Inc.),
 the Gaussian 90(TM) system (copyright 1990, Gaussian, Inc.),
 the Gaussian 88(TM) system (copyright 1988, Gaussian, Inc.),
 the Gaussian 86(TM) system (copyright 1986, Carnegie Mellon
 University), and the Gaussian 82(TM) system (copyright 1983,
 Carnegie Mellon University). Gaussian is a federally registered
 trademark of Gaussian, Inc.
  
 This software contains proprietary and confidential information,
 including trade secrets, belonging to Gaussian, Inc.
  
 This software is provided under written license and may be
 used, copied, transmitted, or stored only in accord with that
 written license.
  
 The following legend is applicable only to US Government
 contracts under FAR:
  
                    RESTRICTED RIGHTS LEGEND
  
 Use, reproduction and disclosure by the US Government is
 subject to restrictions as set forth in subparagraphs (a)
 and (c) of the Commercial Computer Software - Restricted
 Rights clause in FAR 52.227-19.
  
 Gaussian, Inc.
 340 Quinnipiac St., Bldg. 40, Wallingford CT 06492
  
  
 ---------------------------------------------------------------
 Warning -- This program may not be used in any manner that
 competes with the business of Gaussian, Inc. or will provide
 assistance to any competitor of Gaussian, Inc.  The licensee
 of this program is prohibited from giving any competitor of
 Gaussian, Inc. access to this program.  By using this program,
 the user acknowledges that Gaussian, Inc. is engaged in the
 business of creating and licensing software in the field of
 computational chemistry and represents and warrants to the
 licensee that it is not a competitor of Gaussian, Inc. and that
 it will not use this program in any manner prohibited above.
 ---------------------------------------------------------------
  

 Cite this work as:
 Gaussian 16, Revision A.03,
 M. J. Frisch, G. W. Trucks, H. B. Schlegel, G. E. Scuseria, 
 M. A. Robb, J. R. Cheeseman, G. Scalmani, V. Barone, 
 G. A. Petersson, H. Nakatsuji, X. Li, M. Caricato, A. V. Marenich, 
 J. Bloino, B. G. Janesko, R. Gomperts, B. Mennucci, H. P. Hratchian, 
 J. V. Ortiz, A. F. Izmaylov, J. L. Sonnenberg, D. Williams-Young, 
 F. Ding, F. Lipparini, F. Egidi, J. Goings, B. Peng, A. Petrone, 
 T. Henderson, D. Ranasinghe, V. G. Zakrzewski, J. Gao, N. Rega, 
 G. Zheng, W. Liang, M. Hada, M. Ehara, K. Toyota, R. Fukuda, 
 J. Hasegawa, M. Ishida, T. Nakajima, Y. Honda, O. Kitao, H. Nakai, 
 T. Vreven, K. Throssell, J. A. Montgomery, Jr., J. E. Peralta, 
 F. Ogliaro, M. J. Bearpark, J. J. Heyd, E. N. Brothers, K. N. Kudin, 
 V. N. Staroverov, T. A. Keith, R. Kobayashi, J. Normand, 
 K. Raghavachari, A. P. Rendell, J. C. Burant, S. S. Iyengar, 
 J. Tomasi, M. Cossi, J. M. Millam, M. Klene, C. Adamo, R. Cammi, 
 J. W. Ochterski, R. L. Martin, K. Morokuma, O. Farkas, 
 J. B. Foresman, and D. J. Fox, Gaussian, Inc., Wallingford CT, 2016.
 
 ******************************************
 Gaussian 16:  AS64L-G16RevA.03 25-Dec-2016
                 6-Jun-2019 
 ******************************************
 %nprocshared=32
 Will use up to   32 processors via shared memory.
 %mem=48GB
 ----------------------------------------------------------------------
 #p opt=(ts,calcfc,noeigentest,maxstep=5) freq=noraman pop=none 6-31g* 
 scrf=(pcm,solvent=tetrahydrofuran) m062x
 ----------------------------------------------------------------------
 1/5=1,8=5,10=4,11=1,18=20,26=3,38=1/1,3;
 2/9=110,12=2,17=6,18=5,40=1/2;
 3/5=1,6=6,7=1,11=2,25=1,30=1,70=2201,71=2,72=20,74=-55,140=1/1,2,3;
 4//1;
 5/5=2,38=5,53=20/2;
 8/6=4,10=90,11=11/1;
 11/6=1,8=1,9=11,15=111,16=1/1,2,10;
 10/6=1,13=1/2;
 7/10=1,18=20,25=1/1,2,3,16;
 1/5=1,8=5,10=4,11=1,18=20,26=3/3(2);
 2/9=110/2;
 99//99;
 2/9=110/2;
 3/5=1,6=6,7=1,11=2,25=1,30=1,70=2205,71=1,72=20,74=-55/1,2,3;
 4/5=5,16=3,69=1/1;
 5/5=2,38=5,53=20/2;
 7//1,2,3,16;
 1/5=1,8=5,11=1,18=20,26=3/3(-5);
 2/9=110/2;
 99/9=1/99;
 Leave Link    1 at Thu Jun  6 05:36:56 2019, MaxMem=  6442450944 cpu:               6.0 elap:               0.2
 (Enter /home/ekwan/sw/g16/l101.exe)
 -----
 title
 -----
 Symbolic Z-matrix:
 Charge =  0 Multiplicity = 1
 6                    -1.45906   1.49296   2.50872 
 6                    -1.90034   2.14667   1.19987 
 6                    -1.03427   3.3667    0.88665 
 6                     0.81844   2.48933   2.1147 
 6                     0.04024   1.21562   2.4491 
 1                    -1.25166   3.73733  -0.12496 
 1                    -1.74148   1.43019   0.37921 
 1                    -1.67021   2.18375   3.34021 
 1                     0.63686   3.22312   2.91375 
 1                     0.20101   0.46983   1.65812 
 8                     0.33424   3.0169    0.86925 
 8                    -1.3015    4.34817   1.83779 
 8                    -3.24383   2.56427   1.23987 
 8                    -2.21727   0.31041   2.66235 
 8                     0.49021   0.70267   3.68779 
 6                     2.32501   2.27054   1.95605 
 1                     2.6814    1.91616   2.94498 
 1                     2.75888   3.2903    1.83422 
 8                     2.66049   1.44259   0.91428 
 6                    -4.15592   1.62766   0.69957 
 1                    -3.90397   1.39434  -0.34504 
 1                    -4.17052   0.70038   1.28077 
 1                    -5.14252   2.09567   0.72518 
 6                    -2.28603  -0.19067   3.98593 
 1                    -1.41053  -0.79613   4.23819 
 1                    -2.36272   0.63069   4.70883 
 1                    -3.18249  -0.80866   4.0457 
 6                     1.29866  -0.45006   3.53372 
 1                     0.69922  -1.29595   3.16426 
 1                     2.1166   -0.27206   2.82584 
 1                     1.70371  -0.69785   4.5179 
 6                     3.51216  -1.73192  -1.46803 
 6                     3.0603   -0.35205  -0.99642 
 6                     1.76011  -0.42319  -0.24987 
 6                     1.96476  -2.74514   0.24897 
 6                     3.39338  -2.68383  -0.27893 
 1                     1.10231   0.42281  -0.18242 
 1                     3.77059   0.01059  -0.23494 
 1                     2.87967  -2.06816  -2.30048 
 1                     1.3067   -3.16936  -0.51727 
 1                     4.05337  -2.31711   0.5181 
 8                     1.43588  -1.41043   0.50195 
 8                    -0.55371   0.16878  -3.8439 
 8                     2.90997   0.62918  -1.9908 
 8                     4.86643  -1.65154  -1.85228 
 8                     3.74985  -3.99103  -0.66178 
 6                     1.82064  -3.51977   1.53678 
 1                     2.03785  -4.57796   1.32792 
 1                     0.78022  -3.44441   1.88965 
 8                     2.71558  -2.99021   2.48009 
 16                   -0.37811   0.04173  -2.39813 
 8                    -0.15536   1.32619  -1.68425 
 8                     0.62298  -0.9961   -1.99219 
 6                    -1.91595  -0.59305  -1.73953 
 6                    -3.09428  -0.42441  -2.45082 
 6                    -1.90151  -1.22511  -0.49749 
 6                    -4.28377  -0.89898  -1.89919 
 1                    -3.07892   0.06076  -3.42155 
 6                    -3.09417  -1.70277   0.0242 
 1                    -0.97095  -1.35707   0.04788 
 6                    -4.29219  -1.5453   -0.67029 
 1                    -5.22208  -1.92061  -0.25373 
 6                     4.13213   1.06558  -2.5794 
 1                     4.91336   1.16556  -1.81821 
 1                     4.46738   0.3649   -3.34814 
 1                     3.92936   2.04031  -3.02599 
 6                     5.18931  -2.44044  -2.98522 
 1                     4.95878  -3.49591  -2.81134 
 1                     4.64301  -2.09212  -3.87178 
 1                     6.26046  -2.32093  -3.15515 
 6                     4.84584  -4.51573   0.07111 
 1                     5.75096  -3.92443  -0.10983 
 1                     4.62894  -4.52454   1.14677 
 1                     5.00016  -5.53699  -0.27927 
 6                     2.61208  -3.63945   3.73059 
 1                     3.33298  -3.16764   4.39917 
 1                     1.60207  -3.52834   4.14774 
 1                     2.8436   -4.709     3.63912 
 6                    -0.61427   5.56088   1.58804 
 1                    -0.98112   6.28906   2.3118 
 1                     0.46798   5.43773   1.70831 
 1                    -0.82146   5.92146   0.57165 
 11                    1.73944   2.49785  -0.92573 
 8                     3.4996    3.91472  -1.19369 
 6                     3.73347   5.00639  -2.05829 
 1                     4.57207   4.7921   -2.73419 
 1                     2.82703   5.16554  -2.64444 
 1                     3.96226   5.91448  -1.48618 
 6                     4.61977   3.62578  -0.37312 
 1                     4.83751   4.47428   0.28873 
 1                     4.3516    2.74072   0.21141 
 1                     5.50416   3.42539  -0.99353 
 6                    -5.5871   -0.62977  -2.59692 
 9                    -6.12846   0.52293  -2.16978 
 9                    -6.48552  -1.59507  -2.36219 
 9                    -5.43205  -0.52649  -3.92201 
 6                    -3.12645  -2.43399   1.33591 
 9                    -1.9467   -2.41707   1.96686 
 9                    -3.46398  -3.72261   1.15986 
 9                    -4.04882  -1.9092    2.1575 
 
 Add virtual bond connecting atoms H37        and H10        Dist= 3.87D+00.
 Add virtual bond connecting atoms H37        and O19        Dist= 4.08D+00.
 Add virtual bond connecting atoms H38        and O19        Dist= 4.05D+00.
 Add virtual bond connecting atoms O52        and H37        Dist= 4.08D+00.
 Add virtual bond connecting atoms O53        and C34        Dist= 4.08D+00.
 ITRead=  0  0  0  0  0  0  0  0  0  0  0  0  0  0  0  0  0  0  0  0
 ITRead=  0  0  0  0  0  0  0  0  0  0  0  0  0  0  0  0  0  0  0  0
 ITRead=  0  0  0  0  0  0  0  0  0  0  0  0  0  0  0  0  0  0  0  0
 ITRead=  0  0  0  0  0  0  0  0  0  0  0  0  0  0  0  0  0  0  0  0
 ITRead=  0  0  0  0  0  0  0  0  0  0  0  0  0  0  0  0  0  0  0  0
 MicOpt= -1 -1 -1 -1 -1 -1 -1 -1 -1 -1 -1 -1 -1 -1 -1 -1 -1 -1 -1 -1
 MicOpt= -1 -1 -1 -1 -1 -1 -1 -1 -1 -1 -1 -1 -1 -1 -1 -1 -1 -1 -1 -1
 MicOpt= -1 -1 -1 -1 -1 -1 -1 -1 -1 -1 -1 -1 -1 -1 -1 -1 -1 -1 -1 -1
 MicOpt= -1 -1 -1 -1 -1 -1 -1 -1 -1 -1 -1 -1 -1 -1 -1 -1 -1 -1 -1 -1
 MicOpt= -1 -1 -1 -1 -1 -1 -1 -1 -1 -1 -1 -1 -1 -1 -1 -1 -1 -1 -1 -1
 NAtoms=    100 NQM=      100 NQMF=       0 NMMI=      0 NMMIF=      0
                NMic=       0 NMicF=      0.
                    Isotopes and Nuclear Properties:
 (Nuclear quadrupole moments (NQMom) in fm**2, nuclear magnetic moments (NMagM)
  in nuclear magnetons)

  Atom         1           2           3           4           5           6           7           8           9          10
 IAtWgt=          12          12          12          12          12           1           1           1           1           1
 AtmWgt=  12.0000000  12.0000000  12.0000000  12.0000000  12.0000000   1.0078250   1.0078250   1.0078250   1.0078250   1.0078250
 NucSpn=           0           0           0           0           0           1           1           1           1           1
 AtZEff=   0.0000000   0.0000000   0.0000000   0.0000000   0.0000000   0.0000000   0.0000000   0.0000000   0.0000000   0.0000000
 NQMom=    0.0000000   0.0000000   0.0000000   0.0000000   0.0000000   0.0000000   0.0000000   0.0000000   0.0000000   0.0000000
 NMagM=    0.0000000   0.0000000   0.0000000   0.0000000   0.0000000   2.7928460   2.7928460   2.7928460   2.7928460   2.7928460
 AtZNuc=   6.0000000   6.0000000   6.0000000   6.0000000   6.0000000   1.0000000   1.0000000   1.0000000   1.0000000   1.0000000

  Atom        11          12          13          14          15          16          17          18          19          20
 IAtWgt=          16          16          16          16          16          12           1           1          16          12
 AtmWgt=  15.9949146  15.9949146  15.9949146  15.9949146  15.9949146  12.0000000   1.0078250   1.0078250  15.9949146  12.0000000
 NucSpn=           0           0           0           0           0           0           1           1           0           0
 AtZEff=   0.0000000   0.0000000   0.0000000   0.0000000   0.0000000   0.0000000   0.0000000   0.0000000   0.0000000   0.0000000
 NQMom=    0.0000000   0.0000000   0.0000000   0.0000000   0.0000000   0.0000000   0.0000000   0.0000000   0.0000000   0.0000000
 NMagM=    0.0000000   0.0000000   0.0000000   0.0000000   0.0000000   0.0000000   2.7928460   2.7928460   0.0000000   0.0000000
 AtZNuc=   8.0000000   8.0000000   8.0000000   8.0000000   8.0000000   6.0000000   1.0000000   1.0000000   8.0000000   6.0000000

  Atom        21          22          23          24          25          26          27          28          29          30
 IAtWgt=           1           1           1          12           1           1           1          12           1           1
 AtmWgt=   1.0078250   1.0078250   1.0078250  12.0000000   1.0078250   1.0078250   1.0078250  12.0000000   1.0078250   1.0078250
 NucSpn=           1           1           1           0           1           1           1           0           1           1
 AtZEff=   0.0000000   0.0000000   0.0000000   0.0000000   0.0000000   0.0000000   0.0000000   0.0000000   0.0000000   0.0000000
 NQMom=    0.0000000   0.0000000   0.0000000   0.0000000   0.0000000   0.0000000   0.0000000   0.0000000   0.0000000   0.0000000
 NMagM=    2.7928460   2.7928460   2.7928460   0.0000000   2.7928460   2.7928460   2.7928460   0.0000000   2.7928460   2.7928460
 AtZNuc=   1.0000000   1.0000000   1.0000000   6.0000000   1.0000000   1.0000000   1.0000000   6.0000000   1.0000000   1.0000000

  Atom        31          32          33          34          35          36          37          38          39          40
 IAtWgt=           1          12          12          12          12          12           1           1           1           1
 AtmWgt=   1.0078250  12.0000000  12.0000000  12.0000000  12.0000000  12.0000000   1.0078250   1.0078250   1.0078250   1.0078250
 NucSpn=           1           0           0           0           0           0           1           1           1           1
 AtZEff=   0.0000000   0.0000000   0.0000000   0.0000000   0.0000000   0.0000000   0.0000000   0.0000000   0.0000000   0.0000000
 NQMom=    0.0000000   0.0000000   0.0000000   0.0000000   0.0000000   0.0000000   0.0000000   0.0000000   0.0000000   0.0000000
 NMagM=    2.7928460   0.0000000   0.0000000   0.0000000   0.0000000   0.0000000   2.7928460   2.7928460   2.7928460   2.7928460
 AtZNuc=   1.0000000   6.0000000   6.0000000   6.0000000   6.0000000   6.0000000   1.0000000   1.0000000   1.0000000   1.0000000

  Atom        41          42          43          44          45          46          47          48          49          50
 IAtWgt=           1          16          16          16          16          16          12           1           1          16
 AtmWgt=   1.0078250  15.9949146  15.9949146  15.9949146  15.9949146  15.9949146  12.0000000   1.0078250   1.0078250  15.9949146
 NucSpn=           1           0           0           0           0           0           0           1           1           0
 AtZEff=   0.0000000   0.0000000   0.0000000   0.0000000   0.0000000   0.0000000   0.0000000   0.0000000   0.0000000   0.0000000
 NQMom=    0.0000000   0.0000000   0.0000000   0.0000000   0.0000000   0.0000000   0.0000000   0.0000000   0.0000000   0.0000000
 NMagM=    2.7928460   0.0000000   0.0000000   0.0000000   0.0000000   0.0000000   0.0000000   2.7928460   2.7928460   0.0000000
 AtZNuc=   1.0000000   8.0000000   8.0000000   8.0000000   8.0000000   8.0000000   6.0000000   1.0000000   1.0000000   8.0000000

  Atom        51          52          53          54          55          56          57          58          59          60
 IAtWgt=          32          16          16          12          12          12          12           1          12           1
 AtmWgt=  31.9720718  15.9949146  15.9949146  12.0000000  12.0000000  12.0000000  12.0000000   1.0078250  12.0000000   1.0078250
 NucSpn=           0           0           0           0           0           0           0           1           0           1
 AtZEff=   0.0000000   0.0000000   0.0000000   0.0000000   0.0000000   0.0000000   0.0000000   0.0000000   0.0000000   0.0000000
 NQMom=    0.0000000   0.0000000   0.0000000   0.0000000   0.0000000   0.0000000   0.0000000   0.0000000   0.0000000   0.0000000
 NMagM=    0.0000000   0.0000000   0.0000000   0.0000000   0.0000000   0.0000000   0.0000000   2.7928460   0.0000000   2.7928460
 AtZNuc=  16.0000000   8.0000000   8.0000000   6.0000000   6.0000000   6.0000000   6.0000000   1.0000000   6.0000000   1.0000000

  Atom        61          62          63          64          65          66          67          68          69          70
 IAtWgt=          12           1          12           1           1           1          12           1           1           1
 AtmWgt=  12.0000000   1.0078250  12.0000000   1.0078250   1.0078250   1.0078250  12.0000000   1.0078250   1.0078250   1.0078250
 NucSpn=           0           1           0           1           1           1           0           1           1           1
 AtZEff=   0.0000000   0.0000000   0.0000000   0.0000000   0.0000000   0.0000000   0.0000000   0.0000000   0.0000000   0.0000000
 NQMom=    0.0000000   0.0000000   0.0000000   0.0000000   0.0000000   0.0000000   0.0000000   0.0000000   0.0000000   0.0000000
 NMagM=    0.0000000   2.7928460   0.0000000   2.7928460   2.7928460   2.7928460   0.0000000   2.7928460   2.7928460   2.7928460
 AtZNuc=   6.0000000   1.0000000   6.0000000   1.0000000   1.0000000   1.0000000   6.0000000   1.0000000   1.0000000   1.0000000

  Atom        71          72          73          74          75          76          77          78          79          80
 IAtWgt=          12           1           1           1          12           1           1           1          12           1
 AtmWgt=  12.0000000   1.0078250   1.0078250   1.0078250  12.0000000   1.0078250   1.0078250   1.0078250  12.0000000   1.0078250
 NucSpn=           0           1           1           1           0           1           1           1           0           1
 AtZEff=   0.0000000   0.0000000   0.0000000   0.0000000   0.0000000   0.0000000   0.0000000   0.0000000   0.0000000   0.0000000
 NQMom=    0.0000000   0.0000000   0.0000000   0.0000000   0.0000000   0.0000000   0.0000000   0.0000000   0.0000000   0.0000000
 NMagM=    0.0000000   2.7928460   2.7928460   2.7928460   0.0000000   2.7928460   2.7928460   2.7928460   0.0000000   2.7928460
 AtZNuc=   6.0000000   1.0000000   1.0000000   1.0000000   6.0000000   1.0000000   1.0000000   1.0000000   6.0000000   1.0000000

  Atom        81          82          83          84          85          86          87          88          89          90
 IAtWgt=           1           1          23          16          12           1           1           1          12           1
 AtmWgt=   1.0078250   1.0078250  22.9897697  15.9949146  12.0000000   1.0078250   1.0078250   1.0078250  12.0000000   1.0078250
 NucSpn=           1           1           3           0           0           1           1           1           0           1
 AtZEff=   0.0000000   0.0000000   0.0000000   0.0000000   0.0000000   0.0000000   0.0000000   0.0000000   0.0000000   0.0000000
 NQMom=    0.0000000   0.0000000  10.4000000   0.0000000   0.0000000   0.0000000   0.0000000   0.0000000   0.0000000   0.0000000
 NMagM=    2.7928460   2.7928460   2.2175200   0.0000000   0.0000000   2.7928460   2.7928460   2.7928460   0.0000000   2.7928460
 AtZNuc=   1.0000000   1.0000000  11.0000000   8.0000000   6.0000000   1.0000000   1.0000000   1.0000000   6.0000000   1.0000000

  Atom        91          92          93          94          95          96          97          98          99         100
 IAtWgt=           1           1          12          19          19          19          12          19          19          19
 AtmWgt=   1.0078250   1.0078250  12.0000000  18.9984033  18.9984033  18.9984033  12.0000000  18.9984033  18.9984033  18.9984033
 NucSpn=           1           1           0           1           1           1           0           1           1           1
 AtZEff=   0.0000000   0.0000000   0.0000000   0.0000000   0.0000000   0.0000000   0.0000000   0.0000000   0.0000000   0.0000000
 NQMom=    0.0000000   0.0000000   0.0000000   0.0000000   0.0000000   0.0000000   0.0000000   0.0000000   0.0000000   0.0000000
 NMagM=    2.7928460   2.7928460   0.0000000   2.6288670   2.6288670   2.6288670   0.0000000   2.6288670   2.6288670   2.6288670
 AtZNuc=   1.0000000   1.0000000   6.0000000   9.0000000   9.0000000   9.0000000   6.0000000   9.0000000   9.0000000   9.0000000
 Leave Link  101 at Thu Jun  6 05:36:56 2019, MaxMem=  6442450944 cpu:              17.9 elap:               0.7
 (Enter /home/ekwan/sw/g16/l103.exe)

 GradGradGradGradGradGradGradGradGradGradGradGradGradGradGradGradGradGrad
 Berny optimization.
 Initialization pass.
                           ----------------------------
                           !    Initial Parameters    !
                           ! (Angstroms and Degrees)  !
 --------------------------                            --------------------------
 ! Name  Definition              Value          Derivative Info.                !
 --------------------------------------------------------------------------------
 ! R1    R(1,2)                  1.5281         calculate D2E/DX2 analytically  !
 ! R2    R(1,5)                  1.5259         calculate D2E/DX2 analytically  !
 ! R3    R(1,8)                  1.1014         calculate D2E/DX2 analytically  !
 ! R4    R(1,14)                 1.4131         calculate D2E/DX2 analytically  !
 ! R5    R(2,3)                  1.5286         calculate D2E/DX2 analytically  !
 ! R6    R(2,7)                  1.1009         calculate D2E/DX2 analytically  !
 ! R7    R(2,13)                 1.4075         calculate D2E/DX2 analytically  !
 ! R8    R(3,6)                  1.0991         calculate D2E/DX2 analytically  !
 ! R9    R(3,11)                 1.4126         calculate D2E/DX2 analytically  !
 ! R10   R(3,12)                 1.3926         calculate D2E/DX2 analytically  !
 ! R11   R(4,5)                  1.5296         calculate D2E/DX2 analytically  !
 ! R12   R(4,9)                  1.1            calculate D2E/DX2 analytically  !
 ! R13   R(4,11)                 1.4366         calculate D2E/DX2 analytically  !
 ! R14   R(4,16)                 1.5306         calculate D2E/DX2 analytically  !
 ! R15   R(5,10)                 1.099          calculate D2E/DX2 analytically  !
 ! R16   R(5,15)                 1.4142         calculate D2E/DX2 analytically  !
 ! R17   R(10,37)                2.0499         calculate D2E/DX2 analytically  !
 ! R18   R(12,79)                1.4161         calculate D2E/DX2 analytically  !
 ! R19   R(13,20)                1.4146         calculate D2E/DX2 analytically  !
 ! R20   R(14,24)                1.4169         calculate D2E/DX2 analytically  !
 ! R21   R(15,28)                1.4164         calculate D2E/DX2 analytically  !
 ! R22   R(16,17)                1.1093         calculate D2E/DX2 analytically  !
 ! R23   R(16,18)                1.1149         calculate D2E/DX2 analytically  !
 ! R24   R(16,19)                1.3723         calculate D2E/DX2 analytically  !
 ! R25   R(19,37)                2.1612         calculate D2E/DX2 analytically  !
 ! R26   R(19,38)                2.1456         calculate D2E/DX2 analytically  !
 ! R27   R(20,21)                1.0996         calculate D2E/DX2 analytically  !
 ! R28   R(20,22)                1.0945         calculate D2E/DX2 analytically  !
 ! R29   R(20,23)                1.0923         calculate D2E/DX2 analytically  !
 ! R30   R(24,25)                1.0939         calculate D2E/DX2 analytically  !
 ! R31   R(24,26)                1.0969         calculate D2E/DX2 analytically  !
 ! R32   R(24,27)                1.0905         calculate D2E/DX2 analytically  !
 ! R33   R(28,29)                1.1006         calculate D2E/DX2 analytically  !
 ! R34   R(28,30)                1.0963         calculate D2E/DX2 analytically  !
 ! R35   R(28,31)                1.0927         calculate D2E/DX2 analytically  !
 ! R36   R(32,33)                1.5266         calculate D2E/DX2 analytically  !
 ! R37   R(32,36)                1.5278         calculate D2E/DX2 analytically  !
 ! R38   R(32,39)                1.0982         calculate D2E/DX2 analytically  !
 ! R39   R(32,45)                1.41           calculate D2E/DX2 analytically  !
 ! R40   R(33,34)                1.501          calculate D2E/DX2 analytically  !
 ! R41   R(33,38)                1.1027         calculate D2E/DX2 analytically  !
 ! R42   R(33,44)                1.4051         calculate D2E/DX2 analytically  !
 ! R43   R(34,37)                1.0738         calculate D2E/DX2 analytically  !
 ! R44   R(34,42)                1.2826         calculate D2E/DX2 analytically  !
 ! R45   R(34,53)                2.158          calculate D2E/DX2 analytically  !
 ! R46   R(35,36)                1.5243         calculate D2E/DX2 analytically  !
 ! R47   R(35,40)                1.0955         calculate D2E/DX2 analytically  !
 ! R48   R(35,42)                1.4578         calculate D2E/DX2 analytically  !
 ! R49   R(35,47)                1.5097         calculate D2E/DX2 analytically  !
 ! R50   R(36,41)                1.0979         calculate D2E/DX2 analytically  !
 ! R51   R(36,46)                1.408          calculate D2E/DX2 analytically  !
 ! R52   R(37,52)                2.1572         calculate D2E/DX2 analytically  !
 ! R53   R(37,83)                2.2944         calculate D2E/DX2 analytically  !
 ! R54   R(43,51)                1.4619         calculate D2E/DX2 analytically  !
 ! R55   R(44,63)                1.425          calculate D2E/DX2 analytically  !
 ! R56   R(45,67)                1.4178         calculate D2E/DX2 analytically  !
 ! R57   R(46,71)                1.419          calculate D2E/DX2 analytically  !
 ! R58   R(47,48)                1.1003         calculate D2E/DX2 analytically  !
 ! R59   R(47,49)                1.1012         calculate D2E/DX2 analytically  !
 ! R60   R(47,50)                1.404          calculate D2E/DX2 analytically  !
 ! R61   R(50,75)                1.4128         calculate D2E/DX2 analytically  !
 ! R62   R(51,52)                1.4863         calculate D2E/DX2 analytically  !
 ! R63   R(51,53)                1.498          calculate D2E/DX2 analytically  !
 ! R64   R(51,54)                1.7893         calculate D2E/DX2 analytically  !
 ! R65   R(54,55)                1.3867         calculate D2E/DX2 analytically  !
 ! R66   R(54,56)                1.3937         calculate D2E/DX2 analytically  !
 ! R67   R(55,57)                1.3944         calculate D2E/DX2 analytically  !
 ! R68   R(55,58)                1.0853         calculate D2E/DX2 analytically  !
 ! R69   R(56,59)                1.3866         calculate D2E/DX2 analytically  !
 ! R70   R(56,60)                1.0866         calculate D2E/DX2 analytically  !
 ! R71   R(57,61)                1.3885         calculate D2E/DX2 analytically  !
 ! R72   R(57,93)                1.5027         calculate D2E/DX2 analytically  !
 ! R73   R(59,61)                1.3937         calculate D2E/DX2 analytically  !
 ! R74   R(59,97)                1.5021         calculate D2E/DX2 analytically  !
 ! R75   R(61,62)                1.0859         calculate D2E/DX2 analytically  !
 ! R76   R(63,64)                1.0953         calculate D2E/DX2 analytically  !
 ! R77   R(63,65)                1.0928         calculate D2E/DX2 analytically  !
 ! R78   R(63,66)                1.0912         calculate D2E/DX2 analytically  !
 ! R79   R(67,68)                1.0942         calculate D2E/DX2 analytically  !
 ! R80   R(67,69)                1.0981         calculate D2E/DX2 analytically  !
 ! R81   R(67,70)                1.0911         calculate D2E/DX2 analytically  !
 ! R82   R(71,72)                1.0962         calculate D2E/DX2 analytically  !
 ! R83   R(71,73)                1.0973         calculate D2E/DX2 analytically  !
 ! R84   R(71,74)                1.0907         calculate D2E/DX2 analytically  !
 ! R85   R(75,76)                1.0905         calculate D2E/DX2 analytically  !
 ! R86   R(75,77)                1.0984         calculate D2E/DX2 analytically  !
 ! R87   R(75,78)                1.0981         calculate D2E/DX2 analytically  !
 ! R88   R(79,80)                1.0903         calculate D2E/DX2 analytically  !
 ! R89   R(79,81)                1.0959         calculate D2E/DX2 analytically  !
 ! R90   R(79,82)                1.0982         calculate D2E/DX2 analytically  !
 ! R91   R(83,84)                2.2754         calculate D2E/DX2 analytically  !
 ! R92   R(84,85)                1.4121         calculate D2E/DX2 analytically  !
 ! R93   R(84,89)                1.4183         calculate D2E/DX2 analytically  !
 ! R94   R(85,86)                1.0982         calculate D2E/DX2 analytically  !
 ! R95   R(85,87)                1.0911         calculate D2E/DX2 analytically  !
 ! R96   R(85,88)                1.0974         calculate D2E/DX2 analytically  !
 ! R97   R(89,90)                1.0979         calculate D2E/DX2 analytically  !
 ! R98   R(89,91)                1.094          calculate D2E/DX2 analytically  !
 ! R99   R(89,92)                1.0987         calculate D2E/DX2 analytically  !
 ! R100  R(93,94)                1.3432         calculate D2E/DX2 analytically  !
 ! R101  R(93,95)                1.3394         calculate D2E/DX2 analytically  !
 ! R102  R(93,96)                1.3381         calculate D2E/DX2 analytically  !
 ! R103  R(97,98)                1.338          calculate D2E/DX2 analytically  !
 ! R104  R(97,99)                1.3437         calculate D2E/DX2 analytically  !
 ! R105  R(97,100)               1.3421         calculate D2E/DX2 analytically  !
 ! A1    A(2,1,5)              109.1491         calculate D2E/DX2 analytically  !
 ! A2    A(2,1,8)              108.8411         calculate D2E/DX2 analytically  !
 ! A3    A(2,1,14)             107.2277         calculate D2E/DX2 analytically  !
 ! A4    A(5,1,8)              109.3805         calculate D2E/DX2 analytically  !
 ! A5    A(5,1,14)             112.2932         calculate D2E/DX2 analytically  !
 ! A6    A(8,1,14)             109.8713         calculate D2E/DX2 analytically  !
 ! A7    A(1,2,3)              110.6908         calculate D2E/DX2 analytically  !
 ! A8    A(1,2,7)              108.5655         calculate D2E/DX2 analytically  !
 ! A9    A(1,2,13)             112.2241         calculate D2E/DX2 analytically  !
 ! A10   A(3,2,7)              106.5544         calculate D2E/DX2 analytically  !
 ! A11   A(3,2,13)             108.0493         calculate D2E/DX2 analytically  !
 ! A12   A(7,2,13)             110.6102         calculate D2E/DX2 analytically  !
 ! A13   A(2,3,6)              110.2232         calculate D2E/DX2 analytically  !
 ! A14   A(2,3,11)             110.718          calculate D2E/DX2 analytically  !
 ! A15   A(2,3,12)             108.2902         calculate D2E/DX2 analytically  !
 ! A16   A(6,3,11)             105.2941         calculate D2E/DX2 analytically  !
 ! A17   A(6,3,12)             110.6723         calculate D2E/DX2 analytically  !
 ! A18   A(11,3,12)            111.6438         calculate D2E/DX2 analytically  !
 ! A19   A(5,4,9)              108.2219         calculate D2E/DX2 analytically  !
 ! A20   A(5,4,11)             108.8958         calculate D2E/DX2 analytically  !
 ! A21   A(5,4,16)             113.8532         calculate D2E/DX2 analytically  !
 ! A22   A(9,4,11)             109.2169         calculate D2E/DX2 analytically  !
 ! A23   A(9,4,16)             109.4592         calculate D2E/DX2 analytically  !
 ! A24   A(11,4,16)            107.1201         calculate D2E/DX2 analytically  !
 ! A25   A(1,5,4)              110.9209         calculate D2E/DX2 analytically  !
 ! A26   A(1,5,10)             107.1702         calculate D2E/DX2 analytically  !
 ! A27   A(1,5,15)             110.1415         calculate D2E/DX2 analytically  !
 ! A28   A(4,5,10)             109.4702         calculate D2E/DX2 analytically  !
 ! A29   A(4,5,15)             109.3686         calculate D2E/DX2 analytically  !
 ! A30   A(10,5,15)            109.7386         calculate D2E/DX2 analytically  !
 ! A31   A(5,10,37)            136.5629         calculate D2E/DX2 analytically  !
 ! A32   A(3,11,4)             114.0018         calculate D2E/DX2 analytically  !
 ! A33   A(3,12,79)            112.9524         calculate D2E/DX2 analytically  !
 ! A34   A(2,13,20)            114.0895         calculate D2E/DX2 analytically  !
 ! A35   A(1,14,24)            115.0575         calculate D2E/DX2 analytically  !
 ! A36   A(5,15,28)            112.4289         calculate D2E/DX2 analytically  !
 ! A37   A(4,16,17)            105.6338         calculate D2E/DX2 analytically  !
 ! A38   A(4,16,18)            105.2854         calculate D2E/DX2 analytically  !
 ! A39   A(4,16,19)            113.9244         calculate D2E/DX2 analytically  !
 ! A40   A(17,16,18)           105.3427         calculate D2E/DX2 analytically  !
 ! A41   A(17,16,19)           113.9205         calculate D2E/DX2 analytically  !
 ! A42   A(18,16,19)           111.9466         calculate D2E/DX2 analytically  !
 ! A43   A(16,19,37)           119.5811         calculate D2E/DX2 analytically  !
 ! A44   A(16,19,38)           159.3452         calculate D2E/DX2 analytically  !
 ! A45   A(37,19,38)            77.6606         calculate D2E/DX2 analytically  !
 ! A46   A(13,20,21)           110.8302         calculate D2E/DX2 analytically  !
 ! A47   A(13,20,22)           111.5142         calculate D2E/DX2 analytically  !
 ! A48   A(13,20,23)           106.8424         calculate D2E/DX2 analytically  !
 ! A49   A(21,20,22)           109.1331         calculate D2E/DX2 analytically  !
 ! A50   A(21,20,23)           108.6725         calculate D2E/DX2 analytically  !
 ! A51   A(22,20,23)           109.7866         calculate D2E/DX2 analytically  !
 ! A52   A(14,24,25)           111.8571         calculate D2E/DX2 analytically  !
 ! A53   A(14,24,26)           110.7461         calculate D2E/DX2 analytically  !
 ! A54   A(14,24,27)           106.9478         calculate D2E/DX2 analytically  !
 ! A55   A(25,24,26)           108.5684         calculate D2E/DX2 analytically  !
 ! A56   A(25,24,27)           109.3674         calculate D2E/DX2 analytically  !
 ! A57   A(26,24,27)           109.316          calculate D2E/DX2 analytically  !
 ! A58   A(15,28,29)           110.557          calculate D2E/DX2 analytically  !
 ! A59   A(15,28,30)           111.3443         calculate D2E/DX2 analytically  !
 ! A60   A(15,28,31)           107.3471         calculate D2E/DX2 analytically  !
 ! A61   A(29,28,30)           108.3241         calculate D2E/DX2 analytically  !
 ! A62   A(29,28,31)           109.2654         calculate D2E/DX2 analytically  !
 ! A63   A(30,28,31)           109.9876         calculate D2E/DX2 analytically  !
 ! A64   A(33,32,36)           107.4404         calculate D2E/DX2 analytically  !
 ! A65   A(33,32,39)           109.9035         calculate D2E/DX2 analytically  !
 ! A66   A(33,32,45)           108.4777         calculate D2E/DX2 analytically  !
 ! A67   A(36,32,39)           110.7581         calculate D2E/DX2 analytically  !
 ! A68   A(36,32,45)           108.8009         calculate D2E/DX2 analytically  !
 ! A69   A(39,32,45)           111.3487         calculate D2E/DX2 analytically  !
 ! A70   A(32,33,34)           111.5429         calculate D2E/DX2 analytically  !
 ! A71   A(32,33,38)           108.6586         calculate D2E/DX2 analytically  !
 ! A72   A(32,33,44)           116.3755         calculate D2E/DX2 analytically  !
 ! A73   A(34,33,38)           103.3025         calculate D2E/DX2 analytically  !
 ! A74   A(34,33,44)           107.0032         calculate D2E/DX2 analytically  !
 ! A75   A(38,33,44)           109.1471         calculate D2E/DX2 analytically  !
 ! A76   A(33,34,37)           121.6389         calculate D2E/DX2 analytically  !
 ! A77   A(33,34,42)           123.1628         calculate D2E/DX2 analytically  !
 ! A78   A(33,34,53)            93.8679         calculate D2E/DX2 analytically  !
 ! A79   A(37,34,42)           114.5052         calculate D2E/DX2 analytically  !
 ! A80   A(37,34,53)            86.392          calculate D2E/DX2 analytically  !
 ! A81   A(42,34,53)            97.7995         calculate D2E/DX2 analytically  !
 ! A82   A(36,35,40)           109.6537         calculate D2E/DX2 analytically  !
 ! A83   A(36,35,42)           111.3031         calculate D2E/DX2 analytically  !
 ! A84   A(36,35,47)           113.9241         calculate D2E/DX2 analytically  !
 ! A85   A(40,35,42)           104.9513         calculate D2E/DX2 analytically  !
 ! A86   A(40,35,47)           109.9134         calculate D2E/DX2 analytically  !
 ! A87   A(42,35,47)           106.6852         calculate D2E/DX2 analytically  !
 ! A88   A(32,36,35)           111.5596         calculate D2E/DX2 analytically  !
 ! A89   A(32,36,41)           108.0698         calculate D2E/DX2 analytically  !
 ! A90   A(32,36,46)           110.3126         calculate D2E/DX2 analytically  !
 ! A91   A(35,36,41)           108.9922         calculate D2E/DX2 analytically  !
 ! A92   A(35,36,46)           107.1046         calculate D2E/DX2 analytically  !
 ! A93   A(41,36,46)           110.8138         calculate D2E/DX2 analytically  !
 ! A94   A(10,37,19)            81.4049         calculate D2E/DX2 analytically  !
 ! A95   A(10,37,34)           110.1095         calculate D2E/DX2 analytically  !
 ! A96   A(10,37,52)           111.0483         calculate D2E/DX2 analytically  !
 ! A97   A(10,37,83)           113.0934         calculate D2E/DX2 analytically  !
 ! A98   A(19,37,34)            87.8199         calculate D2E/DX2 analytically  !
 ! A99   A(19,37,52)           125.1726         calculate D2E/DX2 analytically  !
 ! A100  A(19,37,83)            62.4472         calculate D2E/DX2 analytically  !
 ! A101  A(34,37,52)           130.0452         calculate D2E/DX2 analytically  !
 ! A102  A(34,37,83)           121.4726         calculate D2E/DX2 analytically  !
 ! A103  A(52,37,83)            63.7432         calculate D2E/DX2 analytically  !
 ! A104  A(19,38,33)           104.8388         calculate D2E/DX2 analytically  !
 ! A105  A(34,42,35)           120.7511         calculate D2E/DX2 analytically  !
 ! A106  A(33,44,63)           114.4832         calculate D2E/DX2 analytically  !
 ! A107  A(32,45,67)           113.8762         calculate D2E/DX2 analytically  !
 ! A108  A(36,46,71)           113.4779         calculate D2E/DX2 analytically  !
 ! A109  A(35,47,48)           108.2226         calculate D2E/DX2 analytically  !
 ! A110  A(35,47,49)           109.1725         calculate D2E/DX2 analytically  !
 ! A111  A(35,47,50)           108.5863         calculate D2E/DX2 analytically  !
 ! A112  A(48,47,49)           108.2501         calculate D2E/DX2 analytically  !
 ! A113  A(48,47,50)           111.3744         calculate D2E/DX2 analytically  !
 ! A114  A(49,47,50)           111.1697         calculate D2E/DX2 analytically  !
 ! A115  A(47,50,75)           112.0034         calculate D2E/DX2 analytically  !
 ! A116  A(43,51,52)           114.7018         calculate D2E/DX2 analytically  !
 ! A117  A(43,51,53)           114.1088         calculate D2E/DX2 analytically  !
 ! A118  A(43,51,54)           106.954          calculate D2E/DX2 analytically  !
 ! A119  A(52,51,53)           111.6175         calculate D2E/DX2 analytically  !
 ! A120  A(52,51,54)           104.9872         calculate D2E/DX2 analytically  !
 ! A121  A(53,51,54)           103.2285         calculate D2E/DX2 analytically  !
 ! A122  A(37,52,51)            93.4316         calculate D2E/DX2 analytically  !
 ! A123  A(34,53,51)           112.768          calculate D2E/DX2 analytically  !
 ! A124  A(51,54,55)           119.893          calculate D2E/DX2 analytically  !
 ! A125  A(51,54,56)           118.686          calculate D2E/DX2 analytically  !
 ! A126  A(55,54,56)           121.4057         calculate D2E/DX2 analytically  !
 ! A127  A(54,55,57)           118.7223         calculate D2E/DX2 analytically  !
 ! A128  A(54,55,58)           120.0745         calculate D2E/DX2 analytically  !
 ! A129  A(57,55,58)           121.2008         calculate D2E/DX2 analytically  !
 ! A130  A(54,56,59)           118.8554         calculate D2E/DX2 analytically  !
 ! A131  A(54,56,60)           120.7456         calculate D2E/DX2 analytically  !
 ! A132  A(59,56,60)           120.3918         calculate D2E/DX2 analytically  !
 ! A133  A(55,57,61)           120.9114         calculate D2E/DX2 analytically  !
 ! A134  A(55,57,93)           119.6842         calculate D2E/DX2 analytically  !
 ! A135  A(61,57,93)           119.2806         calculate D2E/DX2 analytically  !
 ! A136  A(56,59,61)           120.8613         calculate D2E/DX2 analytically  !
 ! A137  A(56,59,97)           120.9785         calculate D2E/DX2 analytically  !
 ! A138  A(61,59,97)           118.1427         calculate D2E/DX2 analytically  !
 ! A139  A(57,61,59)           119.2354         calculate D2E/DX2 analytically  !
 ! A140  A(57,61,62)           120.3712         calculate D2E/DX2 analytically  !
 ! A141  A(59,61,62)           120.3931         calculate D2E/DX2 analytically  !
 ! A142  A(44,63,64)           110.6482         calculate D2E/DX2 analytically  !
 ! A143  A(44,63,65)           110.9346         calculate D2E/DX2 analytically  !
 ! A144  A(44,63,66)           106.4534         calculate D2E/DX2 analytically  !
 ! A145  A(64,63,65)           109.1829         calculate D2E/DX2 analytically  !
 ! A146  A(64,63,66)           109.5985         calculate D2E/DX2 analytically  !
 ! A147  A(65,63,66)           109.9893         calculate D2E/DX2 analytically  !
 ! A148  A(45,67,68)           111.2076         calculate D2E/DX2 analytically  !
 ! A149  A(45,67,69)           110.8151         calculate D2E/DX2 analytically  !
 ! A150  A(45,67,70)           106.682          calculate D2E/DX2 analytically  !
 ! A151  A(68,67,69)           109.2358         calculate D2E/DX2 analytically  !
 ! A152  A(68,67,70)           109.7076         calculate D2E/DX2 analytically  !
 ! A153  A(69,67,70)           109.143          calculate D2E/DX2 analytically  !
 ! A154  A(46,71,72)           110.6731         calculate D2E/DX2 analytically  !
 ! A155  A(46,71,73)           110.8896         calculate D2E/DX2 analytically  !
 ! A156  A(46,71,74)           106.8338         calculate D2E/DX2 analytically  !
 ! A157  A(72,71,73)           109.2282         calculate D2E/DX2 analytically  !
 ! A158  A(72,71,74)           109.5868         calculate D2E/DX2 analytically  !
 ! A159  A(73,71,74)           109.5941         calculate D2E/DX2 analytically  !
 ! A160  A(50,75,76)           107.1817         calculate D2E/DX2 analytically  !
 ! A161  A(50,75,77)           110.9184         calculate D2E/DX2 analytically  !
 ! A162  A(50,75,78)           111.0025         calculate D2E/DX2 analytically  !
 ! A163  A(76,75,77)           109.3454         calculate D2E/DX2 analytically  !
 ! A164  A(76,75,78)           109.4547         calculate D2E/DX2 analytically  !
 ! A165  A(77,75,78)           108.906          calculate D2E/DX2 analytically  !
 ! A166  A(12,79,80)           106.954          calculate D2E/DX2 analytically  !
 ! A167  A(12,79,81)           111.3264         calculate D2E/DX2 analytically  !
 ! A168  A(12,79,82)           110.6626         calculate D2E/DX2 analytically  !
 ! A169  A(80,79,81)           109.5421         calculate D2E/DX2 analytically  !
 ! A170  A(80,79,82)           109.3669         calculate D2E/DX2 analytically  !
 ! A171  A(81,79,82)           108.9533         calculate D2E/DX2 analytically  !
 ! A172  A(37,83,84)           144.6982         calculate D2E/DX2 analytically  !
 ! A173  A(83,84,85)           132.9703         calculate D2E/DX2 analytically  !
 ! A174  A(83,84,89)           114.5797         calculate D2E/DX2 analytically  !
 ! A175  A(85,84,89)           112.3915         calculate D2E/DX2 analytically  !
 ! A176  A(84,85,86)           110.6381         calculate D2E/DX2 analytically  !
 ! A177  A(84,85,87)           107.7036         calculate D2E/DX2 analytically  !
 ! A178  A(84,85,88)           110.797          calculate D2E/DX2 analytically  !
 ! A179  A(86,85,87)           109.4026         calculate D2E/DX2 analytically  !
 ! A180  A(86,85,88)           108.8524         calculate D2E/DX2 analytically  !
 ! A181  A(87,85,88)           109.4242         calculate D2E/DX2 analytically  !
 ! A182  A(84,89,90)           110.3618         calculate D2E/DX2 analytically  !
 ! A183  A(84,89,91)           106.2797         calculate D2E/DX2 analytically  !
 ! A184  A(84,89,92)           110.2545         calculate D2E/DX2 analytically  !
 ! A185  A(90,89,91)           110.594          calculate D2E/DX2 analytically  !
 ! A186  A(90,89,92)           108.7661         calculate D2E/DX2 analytically  !
 ! A187  A(91,89,92)           110.5765         calculate D2E/DX2 analytically  !
 ! A188  A(57,93,94)           110.8338         calculate D2E/DX2 analytically  !
 ! A189  A(57,93,95)           111.795          calculate D2E/DX2 analytically  !
 ! A190  A(57,93,96)           111.9095         calculate D2E/DX2 analytically  !
 ! A191  A(94,93,95)           107.0018         calculate D2E/DX2 analytically  !
 ! A192  A(94,93,96)           107.1793         calculate D2E/DX2 analytically  !
 ! A193  A(95,93,96)           107.8714         calculate D2E/DX2 analytically  !
 ! A194  A(59,97,98)           112.7488         calculate D2E/DX2 analytically  !
 ! A195  A(59,97,99)           110.9681         calculate D2E/DX2 analytically  !
 ! A196  A(59,97,100)          111.0388         calculate D2E/DX2 analytically  !
 ! A197  A(98,97,99)           107.1816         calculate D2E/DX2 analytically  !
 ! A198  A(98,97,100)          108.2011         calculate D2E/DX2 analytically  !
 ! A199  A(99,97,100)          106.414          calculate D2E/DX2 analytically  !
 ! D1    D(5,1,2,3)            -52.6999         calculate D2E/DX2 analytically  !
 ! D2    D(5,1,2,7)             63.9246         calculate D2E/DX2 analytically  !
 ! D3    D(5,1,2,13)          -173.5032         calculate D2E/DX2 analytically  !
 ! D4    D(8,1,2,3)             66.6179         calculate D2E/DX2 analytically  !
 ! D5    D(8,1,2,7)           -176.7576         calculate D2E/DX2 analytically  !
 ! D6    D(8,1,2,13)           -54.1854         calculate D2E/DX2 analytically  !
 ! D7    D(14,1,2,3)          -174.5771         calculate D2E/DX2 analytically  !
 ! D8    D(14,1,2,7)           -57.9526         calculate D2E/DX2 analytically  !
 ! D9    D(14,1,2,13)           64.6196         calculate D2E/DX2 analytically  !
 ! D10   D(2,1,5,4)             54.398          calculate D2E/DX2 analytically  !
 ! D11   D(2,1,5,10)           -65.0482         calculate D2E/DX2 analytically  !
 ! D12   D(2,1,5,15)           175.6221         calculate D2E/DX2 analytically  !
 ! D13   D(8,1,5,4)            -64.5847         calculate D2E/DX2 analytically  !
 ! D14   D(8,1,5,10)           175.9691         calculate D2E/DX2 analytically  !
 ! D15   D(8,1,5,15)            56.6394         calculate D2E/DX2 analytically  !
 ! D16   D(14,1,5,4)           173.1624         calculate D2E/DX2 analytically  !
 ! D17   D(14,1,5,10)           53.7162         calculate D2E/DX2 analytically  !
 ! D18   D(14,1,5,15)          -65.6135         calculate D2E/DX2 analytically  !
 ! D19   D(2,1,14,24)         -159.78           calculate D2E/DX2 analytically  !
 ! D20   D(5,1,14,24)           80.3317         calculate D2E/DX2 analytically  !
 ! D21   D(8,1,14,24)          -41.6424         calculate D2E/DX2 analytically  !
 ! D22   D(1,2,3,6)            171.2358         calculate D2E/DX2 analytically  !
 ! D23   D(1,2,3,11)            55.1401         calculate D2E/DX2 analytically  !
 ! D24   D(1,2,3,12)           -67.5662         calculate D2E/DX2 analytically  !
 ! D25   D(7,2,3,6)             53.3751         calculate D2E/DX2 analytically  !
 ! D26   D(7,2,3,11)           -62.7206         calculate D2E/DX2 analytically  !
 ! D27   D(7,2,3,12)           174.5731         calculate D2E/DX2 analytically  !
 ! D28   D(13,2,3,6)           -65.513          calculate D2E/DX2 analytically  !
 ! D29   D(13,2,3,11)          178.3913         calculate D2E/DX2 analytically  !
 ! D30   D(13,2,3,12)           55.685          calculate D2E/DX2 analytically  !
 ! D31   D(1,2,13,20)          -95.1403         calculate D2E/DX2 analytically  !
 ! D32   D(3,2,13,20)          142.5444         calculate D2E/DX2 analytically  !
 ! D33   D(7,2,13,20)           26.267          calculate D2E/DX2 analytically  !
 ! D34   D(2,3,11,4)           -60.2743         calculate D2E/DX2 analytically  !
 ! D35   D(6,3,11,4)          -179.3902         calculate D2E/DX2 analytically  !
 ! D36   D(12,3,11,4)           60.4604         calculate D2E/DX2 analytically  !
 ! D37   D(2,3,12,79)         -176.0307         calculate D2E/DX2 analytically  !
 ! D38   D(6,3,12,79)          -55.1107         calculate D2E/DX2 analytically  !
 ! D39   D(11,3,12,79)          61.8278         calculate D2E/DX2 analytically  !
 ! D40   D(9,4,5,1)             61.4898         calculate D2E/DX2 analytically  !
 ! D41   D(9,4,5,10)           179.5478         calculate D2E/DX2 analytically  !
 ! D42   D(9,4,5,15)           -60.1881         calculate D2E/DX2 analytically  !
 ! D43   D(11,4,5,1)           -57.1269         calculate D2E/DX2 analytically  !
 ! D44   D(11,4,5,10)           60.9312         calculate D2E/DX2 analytically  !
 ! D45   D(11,4,5,15)         -178.8048         calculate D2E/DX2 analytically  !
 ! D46   D(16,4,5,1)          -176.5695         calculate D2E/DX2 analytically  !
 ! D47   D(16,4,5,10)          -58.5115         calculate D2E/DX2 analytically  !
 ! D48   D(16,4,5,15)           61.7526         calculate D2E/DX2 analytically  !
 ! D49   D(5,4,11,3)            60.8427         calculate D2E/DX2 analytically  !
 ! D50   D(9,4,11,3)           -57.1479         calculate D2E/DX2 analytically  !
 ! D51   D(16,4,11,3)         -175.6061         calculate D2E/DX2 analytically  !
 ! D52   D(5,4,16,17)          -62.5182         calculate D2E/DX2 analytically  !
 ! D53   D(5,4,16,18)         -173.699          calculate D2E/DX2 analytically  !
 ! D54   D(5,4,16,19)           63.2686         calculate D2E/DX2 analytically  !
 ! D55   D(9,4,16,17)           58.7362         calculate D2E/DX2 analytically  !
 ! D56   D(9,4,16,18)          -52.4446         calculate D2E/DX2 analytically  !
 ! D57   D(9,4,16,19)         -175.477          calculate D2E/DX2 analytically  !
 ! D58   D(11,4,16,17)         177.037          calculate D2E/DX2 analytically  !
 ! D59   D(11,4,16,18)          65.8563         calculate D2E/DX2 analytically  !
 ! D60   D(11,4,16,19)         -57.1761         calculate D2E/DX2 analytically  !
 ! D61   D(1,5,10,37)          113.0208         calculate D2E/DX2 analytically  !
 ! D62   D(4,5,10,37)           -7.353          calculate D2E/DX2 analytically  !
 ! D63   D(15,5,10,37)        -127.3908         calculate D2E/DX2 analytically  !
 ! D64   D(1,5,15,28)          132.084          calculate D2E/DX2 analytically  !
 ! D65   D(4,5,15,28)         -105.7693         calculate D2E/DX2 analytically  !
 ! D66   D(10,5,15,28)          14.3304         calculate D2E/DX2 analytically  !
 ! D67   D(5,10,37,19)          46.0912         calculate D2E/DX2 analytically  !
 ! D68   D(5,10,37,34)         130.5643         calculate D2E/DX2 analytically  !
 ! D69   D(5,10,37,52)         -78.3853         calculate D2E/DX2 analytically  !
 ! D70   D(5,10,37,83)          -8.9475         calculate D2E/DX2 analytically  !
 ! D71   D(3,12,79,80)         173.3985         calculate D2E/DX2 analytically  !
 ! D72   D(3,12,79,81)         -66.9698         calculate D2E/DX2 analytically  !
 ! D73   D(3,12,79,82)          54.3543         calculate D2E/DX2 analytically  !
 ! D74   D(2,13,20,21)         -57.8679         calculate D2E/DX2 analytically  !
 ! D75   D(2,13,20,22)          63.9302         calculate D2E/DX2 analytically  !
 ! D76   D(2,13,20,23)        -176.1022         calculate D2E/DX2 analytically  !
 ! D77   D(1,14,24,25)         -83.2478         calculate D2E/DX2 analytically  !
 ! D78   D(1,14,24,26)          38.0061         calculate D2E/DX2 analytically  !
 ! D79   D(1,14,24,27)         157.0317         calculate D2E/DX2 analytically  !
 ! D80   D(5,15,28,29)         -68.1211         calculate D2E/DX2 analytically  !
 ! D81   D(5,15,28,30)          52.3462         calculate D2E/DX2 analytically  !
 ! D82   D(5,15,28,31)         172.78           calculate D2E/DX2 analytically  !
 ! D83   D(4,16,19,37)          -6.5119         calculate D2E/DX2 analytically  !
 ! D84   D(4,16,19,38)        -150.5271         calculate D2E/DX2 analytically  !
 ! D85   D(17,16,19,37)        114.7738         calculate D2E/DX2 analytically  !
 ! D86   D(17,16,19,38)        -29.2414         calculate D2E/DX2 analytically  !
 ! D87   D(18,16,19,37)       -125.8331         calculate D2E/DX2 analytically  !
 ! D88   D(18,16,19,38)         90.1517         calculate D2E/DX2 analytically  !
 ! D89   D(16,19,37,10)        -32.013          calculate D2E/DX2 analytically  !
 ! D90   D(16,19,37,34)       -142.7284         calculate D2E/DX2 analytically  !
 ! D91   D(16,19,37,52)         77.733          calculate D2E/DX2 analytically  !
 ! D92   D(16,19,37,83)         89.7422         calculate D2E/DX2 analytically  !
 ! D93   D(38,19,37,10)        135.7381         calculate D2E/DX2 analytically  !
 ! D94   D(38,19,37,34)         25.0227         calculate D2E/DX2 analytically  !
 ! D95   D(38,19,37,52)       -114.5159         calculate D2E/DX2 analytically  !
 ! D96   D(38,19,37,83)       -102.5067         calculate D2E/DX2 analytically  !
 ! D97   D(16,19,38,33)        162.6959         calculate D2E/DX2 analytically  !
 ! D98   D(37,19,38,33)         14.2343         calculate D2E/DX2 analytically  !
 ! D99   D(36,32,33,34)        -47.9767         calculate D2E/DX2 analytically  !
 ! D100  D(36,32,33,38)         65.252          calculate D2E/DX2 analytically  !
 ! D101  D(36,32,33,44)       -171.1158         calculate D2E/DX2 analytically  !
 ! D102  D(39,32,33,34)         72.6104         calculate D2E/DX2 analytically  !
 ! D103  D(39,32,33,38)       -174.1609         calculate D2E/DX2 analytically  !
 ! D104  D(39,32,33,44)        -50.5288         calculate D2E/DX2 analytically  !
 ! D105  D(45,32,33,34)       -165.438          calculate D2E/DX2 analytically  !
 ! D106  D(45,32,33,38)        -52.2093         calculate D2E/DX2 analytically  !
 ! D107  D(45,32,33,44)         71.4228         calculate D2E/DX2 analytically  !
 ! D108  D(33,32,36,35)         58.9101         calculate D2E/DX2 analytically  !
 ! D109  D(33,32,36,41)        -60.8908         calculate D2E/DX2 analytically  !
 ! D110  D(33,32,36,46)        177.8223         calculate D2E/DX2 analytically  !
 ! D111  D(39,32,36,35)        -61.1354         calculate D2E/DX2 analytically  !
 ! D112  D(39,32,36,41)        179.0637         calculate D2E/DX2 analytically  !
 ! D113  D(39,32,36,46)         57.7768         calculate D2E/DX2 analytically  !
 ! D114  D(45,32,36,35)        176.1608         calculate D2E/DX2 analytically  !
 ! D115  D(45,32,36,41)         56.3598         calculate D2E/DX2 analytically  !
 ! D116  D(45,32,36,46)        -64.927          calculate D2E/DX2 analytically  !
 ! D117  D(33,32,45,67)       -142.5914         calculate D2E/DX2 analytically  !
 ! D118  D(36,32,45,67)        100.8201         calculate D2E/DX2 analytically  !
 ! D119  D(39,32,45,67)        -21.5272         calculate D2E/DX2 analytically  !
 ! D120  D(32,33,34,37)       -155.4383         calculate D2E/DX2 analytically  !
 ! D121  D(32,33,34,42)         34.6302         calculate D2E/DX2 analytically  !
 ! D122  D(32,33,34,53)        -67.2967         calculate D2E/DX2 analytically  !
 ! D123  D(38,33,34,37)         88.0245         calculate D2E/DX2 analytically  !
 ! D124  D(38,33,34,42)        -81.907          calculate D2E/DX2 analytically  !
 ! D125  D(38,33,34,53)        176.1661         calculate D2E/DX2 analytically  !
 ! D126  D(44,33,34,37)        -27.1099         calculate D2E/DX2 analytically  !
 ! D127  D(44,33,34,42)        162.9586         calculate D2E/DX2 analytically  !
 ! D128  D(44,33,34,53)         61.0317         calculate D2E/DX2 analytically  !
 ! D129  D(32,33,38,19)       -156.5036         calculate D2E/DX2 analytically  !
 ! D130  D(34,33,38,19)        -37.9427         calculate D2E/DX2 analytically  !
 ! D131  D(44,33,38,19)         75.6464         calculate D2E/DX2 analytically  !
 ! D132  D(32,33,44,63)        -69.2585         calculate D2E/DX2 analytically  !
 ! D133  D(34,33,44,63)        165.2746         calculate D2E/DX2 analytically  !
 ! D134  D(38,33,44,63)         54.1209         calculate D2E/DX2 analytically  !
 ! D135  D(33,34,37,10)       -143.9052         calculate D2E/DX2 analytically  !
 ! D136  D(33,34,37,19)        -63.8795         calculate D2E/DX2 analytically  !
 ! D137  D(33,34,37,52)         72.259          calculate D2E/DX2 analytically  !
 ! D138  D(33,34,37,83)         -8.3546         calculate D2E/DX2 analytically  !
 ! D139  D(42,34,37,10)         26.8393         calculate D2E/DX2 analytically  !
 ! D140  D(42,34,37,19)        106.865          calculate D2E/DX2 analytically  !
 ! D141  D(42,34,37,52)       -116.9965         calculate D2E/DX2 analytically  !
 ! D142  D(42,34,37,83)        162.3899         calculate D2E/DX2 analytically  !
 ! D143  D(53,34,37,10)        123.7715         calculate D2E/DX2 analytically  !
 ! D144  D(53,34,37,19)       -156.2028         calculate D2E/DX2 analytically  !
 ! D145  D(53,34,37,52)        -20.0643         calculate D2E/DX2 analytically  !
 ! D146  D(53,34,37,83)       -100.6779         calculate D2E/DX2 analytically  !
 ! D147  D(33,34,42,35)        -27.7155         calculate D2E/DX2 analytically  !
 ! D148  D(37,34,42,35)        161.699          calculate D2E/DX2 analytically  !
 ! D149  D(53,34,42,35)         72.1212         calculate D2E/DX2 analytically  !
 ! D150  D(33,34,53,51)       -114.7501         calculate D2E/DX2 analytically  !
 ! D151  D(37,34,53,51)          6.7529         calculate D2E/DX2 analytically  !
 ! D152  D(42,34,53,51)        121.0107         calculate D2E/DX2 analytically  !
 ! D153  D(40,35,36,32)         64.2867         calculate D2E/DX2 analytically  !
 ! D154  D(40,35,36,41)       -176.4582         calculate D2E/DX2 analytically  !
 ! D155  D(40,35,36,46)        -56.5183         calculate D2E/DX2 analytically  !
 ! D156  D(42,35,36,32)        -51.3915         calculate D2E/DX2 analytically  !
 ! D157  D(42,35,36,41)         67.8636         calculate D2E/DX2 analytically  !
 ! D158  D(42,35,36,46)       -172.1964         calculate D2E/DX2 analytically  !
 ! D159  D(47,35,36,32)       -172.0641         calculate D2E/DX2 analytically  !
 ! D160  D(47,35,36,41)        -52.809          calculate D2E/DX2 analytically  !
 ! D161  D(47,35,36,46)         67.1309         calculate D2E/DX2 analytically  !
 ! D162  D(36,35,42,34)         34.9017         calculate D2E/DX2 analytically  !
 ! D163  D(40,35,42,34)        -83.6389         calculate D2E/DX2 analytically  !
 ! D164  D(47,35,42,34)        159.7412         calculate D2E/DX2 analytically  !
 ! D165  D(36,35,47,48)        -67.0248         calculate D2E/DX2 analytically  !
 ! D166  D(36,35,47,49)        175.36           calculate D2E/DX2 analytically  !
 ! D167  D(36,35,47,50)         54.0077         calculate D2E/DX2 analytically  !
 ! D168  D(40,35,47,48)         56.4837         calculate D2E/DX2 analytically  !
 ! D169  D(40,35,47,49)        -61.1315         calculate D2E/DX2 analytically  !
 ! D170  D(40,35,47,50)        177.5162         calculate D2E/DX2 analytically  !
 ! D171  D(42,35,47,48)        169.7526         calculate D2E/DX2 analytically  !
 ! D172  D(42,35,47,49)         52.1374         calculate D2E/DX2 analytically  !
 ! D173  D(42,35,47,50)        -69.2149         calculate D2E/DX2 analytically  !
 ! D174  D(32,36,46,71)        120.3021         calculate D2E/DX2 analytically  !
 ! D175  D(35,36,46,71)       -118.1051         calculate D2E/DX2 analytically  !
 ! D176  D(41,36,46,71)          0.6621         calculate D2E/DX2 analytically  !
 ! D177  D(10,37,52,51)       -112.978          calculate D2E/DX2 analytically  !
 ! D178  D(19,37,52,51)        152.7042         calculate D2E/DX2 analytically  !
 ! D179  D(34,37,52,51)         30.599          calculate D2E/DX2 analytically  !
 ! D180  D(83,37,52,51)        140.834          calculate D2E/DX2 analytically  !
 ! D181  D(10,37,83,84)        102.1033         calculate D2E/DX2 analytically  !
 ! D182  D(19,37,83,84)         36.0397         calculate D2E/DX2 analytically  !
 ! D183  D(34,37,83,84)        -32.2639         calculate D2E/DX2 analytically  !
 ! D184  D(52,37,83,84)       -154.8925         calculate D2E/DX2 analytically  !
 ! D185  D(33,44,63,64)        -40.1934         calculate D2E/DX2 analytically  !
 ! D186  D(33,44,63,65)         81.1468         calculate D2E/DX2 analytically  !
 ! D187  D(33,44,63,66)       -159.209          calculate D2E/DX2 analytically  !
 ! D188  D(32,45,67,68)        -58.3716         calculate D2E/DX2 analytically  !
 ! D189  D(32,45,67,69)         63.3357         calculate D2E/DX2 analytically  !
 ! D190  D(32,45,67,70)       -177.9682         calculate D2E/DX2 analytically  !
 ! D191  D(36,46,71,72)        -63.1548         calculate D2E/DX2 analytically  !
 ! D192  D(36,46,71,73)         58.2293         calculate D2E/DX2 analytically  !
 ! D193  D(36,46,71,74)        177.6023         calculate D2E/DX2 analytically  !
 ! D194  D(35,47,50,75)        178.2324         calculate D2E/DX2 analytically  !
 ! D195  D(48,47,50,75)        -62.6965         calculate D2E/DX2 analytically  !
 ! D196  D(49,47,50,75)         58.1142         calculate D2E/DX2 analytically  !
 ! D197  D(47,50,75,76)       -179.7911         calculate D2E/DX2 analytically  !
 ! D198  D(47,50,75,77)        -60.4908         calculate D2E/DX2 analytically  !
 ! D199  D(47,50,75,78)         60.728          calculate D2E/DX2 analytically  !
 ! D200  D(43,51,52,37)       -148.1026         calculate D2E/DX2 analytically  !
 ! D201  D(53,51,52,37)        -16.3503         calculate D2E/DX2 analytically  !
 ! D202  D(54,51,52,37)         94.8054         calculate D2E/DX2 analytically  !
 ! D203  D(43,51,53,34)        143.9642         calculate D2E/DX2 analytically  !
 ! D204  D(52,51,53,34)         11.9121         calculate D2E/DX2 analytically  !
 ! D205  D(54,51,53,34)       -100.3538         calculate D2E/DX2 analytically  !
 ! D206  D(43,51,54,55)        -22.6622         calculate D2E/DX2 analytically  !
 ! D207  D(43,51,54,56)        158.7393         calculate D2E/DX2 analytically  !
 ! D208  D(52,51,54,55)         99.6057         calculate D2E/DX2 analytically  !
 ! D209  D(52,51,54,56)        -78.9929         calculate D2E/DX2 analytically  !
 ! D210  D(53,51,54,55)       -143.3481         calculate D2E/DX2 analytically  !
 ! D211  D(53,51,54,56)         38.0533         calculate D2E/DX2 analytically  !
 ! D212  D(51,54,55,57)       -178.4048         calculate D2E/DX2 analytically  !
 ! D213  D(51,54,55,58)          2.1511         calculate D2E/DX2 analytically  !
 ! D214  D(56,54,55,57)          0.1547         calculate D2E/DX2 analytically  !
 ! D215  D(56,54,55,58)       -179.2894         calculate D2E/DX2 analytically  !
 ! D216  D(51,54,56,59)        179.1631         calculate D2E/DX2 analytically  !
 ! D217  D(51,54,56,60)         -1.8097         calculate D2E/DX2 analytically  !
 ! D218  D(55,54,56,59)          0.5866         calculate D2E/DX2 analytically  !
 ! D219  D(55,54,56,60)        179.6138         calculate D2E/DX2 analytically  !
 ! D220  D(54,55,57,61)         -0.8845         calculate D2E/DX2 analytically  !
 ! D221  D(54,55,57,93)        175.0415         calculate D2E/DX2 analytically  !
 ! D222  D(58,55,57,61)        178.5531         calculate D2E/DX2 analytically  !
 ! D223  D(58,55,57,93)         -5.5209         calculate D2E/DX2 analytically  !
 ! D224  D(54,56,59,61)         -0.6181         calculate D2E/DX2 analytically  !
 ! D225  D(54,56,59,97)        177.8352         calculate D2E/DX2 analytically  !
 ! D226  D(60,56,59,61)       -179.6488         calculate D2E/DX2 analytically  !
 ! D227  D(60,56,59,97)         -1.1956         calculate D2E/DX2 analytically  !
 ! D228  D(55,57,61,59)          0.8551         calculate D2E/DX2 analytically  !
 ! D229  D(55,57,61,62)       -179.3557         calculate D2E/DX2 analytically  !
 ! D230  D(93,57,61,59)       -175.0871         calculate D2E/DX2 analytically  !
 ! D231  D(93,57,61,62)          4.702          calculate D2E/DX2 analytically  !
 ! D232  D(55,57,93,94)        -90.0995         calculate D2E/DX2 analytically  !
 ! D233  D(55,57,93,95)        150.6184         calculate D2E/DX2 analytically  !
 ! D234  D(55,57,93,96)         29.4831         calculate D2E/DX2 analytically  !
 ! D235  D(61,57,93,94)         85.8933         calculate D2E/DX2 analytically  !
 ! D236  D(61,57,93,95)        -33.3888         calculate D2E/DX2 analytically  !
 ! D237  D(61,57,93,96)       -154.5241         calculate D2E/DX2 analytically  !
 ! D238  D(56,59,61,57)         -0.0903         calculate D2E/DX2 analytically  !
 ! D239  D(56,59,61,62)       -179.8794         calculate D2E/DX2 analytically  !
 ! D240  D(97,59,61,57)       -178.5864         calculate D2E/DX2 analytically  !
 ! D241  D(97,59,61,62)          1.6245         calculate D2E/DX2 analytically  !
 ! D242  D(56,59,97,98)          7.2373         calculate D2E/DX2 analytically  !
 ! D243  D(56,59,97,99)       -113.0095         calculate D2E/DX2 analytically  !
 ! D244  D(56,59,97,100)       128.8501         calculate D2E/DX2 analytically  !
 ! D245  D(61,59,97,98)       -174.2685         calculate D2E/DX2 analytically  !
 ! D246  D(61,59,97,99)         65.4848         calculate D2E/DX2 analytically  !
 ! D247  D(61,59,97,100)       -52.6556         calculate D2E/DX2 analytically  !
 ! D248  D(37,83,84,85)        156.3246         calculate D2E/DX2 analytically  !
 ! D249  D(37,83,84,89)        -20.6246         calculate D2E/DX2 analytically  !
 ! D250  D(83,84,85,86)       -116.1167         calculate D2E/DX2 analytically  !
 ! D251  D(83,84,85,87)          3.4119         calculate D2E/DX2 analytically  !
 ! D252  D(83,84,85,88)        123.0592         calculate D2E/DX2 analytically  !
 ! D253  D(89,84,85,86)         60.8827         calculate D2E/DX2 analytically  !
 ! D254  D(89,84,85,87)       -179.5887         calculate D2E/DX2 analytically  !
 ! D255  D(89,84,85,88)        -59.9414         calculate D2E/DX2 analytically  !
 ! D256  D(83,84,89,90)       -119.4312         calculate D2E/DX2 analytically  !
 ! D257  D(83,84,89,91)          0.5189         calculate D2E/DX2 analytically  !
 ! D258  D(83,84,89,92)        120.3889         calculate D2E/DX2 analytically  !
 ! D259  D(85,84,89,90)         62.9828         calculate D2E/DX2 analytically  !
 ! D260  D(85,84,89,91)       -177.0672         calculate D2E/DX2 analytically  !
 ! D261  D(85,84,89,92)        -57.1971         calculate D2E/DX2 analytically  !
 --------------------------------------------------------------------------------
 Trust Radius=5.00D-02 FncErr=1.00D-07 GrdErr=1.00D-06 EigMax=2.50D+02 EigMin=1.00D-04
 Number of steps in this run=    575 maximum allowed number of steps=    600.
 Search for a saddle point of order  1.
 GradGradGradGradGradGradGradGradGradGradGradGradGradGradGradGradGradGrad

 Leave Link  103 at Thu Jun  6 05:36:57 2019, MaxMem=  6442450944 cpu:               4.6 elap:               0.2
 (Enter /home/ekwan/sw/g16/l202.exe)
 Stoichiometry    C30H47F6NaO15S
 Framework group  C1[X(C30H47F6NaO15S)]
 Deg. of freedom   294
 Full point group                 C1      NOp   1
 Largest Abelian subgroup         C1      NOp   1
 Largest concise Abelian subgroup C1      NOp   1
                         Standard orientation:                         
 ---------------------------------------------------------------------
 Center     Atomic      Atomic             Coordinates (Angstroms)
 Number     Number       Type             X           Y           Z
 ---------------------------------------------------------------------
      1          6           0       -1.459063    1.492960    2.508715
      2          6           0       -1.900339    2.146671    1.199871
      3          6           0       -1.034272    3.366702    0.886651
      4          6           0        0.818436    2.489325    2.114697
      5          6           0        0.040238    1.215621    2.449101
      6          1           0       -1.251656    3.737329   -0.124962
      7          1           0       -1.741482    1.430188    0.379209
      8          1           0       -1.670205    2.183746    3.340211
      9          1           0        0.636856    3.223118    2.913753
     10          1           0        0.201011    0.469827    1.658123
     11          8           0        0.334239    3.016903    0.869245
     12          8           0       -1.301501    4.348169    1.837787
     13          8           0       -3.243834    2.564269    1.239870
     14          8           0       -2.217275    0.310407    2.662351
     15          8           0        0.490205    0.702672    3.687787
     16          6           0        2.325013    2.270539    1.956050
     17          1           0        2.681404    1.916159    2.944977
     18          1           0        2.758884    3.290300    1.834217
     19          8           0        2.660487    1.442592    0.914279
     20          6           0       -4.155923    1.627660    0.699565
     21          1           0       -3.903968    1.394338   -0.345041
     22          1           0       -4.170522    0.700379    1.280774
     23          1           0       -5.142517    2.095667    0.725179
     24          6           0       -2.286029   -0.190666    3.985934
     25          1           0       -1.410527   -0.796130    4.238190
     26          1           0       -2.362721    0.630690    4.708828
     27          1           0       -3.182490   -0.808662    4.045700
     28          6           0        1.298657   -0.450057    3.533718
     29          1           0        0.699215   -1.295951    3.164256
     30          1           0        2.116597   -0.272062    2.825838
     31          1           0        1.703713   -0.697845    4.517898
     32          6           0        3.512156   -1.731920   -1.468030
     33          6           0        3.060300   -0.352045   -0.996421
     34          6           0        1.760114   -0.423187   -0.249865
     35          6           0        1.964755   -2.745140    0.248970
     36          6           0        3.393383   -2.683833   -0.278926
     37          1           0        1.102311    0.422811   -0.182424
     38          1           0        3.770590    0.010587   -0.234936
     39          1           0        2.879672   -2.068160   -2.300477
     40          1           0        1.306702   -3.169357   -0.517271
     41          1           0        4.053369   -2.317109    0.518102
     42          8           0        1.435882   -1.410430    0.501951
     43          8           0       -0.553714    0.168779   -3.843902
     44          8           0        2.909966    0.629177   -1.990804
     45          8           0        4.866434   -1.651540   -1.852276
     46          8           0        3.749845   -3.991032   -0.661779
     47          6           0        1.820635   -3.519773    1.536778
     48          1           0        2.037848   -4.577964    1.327923
     49          1           0        0.780222   -3.444413    1.889646
     50          8           0        2.715582   -2.990205    2.480088
     51         16           0       -0.378111    0.041728   -2.398131
     52          8           0       -0.155358    1.326191   -1.684253
     53          8           0        0.622982   -0.996099   -1.992192
     54          6           0       -1.915947   -0.593049   -1.739527
     55          6           0       -3.094278   -0.424412   -2.450818
     56          6           0       -1.901506   -1.225105   -0.497491
     57          6           0       -4.283772   -0.898982   -1.899187
     58          1           0       -3.078918    0.060762   -3.421549
     59          6           0       -3.094166   -1.702765    0.024198
     60          1           0       -0.970945   -1.357072    0.047880
     61          6           0       -4.292194   -1.545304   -0.670289
     62          1           0       -5.222085   -1.920605   -0.253729
     63          6           0        4.132135    1.065577   -2.579398
     64          1           0        4.913358    1.165565   -1.818206
     65          1           0        4.467378    0.364895   -3.348137
     66          1           0        3.929358    2.040306   -3.025990
     67          6           0        5.189309   -2.440444   -2.985222
     68          1           0        4.958781   -3.495905   -2.811342
     69          1           0        4.643005   -2.092116   -3.871779
     70          1           0        6.260458   -2.320928   -3.155147
     71          6           0        4.845838   -4.515729    0.071105
     72          1           0        5.750959   -3.924430   -0.109829
     73          1           0        4.628938   -4.524535    1.146769
     74          1           0        5.000159   -5.536985   -0.279270
     75          6           0        2.612076   -3.639445    3.730593
     76          1           0        3.332980   -3.167644    4.399173
     77          1           0        1.602066   -3.528340    4.147741
     78          1           0        2.843597   -4.709002    3.639124
     79          6           0       -0.614272    5.560876    1.588035
     80          1           0       -0.981118    6.289062    2.311797
     81          1           0        0.467984    5.437725    1.708306
     82          1           0       -0.821457    5.921461    0.571654
     83         11           0        1.739444    2.497850   -0.925734
     84          8           0        3.499599    3.914724   -1.193687
     85          6           0        3.733472    5.006390   -2.058287
     86          1           0        4.572073    4.792096   -2.734192
     87          1           0        2.827028    5.165538   -2.644439
     88          1           0        3.962263    5.914484   -1.486182
     89          6           0        4.619772    3.625775   -0.373118
     90          1           0        4.837510    4.474284    0.288729
     91          1           0        4.351595    2.740718    0.211413
     92          1           0        5.504163    3.425392   -0.993526
     93          6           0       -5.587098   -0.629771   -2.596921
     94          9           0       -6.128456    0.522925   -2.169781
     95          9           0       -6.485518   -1.595073   -2.362194
     96          9           0       -5.432051   -0.526489   -3.922011
     97          6           0       -3.126451   -2.433994    1.335905
     98          9           0       -1.946702   -2.417074    1.966861
     99          9           0       -3.463978   -3.722613    1.159863
    100          9           0       -4.048817   -1.909197    2.157503
 ---------------------------------------------------------------------
 Rotational constants (GHZ):           0.0605873           0.0423786           0.0385832
 Leave Link  202 at Thu Jun  6 05:36:57 2019, MaxMem=  6442450944 cpu:               4.8 elap:               0.2
 (Enter /home/ekwan/sw/g16/l301.exe)
 Standard basis: 6-31G(d) (6D, 7F)
 Ernie: Thresh=  0.10000D-02 Tol=  0.10000D-05 Strict=F.
 There are   897 symmetry adapted cartesian basis functions of A   symmetry.
 There are   897 symmetry adapted basis functions of A   symmetry.
   897 basis functions,  1720 primitive gaussians,   897 cartesian basis functions
   214 alpha electrons      214 beta electrons
       nuclear repulsion energy      9838.4093933569 Hartrees.
 IExCor= 4336 DFT=T Ex+Corr=M062X ExCW=0 ScaHFX=  0.540000
 ScaDFX=  1.000000  1.000000  1.000000  1.000000 ScalE2=  1.000000  1.000000
 IRadAn=      5 IRanWt=     -1 IRanGd=            0 ICorTp=0 IEmpDi=  4
 NAtoms=  100 NActive=  100 NUniq=  100 SFac= 1.00D+00 NAtFMM=   60 NAOKFM=T Big=T
 Integral buffers will be    131072 words long.
 Raffenetti 2 integral format.
 Two-electron integral symmetry is turned on.
 Force inversion solution in PCM.
 ------------------------------------------------------------------------------
 Polarizable Continuum Model (PCM)
 =================================
 Model                : PCM.
 Atomic radii         : UFF (Universal Force Field).
 Polarization charges : Total charges.
 Charge compensation  : None.
 Solution method      : Matrix inversion.
 Cavity type          : Scaled VdW (van der Waals Surface) (Alpha=1.100).
 Cavity algorithm     : GePol (No added spheres)
                        Default sphere list used, NSphG=  100.
                        Lebedev-Laikov grids with approx.  5.0 points / Ang**2.
                        Smoothing algorithm: York/Karplus (Gamma=1.0000).
                        Polarization charges: spherical gaussians, with
                                              point-specific exponents (IZeta= 3).
                        Self-potential: point-specific (ISelfS= 7).
                        Self-field    : sphere-specific E.n sum rule (ISelfD= 2).
 1st derivatives      : Analytical E(r).r(x)/FMM algorithm (CHGder, D1EAlg=3).
                        Cavity 1st derivative terms included.
 2nd derivatives      : Analytical E(r).r(xy)/FMM algorithm (CHGder, D2EAlg=3).
                        Cavity 2nd derivative terms included.
 Solvent              : TetraHydroFuran, Eps=   7.425700 Eps(inf)=   1.974025
 ------------------------------------------------------------------------------
 GePol: Number of generator spheres                  =     100
 GePol: Total number of spheres                      =     100
 GePol: Number of exposed spheres                    =     100 (100.00%)
[...]
 02913,0.00007691,-0.00012359,0.00008450,0.00008278,-0.00009649,0.00016
 943,0.00000437,0.00012035,-0.00004170,-0.00004292,-0.00009614,0.000050
 03,0.00000247,0.00006020,-0.00015636,0.00001436,-0.00003168,0.00015240
 ,-0.00007814,0.00353687,0.00093096,-0.00112723,-0.00094661,-0.00086767
 ,-0.00002070,-0.00153964,0.00037023,-0.00007734,-0.00114951,0.00078269
 ,0.00201309,-0.00025536,-0.00074141,0.00048059,0.00375442,-0.00222563,
 0.00276263,0.00006800,0.00081276,0.00112372,0.00010511,-0.00011608,-0.
 00013939,-0.01479660,-0.03980020,0.00341157,0.00043059,-0.00063642,-0.
 00069901,-0.00263241,0.00043336,0.00023099,0.00066730,-0.00094635,-0.0
 0042768,0.00012158,0.00004666,-0.00008087,-0.00002175,-0.00000589,-0.0
 0000204,-0.00002092,0.00000442,0.00001901,0.00000009,-0.00001338,0.000
 00743,0.00001894,-0.00006122,-0.00007085,-0.00000144,0.00001416,0.0000
 0337,0.00000221,0.00000103,0.00000581,-0.00000900,0.00000571,0.0000104
 6,0.00005272,-0.00003749,0.00004362,-0.00000346,0.00000470,-0.00000683
 ,-0.00000151,-0.00000821,-0.00001132,-0.00001763,0.00001516,0.00000268
 ,0.00001881,-0.00008592,0.00008657,0.00000699,0.00000707,-0.00000761,0
 .00000213,-0.00002411,-0.00000209,-0.00002463,0.00003367,0.00000148,0.
 00009489,0.00017964,-0.00005022,-0.00000508,-0.00003787,-0.00000973,-0
 .00002657,-0.00001107,0.00000636,-0.00001055,-0.00001817,0.00002342,0.
 00021328,0.00017425,-0.00002918,-0.00005139,-0.00004504,0.00001647,0.0
 0001520,0.00003570,-0.00003002,-0.00000913,-0.00000034,0.00000714,0.00
 000214,0.00000237,-0.00000208,-0.00000285,-0.00000771,-0.00000088,0.00
 002924,-0.00000191,0.00001118,-0.00000320,-0.00000944,-0.00000177,0.00
 003785,0.00001546,-0.00000407,-0.00001086,-0.00000369,0.00001110,-0.00
 238303,0.00002251,-0.00107015,0.00070522,-0.00042372,0.00014464,0.0008
 0538,0.00032185,0.00019810,0.00052724,-0.00009369,0.00074617,-0.050299
 74,-0.28243617,-0.00134748,-0.03816286,-0.01632992,-0.02065363,0.08224
 194,0.39784720,0.00026672,0.00044656,-0.00022636,0.00000900,-0.0000861
 1,-0.00027463,-0.00000085,-0.00004277,0.00000366,-0.00006398,0.0000772
 7,-0.00007633,-0.00001273,-0.00004255,-0.00011121,-0.00000864,-0.00002
 741,0.00001689,-0.00001330,-0.00002018,0.00002343,-0.00005501,-0.00008
 931,0.00002504,-0.00000324,0.00000308,0.00001329,-0.00001824,0.0000154
 4,-0.00002211,0.00002785,0.00000152,0.00009745,0.00001121,0.00003904,0
 .00004747,-0.00001009,0.00005618,0.00021590,-0.00022740,-0.00068041,0.
 00017259,-0.00005089,-0.00010619,0.00010079,0.00005321,-0.00006076,-0.
 00009106,0.00000942,0.00000535,0.00002949,-0.00001550,0.00001660,0.000
 02207,0.00000472,0.00009929,0.00016742,0.00004187,0.00009062,-0.000324
 53,0.00000053,-0.00013348,0.00011224,-0.00002266,0.00011871,-0.0001005
 3,-0.00001621,0.00001305,0.00006188,0.00023827,0.00031121,0.00000921,0
 .00004020,0.00000202,0.00009097,-0.00006975,-0.00015270,0.00000624,-0.
 00014880,0.00002556,0.00033479,0.00006326,0.00012558,0.00004234,0.0000
 3010,-0.00005963,-0.00002119,-0.00003342,-0.00002507,-0.00001667,-0.00
 000915,-0.00001149,-0.00000577,-0.00005461,0.00002196,-0.00001107,0.00
 001100,0.00000897,0.00002101,-0.00035566,-0.00011083,-0.00050552,-0.00
 009065,0.00011888,-0.00008053,-0.00000983,0.00000229,0.00000348,-0.000
 02226,-0.00000132,-0.00000823,0.00001649,-0.00000710,-0.00002521,-0.00
 000666,0.00001254,0.00001761,-0.00000356,0.00001120,-0.00000240,0.0000
 1150,0.00000061,-0.00000180,0.00014113,-0.00015629,0.00019498,0.000536
 38,0.00028122,-0.00055200,0.00008087,0.00001528,0.00000117,0.00004411,
 -0.00001756,0.00000330,0.00003907,-0.00004219,0.00002534,0.00014905,0.
 00001567,-0.00009107,-0.00002436,0.00000445,0.00001971,0.00002220,-0.0
 0004243,0.00002364,-0.00006909,-0.00001553,0.00007285,-0.00201067,-0.0
 0072593,0.00036849,0.00052406,0.00056734,0.00013844,0.00090874,-0.0001
 2355,0.00019061,0.00019989,-0.00076696,-0.00183268,0.00076943,0.000622
 43,-0.00049012,-0.00267476,0.00084895,-0.00040291,0.00025084,-0.000819
 35,0.00029266,-0.00001629,0.00004485,0.00010853,0.00883802,0.03110053,
 0.00498959,0.00006392,0.00061390,0.00016554,0.00082468,0.00043242,-0.0
 0059091,-0.00007780,0.00021164,-0.00002962,-0.00004436,-0.00002392,0.0
 0002628,0.00001179,0.00000245,0.00000226,0.00000540,0.00000044,-0.0000
 0480,-0.00000180,0.00000341,-0.00000366,-0.00001010,0.00000977,0.00000
 619,-0.00000152,-0.00000160,-0.00000319,-0.00000060,-0.00000395,0.0000
 0296,0.00000555,-0.00000022,-0.00000191,-0.00002492,0.00001302,-0.0000
 2988,0.00000332,0.00000036,0.00000290,0.00000465,-0.00000178,0.0000077
 5,0.00000226,-0.00000187,0.00000084,0.00005882,0.00000368,-0.00004839,
 -0.00000726,-0.00000260,0.00000501,-0.00001651,0.00000383,0.00001389,-
 0.00000659,0.00000270,0.00000544,-0.00000591,0.00000015,-0.00000121,-0
 .00000001,0.00000565,0.00000102,0.00000188,0.00000043,-0.00000188,0.00
 000205,-0.00000289,0.00000335,-0.00008539,-0.00008688,-0.00006080,0.00
 001792,0.00001256,0.00001190,-0.00000447,-0.00000794,0.00000075,0.0000
 0031,-0.00000027,-0.00000081,0.00000127,-0.00000290,0.00000068,0.00000
 179,0.00000335,0.00000224,-0.00001375,0.00000148,-0.00001337,0.0000027
 5,0.00000559,0.00000197,-0.00000619,-0.00000492,-0.00000154,0.00000189
 ,-0.00000019,0.00000042,0.00125914,-0.00033812,0.00056204,-0.00038806,
 0.00031383,-0.00004967,-0.00040940,-0.00006072,-0.00011513,-0.00027780
 ,0.00009433,-0.00033939,-0.00293098,-0.00324763,-0.07793311,-0.0248207
 6,-0.03004983,0.00029677,0.01183631,0.04942090,0.08144427,0.00010263,-
 0.00009554,-0.00014582,-0.00040898,0.00019690,0.00015693,-0.00009449,0
 .00008389,0.00002513,0.00003891,0.00003711,-0.00005873,-0.00005233,0.0
 0018815,0.00011849,0.00000441,-0.00000316,-0.00000147,0.00000714,0.000
 00924,-0.00004736,-0.00004520,-0.00008231,-0.00000232,-0.00000626,-0.0
 0003431,-0.00000729,0.00006408,-0.00000479,-0.00003222,0.00009689,-0.0
 0008532,-0.00000310,0.00003713,-0.00008621,-0.00003944,0.00059895,0.00
 028415,-0.00009843,-0.00015117,-0.00087766,-0.00061432,0.00010452,-0.0
 0020841,-0.00007439,-0.00003807,0.00007916,0.00012145,0.00000926,-0.00
 000058,-0.00002787,-0.00000829,-0.00005190,-0.00001733,-0.00005515,-0.
 00020048,-0.00015158,-0.00024257,-0.00085321,0.00048527,0.00002633,0.0
 0020702,-0.00015847,-0.00019639,-0.00020680,-0.00010619,0.00001760,0.0
 0005601,-0.00007252,-0.00077182,-0.00063260,0.00005939,0.00035543,0.00
 021553,0.00018557,0.00006245,-0.00007557,0.00009124,-0.00132258,-0.001
 30518,-0.00246105,0.00005000,0.00033884,0.00012088,0.00001773,-0.00009
 784,0.00001619,-0.00001030,-0.00003609,-0.00002233,-0.00003554,-0.0000
 4214,-0.00003715,0.00006470,0.00000153,-0.00004998,-0.00000756,0.00004
 462,-0.00004287,0.00038153,0.00046643,0.00006402,0.00007461,-0.0000508
 8,-0.00005330,0.00010865,-0.00007954,-0.00001406,0.00000858,0.00001990
 ,-0.00001211,-0.00000435,0.00000725,0.00003272,0.00000246,-0.00000787,
 -0.00001148,0.00002135,-0.00001525,-0.00003173,-0.00001457,0.00000543,
 0.00000125,-0.00023760,-0.00022951,0.00014882,-0.00032685,-0.00019274,
 0.00053854,-0.00011378,-0.00007959,0.00007023,-0.00012067,0.00001494,0
 .00008407,-0.00012525,0.00007750,0.00000718,0.00056236,0.00007219,-0.0
 0002484,-0.00009225,0.00001375,0.00002259,0.00004753,-0.00014895,0.000
 13537,-0.00029279,-0.00000547,-0.00022405,0.00133857,0.00068745,-0.000
 52308,-0.00035348,-0.00051958,-0.00008520,-0.00056550,-0.00005323,0.00
 008090,-0.00015381,-0.00084895,-0.00034592,0.00040307,-0.00000746,0.00
 035565,0.00099321,-0.00065901,0.00175056,0.00063605,-0.00138655,0.0006
 2461,0.00009198,0.00016157,0.00002956,-0.00657326,0.00763772,0.0172030
 1,0.00044857,0.00079281,-0.00024389,-0.00225564,-0.00074027,-0.0011159
 0,0.00091482,0.00082050,0.00088795,0.00008422,0.00003994,-0.00004432,-
 0.00001337,-0.00000119,-0.00000258,-0.00001235,0.00000262,0.00000757,-
 0.00000236,-0.00001150,0.00000829,0.00002037,-0.00003365,-0.00005542,0
 .00000495,0.00000381,0.00000247,0.00000418,0.00000422,0.00000666,-0.00
 001224,0.00000214,0.00000772,0.00008578,-0.00003655,0.00003910,-0.0000
 1696,-0.00000526,-0.00000142,0.00000803,-0.00000468,-0.00000555,-0.000
 00590,0.00001075,-0.00000032,0.00005360,-0.00009771,0.00012947,-0.0000
 2217,-0.00000123,-0.00002062,0.00000194,0.00001861,0.00001302,-0.00000
 266,0.00002704,-0.00000448,0.00000033,0.00001864,-0.00000291,-0.000000
 27,-0.00000905,-0.00000361,0.00000407,0.00000234,0.00000210,-0.0000028
 2,-0.00000120,0.00000260,0.00006106,0.00012926,0.00001054,-0.00001257,
 -0.00003560,0.00000629,0.00000345,0.00002519,-0.00001480,-0.00000165,-
 0.00000148,0.00000252,0.00000109,0.00000162,0.00000211,-0.00000314,-0.
 00000636,-0.00000154,0.00000619,0.00000676,0.00000441,-0.00000183,-0.0
 0000837,-0.00000096,0.00001986,0.00001140,-0.00000096,-0.00000166,-0.0
 0000152,0.00000287,-0.00123392,0.00014125,-0.00007166,0.00037897,-0.00
 027573,-0.00004797,0.00038789,0.00010762,0.00000293,0.00026791,-0.0000
 6449,0.00022276,-0.16773529,0.04699578,0.10182566,-0.07605049,0.023448
 15,0.01700442,0.00940345,0.01996393,0.00780761,0.24131930,0.00042772,0
 .00087250,-0.00058600,0.00024278,-0.00002299,-0.00007454,0.00023472,0.
 00024150,0.00000235,-0.00009373,0.00014967,0.00002970,0.00012585,-0.00
 026514,0.00001923,-0.00002222,-0.00005821,0.00001586,0.00002403,0.0000
 3245,-0.00002396,-0.00015239,-0.00020574,0.00001762,0.00000353,-0.0000
 0478,-0.00000607,0.00002379,0.00000895,0.00002233,-0.00017679,-0.00007
 530,-0.00000116,-0.00009869,-0.00023974,0.00000336,-0.00057561,-0.0006
 7220,0.00000431,-0.00164264,-0.00149775,-0.00038061,-0.00035308,0.0001
 6825,-0.00003783,0.00010515,-0.00008589,-0.00002847,-0.00000955,0.0000
 1019,-0.00000533,-0.00004625,-0.00000823,0.00001753,-0.00010307,0.0000
 7146,0.00007858,0.00028506,0.00113773,-0.00040440,-0.00000804,-0.00018
 531,0.00017556,-0.00017127,-0.00046369,0.00053572,0.00006043,-0.000237
 18,0.00012872,0.00092483,-0.00028974,-0.00037342,-0.00037280,-0.000040
 77,-0.00014365,-0.00045956,-0.00027722,-0.00007996,-0.00151168,-0.0012
 4135,-0.00054532,0.00013182,-0.00030008,-0.00003722,0.00000592,0.00003
 681,-0.00000698,-0.00001340,0.00002009,0.00001687,-0.00001079,0.000035
 25,-0.00001503,0.00001192,-0.00003379,0.00000588,0.00000963,-0.0000083
 7,-0.00001321,0.00003466,-0.00017485,0.00012848,0.00003020,-0.00016599
 ,0.00001676,-0.00001274,0.00000901,0.00000642,0.00003183,-0.00001123,-
 0.00001815,-0.00000107,-0.00000890,-0.00000232,0.00000108,-0.00000241,
 -0.00000037,-0.00001155,-0.00000044,0.00002348,0.00000703,0.00000010,0
 .00000051,-0.00001951,0.00024132,-0.00010767,-0.00011967,0.00002088,0.
 00013899,-0.00002621,0.00002379,0.00000650,0.00000094,0.00002704,-0.00
 000158,0.00001178,0.00003295,-0.00000294,-0.00019569,-0.00004665,-0.00
 000851,0.00000995,0.00001155,-0.00000997,0.00000835,0.00000841,-0.0000
 3340,0.00011165,0.00006776,0.00005798,0.00061303,-0.00013560,-0.000266
 53,-0.00019715,-0.00000149,0.00007346,-0.00025132,0.00014804,-0.000038
 15,0.00055451,-0.00091072,0.00032158,-0.00057955,-0.00021990,0.0002284
 7,0.00053997,0.00067856,-0.00062717,-0.00007690,0.00011092,-0.00057772
 ,-0.00002900,0.00004341,-0.00001084,-0.00440978,0.01037049,0.00744157,
 -0.00014809,0.00021954,0.00019750,0.00017167,-0.00024874,0.00106249,-0
 .00024837,-0.00027700,0.00005799,0.00001363,0.00000164,-0.00001360,-0.
 00000210,-0.00000197,-0.00000013,-0.00000304,0.00000108,0.00000457,0.0
 0000120,-0.00000093,-0.00000106,-0.00000057,-0.00000937,-0.00000525,-0
 .00000220,0.00000374,0.00000057,-0.00000071,-0.00000107,-0.00000047,0.
 00000111,0.00000110,0.00000091,-0.00001270,-0.00000022,0.00000224,0.00
 000508,0.00000348,-0.00000227,-0.00000412,-0.00000105,-0.00000231,-0.0
 0000381,0.00000140,0.00000110,-0.00002090,0.00000543,-0.00001141,0.000
 01362,0.00000217,0.00000519,0.00000167,-0.00001907,-0.00000686,-0.0000
 0698,0.00000227,0.00000251,0.00006287,0.00011637,-0.00003037,-0.000004
 02,-0.00002124,-0.00000506,-0.00001993,-0.00001000,0.00000306,-0.00000
 611,-0.00001398,0.00001560,0.00006732,0.00000800,-0.00004764,-0.000018
 79,-0.00000602,0.00000854,0.00000564,0.00000699,-0.00000920,-0.0000040
 0,0.00000034,0.00000261,0.00000089,-0.00000005,-0.00000192,0.00000027,
 -0.00000076,0.00000044,0.00001025,-0.00000316,0.00000180,-0.00000016,-
 0.00000028,-0.00000027,0.00001063,0.00000195,-0.00000214,-0.00000475,-
 0.00000151,0.00000502,-0.00034763,-0.00010202,-0.00033733,0.00007854,0
 .00001335,0.00007532,0.00013372,0.00007581,0.00005563,0.00006216,0.000
 01189,0.00012960,0.04724282,-0.09586102,-0.04690161,0.01969585,0.00645
 188,-0.00113005,0.03333975,-0.05606352,-0.04807480,-0.09288017,0.13902
 709,0.00060711,0.00101203,-0.00038165,0.00000638,-0.00017714,-0.000467
 56,0.00012486,-0.00004112,0.00000384,-0.00015760,0.00016489,-0.0000890
 2,0.00006500,-0.00023153,-0.00025806,-0.00002855,-0.00006761,0.0000348
 3,0.00000448,-0.00002542,0.00005295,-0.00012147,-0.00013670,0.00007688
 ,0.00000034,0.00002011,0.00002281,-0.00004686,0.00002934,0.00000260,-0
 .00003273,0.00001765,0.00015880,-0.00002537,0.00001513,0.00009357,-0.0
 0011031,0.00002535,0.00038827,-0.00073020,-0.00060570,0.00059375,-0.00
 037829,-0.00000510,0.00022302,0.00013571,-0.00016194,-0.00020058,0.000
 00834,0.00001112,0.00005602,-0.00003803,0.00004477,0.00004777,-0.00000
 277,0.00026437,0.00034975,0.00009996,0.00041819,-0.00061082,-0.0000207
 3,-0.00023727,0.00021825,-0.00001506,0.00064611,-0.00069081,-0.0000153
 9,-0.00000556,0.00010267,0.00239050,0.00043738,-0.00243223,-0.00048623
 ,-0.00013066,0.00003220,-0.00095633,-0.00067320,0.00008541,-0.00316636
 ,-0.00224827,-0.00076022,0.00013980,-0.00018892,-0.00001724,0.00002605
 ,-0.00000105,-0.00004981,-0.00005064,-0.00000024,-0.00000119,0.0000057
 7,0.00002575,0.00000571,-0.00010211,0.00002522,0.00001477,0.00002140,-
 0.00000550,0.00004604,-0.00069232,-0.00044486,-0.00073344,-0.00015512,
 0.00018449,-0.00006776,-0.00007122,0.00004551,0.00000822,-0.00003214,-
 0.00001343,-0.00001958,0.00002686,-0.00001761,-0.00005374,-0.00001038,
 0.00002259,0.00002944,-0.00001660,0.00002734,0.00001472,0.00002216,-0.
 00000254,-0.00000273,0.00032609,-0.00005585,0.00017705,0.00088775,0.00
 035171,-0.00112750,0.00017031,0.00006370,-0.00003049,0.00011975,-0.000
 02950,-0.00004055,0.00011357,-0.00009215,0.00002653,-0.00010084,-0.000
 02112,-0.00012381,0.00001566,-0.00000015,0.00001661,0.00001816,0.00000
 870,-0.00000680,0.00007054,0.00000254,0.00020888,-0.00375460,-0.001016
 54,0.00087921,0.00104111,0.00117247,0.00032177,0.00157619,-0.00016912,
 0.00020797,0.00116626,0.00258070,-0.00074701,0.00068252,0.00052516,-0.
 00078005,-0.00403799,0.00030825,-0.00541896,-0.00004527,0.00035243,0.0
 0031579,-0.00003963,-0.00014147,0.00001979,0.03795116,-0.01256532,-0.0
 3097004,-0.00005767,-0.00073159,-0.00013871,0.00183209,0.00071824,0.00
 011519,-0.00011434,-0.00043218,-0.00086693,-0.00010130,-0.00005274,0.0
 0005783,0.00002346,0.00000365,0.00000371,0.00001396,-0.00000047,-0.000
 01000,-0.00000115,0.00001027,-0.00000947,-0.00002315,0.00003050,0.0000
 3750,-0.00000412,-0.00000419,-0.00000500,-0.00000292,-0.00000674,0.,0.
 00001314,-0.00000169,-0.00000662,-0.00007491,0.00003392,-0.00005656,0.
 00001301,0.00000340,0.00000374,0.00000143,-0.00000039,0.00001198,0.000
 00590,-0.00000782,0.00000186,0.00004275,0.00004913,-0.00011859,0.00000
 711,-0.00000215,0.00001643,-0.00002101,-0.00001213,0.00000857,-0.00001
 019,-0.00000720,0.00001052,0.00001121,0.00002652,-0.00000984,-0.000001
 53,0.00000565,0.00000118,-0.00000403,-0.00000282,-0.00000302,0.0000020
 2,-0.00000863,0.00000930,-0.00014230,-0.00019018,-0.00011194,0.0000267
 9,0.00003243,0.00001683,-0.00000655,-0.00002068,0.00000548,0.00000031,
 0.00000040,-0.00000156,0.00000145,-0.00000493,-0.00000029,0.00000409,0
 .00000746,0.00000384,-0.00002046,-0.00000129,-0.00002118,0.00000499,0.
 00001181,0.00000316,-0.00001469,-0.00001179,-0.00000252,0.00000232,-0.
 00000005,0.00000099,0.00235761,-0.00053615,0.00085781,-0.00072795,0.00
 056560,-0.00004864,-0.00077265,-0.00015589,-0.00016674,-0.00049284,0.0
 0014828,-0.00061126,0.09606705,-0.04410712,-0.18449861,0.00160603,0.00
 207963,0.02118573,0.01146620,-0.03662021,-0.00612585,-0.14329176,0.089
 90174,0.21170742\\0.00000112,0.00000054,0.00000082,0.00000011,0.000000
 60,0.00000083,0.00000007,0.00000067,0.,0.00000085,-0.00000026,-0.00000
 034,0.00000023,0.00000018,-0.00000099,0.00000013,-0.00000003,0.0000004
 3,0.00000013,0.00000016,0.00000063,0.00000126,0.00000017,0.00000058,0.
 00000130,0.00000004,-0.00000027,0.00000061,0.00000089,0.00000097,0.000
 00052,-0.00000060,0.00000068,0.00000111,-0.00000006,0.00000051,0.00000
 049,0.00000023,0.00000111,0.00000094,0.00000018,0.00000095,0.00000151,
 0.00000026,0.00000026,0.00000111,0.00000091,-0.00000082,0.00000108,0.0
 0000026,-0.00000055,0.00000073,-0.00000021,-0.00000038,-0.00000028,-0.
 00000121,-0.00000059,0.00000102,0.00000088,0.00000204,-0.00000003,0.00
 000023,0.00000097,0.00000036,0.00000055,0.00000146,0.,0.00000081,0.000
 00180,0.00000063,0.00000049,0.00000097,0.00000105,0.00000033,0.0000004
 7,0.00000139,0.00000059,0.00000086,0.00000123,0.00000058,0.00000083,0.
 00000131,0.00000002,0.00000053,0.00000123,-0.00000005,-0.00000009,0.00
 000102,-0.00000018,-0.00000069,0.00000114,0.00000025,-0.00000058,-0.00
 000111,-0.00000038,-0.00000120,-0.00000052,-0.00000068,-0.00000126,-0.
 00000100,0.00000165,0.00000104,0.00000001,0.00000049,-0.00000016,-0.00
 000060,-0.00000032,-0.00000065,0.00000012,-0.00000137,-0.00000070,0.00
 000015,-0.00000044,-0.00000096,-0.00000096,-0.00000023,-0.00000056,-0.
 00000057,-0.00000014,-0.00000022,-0.00000010,-0.00000029,-0.00000086,0
 .00000062,-0.00000097,-0.00000003,-0.00000154,0.00000057,0.00000002,-0
 .00000044,-0.00000025,-0.00000068,-0.00000068,-0.00000031,-0.00000088,
 -0.00000087,-0.00000047,-0.00000076,0.00000056,0.00000018,-0.00000041,
 -0.00000029,-0.00000014,-0.00000015,-0.00000027,0.00000013,0.00000046,
 0.00000007,-0.00000009,-0.00000066,-0.00000129,0.00000033,-0.00000018,
 -0.00000091,-0.00000060,0.00000008,0.00000053,-0.00000151,0.00000059,-
 0.00000200,0.00000048,0.00000061,-0.00000065,-0.00000029,0.00000206,-0
 .00000006,-0.00000051,0.00000207,-0.00000030,0.00000090,0.00000064,-0.
 00000119,0.00000027,0.00000092,-0.00000045,0.00000019,0.00000133,-0.00
 000086,0.00000104,-0.00000031,-0.00000078,0.00000016,0.00000293,-0.000
 00015,0.00000054,0.00000193,-0.00000091,-0.00000040,-0.00000188,-0.000
 00075,-0.00000057,-0.00000153,-0.00000122,-0.00000044,-0.00000109,-0.0
 0000077,-0.00000095,-0.00000089,-0.00000121,-0.00000091,-0.00000130,-0
 .00000131,-0.00000059,-0.00000126,-0.00000166,-0.00000065,-0.00000140,
 -0.00000152,-0.00000077,-0.00000165,-0.00000003,0.00000045,-0.00000085
 ,-0.00000094,-0.00000085,-0.00000131,-0.00000015,-0.00000038,-0.000001
 11,-0.00000069,-0.00000091,-0.00000121,0.00000050,-0.00000005,-0.00000
 085,0.00000135,0.00000015,-0.00000030,0.00000086,0.00000016,-0.0000000
 3,0.00000058,0.00000014,-0.00000036,0.00000014,0.00000076,-0.00000043,
 0.00000142,0.00000013,-0.00000002,0.00000148,0.00000003,-0.00000015,0.
 00000082,0.00000012,0.00000046,-0.00000023,0.00000012,-0.00000081,0.00
 000116,-0.00000079,-0.00000059,0.00000035,-0.00000002,-0.00000037,-0.0
 0000047,-0.00000067,-0.00000165,-0.00000095,-0.00000031,-0.00000134,-0
 .00000017,-0.00000097,-0.00000184,-0.00000065,-0.00000047,-0.00000148,
 0.00000045,-0.00000031,-0.00000180,-0.00000005,0.00000028,-0.00000222,
 0.,-0.00000043,-0.00000181,-0.00000090,0.00000045,0.00000211,-0.000000
 87,0.00000017,0.00000197,-0.00000103,0.00000061,0.00000240,-0.00000150
 ,0.00000049,0.00000223,-0.00000024,0.00000099,0.00000127,0.00000068,0.
 00000024,0.00000084,0.00000009,0.00000035,0.00000153,0.00000052,0.0000
 0067,0.00000229\\\@


 IF IT HAPPENS, IT MUST BE POSSIBLE.

 -- THE UNNAMED LAW FROM PAUL DICKSON'S 
    "THE OFFICIAL RULES"
 Job cpu time:       7 days  4 hours 22 minutes  7.7 seconds.
 Elapsed time:       0 days  5 hours 36 minutes 29.4 seconds.
 File lengths (MBytes):  RWF=   9682 Int=      0 D2E=      0 Chk=     84 Scr=      1
 Normal termination of Gaussian 16 at Thu Jun  6 16:58:47 2019.
