 Entering Gaussian System, Link 0=g16
 Input=clay_new-glu_gluC6-BCDR-Na2_1Me2O-bisCF3-ts-b97d-631gd-pcm_thf.gjf
 Output=clay_new-glu_gluC6-BCDR-Na2_1Me2O-bisCF3-ts-b97d-631gd-pcm_thf.out
 Initial command:
 /home/ekwan/sw/g16/l1.exe "/scratch/users/ekwan/clay_new-glu_gluC6-BCDR-Na2_1Me2O-bisCF3-ts-b97d-631gd-pcm_thf/Gau-43246.inp" -scrdir="/scratch/users/ekwan/clay_new-glu_gluC6-BCDR-Na2_1Me2O-bisCF3-ts-b97d-631gd-pcm_thf/"
 Entering Link 1 = /home/ekwan/sw/g16/l1.exe PID=     43247.
  
 Copyright (c) 1988,1990,1992,1993,1995,1998,2003,2009,2016,
            Gaussian, Inc.  All Rights Reserved.
  
 This is part of the Gaussian(R) 16 program.  It is based on
 the Gaussian(R) 09 system (copyright 2009, Gaussian, Inc.),
 the Gaussian(R) 03 system (copyright 2003, Gaussian, Inc.),
 the Gaussian(R) 98 system (copyright 1998, Gaussian, Inc.),
 the Gaussian(R) 94 system (copyright 1995, Gaussian, Inc.),
 the Gaussian 92(TM) system (copyright 1992, Gaussian, Inc.),
 the Gaussian 90(TM) system (copyright 1990, Gaussian, Inc.),
 the Gaussian 88(TM) system (copyright 1988, Gaussian, Inc.),
 the Gaussian 86(TM) system (copyright 1986, Carnegie Mellon
 University), and the Gaussian 82(TM) system (copyright 1983,
 Carnegie Mellon University). Gaussian is a federally registered
 trademark of Gaussian, Inc.
  
 This software contains proprietary and confidential information,
 including trade secrets, belonging to Gaussian, Inc.
  
 This software is provided under written license and may be
 used, copied, transmitted, or stored only in accord with that
 written license.
  
 The following legend is applicable only to US Government
 contracts under FAR:
  
                    RESTRICTED RIGHTS LEGEND
  
 Use, reproduction and disclosure by the US Government is
 subject to restrictions as set forth in subparagraphs (a)
 and (c) of the Commercial Computer Software - Restricted
 Rights clause in FAR 52.227-19.
  
 Gaussian, Inc.
 340 Quinnipiac St., Bldg. 40, Wallingford CT 06492
  
  
 ---------------------------------------------------------------
 Warning -- This program may not be used in any manner that
 competes with the business of Gaussian, Inc. or will provide
 assistance to any competitor of Gaussian, Inc.  The licensee
 of this program is prohibited from giving any competitor of
 Gaussian, Inc. access to this program.  By using this program,
 the user acknowledges that Gaussian, Inc. is engaged in the
 business of creating and licensing software in the field of
 computational chemistry and represents and warrants to the
 licensee that it is not a competitor of Gaussian, Inc. and that
 it will not use this program in any manner prohibited above.
 ---------------------------------------------------------------
  

 Cite this work as:
 Gaussian 16, Revision A.03,
 M. J. Frisch, G. W. Trucks, H. B. Schlegel, G. E. Scuseria, 
 M. A. Robb, J. R. Cheeseman, G. Scalmani, V. Barone, 
 G. A. Petersson, H. Nakatsuji, X. Li, M. Caricato, A. V. Marenich, 
 J. Bloino, B. G. Janesko, R. Gomperts, B. Mennucci, H. P. Hratchian, 
 J. V. Ortiz, A. F. Izmaylov, J. L. Sonnenberg, D. Williams-Young, 
 F. Ding, F. Lipparini, F. Egidi, J. Goings, B. Peng, A. Petrone, 
 T. Henderson, D. Ranasinghe, V. G. Zakrzewski, J. Gao, N. Rega, 
 G. Zheng, W. Liang, M. Hada, M. Ehara, K. Toyota, R. Fukuda, 
 J. Hasegawa, M. Ishida, T. Nakajima, Y. Honda, O. Kitao, H. Nakai, 
 T. Vreven, K. Throssell, J. A. Montgomery, Jr., J. E. Peralta, 
 F. Ogliaro, M. J. Bearpark, J. J. Heyd, E. N. Brothers, K. N. Kudin, 
 V. N. Staroverov, T. A. Keith, R. Kobayashi, J. Normand, 
 K. Raghavachari, A. P. Rendell, J. C. Burant, S. S. Iyengar, 
 J. Tomasi, M. Cossi, J. M. Millam, M. Klene, C. Adamo, R. Cammi, 
 J. W. Ochterski, R. L. Martin, K. Morokuma, O. Farkas, 
 J. B. Foresman, and D. J. Fox, Gaussian, Inc., Wallingford CT, 2016.
 
 ******************************************
 Gaussian 16:  AS64L-G16RevA.03 25-Dec-2016
                 5-Jun-2019 
 ******************************************
 %nprocshared=32
 Will use up to   32 processors via shared memory.
 %mem=48GB
 ----------------------------------------------------------------------
 #p opt=(ts,calcfc,noeigentest,maxstep=5) freq=noraman pop=none 6-31g* 
 scrf=(pcm,solvent=tetrahydrofuran) b97d
 ----------------------------------------------------------------------
 1/5=1,8=5,10=4,11=1,18=20,26=3,38=1/1,3;
 2/9=110,12=2,17=6,18=5,40=1/2;
 3/5=1,6=6,7=1,11=2,25=1,30=1,70=2201,71=2,72=20,74=-42,140=1/1,2,3;
 4//1;
 5/5=2,38=5,53=20/2;
 8/6=4,10=90,11=11/1;
 11/6=1,8=1,9=11,15=111,16=1/1,2,10;
 10/6=1,13=1/2;
 7/10=1,18=20,25=1/1,2,3,16;
 1/5=1,8=5,10=4,11=1,18=20,26=3/3(2);
 2/9=110/2;
 99//99;
 2/9=110/2;
 3/5=1,6=6,7=1,11=2,25=1,30=1,70=2205,71=1,72=20,74=-42/1,2,3;
 4/5=5,16=3,69=1/1;
 5/5=2,38=5,53=20/2;
 7//1,2,3,16;
 1/5=1,8=5,11=1,18=20,26=3/3(-5);
 2/9=110/2;
 99/9=1/99;
 Leave Link    1 at Wed Jun  5 10:09:05 2019, MaxMem=  6442450944 cpu:               4.3 elap:               0.2
 (Enter /home/ekwan/sw/g16/l101.exe)
 -----
 title
 -----
 Symbolic Z-matrix:
 Charge =  0 Multiplicity = 1
 6                    -1.73778   1.56744   2.26751 
 6                    -2.00947   2.37815   0.98477 
 6                    -1.08388   3.60901   0.9115 
 6                     0.623     2.5066    2.2299 
 6                    -0.23701   1.23131   2.35832 
 1                    -1.16771   4.09726  -0.07605 
 1                    -1.75462   1.75194   0.11419 
 1                    -2.02872   2.18072   3.13856 
 1                     0.38177   3.16559   3.08186 
 1                    -0.00443   0.54346   1.53171 
 8                     0.28529   3.2026    0.99419 
 8                    -1.44057   4.50582   1.93738 
 8                    -3.36337   2.82348   0.90992 
 8                    -2.53713   0.38183   2.20421 
 8                     0.04159   0.6025    3.61648 
 6                     2.14862   2.26055   2.21338 
 1                     2.37374   1.82797   3.21978 
 1                     2.60122   3.28754   2.22275 
 8                     2.61688   1.50186   1.16225 
 6                    -4.18734   1.99536   0.08567 
 1                    -3.81042   1.96463  -0.95407 
 1                    -4.23991   0.96634   0.47225 
 1                    -5.18963   2.44719   0.0899 
 6                    -3.02186  -0.05812   3.47463 
 1                    -2.19543  -0.3505    4.14104 
 1                    -3.61581   0.73747   3.96485 
 1                    -3.6658   -0.92419   3.27582 
 6                     0.89645  -0.54203   3.48429 
 1                     0.37229  -1.36204   2.96761 
 1                     1.81013  -0.29995   2.91875 
 1                     1.15793  -0.85803   4.50481 
 6                     3.77393  -1.6894   -1.32447 
 6                     3.2042   -0.33254  -0.86351 
 6                     1.81359  -0.45851  -0.30047 
 6                     2.00776  -2.82696   0.09237 
 6                     3.51259  -2.72739  -0.21421 
 1                     1.19494   0.41087  -0.14504 
 1                     3.79309   0.01891   0.00773 
 1                     3.26944  -1.99626  -2.25567 
 1                     1.4744   -3.15971  -0.80886 
 1                     4.04888  -2.40605   0.69237 
 8                     1.43864  -1.49274   0.40088 
 8                    -0.52411   0.164    -3.98932 
 8                     3.18837   0.68796  -1.8544 
 8                     5.17581  -1.53089  -1.51927 
 8                     3.94558  -4.01594  -0.64187 
 6                     1.63627  -3.72797   1.25583 
 1                     1.89289  -4.76635   0.9724 
 1                     0.5445   -3.67691   1.42086 
 8                     2.34654  -3.31733   2.41531 
 16                   -0.30802   0.08255  -2.52313 
 8                    -0.16782   1.40518  -1.81942 
 8                     0.81148  -0.89304  -2.14363 
 6                    -1.8043   -0.66894  -1.80987 
 6                    -3.05057  -0.42358  -2.40035 
 6                    -1.69606  -1.44222  -0.65105 
 6                    -4.20018  -0.966    -1.80795 
 1                    -3.11868   0.16965  -3.31033 
 6                    -2.85292  -1.98382  -0.07474 
 1                    -0.72696  -1.62393  -0.19747 
 6                    -4.10918  -1.75027  -0.64653 
 1                    -5.00639  -2.17208  -0.19845 
 6                     4.46553   1.32446  -2.07377 
 1                     4.98191   1.49717  -1.11583 
 1                     5.10044   0.70977  -2.72644 
 1                     4.24135   2.28981  -2.54525 
 6                     5.68857  -2.27311  -2.63428 
 1                     5.52343  -3.35368  -2.50326 
 1                     5.21355  -1.94196  -3.57671 
 1                     6.76578  -2.05959  -2.6745 
 6                     4.77524  -4.68128   0.32332 
 1                     5.72106  -4.12997   0.46793 
 1                     4.25962  -4.77416   1.2942 
 1                     4.98583  -5.67831  -0.08642 
 6                     1.92531  -4.04888   3.56797 
 1                     2.5139   -3.67069   4.4143 
 1                     0.84842  -3.88841   3.76461 
 1                     2.10889  -5.13311   3.44243 
 6                    -0.72152   5.74372   1.86519 
 1                    -1.1471    6.39691   2.63855 
 1                     0.35446   5.59226   2.05397 
 1                    -0.85021   6.21258   0.87083 
 11                    1.8076    2.53742  -0.8097 
 8                     3.39965   4.30706  -1.03749 
 6                     3.69088   5.44513  -1.84584 
 1                     4.66823   5.32709  -2.35125 
 1                     2.89269   5.51975  -2.59716 
 1                     3.71401   6.36703  -1.23489 
 6                     4.37584   4.09849  -0.00941 
 1                     4.39739   4.95811   0.686 
 1                     4.07248   3.18218   0.51866 
 1                     5.3817    3.96906  -0.45195 
 6                    -5.56703  -0.6406   -2.36947 
 9                    -6.12307   0.42283  -1.71255 
 9                    -6.43332  -1.68187  -2.23332 
 9                    -5.52035  -0.31408  -3.68753 
 6                    -2.70532  -2.90751   1.11346 
 9                    -1.71454  -2.50754   1.96169 
 9                    -2.37478  -4.17015   0.70799 
 9                    -3.85043  -3.0073    1.84179 
 
 Add virtual bond connecting atoms H37        and H10        Dist= 3.90D+00.
 Add virtual bond connecting atoms H37        and O19        Dist= 4.19D+00.
 Add virtual bond connecting atoms H38        and O19        Dist= 4.19D+00.
 Add virtual bond connecting atoms O53        and C34        Dist= 4.05D+00.
 Add virtual bond connecting atoms H60        and O42        Dist= 4.25D+00.
 Add virtual bond connecting atoms H91        and H18        Dist= 4.26D+00.
 Add virtual bond connecting atoms H91        and O19        Dist= 4.37D+00.
 Add virtual bond connecting atoms Na83       and O11        Dist= 4.63D+00.
 Add virtual bond connecting atoms Na83       and O19        Dist= 4.48D+00.
 Add virtual bond connecting atoms Na83       and H37        Dist= 4.37D+00.
 Add virtual bond connecting atoms Na83       and O84        Dist= 4.52D+00.
 ITRead=  0  0  0  0  0  0  0  0  0  0  0  0  0  0  0  0  0  0  0  0
 ITRead=  0  0  0  0  0  0  0  0  0  0  0  0  0  0  0  0  0  0  0  0
 ITRead=  0  0  0  0  0  0  0  0  0  0  0  0  0  0  0  0  0  0  0  0
 ITRead=  0  0  0  0  0  0  0  0  0  0  0  0  0  0  0  0  0  0  0  0
 ITRead=  0  0  0  0  0  0  0  0  0  0  0  0  0  0  0  0  0  0  0  0
 MicOpt= -1 -1 -1 -1 -1 -1 -1 -1 -1 -1 -1 -1 -1 -1 -1 -1 -1 -1 -1 -1
 MicOpt= -1 -1 -1 -1 -1 -1 -1 -1 -1 -1 -1 -1 -1 -1 -1 -1 -1 -1 -1 -1
 MicOpt= -1 -1 -1 -1 -1 -1 -1 -1 -1 -1 -1 -1 -1 -1 -1 -1 -1 -1 -1 -1
 MicOpt= -1 -1 -1 -1 -1 -1 -1 -1 -1 -1 -1 -1 -1 -1 -1 -1 -1 -1 -1 -1
 MicOpt= -1 -1 -1 -1 -1 -1 -1 -1 -1 -1 -1 -1 -1 -1 -1 -1 -1 -1 -1 -1
 NAtoms=    100 NQM=      100 NQMF=       0 NMMI=      0 NMMIF=      0
                NMic=       0 NMicF=      0.
                    Isotopes and Nuclear Properties:
 (Nuclear quadrupole moments (NQMom) in fm**2, nuclear magnetic moments (NMagM)
  in nuclear magnetons)

  Atom         1           2           3           4           5           6           7           8           9          10
 IAtWgt=          12          12          12          12          12           1           1           1           1           1
 AtmWgt=  12.0000000  12.0000000  12.0000000  12.0000000  12.0000000   1.0078250   1.0078250   1.0078250   1.0078250   1.0078250
 NucSpn=           0           0           0           0           0           1           1           1           1           1
 AtZEff=   0.0000000   0.0000000   0.0000000   0.0000000   0.0000000   0.0000000   0.0000000   0.0000000   0.0000000   0.0000000
 NQMom=    0.0000000   0.0000000   0.0000000   0.0000000   0.0000000   0.0000000   0.0000000   0.0000000   0.0000000   0.0000000
 NMagM=    0.0000000   0.0000000   0.0000000   0.0000000   0.0000000   2.7928460   2.7928460   2.7928460   2.7928460   2.7928460
 AtZNuc=   6.0000000   6.0000000   6.0000000   6.0000000   6.0000000   1.0000000   1.0000000   1.0000000   1.0000000   1.0000000

  Atom        11          12          13          14          15          16          17          18          19          20
 IAtWgt=          16          16          16          16          16          12           1           1          16          12
 AtmWgt=  15.9949146  15.9949146  15.9949146  15.9949146  15.9949146  12.0000000   1.0078250   1.0078250  15.9949146  12.0000000
 NucSpn=           0           0           0           0           0           0           1           1           0           0
 AtZEff=   0.0000000   0.0000000   0.0000000   0.0000000   0.0000000   0.0000000   0.0000000   0.0000000   0.0000000   0.0000000
 NQMom=    0.0000000   0.0000000   0.0000000   0.0000000   0.0000000   0.0000000   0.0000000   0.0000000   0.0000000   0.0000000
 NMagM=    0.0000000   0.0000000   0.0000000   0.0000000   0.0000000   0.0000000   2.7928460   2.7928460   0.0000000   0.0000000
 AtZNuc=   8.0000000   8.0000000   8.0000000   8.0000000   8.0000000   6.0000000   1.0000000   1.0000000   8.0000000   6.0000000

  Atom        21          22          23          24          25          26          27          28          29          30
 IAtWgt=           1           1           1          12           1           1           1          12           1           1
 AtmWgt=   1.0078250   1.0078250   1.0078250  12.0000000   1.0078250   1.0078250   1.0078250  12.0000000   1.0078250   1.0078250
 NucSpn=           1           1           1           0           1           1           1           0           1           1
 AtZEff=   0.0000000   0.0000000   0.0000000   0.0000000   0.0000000   0.0000000   0.0000000   0.0000000   0.0000000   0.0000000
 NQMom=    0.0000000   0.0000000   0.0000000   0.0000000   0.0000000   0.0000000   0.0000000   0.0000000   0.0000000   0.0000000
 NMagM=    2.7928460   2.7928460   2.7928460   0.0000000   2.7928460   2.7928460   2.7928460   0.0000000   2.7928460   2.7928460
 AtZNuc=   1.0000000   1.0000000   1.0000000   6.0000000   1.0000000   1.0000000   1.0000000   6.0000000   1.0000000   1.0000000

  Atom        31          32          33          34          35          36          37          38          39          40
 IAtWgt=           1          12          12          12          12          12           1           1           1           1
 AtmWgt=   1.0078250  12.0000000  12.0000000  12.0000000  12.0000000  12.0000000   1.0078250   1.0078250   1.0078250   1.0078250
 NucSpn=           1           0           0           0           0           0           1           1           1           1
 AtZEff=   0.0000000   0.0000000   0.0000000   0.0000000   0.0000000   0.0000000   0.0000000   0.0000000   0.0000000   0.0000000
 NQMom=    0.0000000   0.0000000   0.0000000   0.0000000   0.0000000   0.0000000   0.0000000   0.0000000   0.0000000   0.0000000
 NMagM=    2.7928460   0.0000000   0.0000000   0.0000000   0.0000000   0.0000000   2.7928460   2.7928460   2.7928460   2.7928460
 AtZNuc=   1.0000000   6.0000000   6.0000000   6.0000000   6.0000000   6.0000000   1.0000000   1.0000000   1.0000000   1.0000000

  Atom        41          42          43          44          45          46          47          48          49          50
 IAtWgt=           1          16          16          16          16          16          12           1           1          16
 AtmWgt=   1.0078250  15.9949146  15.9949146  15.9949146  15.9949146  15.9949146  12.0000000   1.0078250   1.0078250  15.9949146
 NucSpn=           1           0           0           0           0           0           0           1           1           0
 AtZEff=   0.0000000   0.0000000   0.0000000   0.0000000   0.0000000   0.0000000   0.0000000   0.0000000   0.0000000   0.0000000
 NQMom=    0.0000000   0.0000000   0.0000000   0.0000000   0.0000000   0.0000000   0.0000000   0.0000000   0.0000000   0.0000000
 NMagM=    2.7928460   0.0000000   0.0000000   0.0000000   0.0000000   0.0000000   0.0000000   2.7928460   2.7928460   0.0000000
 AtZNuc=   1.0000000   8.0000000   8.0000000   8.0000000   8.0000000   8.0000000   6.0000000   1.0000000   1.0000000   8.0000000

  Atom        51          52          53          54          55          56          57          58          59          60
 IAtWgt=          32          16          16          12          12          12          12           1          12           1
 AtmWgt=  31.9720718  15.9949146  15.9949146  12.0000000  12.0000000  12.0000000  12.0000000   1.0078250  12.0000000   1.0078250
 NucSpn=           0           0           0           0           0           0           0           1           0           1
 AtZEff=   0.0000000   0.0000000   0.0000000   0.0000000   0.0000000   0.0000000   0.0000000   0.0000000   0.0000000   0.0000000
 NQMom=    0.0000000   0.0000000   0.0000000   0.0000000   0.0000000   0.0000000   0.0000000   0.0000000   0.0000000   0.0000000
 NMagM=    0.0000000   0.0000000   0.0000000   0.0000000   0.0000000   0.0000000   0.0000000   2.7928460   0.0000000   2.7928460
 AtZNuc=  16.0000000   8.0000000   8.0000000   6.0000000   6.0000000   6.0000000   6.0000000   1.0000000   6.0000000   1.0000000

  Atom        61          62          63          64          65          66          67          68          69          70
 IAtWgt=          12           1          12           1           1           1          12           1           1           1
 AtmWgt=  12.0000000   1.0078250  12.0000000   1.0078250   1.0078250   1.0078250  12.0000000   1.0078250   1.0078250   1.0078250
 NucSpn=           0           1           0           1           1           1           0           1           1           1
 AtZEff=   0.0000000   0.0000000   0.0000000   0.0000000   0.0000000   0.0000000   0.0000000   0.0000000   0.0000000   0.0000000
 NQMom=    0.0000000   0.0000000   0.0000000   0.0000000   0.0000000   0.0000000   0.0000000   0.0000000   0.0000000   0.0000000
 NMagM=    0.0000000   2.7928460   0.0000000   2.7928460   2.7928460   2.7928460   0.0000000   2.7928460   2.7928460   2.7928460
 AtZNuc=   6.0000000   1.0000000   6.0000000   1.0000000   1.0000000   1.0000000   6.0000000   1.0000000   1.0000000   1.0000000

  Atom        71          72          73          74          75          76          77          78          79          80
 IAtWgt=          12           1           1           1          12           1           1           1          12           1
 AtmWgt=  12.0000000   1.0078250   1.0078250   1.0078250  12.0000000   1.0078250   1.0078250   1.0078250  12.0000000   1.0078250
 NucSpn=           0           1           1           1           0           1           1           1           0           1
 AtZEff=   0.0000000   0.0000000   0.0000000   0.0000000   0.0000000   0.0000000   0.0000000   0.0000000   0.0000000   0.0000000
 NQMom=    0.0000000   0.0000000   0.0000000   0.0000000   0.0000000   0.0000000   0.0000000   0.0000000   0.0000000   0.0000000
 NMagM=    0.0000000   2.7928460   2.7928460   2.7928460   0.0000000   2.7928460   2.7928460   2.7928460   0.0000000   2.7928460
 AtZNuc=   6.0000000   1.0000000   1.0000000   1.0000000   6.0000000   1.0000000   1.0000000   1.0000000   6.0000000   1.0000000

  Atom        81          82          83          84          85          86          87          88          89          90
 IAtWgt=           1           1          23          16          12           1           1           1          12           1
 AtmWgt=   1.0078250   1.0078250  22.9897697  15.9949146  12.0000000   1.0078250   1.0078250   1.0078250  12.0000000   1.0078250
 NucSpn=           1           1           3           0           0           1           1           1           0           1
 AtZEff=   0.0000000   0.0000000   0.0000000   0.0000000   0.0000000   0.0000000   0.0000000   0.0000000   0.0000000   0.0000000
 NQMom=    0.0000000   0.0000000  10.4000000   0.0000000   0.0000000   0.0000000   0.0000000   0.0000000   0.0000000   0.0000000
 NMagM=    2.7928460   2.7928460   2.2175200   0.0000000   0.0000000   2.7928460   2.7928460   2.7928460   0.0000000   2.7928460
 AtZNuc=   1.0000000   1.0000000  11.0000000   8.0000000   6.0000000   1.0000000   1.0000000   1.0000000   6.0000000   1.0000000

  Atom        91          92          93          94          95          96          97          98          99         100
 IAtWgt=           1           1          12          19          19          19          12          19          19          19
 AtmWgt=   1.0078250   1.0078250  12.0000000  18.9984033  18.9984033  18.9984033  12.0000000  18.9984033  18.9984033  18.9984033
 NucSpn=           1           1           0           1           1           1           0           1           1           1
 AtZEff=   0.0000000   0.0000000   0.0000000   0.0000000   0.0000000   0.0000000   0.0000000   0.0000000   0.0000000   0.0000000
 NQMom=    0.0000000   0.0000000   0.0000000   0.0000000   0.0000000   0.0000000   0.0000000   0.0000000   0.0000000   0.0000000
 NMagM=    2.7928460   2.7928460   0.0000000   2.6288670   2.6288670   2.6288670   0.0000000   2.6288670   2.6288670   2.6288670
 AtZNuc=   1.0000000   1.0000000   6.0000000   9.0000000   9.0000000   9.0000000   6.0000000   9.0000000   9.0000000   9.0000000
 Leave Link  101 at Wed Jun  5 10:09:06 2019, MaxMem=  6442450944 cpu:              17.6 elap:               0.7
 (Enter /home/ekwan/sw/g16/l103.exe)

 GradGradGradGradGradGradGradGradGradGradGradGradGradGradGradGradGradGrad
 Berny optimization.
 Initialization pass.
                           ----------------------------
                           !    Initial Parameters    !
                           ! (Angstroms and Degrees)  !
 --------------------------                            --------------------------
 ! Name  Definition              Value          Derivative Info.                !
 --------------------------------------------------------------------------------
 ! R1    R(1,2)                  1.5416         calculate D2E/DX2 analytically  !
 ! R2    R(1,5)                  1.5406         calculate D2E/DX2 analytically  !
 ! R3    R(1,8)                  1.1043         calculate D2E/DX2 analytically  !
 ! R4    R(1,14)                 1.4313         calculate D2E/DX2 analytically  !
 ! R5    R(2,3)                  1.5418         calculate D2E/DX2 analytically  !
 ! R6    R(2,7)                  1.1023         calculate D2E/DX2 analytically  !
 ! R7    R(2,13)                 1.4272         calculate D2E/DX2 analytically  !
 ! R8    R(3,6)                  1.1048         calculate D2E/DX2 analytically  !
 ! R9    R(3,11)                 1.4306         calculate D2E/DX2 analytically  !
 ! R10   R(3,12)                 1.4085         calculate D2E/DX2 analytically  !
 ! R11   R(4,5)                  1.5435         calculate D2E/DX2 analytically  !
 ! R12   R(4,9)                  1.1038         calculate D2E/DX2 analytically  !
 ! R13   R(4,11)                 1.4579         calculate D2E/DX2 analytically  !
 ! R14   R(4,16)                 1.5454         calculate D2E/DX2 analytically  !
 ! R15   R(5,10)                 1.1002         calculate D2E/DX2 analytically  !
 ! R16   R(5,15)                 1.4339         calculate D2E/DX2 analytically  !
 ! R17   R(10,37)                2.0658         calculate D2E/DX2 analytically  !
 ! R18   R(11,83)                2.4523         calculate D2E/DX2 analytically  !
 ! R19   R(12,79)                1.4334         calculate D2E/DX2 analytically  !
 ! R20   R(13,20)                1.4297         calculate D2E/DX2 analytically  !
 ! R21   R(14,24)                1.4292         calculate D2E/DX2 analytically  !
 ! R22   R(15,28)                1.4347         calculate D2E/DX2 analytically  !
 ! R23   R(16,17)                1.1183         calculate D2E/DX2 analytically  !
 ! R24   R(16,18)                1.1223         calculate D2E/DX2 analytically  !
 ! R25   R(16,19)                1.3783         calculate D2E/DX2 analytically  !
 ! R26   R(18,91)                2.2538         calculate D2E/DX2 analytically  !
 ! R27   R(19,37)                2.2184         calculate D2E/DX2 analytically  !
 ! R28   R(19,38)                2.2171         calculate D2E/DX2 analytically  !
 ! R29   R(19,83)                2.3698         calculate D2E/DX2 analytically  !
 ! R30   R(19,91)                2.3144         calculate D2E/DX2 analytically  !
 ! R31   R(20,21)                1.1064         calculate D2E/DX2 analytically  !
 ! R32   R(20,22)                1.1005         calculate D2E/DX2 analytically  !
 ! R33   R(20,23)                1.0994         calculate D2E/DX2 analytically  !
 ! R34   R(24,25)                1.1012         calculate D2E/DX2 analytically  !
 ! R35   R(24,26)                1.1073         calculate D2E/DX2 analytically  !
 ! R36   R(24,27)                1.0974         calculate D2E/DX2 analytically  !
 ! R37   R(28,29)                1.1019         calculate D2E/DX2 analytically  !
 ! R38   R(28,30)                1.1015         calculate D2E/DX2 analytically  !
 ! R39   R(28,31)                1.0999         calculate D2E/DX2 analytically  !
 ! R40   R(32,33)                1.5421         calculate D2E/DX2 analytically  !
 ! R41   R(32,36)                1.5422         calculate D2E/DX2 analytically  !
 ! R42   R(32,39)                1.1026         calculate D2E/DX2 analytically  !
 ! R43   R(32,45)                1.4242         calculate D2E/DX2 analytically  !
 ! R44   R(33,34)                1.5055         calculate D2E/DX2 analytically  !
 ! R45   R(33,38)                1.1088         calculate D2E/DX2 analytically  !
 ! R46   R(33,44)                1.4225         calculate D2E/DX2 analytically  !
 ! R47   R(34,37)                1.0783         calculate D2E/DX2 analytically  !
 ! R48   R(34,42)                1.3046         calculate D2E/DX2 analytically  !
 ! R49   R(34,53)                2.1425         calculate D2E/DX2 analytically  !
 ! R50   R(35,36)                1.539          calculate D2E/DX2 analytically  !
 ! R51   R(35,40)                1.0988         calculate D2E/DX2 analytically  !
 ! R52   R(35,42)                1.483          calculate D2E/DX2 analytically  !
 ! R53   R(35,47)                1.5177         calculate D2E/DX2 analytically  !
 ! R54   R(36,41)                1.1013         calculate D2E/DX2 analytically  !
 ! R55   R(36,46)                1.425          calculate D2E/DX2 analytically  !
 ! R56   R(37,83)                2.3107         calculate D2E/DX2 analytically  !
 ! R57   R(42,60)                2.2506         calculate D2E/DX2 analytically  !
 ! R58   R(43,51)                1.4843         calculate D2E/DX2 analytically  !
 ! R59   R(44,63)                1.4437         calculate D2E/DX2 analytically  !
 ! R60   R(45,67)                1.4342         calculate D2E/DX2 analytically  !
 ! R61   R(46,71)                1.4362         calculate D2E/DX2 analytically  !
 ! R62   R(47,48)                1.1065         calculate D2E/DX2 analytically  !
 ! R63   R(47,49)                1.1053         calculate D2E/DX2 analytically  !
 ! R64   R(47,50)                1.4204         calculate D2E/DX2 analytically  !
 ! R65   R(50,75)                1.4287         calculate D2E/DX2 analytically  !
 ! R66   R(51,52)                1.5047         calculate D2E/DX2 analytically  !
 ! R67   R(51,53)                1.5327         calculate D2E/DX2 analytically  !
 ! R68   R(51,54)                1.82           calculate D2E/DX2 analytically  !
 ! R69   R(54,55)                1.4007         calculate D2E/DX2 analytically  !
 ! R70   R(54,56)                1.3973         calculate D2E/DX2 analytically  !
 ! R71   R(55,57)                1.4024         calculate D2E/DX2 analytically  !
 ! R72   R(55,58)                1.0884         calculate D2E/DX2 analytically  !
 ! R73   R(56,59)                1.4013         calculate D2E/DX2 analytically  !
 ! R74   R(56,60)                1.0853         calculate D2E/DX2 analytically  !
 ! R75   R(57,61)                1.4044         calculate D2E/DX2 analytically  !
 ! R76   R(57,93)                1.5131         calculate D2E/DX2 analytically  !
 ! R77   R(59,61)                1.3999         calculate D2E/DX2 analytically  !
 ! R78   R(59,97)                1.5122         calculate D2E/DX2 analytically  !
 ! R79   R(61,62)                1.088          calculate D2E/DX2 analytically  !
 ! R80   R(63,64)                1.1019         calculate D2E/DX2 analytically  !
 ! R81   R(63,65)                1.0986         calculate D2E/DX2 analytically  !
 ! R82   R(63,66)                1.0975         calculate D2E/DX2 analytically  !
 ! R83   R(67,68)                1.1009         calculate D2E/DX2 analytically  !
 ! R84   R(67,69)                1.1061         calculate D2E/DX2 analytically  !
 ! R85   R(67,70)                1.0989         calculate D2E/DX2 analytically  !
 ! R86   R(71,72)                1.1043         calculate D2E/DX2 analytically  !
 ! R87   R(71,73)                1.1032         calculate D2E/DX2 analytically  !
 ! R88   R(71,74)                1.0983         calculate D2E/DX2 analytically  !
 ! R89   R(75,76)                1.0981         calculate D2E/DX2 analytically  !
 ! R90   R(75,77)                1.1064         calculate D2E/DX2 analytically  !
 ! R91   R(75,78)                1.1068         calculate D2E/DX2 analytically  !
 ! R92   R(79,80)                1.0981         calculate D2E/DX2 analytically  !
 ! R93   R(79,81)                1.1029         calculate D2E/DX2 analytically  !
 ! R94   R(79,82)                1.1069         calculate D2E/DX2 analytically  !
 ! R95   R(83,84)                2.3913         calculate D2E/DX2 analytically  !
 ! R96   R(84,85)                1.426          calculate D2E/DX2 analytically  !
 ! R97   R(84,89)                1.433          calculate D2E/DX2 analytically  !
 ! R98   R(85,86)                1.1066         calculate D2E/DX2 analytically  !
 ! R99   R(85,87)                1.0987         calculate D2E/DX2 analytically  !
 ! R100  R(85,88)                1.1062         calculate D2E/DX2 analytically  !
 ! R101  R(89,90)                1.1059         calculate D2E/DX2 analytically  !
 ! R102  R(89,91)                1.1002         calculate D2E/DX2 analytically  !
 ! R103  R(89,92)                1.1065         calculate D2E/DX2 analytically  !
 ! R104  R(93,94)                1.3681         calculate D2E/DX2 analytically  !
 ! R105  R(93,95)                1.3613         calculate D2E/DX2 analytically  !
 ! R106  R(93,96)                1.3587         calculate D2E/DX2 analytically  !
 ! R107  R(97,98)                1.3642         calculate D2E/DX2 analytically  !
 ! R108  R(97,99)                1.3667         calculate D2E/DX2 analytically  !
 ! R109  R(97,100)               1.3608         calculate D2E/DX2 analytically  !
 ! A1    A(2,1,5)              109.6007         calculate D2E/DX2 analytically  !
 ! A2    A(2,1,8)              108.5321         calculate D2E/DX2 analytically  !
 ! A3    A(2,1,14)             107.4811         calculate D2E/DX2 analytically  !
 ! A4    A(5,1,8)              109.3488         calculate D2E/DX2 analytically  !
 ! A5    A(5,1,14)             111.4638         calculate D2E/DX2 analytically  !
 ! A6    A(8,1,14)             110.3514         calculate D2E/DX2 analytically  !
 ! A7    A(1,2,3)              110.7065         calculate D2E/DX2 analytically  !
 ! A8    A(1,2,7)              108.5227         calculate D2E/DX2 analytically  !
 ! A9    A(1,2,13)             112.0191         calculate D2E/DX2 analytically  !
 ! A10   A(3,2,7)              106.0937         calculate D2E/DX2 analytically  !
 ! A11   A(3,2,13)             108.5363         calculate D2E/DX2 analytically  !
 ! A12   A(7,2,13)             110.8032         calculate D2E/DX2 analytically  !
 ! A13   A(2,3,6)              110.4708         calculate D2E/DX2 analytically  !
 ! A14   A(2,3,11)             110.1828         calculate D2E/DX2 analytically  !
 ! A15   A(2,3,12)             108.7636         calculate D2E/DX2 analytically  !
 ! A16   A(6,3,11)             104.4672         calculate D2E/DX2 analytically  !
 ! A17   A(6,3,12)             110.5134         calculate D2E/DX2 analytically  !
 ! A18   A(11,3,12)            112.4043         calculate D2E/DX2 analytically  !
 ! A19   A(5,4,9)              107.8966         calculate D2E/DX2 analytically  !
 ! A20   A(5,4,11)             109.6271         calculate D2E/DX2 analytically  !
 ! A21   A(5,4,16)             114.795          calculate D2E/DX2 analytically  !
 ! A22   A(9,4,11)             108.5775         calculate D2E/DX2 analytically  !
 ! A23   A(9,4,16)             108.6059         calculate D2E/DX2 analytically  !
 ! A24   A(11,4,16)            107.1945         calculate D2E/DX2 analytically  !
 ! A25   A(1,5,4)              110.9521         calculate D2E/DX2 analytically  !
 ! A26   A(1,5,10)             107.3396         calculate D2E/DX2 analytically  !
 ! A27   A(1,5,15)             109.674          calculate D2E/DX2 analytically  !
 ! A28   A(4,5,10)             109.6489         calculate D2E/DX2 analytically  !
 ! A29   A(4,5,15)             109.0915         calculate D2E/DX2 analytically  !
 ! A30   A(10,5,15)            110.1206         calculate D2E/DX2 analytically  !
 ! A31   A(5,10,37)            140.5939         calculate D2E/DX2 analytically  !
 ! A32   A(3,11,4)             113.9728         calculate D2E/DX2 analytically  !
 ! A33   A(3,11,83)            128.9498         calculate D2E/DX2 analytically  !
 ! A34   A(4,11,83)            110.4997         calculate D2E/DX2 analytically  !
 ! A35   A(3,12,79)            112.7151         calculate D2E/DX2 analytically  !
 ! A36   A(2,13,20)            113.3419         calculate D2E/DX2 analytically  !
 ! A37   A(1,14,24)            113.8974         calculate D2E/DX2 analytically  !
 ! A38   A(5,15,28)            112.6301         calculate D2E/DX2 analytically  !
 ! A39   A(4,16,17)            104.5181         calculate D2E/DX2 analytically  !
 ! A40   A(4,16,18)            104.6147         calculate D2E/DX2 analytically  !
 ! A41   A(4,16,19)            115.5419         calculate D2E/DX2 analytically  !
 ! A42   A(17,16,18)           105.3823         calculate D2E/DX2 analytically  !
 ! A43   A(17,16,19)           113.8903         calculate D2E/DX2 analytically  !
 ! A44   A(18,16,19)           111.9041         calculate D2E/DX2 analytically  !
 ! A45   A(16,18,91)           102.3657         calculate D2E/DX2 analytically  !
 ! A46   A(16,19,37)           120.1562         calculate D2E/DX2 analytically  !
 ! A47   A(16,19,38)           161.0029         calculate D2E/DX2 analytically  !
 ! A48   A(16,19,83)           106.1429         calculate D2E/DX2 analytically  !
 ! A49   A(16,19,91)            91.4954         calculate D2E/DX2 analytically  !
 ! A50   A(37,19,38)            72.7965         calculate D2E/DX2 analytically  !
 ! A51   A(37,19,91)           126.6068         calculate D2E/DX2 analytically  !
 ! A52   A(38,19,83)            92.3006         calculate D2E/DX2 analytically  !
 ! A53   A(38,19,91)            90.4098         calculate D2E/DX2 analytically  !
 ! A54   A(83,19,91)            70.4955         calculate D2E/DX2 analytically  !
 ! A55   A(13,20,21)           111.1948         calculate D2E/DX2 analytically  !
 ! A56   A(13,20,22)           111.5067         calculate D2E/DX2 analytically  !
 ! A57   A(13,20,23)           106.5671         calculate D2E/DX2 analytically  !
 ! A58   A(21,20,22)           108.6887         calculate D2E/DX2 analytically  !
 ! A59   A(21,20,23)           109.0025         calculate D2E/DX2 analytically  !
 ! A60   A(22,20,23)           109.8384         calculate D2E/DX2 analytically  !
 ! A61   A(14,24,25)           111.4171         calculate D2E/DX2 analytically  !
 ! A62   A(14,24,26)           110.7506         calculate D2E/DX2 analytically  !
 ! A63   A(14,24,27)           106.3157         calculate D2E/DX2 analytically  !
 ! A64   A(25,24,26)           108.991          calculate D2E/DX2 analytically  !
 ! A65   A(25,24,27)           109.9062         calculate D2E/DX2 analytically  !
 ! A66   A(26,24,27)           109.4208         calculate D2E/DX2 analytically  !
 ! A67   A(15,28,29)           110.6988         calculate D2E/DX2 analytically  !
 ! A68   A(15,28,30)           111.4844         calculate D2E/DX2 analytically  !
 ! A69   A(15,28,31)           106.581          calculate D2E/DX2 analytically  !
 ! A70   A(29,28,30)           108.5054         calculate D2E/DX2 analytically  !
 ! A71   A(29,28,31)           109.5342         calculate D2E/DX2 analytically  !
 ! A72   A(30,28,31)           110.02           calculate D2E/DX2 analytically  !
 ! A73   A(33,32,36)           108.3245         calculate D2E/DX2 analytically  !
 ! A74   A(33,32,39)           109.1643         calculate D2E/DX2 analytically  !
 ! A75   A(33,32,45)           107.8555         calculate D2E/DX2 analytically  !
 ! A76   A(36,32,39)           110.0686         calculate D2E/DX2 analytically  !
 ! A77   A(36,32,45)           109.8875         calculate D2E/DX2 analytically  !
 ! A78   A(39,32,45)           111.4579         calculate D2E/DX2 analytically  !
 ! A79   A(32,33,34)           112.2969         calculate D2E/DX2 analytically  !
 ! A80   A(32,33,38)           108.5149         calculate D2E/DX2 analytically  !
 ! A81   A(32,33,44)           115.2834         calculate D2E/DX2 analytically  !
 ! A82   A(34,33,38)           102.8993         calculate D2E/DX2 analytically  !
 ! A83   A(34,33,44)           108.0746         calculate D2E/DX2 analytically  !
 ! A84   A(38,33,44)           109.0185         calculate D2E/DX2 analytically  !
 ! A85   A(33,34,37)           121.0896         calculate D2E/DX2 analytically  !
 ! A86   A(33,34,42)           122.1967         calculate D2E/DX2 analytically  !
 ! A87   A(33,34,53)            97.3115         calculate D2E/DX2 analytically  !
 ! A88   A(37,34,42)           113.3761         calculate D2E/DX2 analytically  !
 ! A89   A(37,34,53)            91.0982         calculate D2E/DX2 analytically  !
 ! A90   A(42,34,53)            99.6289         calculate D2E/DX2 analytically  !
 ! A91   A(36,35,40)           109.3193         calculate D2E/DX2 analytically  !
 ! A92   A(36,35,42)           111.0074         calculate D2E/DX2 analytically  !
 ! A93   A(36,35,47)           115.4968         calculate D2E/DX2 analytically  !
 ! A94   A(40,35,42)           104.8802         calculate D2E/DX2 analytically  !
 ! A95   A(40,35,47)           109.2778         calculate D2E/DX2 analytically  !
 ! A96   A(42,35,47)           106.302          calculate D2E/DX2 analytically  !
 ! A97   A(32,36,35)           110.65           calculate D2E/DX2 analytically  !
 ! A98   A(32,36,41)           108.2845         calculate D2E/DX2 analytically  !
 ! A99   A(32,36,46)           109.941          calculate D2E/DX2 analytically  !
 ! A100  A(35,36,41)           109.3334         calculate D2E/DX2 analytically  !
 ! A101  A(35,36,46)           107.3608         calculate D2E/DX2 analytically  !
 ! A102  A(41,36,46)           111.2805         calculate D2E/DX2 analytically  !
 ! A103  A(10,37,19)            82.0828         calculate D2E/DX2 analytically  !
 ! A104  A(10,37,34)           120.1221         calculate D2E/DX2 analytically  !
 ! A105  A(10,37,83)           109.1678         calculate D2E/DX2 analytically  !
 ! A106  A(19,37,34)            96.5286         calculate D2E/DX2 analytically  !
 ! A107  A(34,37,83)           123.2587         calculate D2E/DX2 analytically  !
 ! A108  A(19,38,33)           109.8417         calculate D2E/DX2 analytically  !
 ! A109  A(34,42,35)           119.4117         calculate D2E/DX2 analytically  !
 ! A110  A(34,42,60)           100.3601         calculate D2E/DX2 analytically  !
 ! A111  A(35,42,60)           105.1608         calculate D2E/DX2 analytically  !
 ! A112  A(33,44,63)           114.3476         calculate D2E/DX2 analytically  !
 ! A113  A(32,45,67)           113.6189         calculate D2E/DX2 analytically  !
 ! A114  A(36,46,71)           113.1251         calculate D2E/DX2 analytically  !
 ! A115  A(35,47,48)           107.6962         calculate D2E/DX2 analytically  !
 ! A116  A(35,47,49)           109.195          calculate D2E/DX2 analytically  !
 ! A117  A(35,47,50)           109.3747         calculate D2E/DX2 analytically  !
 ! A118  A(48,47,49)           108.099          calculate D2E/DX2 analytically  !
 ! A119  A(48,47,50)           111.3721         calculate D2E/DX2 analytically  !
 ! A120  A(49,47,50)           111.0192         calculate D2E/DX2 analytically  !
 ! A121  A(47,50,75)           111.2921         calculate D2E/DX2 analytically  !
 ! A122  A(43,51,52)           115.2959         calculate D2E/DX2 analytically  !
 ! A123  A(43,51,53)           112.6972         calculate D2E/DX2 analytically  !
 ! A124  A(43,51,54)           106.8639         calculate D2E/DX2 analytically  !
 ! A125  A(52,51,53)           112.0643         calculate D2E/DX2 analytically  !
 ! A126  A(52,51,54)           104.8484         calculate D2E/DX2 analytically  !
 ! A127  A(53,51,54)           103.9249         calculate D2E/DX2 analytically  !
 ! A128  A(34,53,51)           115.186          calculate D2E/DX2 analytically  !
 ! A129  A(51,54,55)           119.6003         calculate D2E/DX2 analytically  !
 ! A130  A(51,54,56)           119.3292         calculate D2E/DX2 analytically  !
 ! A131  A(55,54,56)           121.0277         calculate D2E/DX2 analytically  !
 ! A132  A(54,55,57)           118.9157         calculate D2E/DX2 analytically  !
 ! A133  A(54,55,58)           120.2379         calculate D2E/DX2 analytically  !
 ! A134  A(57,55,58)           120.8428         calculate D2E/DX2 analytically  !
 ! A135  A(54,56,59)           119.4054         calculate D2E/DX2 analytically  !
 ! A136  A(54,56,60)           120.5578         calculate D2E/DX2 analytically  !
 ! A137  A(59,56,60)           120.0367         calculate D2E/DX2 analytically  !
 ! A138  A(55,57,61)           120.8114         calculate D2E/DX2 analytically  !
 ! A139  A(55,57,93)           120.0374         calculate D2E/DX2 analytically  !
 ! A140  A(61,57,93)           119.0481         calculate D2E/DX2 analytically  !
 ! A141  A(56,59,61)           120.5557         calculate D2E/DX2 analytically  !
 ! A142  A(56,59,97)           118.596          calculate D2E/DX2 analytically  !
 ! A143  A(61,59,97)           120.6927         calculate D2E/DX2 analytically  !
 ! A144  A(42,60,56)           163.8554         calculate D2E/DX2 analytically  !
 ! A145  A(57,61,59)           119.2824         calculate D2E/DX2 analytically  !
 ! A146  A(57,61,62)           120.243          calculate D2E/DX2 analytically  !
 ! A147  A(59,61,62)           120.4745         calculate D2E/DX2 analytically  !
 ! A148  A(44,63,64)           110.5839         calculate D2E/DX2 analytically  !
 ! A149  A(44,63,65)           110.7834         calculate D2E/DX2 analytically  !
 ! A150  A(44,63,66)           105.8057         calculate D2E/DX2 analytically  !
 ! A151  A(64,63,65)           109.4714         calculate D2E/DX2 analytically  !
 ! A152  A(64,63,66)           109.3504         calculate D2E/DX2 analytically  !
 ! A153  A(65,63,66)           110.7925         calculate D2E/DX2 analytically  !
 ! A154  A(45,67,68)           111.2096         calculate D2E/DX2 analytically  !
 ! A155  A(45,67,69)           110.7273         calculate D2E/DX2 analytically  !
 ! A156  A(45,67,70)           106.1627         calculate D2E/DX2 analytically  !
 ! A157  A(68,67,69)           109.3183         calculate D2E/DX2 analytically  !
 ! A158  A(68,67,70)           110.0047         calculate D2E/DX2 analytically  !
 ! A159  A(69,67,70)           109.3666         calculate D2E/DX2 analytically  !
 ! A160  A(46,71,72)           110.5794         calculate D2E/DX2 analytically  !
 ! A161  A(46,71,73)           111.1275         calculate D2E/DX2 analytically  !
 ! A162  A(46,71,74)           106.2955         calculate D2E/DX2 analytically  !
 ! A163  A(72,71,73)           109.0928         calculate D2E/DX2 analytically  !
 ! A164  A(72,71,74)           109.7453         calculate D2E/DX2 analytically  !
 ! A165  A(73,71,74)           109.9682         calculate D2E/DX2 analytically  !
 ! A166  A(50,75,76)           106.7048         calculate D2E/DX2 analytically  !
 ! A167  A(50,75,77)           110.8605         calculate D2E/DX2 analytically  !
 ! A168  A(50,75,78)           111.1726         calculate D2E/DX2 analytically  !
 ! A169  A(76,75,77)           109.5605         calculate D2E/DX2 analytically  !
 ! A170  A(76,75,78)           109.627          calculate D2E/DX2 analytically  !
 ! A171  A(77,75,78)           108.8855         calculate D2E/DX2 analytically  !
 ! A172  A(12,79,80)           106.488          calculate D2E/DX2 analytically  !
 ! A173  A(12,79,81)           111.2349         calculate D2E/DX2 analytically  !
 ! A174  A(12,79,82)           110.6554         calculate D2E/DX2 analytically  !
 ! A175  A(80,79,81)           109.8311         calculate D2E/DX2 analytically  !
 ! A176  A(80,79,82)           109.6121         calculate D2E/DX2 analytically  !
 ! A177  A(81,79,82)           108.9882         calculate D2E/DX2 analytically  !
 ! A178  A(11,83,19)            73.6457         calculate D2E/DX2 analytically  !
 ! A179  A(11,83,37)            82.7299         calculate D2E/DX2 analytically  !
 ! A180  A(11,83,84)           106.4171         calculate D2E/DX2 analytically  !
 ! A181  A(19,83,84)           100.0957         calculate D2E/DX2 analytically  !
 ! A182  A(37,83,84)           152.2505         calculate D2E/DX2 analytically  !
 ! A183  A(83,84,85)           141.3152         calculate D2E/DX2 analytically  !
 ! A184  A(83,84,89)           106.1107         calculate D2E/DX2 analytically  !
 ! A185  A(85,84,89)           112.565          calculate D2E/DX2 analytically  !
 ! A186  A(84,85,86)           110.741          calculate D2E/DX2 analytically  !
 ! A187  A(84,85,87)           107.0657         calculate D2E/DX2 analytically  !
 ! A188  A(84,85,88)           110.8745         calculate D2E/DX2 analytically  !
 ! A189  A(86,85,87)           109.6671         calculate D2E/DX2 analytically  !
 ! A190  A(86,85,88)           108.8244         calculate D2E/DX2 analytically  !
 ! A191  A(87,85,88)           109.6488         calculate D2E/DX2 analytically  !
 ! A192  A(84,89,90)           110.5659         calculate D2E/DX2 analytically  !
 ! A193  A(84,89,91)           106.1253         calculate D2E/DX2 analytically  !
 ! A194  A(84,89,92)           110.4481         calculate D2E/DX2 analytically  !
 ! A195  A(90,89,91)           110.5443         calculate D2E/DX2 analytically  !
 ! A196  A(90,89,92)           108.9469         calculate D2E/DX2 analytically  !
 ! A197  A(91,89,92)           110.1933         calculate D2E/DX2 analytically  !
 ! A198  A(18,91,19)            54.0647         calculate D2E/DX2 analytically  !
 ! A199  A(18,91,89)           120.2618         calculate D2E/DX2 analytically  !
 ! A200  A(19,91,89)           155.7189         calculate D2E/DX2 analytically  !
 ! A201  A(57,93,94)           110.8621         calculate D2E/DX2 analytically  !
 ! A202  A(57,93,95)           111.9154         calculate D2E/DX2 analytically  !
 ! A203  A(57,93,96)           112.3742         calculate D2E/DX2 analytically  !
 ! A204  A(94,93,95)           106.7323         calculate D2E/DX2 analytically  !
 ! A205  A(94,93,96)           107.0365         calculate D2E/DX2 analytically  !
 ! A206  A(95,93,96)           107.6199         calculate D2E/DX2 analytically  !
 ! A207  A(59,97,98)           112.3551         calculate D2E/DX2 analytically  !
 ! A208  A(59,97,99)           110.7809         calculate D2E/DX2 analytically  !
 ! A209  A(59,97,100)          112.5321         calculate D2E/DX2 analytically  !
 ! A210  A(98,97,99)           106.2412         calculate D2E/DX2 analytically  !
 ! A211  A(98,97,100)          107.45           calculate D2E/DX2 analytically  !
 ! A212  A(99,97,100)          107.1312         calculate D2E/DX2 analytically  !
 ! D1    D(5,1,2,3)            -53.3153         calculate D2E/DX2 analytically  !
 ! D2    D(5,1,2,7)             62.7367         calculate D2E/DX2 analytically  !
 ! D3    D(5,1,2,13)          -174.6118         calculate D2E/DX2 analytically  !
 ! D4    D(8,1,2,3)             66.0452         calculate D2E/DX2 analytically  !
 ! D5    D(8,1,2,7)           -177.9028         calculate D2E/DX2 analytically  !
 ! D6    D(8,1,2,13)           -55.2513         calculate D2E/DX2 analytically  !
 ! D7    D(14,1,2,3)          -174.6057         calculate D2E/DX2 analytically  !
 ! D8    D(14,1,2,7)           -58.5537         calculate D2E/DX2 analytically  !
 ! D9    D(14,1,2,13)           64.0978         calculate D2E/DX2 analytically  !
 ! D10   D(2,1,5,4)             53.3221         calculate D2E/DX2 analytically  !
 ! D11   D(2,1,5,10)           -66.4636         calculate D2E/DX2 analytically  !
 ! D12   D(2,1,5,15)           173.9095         calculate D2E/DX2 analytically  !
 ! D13   D(8,1,5,4)            -65.5351         calculate D2E/DX2 analytically  !
 ! D14   D(8,1,5,10)           174.6792         calculate D2E/DX2 analytically  !
 ! D15   D(8,1,5,15)            55.0524         calculate D2E/DX2 analytically  !
 ! D16   D(14,1,5,4)           172.1801         calculate D2E/DX2 analytically  !
 ! D17   D(14,1,5,10)           52.3944         calculate D2E/DX2 analytically  !
 ! D18   D(14,1,5,15)          -67.2324         calculate D2E/DX2 analytically  !
 ! D19   D(2,1,14,24)         -145.6652         calculate D2E/DX2 analytically  !
 ! D20   D(5,1,14,24)           94.2195         calculate D2E/DX2 analytically  !
 ! D21   D(8,1,14,24)          -27.4859         calculate D2E/DX2 analytically  !
 ! D22   D(1,2,3,6)            171.1386         calculate D2E/DX2 analytically  !
 ! D23   D(1,2,3,11)            56.2199         calculate D2E/DX2 analytically  !
 ! D24   D(1,2,3,12)           -67.4043         calculate D2E/DX2 analytically  !
 ! D25   D(7,2,3,6)             53.588          calculate D2E/DX2 analytically  !
 ! D26   D(7,2,3,11)           -61.3306         calculate D2E/DX2 analytically  !
 ! D27   D(7,2,3,12)           175.0452         calculate D2E/DX2 analytically  !
 ! D28   D(13,2,3,6)           -65.5301         calculate D2E/DX2 analytically  !
 ! D29   D(13,2,3,11)          179.5513         calculate D2E/DX2 analytically  !
 ! D30   D(13,2,3,12)           55.9271         calculate D2E/DX2 analytically  !
 ! D31   D(1,2,13,20)          -98.6576         calculate D2E/DX2 analytically  !
 ! D32   D(3,2,13,20)          138.8037         calculate D2E/DX2 analytically  !
 ! D33   D(7,2,13,20)           22.6897         calculate D2E/DX2 analytically  !
 ! D34   D(2,3,11,4)           -60.4838         calculate D2E/DX2 analytically  !
 ! D35   D(2,3,11,83)           87.9735         calculate D2E/DX2 analytically  !
 ! D36   D(6,3,11,4)          -179.1464         calculate D2E/DX2 analytically  !
 ! D37   D(6,3,11,83)          -30.689          calculate D2E/DX2 analytically  !
 ! D38   D(12,3,11,4)           60.998          calculate D2E/DX2 analytically  !
 ! D39   D(12,3,11,83)        -150.5446         calculate D2E/DX2 analytically  !
 ! D40   D(2,3,12,79)         -174.0993         calculate D2E/DX2 analytically  !
 ! D41   D(6,3,12,79)          -52.6683         calculate D2E/DX2 analytically  !
 ! D42   D(11,3,12,79)          63.6121         calculate D2E/DX2 analytically  !
 ! D43   D(9,4,5,1)             62.704          calculate D2E/DX2 analytically  !
 ! D44   D(9,4,5,10)          -178.8987         calculate D2E/DX2 analytically  !
 ! D45   D(9,4,5,15)           -58.2278         calculate D2E/DX2 analytically  !
 ! D46   D(11,4,5,1)           -55.3692         calculate D2E/DX2 analytically  !
 ! D47   D(11,4,5,10)           63.0281         calculate D2E/DX2 analytically  !
 ! D48   D(11,4,5,15)         -176.301          calculate D2E/DX2 analytically  !
 ! D49   D(16,4,5,1)          -176.064          calculate D2E/DX2 analytically  !
 ! D50   D(16,4,5,10)          -57.6667         calculate D2E/DX2 analytically  !
 ! D51   D(16,4,5,15)           63.0042         calculate D2E/DX2 analytically  !
 ! D52   D(5,4,11,3)            60.0099         calculate D2E/DX2 analytically  !
 ! D53   D(5,4,11,83)          -94.2465         calculate D2E/DX2 analytically  !
 ! D54   D(9,4,11,3)           -57.6388         calculate D2E/DX2 analytically  !
 ! D55   D(9,4,11,83)          148.1048         calculate D2E/DX2 analytically  !
 ! D56   D(16,4,11,3)         -174.7905         calculate D2E/DX2 analytically  !
 ! D57   D(16,4,11,83)          30.953          calculate D2E/DX2 analytically  !
 ! D58   D(5,4,16,17)          -63.8413         calculate D2E/DX2 analytically  !
 ! D59   D(5,4,16,18)         -174.3711         calculate D2E/DX2 analytically  !
 ! D60   D(5,4,16,19)           62.1319         calculate D2E/DX2 analytically  !
 ! D61   D(9,4,16,17)           57.0019         calculate D2E/DX2 analytically  !
 ! D62   D(9,4,16,18)          -53.5278         calculate D2E/DX2 analytically  !
 ! D63   D(9,4,16,19)         -177.0249         calculate D2E/DX2 analytically  !
 ! D64   D(11,4,16,17)         174.135          calculate D2E/DX2 analytically  !
 ! D65   D(11,4,16,18)          63.6053         calculate D2E/DX2 analytically  !
 ! D66   D(11,4,16,19)         -59.8918         calculate D2E/DX2 analytically  !
 ! D67   D(1,5,10,37)          119.8318         calculate D2E/DX2 analytically  !
 ! D68   D(4,5,10,37)           -0.7823         calculate D2E/DX2 analytically  !
 ! D69   D(15,5,10,37)        -120.8273         calculate D2E/DX2 analytically  !
 ! D70   D(1,5,15,28)          135.4651         calculate D2E/DX2 analytically  !
 ! D71   D(4,5,15,28)         -102.8256         calculate D2E/DX2 analytically  !
 ! D72   D(10,5,15,28)          17.5559         calculate D2E/DX2 analytically  !
 ! D73   D(5,10,37,19)          36.0611         calculate D2E/DX2 analytically  !
 ! D74   D(5,10,37,34)         129.0436         calculate D2E/DX2 analytically  !
 ! D75   D(5,10,37,83)         -21.7582         calculate D2E/DX2 analytically  !
 ! D76   D(3,11,83,19)        -154.9575         calculate D2E/DX2 analytically  !
 ! D77   D(3,11,83,37)         -97.7377         calculate D2E/DX2 analytically  !
 ! D78   D(3,11,83,84)         109.0737         calculate D2E/DX2 analytically  !
 ! D79   D(4,11,83,19)          -5.6428         calculate D2E/DX2 analytically  !
 ! D80   D(4,11,83,37)          51.5769         calculate D2E/DX2 analytically  !
 ! D81   D(4,11,83,84)        -101.6116         calculate D2E/DX2 analytically  !
 ! D82   D(3,12,79,80)         174.3564         calculate D2E/DX2 analytically  !
 ! D83   D(3,12,79,81)         -66.0016         calculate D2E/DX2 analytically  !
 ! D84   D(3,12,79,82)          55.2998         calculate D2E/DX2 analytically  !
 ! D85   D(2,13,20,21)         -60.1715         calculate D2E/DX2 analytically  !
 ! D86   D(2,13,20,22)          61.3079         calculate D2E/DX2 analytically  !
 ! D87   D(2,13,20,23)        -178.8384         calculate D2E/DX2 analytically  !
 ! D88   D(1,14,24,25)         -63.9417         calculate D2E/DX2 analytically  !
 ! D89   D(1,14,24,26)          57.5528         calculate D2E/DX2 analytically  !
 ! D90   D(1,14,24,27)         176.3292         calculate D2E/DX2 analytically  !
 ! D91   D(5,15,28,29)         -68.7082         calculate D2E/DX2 analytically  !
 ! D92   D(5,15,28,30)          52.1789         calculate D2E/DX2 analytically  !
 ! D93   D(5,15,28,31)         172.2495         calculate D2E/DX2 analytically  !
 ! D94   D(4,16,18,91)        -129.87           calculate D2E/DX2 analytically  !
 ! D95   D(17,16,18,91)        120.2269         calculate D2E/DX2 analytically  !
 ! D96   D(19,16,18,91)         -4.0598         calculate D2E/DX2 analytically  !
 ! D97   D(4,16,19,37)         -11.3975         calculate D2E/DX2 analytically  !
 ! D98   D(4,16,19,38)        -140.95           calculate D2E/DX2 analytically  !
 ! D99   D(4,16,19,83)          53.3228         calculate D2E/DX2 analytically  !
 ! D100  D(4,16,19,91)         123.4369         calculate D2E/DX2 analytically  !
 ! D101  D(17,16,19,37)        109.6362         calculate D2E/DX2 analytically  !
 ! D102  D(17,16,19,38)        -19.9163         calculate D2E/DX2 analytically  !
 ! D103  D(17,16,19,83)        174.3565         calculate D2E/DX2 analytically  !
 ! D104  D(17,16,19,91)       -115.5293         calculate D2E/DX2 analytically  !
 ! D105  D(18,16,19,37)       -130.9717         calculate D2E/DX2 analytically  !
 ! D106  D(18,16,19,38)         99.4758         calculate D2E/DX2 analytically  !
 ! D107  D(18,16,19,83)        -66.2514         calculate D2E/DX2 analytically  !
 ! D108  D(18,16,19,91)          3.8628         calculate D2E/DX2 analytically  !
 ! D109  D(16,18,91,19)          2.7692         calculate D2E/DX2 analytically  !
 ! D110  D(16,18,91,89)        154.4737         calculate D2E/DX2 analytically  !
 ! D111  D(16,19,37,10)        -24.0007         calculate D2E/DX2 analytically  !
 ! D112  D(16,19,37,34)       -143.6089         calculate D2E/DX2 analytically  !
 ! D113  D(38,19,37,10)        140.7663         calculate D2E/DX2 analytically  !
 ! D114  D(38,19,37,34)         21.1581         calculate D2E/DX2 analytically  !
 ! D115  D(91,19,37,10)       -141.9822         calculate D2E/DX2 analytically  !
 ! D116  D(91,19,37,34)         98.4096         calculate D2E/DX2 analytically  !
 ! D117  D(16,19,38,33)        152.8043         calculate D2E/DX2 analytically  !
 ! D118  D(37,19,38,33)         17.064          calculate D2E/DX2 analytically  !
 ! D119  D(83,19,38,33)        -40.9059         calculate D2E/DX2 analytically  !
 ! D120  D(91,19,38,33)       -111.402          calculate D2E/DX2 analytically  !
 ! D121  D(16,19,83,11)        -23.8681         calculate D2E/DX2 analytically  !
 ! D122  D(16,19,83,84)         80.4278         calculate D2E/DX2 analytically  !
 ! D123  D(38,19,83,11)        160.7388         calculate D2E/DX2 analytically  !
 ! D124  D(38,19,83,84)        -94.9653         calculate D2E/DX2 analytically  !
 ! D125  D(91,19,83,11)       -109.6414         calculate D2E/DX2 analytically  !
 ! D126  D(91,19,83,84)         -5.3455         calculate D2E/DX2 analytically  !
 ! D127  D(16,19,91,18)         -2.2031         calculate D2E/DX2 analytically  !
 ! D128  D(16,19,91,89)        -86.8598         calculate D2E/DX2 analytically  !
 ! D129  D(37,19,91,18)        127.993          calculate D2E/DX2 analytically  !
 ! D130  D(37,19,91,89)         43.3363         calculate D2E/DX2 analytically  !
 ! D131  D(38,19,91,18)       -163.3            calculate D2E/DX2 analytically  !
 ! D132  D(38,19,91,89)        112.0433         calculate D2E/DX2 analytically  !
 ! D133  D(83,19,91,18)        104.4045         calculate D2E/DX2 analytically  !
 ! D134  D(83,19,91,89)         19.7478         calculate D2E/DX2 analytically  !
 ! D135  D(36,32,33,34)        -46.7904         calculate D2E/DX2 analytically  !
 ! D136  D(36,32,33,38)         66.2744         calculate D2E/DX2 analytically  !
 ! D137  D(36,32,33,44)       -171.1611         calculate D2E/DX2 analytically  !
 ! D138  D(39,32,33,34)         73.0631         calculate D2E/DX2 analytically  !
 ! D139  D(39,32,33,38)       -173.872          calculate D2E/DX2 analytically  !
 ! D140  D(39,32,33,44)        -51.3075         calculate D2E/DX2 analytically  !
 ! D141  D(45,32,33,34)       -165.6829         calculate D2E/DX2 analytically  !
 ! D142  D(45,32,33,38)        -52.618          calculate D2E/DX2 analytically  !
 ! D143  D(45,32,33,44)         69.9464         calculate D2E/DX2 analytically  !
 ! D144  D(33,32,36,35)         57.694          calculate D2E/DX2 analytically  !
 ! D145  D(33,32,36,41)        -62.1166         calculate D2E/DX2 analytically  !
 ! D146  D(33,32,36,46)        176.1148         calculate D2E/DX2 analytically  !
 ! D147  D(39,32,36,35)        -61.5916         calculate D2E/DX2 analytically  !
 ! D148  D(39,32,36,41)        178.5979         calculate D2E/DX2 analytically  !
 ! D149  D(39,32,36,46)         56.8293         calculate D2E/DX2 analytically  !
 ! D150  D(45,32,36,35)        175.2935         calculate D2E/DX2 analytically  !
 ! D151  D(45,32,36,41)         55.4829         calculate D2E/DX2 analytically  !
 ! D152  D(45,32,36,46)        -66.2857         calculate D2E/DX2 analytically  !
 ! D153  D(33,32,45,67)       -143.0497         calculate D2E/DX2 analytically  !
 ! D154  D(36,32,45,67)         99.0596         calculate D2E/DX2 analytically  !
 ! D155  D(39,32,45,67)        -23.2351         calculate D2E/DX2 analytically  !
 ! D156  D(32,33,34,37)       -165.9205         calculate D2E/DX2 analytically  !
 ! D157  D(32,33,34,42)         36.0794         calculate D2E/DX2 analytically  !
 ! D158  D(32,33,34,53)        -70.1851         calculate D2E/DX2 analytically  !
 ! D159  D(38,33,34,37)         77.5915         calculate D2E/DX2 analytically  !
 ! D160  D(38,33,34,42)        -80.4087         calculate D2E/DX2 analytically  !
 ! D161  D(38,33,34,53)        173.3268         calculate D2E/DX2 analytically  !
 ! D162  D(44,33,34,37)        -37.6481         calculate D2E/DX2 analytically  !
 ! D163  D(44,33,34,42)        164.3517         calculate D2E/DX2 analytically  !
 ! D164  D(44,33,34,53)         58.0872         calculate D2E/DX2 analytically  !
 ! D165  D(32,33,38,19)       -158.9422         calculate D2E/DX2 analytically  !
 ! D166  D(34,33,38,19)        -39.7876         calculate D2E/DX2 analytically  !
 ! D167  D(44,33,38,19)         74.7698         calculate D2E/DX2 analytically  !
 ! D168  D(32,33,44,63)        -78.7716         calculate D2E/DX2 analytically  !
 ! D169  D(34,33,44,63)        154.6776         calculate D2E/DX2 analytically  !
 ! D170  D(38,33,44,63)         43.5236         calculate D2E/DX2 analytically  !
 ! D171  D(33,34,37,10)       -140.9565         calculate D2E/DX2 analytically  !
 ! D172  D(33,34,37,19)        -56.3437         calculate D2E/DX2 analytically  !
 ! D173  D(33,34,37,83)          5.6045         calculate D2E/DX2 analytically  !
 ! D174  D(42,34,37,10)         18.8407         calculate D2E/DX2 analytically  !
 ! D175  D(42,34,37,19)        103.4535         calculate D2E/DX2 analytically  !
 ! D176  D(42,34,37,83)        165.4017         calculate D2E/DX2 analytically  !
 ! D177  D(53,34,37,10)        119.8252         calculate D2E/DX2 analytically  !
 ! D178  D(53,34,37,19)       -155.5621         calculate D2E/DX2 analytically  !
 ! D179  D(53,34,37,83)        -93.6138         calculate D2E/DX2 analytically  !
 ! D180  D(33,34,42,35)        -32.9401         calculate D2E/DX2 analytically  !
 ! D181  D(33,34,42,60)       -147.0356         calculate D2E/DX2 analytically  !
 ! D182  D(37,34,42,35)        167.5155         calculate D2E/DX2 analytically  !
 ! D183  D(37,34,42,60)         53.42           calculate D2E/DX2 analytically  !
 ! D184  D(53,34,42,35)         72.0923         calculate D2E/DX2 analytically  !
 ! D185  D(53,34,42,60)        -42.0032         calculate D2E/DX2 analytically  !
 ! D186  D(33,34,53,51)       -121.9251         calculate D2E/DX2 analytically  !
 ! D187  D(37,34,53,51)         -0.3802         calculate D2E/DX2 analytically  !
 ! D188  D(42,34,53,51)        113.5586         calculate D2E/DX2 analytically  !
 ! D189  D(40,35,36,32)         61.5225         calculate D2E/DX2 analytically  !
 ! D190  D(40,35,36,41)       -179.2985         calculate D2E/DX2 analytically  !
 ! D191  D(40,35,36,46)        -58.4567         calculate D2E/DX2 analytically  !
 ! D192  D(42,35,36,32)        -53.6992         calculate D2E/DX2 analytically  !
 ! D193  D(42,35,36,41)         65.4798         calculate D2E/DX2 analytically  !
 ! D194  D(42,35,36,46)       -173.6785         calculate D2E/DX2 analytically  !
 ! D195  D(47,35,36,32)       -174.7814         calculate D2E/DX2 analytically  !
 ! D196  D(47,35,36,41)        -55.6024         calculate D2E/DX2 analytically  !
 ! D197  D(47,35,36,46)         65.2394         calculate D2E/DX2 analytically  !
 ! D198  D(36,35,42,34)         40.8161         calculate D2E/DX2 analytically  !
 ! D199  D(36,35,42,60)        152.3244         calculate D2E/DX2 analytically  !
 ! D200  D(40,35,42,34)        -77.1352         calculate D2E/DX2 analytically  !
 ! D201  D(40,35,42,60)         34.3732         calculate D2E/DX2 analytically  !
 ! D202  D(47,35,42,34)        167.1672         calculate D2E/DX2 analytically  !
 ! D203  D(47,35,42,60)        -81.3245         calculate D2E/DX2 analytically  !
 ! D204  D(36,35,47,48)        -66.1328         calculate D2E/DX2 analytically  !
 ! D205  D(36,35,47,49)        176.7144         calculate D2E/DX2 analytically  !
 ! D206  D(36,35,47,50)         55.0447         calculate D2E/DX2 analytically  !
 ! D207  D(40,35,47,48)         57.5852         calculate D2E/DX2 analytically  !
 ! D208  D(40,35,47,49)        -59.5677         calculate D2E/DX2 analytically  !
 ! D209  D(40,35,47,50)        178.7626         calculate D2E/DX2 analytically  !
 ! D210  D(42,35,47,48)        170.2748         calculate D2E/DX2 analytically  !
 ! D211  D(42,35,47,49)         53.122          calculate D2E/DX2 analytically  !
 ! D212  D(42,35,47,50)        -68.5477         calculate D2E/DX2 analytically  !
 ! D213  D(32,36,46,71)        130.7043         calculate D2E/DX2 analytically  !
 ! D214  D(35,36,46,71)       -108.866          calculate D2E/DX2 analytically  !
 ! D215  D(41,36,46,71)         10.7388         calculate D2E/DX2 analytically  !
 ! D216  D(10,37,83,11)         -5.0627         calculate D2E/DX2 analytically  !
 ! D217  D(10,37,83,84)        106.6188         calculate D2E/DX2 analytically  !
 ! D218  D(34,37,83,11)       -154.7573         calculate D2E/DX2 analytically  !
 ! D219  D(34,37,83,84)        -43.0758         calculate D2E/DX2 analytically  !
 ! D220  D(34,42,60,56)         -0.7906         calculate D2E/DX2 analytically  !
 ! D221  D(35,42,60,56)       -125.315          calculate D2E/DX2 analytically  !
 ! D222  D(33,44,63,64)        -41.039          calculate D2E/DX2 analytically  !
 ! D223  D(33,44,63,65)         80.5206         calculate D2E/DX2 analytically  !
 ! D224  D(33,44,63,66)       -159.3437         calculate D2E/DX2 analytically  !
 ! D225  D(32,45,67,68)        -60.6929         calculate D2E/DX2 analytically  !
 ! D226  D(32,45,67,69)         61.0602         calculate D2E/DX2 analytically  !
 ! D227  D(32,45,67,70)        179.6687         calculate D2E/DX2 analytically  !
 ! D228  D(36,46,71,72)        -64.656          calculate D2E/DX2 analytically  !
 ! D229  D(36,46,71,73)         56.6536         calculate D2E/DX2 analytically  !
 ! D230  D(36,46,71,74)        176.2834         calculate D2E/DX2 analytically  !
 ! D231  D(35,47,50,75)        173.9891         calculate D2E/DX2 analytically  !
 ! D232  D(48,47,50,75)        -67.0882         calculate D2E/DX2 analytically  !
 ! D233  D(49,47,50,75)         53.4258         calculate D2E/DX2 analytically  !
 ! D234  D(47,50,75,76)       -179.7168         calculate D2E/DX2 analytically  !
 ! D235  D(47,50,75,77)        -60.4791         calculate D2E/DX2 analytically  !
 ! D236  D(47,50,75,78)         60.79           calculate D2E/DX2 analytically  !
 ! D237  D(43,51,53,34)        152.806          calculate D2E/DX2 analytically  !
 ! D238  D(52,51,53,34)         20.7933         calculate D2E/DX2 analytically  !
 ! D239  D(54,51,53,34)        -91.8741         calculate D2E/DX2 analytically  !
 ! D240  D(43,51,54,55)        -32.8737         calculate D2E/DX2 analytically  !
 ! D241  D(43,51,54,56)        149.4834         calculate D2E/DX2 analytically  !
 ! D242  D(52,51,54,55)         89.9656         calculate D2E/DX2 analytically  !
 ! D243  D(52,51,54,56)        -87.6773         calculate D2E/DX2 analytically  !
 ! D244  D(53,51,54,55)       -152.2515         calculate D2E/DX2 analytically  !
 ! D245  D(53,51,54,56)         30.1056         calculate D2E/DX2 analytically  !
 ! D246  D(51,54,55,57)       -177.4755         calculate D2E/DX2 analytically  !
 ! D247  D(51,54,55,58)          3.2052         calculate D2E/DX2 analytically  !
 ! D248  D(56,54,55,57)          0.1263         calculate D2E/DX2 analytically  !
 ! D249  D(56,54,55,58)       -179.1929         calculate D2E/DX2 analytically  !
 ! D250  D(51,54,56,59)        177.8372         calculate D2E/DX2 analytically  !
 ! D251  D(51,54,56,60)         -2.1246         calculate D2E/DX2 analytically  !
 ! D252  D(55,54,56,59)          0.229          calculate D2E/DX2 analytically  !
 ! D253  D(55,54,56,60)       -179.7328         calculate D2E/DX2 analytically  !
 ! D254  D(54,55,57,61)         -0.4037         calculate D2E/DX2 analytically  !
 ! D255  D(54,55,57,93)        175.8689         calculate D2E/DX2 analytically  !
 ! D256  D(58,55,57,61)        178.9113         calculate D2E/DX2 analytically  !
 ! D257  D(58,55,57,93)         -4.8161         calculate D2E/DX2 analytically  !
 ! D258  D(54,56,59,61)         -0.3139         calculate D2E/DX2 analytically  !
 ! D259  D(54,56,59,97)        175.1835         calculate D2E/DX2 analytically  !
 ! D260  D(60,56,59,61)        179.6481         calculate D2E/DX2 analytically  !
 ! D261  D(60,56,59,97)         -4.8545         calculate D2E/DX2 analytically  !
 ! D262  D(54,56,60,42)         19.584          calculate D2E/DX2 analytically  !
 ! D263  D(59,56,60,42)       -160.3775         calculate D2E/DX2 analytically  !
 ! D264  D(55,57,61,59)          0.3211         calculate D2E/DX2 analytically  !
 ! D265  D(55,57,61,62)       -179.5867         calculate D2E/DX2 analytically  !
 ! D266  D(93,57,61,59)       -175.9879         calculate D2E/DX2 analytically  !
 ! D267  D(93,57,61,62)          4.1043         calculate D2E/DX2 analytically  !
 ! D268  D(55,57,93,94)        -94.048          calculate D2E/DX2 analytically  !
 ! D269  D(55,57,93,95)        146.912          calculate D2E/DX2 analytically  !
 ! D270  D(55,57,93,96)         25.6837         calculate D2E/DX2 analytically  !
 ! D271  D(61,57,93,94)         82.2902         calculate D2E/DX2 analytically  !
 ! D272  D(61,57,93,95)        -36.7498         calculate D2E/DX2 analytically  !
 ! D273  D(61,57,93,96)       -157.9781         calculate D2E/DX2 analytically  !
 ! D274  D(56,59,61,57)          0.0422         calculate D2E/DX2 analytically  !
 ! D275  D(56,59,61,62)        179.9498         calculate D2E/DX2 analytically  !
 ! D276  D(97,59,61,57)       -175.3603         calculate D2E/DX2 analytically  !
 ! D277  D(97,59,61,62)          4.5473         calculate D2E/DX2 analytically  !
 ! D278  D(56,59,97,98)         38.0782         calculate D2E/DX2 analytically  !
 ! D279  D(56,59,97,99)        -80.5756         calculate D2E/DX2 analytically  !
 ! D280  D(56,59,97,100)       159.5215         calculate D2E/DX2 analytically  !
 ! D281  D(61,59,97,98)       -146.4308         calculate D2E/DX2 analytically  !
 ! D282  D(61,59,97,99)         94.9155         calculate D2E/DX2 analytically  !
 ! D283  D(61,59,97,100)       -24.9875         calculate D2E/DX2 analytically  !
 ! D284  D(11,83,84,85)       -100.2475         calculate D2E/DX2 analytically  !
 ! D285  D(11,83,84,89)         81.0224         calculate D2E/DX2 analytically  !
 ! D286  D(19,83,84,85)       -176.0242         calculate D2E/DX2 analytically  !
 ! D287  D(19,83,84,89)          5.2456         calculate D2E/DX2 analytically  !
 ! D288  D(37,83,84,85)        153.6899         calculate D2E/DX2 analytically  !
 ! D289  D(37,83,84,89)        -25.0403         calculate D2E/DX2 analytically  !
 ! D290  D(83,84,85,86)       -118.1909         calculate D2E/DX2 analytically  !
 ! D291  D(83,84,85,87)          1.3275         calculate D2E/DX2 analytically  !
 ! D292  D(83,84,85,88)        120.8998         calculate D2E/DX2 analytically  !
 ! D293  D(89,84,85,86)         60.488          calculate D2E/DX2 analytically  !
 ! D294  D(89,84,85,87)       -179.9936         calculate D2E/DX2 analytically  !
 ! D295  D(89,84,85,88)        -60.4214         calculate D2E/DX2 analytically  !
 ! D296  D(83,84,89,90)       -118.6186         calculate D2E/DX2 analytically  !
 ! D297  D(83,84,89,91)          1.2918         calculate D2E/DX2 analytically  !
 ! D298  D(83,84,89,92)        120.717          calculate D2E/DX2 analytically  !
 ! D299  D(85,84,89,90)         62.2408         calculate D2E/DX2 analytically  !
 ! D300  D(85,84,89,91)       -177.8487         calculate D2E/DX2 analytically  !
 ! D301  D(85,84,89,92)        -58.4235         calculate D2E/DX2 analytically  !
 ! D302  D(84,89,91,18)        -86.6135         calculate D2E/DX2 analytically  !
 ! D303  D(84,89,91,19)        -17.6509         calculate D2E/DX2 analytically  !
 ! D304  D(90,89,91,18)         33.311          calculate D2E/DX2 analytically  !
 ! D305  D(90,89,91,19)        102.2736         calculate D2E/DX2 analytically  !
 ! D306  D(92,89,91,18)        153.7946         calculate D2E/DX2 analytically  !
 ! D307  D(92,89,91,19)       -137.2428         calculate D2E/DX2 analytically  !
 --------------------------------------------------------------------------------
 Trust Radius=5.00D-02 FncErr=1.00D-07 GrdErr=1.00D-06 EigMax=2.50D+02 EigMin=1.00D-04
 Number of steps in this run=    600 maximum allowed number of steps=    600.
 Search for a saddle point of order  1.
 GradGradGradGradGradGradGradGradGradGradGradGradGradGradGradGradGradGrad

 Leave Link  103 at Wed Jun  5 10:09:06 2019, MaxMem=  6442450944 cpu:               8.3 elap:               0.3
 (Enter /home/ekwan/sw/g16/l202.exe)
 Stoichiometry    C30H47F6NaO15S
 Framework group  C1[X(C30H47F6NaO15S)]
 Deg. of freedom   294
 Full point group                 C1      NOp   1
 Largest Abelian subgroup         C1      NOp   1
 Largest concise Abelian subgroup C1      NOp   1
                         Standard orientation:                         
 ---------------------------------------------------------------------
 Center     Atomic      Atomic             Coordinates (Angstroms)
 Number     Number       Type             X           Y           Z
 ---------------------------------------------------------------------
      1          6           0       -1.737776    1.567439    2.267513
      2          6           0       -2.009465    2.378152    0.984774
      3          6           0       -1.083880    3.609007    0.911503
      4          6           0        0.622995    2.506602    2.229902
      5          6           0       -0.237007    1.231311    2.358322
      6          1           0       -1.167712    4.097264   -0.076052
      7          1           0       -1.754623    1.751944    0.114192
      8          1           0       -2.028715    2.180724    3.138555
      9          1           0        0.381770    3.165591    3.081861
     10          1           0       -0.004431    0.543461    1.531712
     11          8           0        0.285294    3.202598    0.994194
     12          8           0       -1.440570    4.505822    1.937383
     13          8           0       -3.363369    2.823476    0.909921
     14          8           0       -2.537131    0.381832    2.204208
     15          8           0        0.041589    0.602503    3.616484
     16          6           0        2.148624    2.260547    2.213379
     17          1           0        2.373742    1.827967    3.219775
     18          1           0        2.601224    3.287543    2.222753
     19          8           0        2.616881    1.501857    1.162250
     20          6           0       -4.187340    1.995360    0.085665
     21          1           0       -3.810422    1.964632   -0.954074
     22          1           0       -4.239913    0.966339    0.472247
     23          1           0       -5.189629    2.447186    0.089899
     24          6           0       -3.021861   -0.058122    3.474631
     25          1           0       -2.195428   -0.350502    4.141043
     26          1           0       -3.615811    0.737467    3.964853
     27          1           0       -3.665802   -0.924191    3.275821
     28          6           0        0.896452   -0.542032    3.484291
     29          1           0        0.372291   -1.362037    2.967606
     30          1           0        1.810126   -0.299950    2.918750
     31          1           0        1.157927   -0.858030    4.504813
     32          6           0        3.773925   -1.689396   -1.324472
     33          6           0        3.204196   -0.332537   -0.863506
     34          6           0        1.813594   -0.458512   -0.300467
     35          6           0        2.007759   -2.826959    0.092366
     36          6           0        3.512588   -2.727388   -0.214211
     37          1           0        1.194938    0.410866   -0.145042
     38          1           0        3.793087    0.018911    0.007727
     39          1           0        3.269443   -1.996260   -2.255674
     40          1           0        1.474401   -3.159713   -0.808855
     41          1           0        4.048879   -2.406045    0.692370
     42          8           0        1.438641   -1.492742    0.400876
     43          8           0       -0.524111    0.164003   -3.989321
     44          8           0        3.188366    0.687956   -1.854404
     45          8           0        5.175805   -1.530893   -1.519267
     46          8           0        3.945583   -4.015941   -0.641872
     47          6           0        1.636269   -3.727970    1.255831
     48          1           0        1.892894   -4.766353    0.972395
     49          1           0        0.544501   -3.676907    1.420856
     50          8           0        2.346537   -3.317327    2.415307
     51         16           0       -0.308022    0.082546   -2.523125
     52          8           0       -0.167824    1.405182   -1.819416
     53          8           0        0.811481   -0.893039   -2.143631
     54          6           0       -1.804302   -0.668941   -1.809869
     55          6           0       -3.050570   -0.423583   -2.400350
     56          6           0       -1.696061   -1.442219   -0.651047
     57          6           0       -4.200180   -0.965998   -1.807946
     58          1           0       -3.118677    0.169654   -3.310325
     59          6           0       -2.852916   -1.983824   -0.074743
     60          1           0       -0.726964   -1.623925   -0.197469
     61          6           0       -4.109175   -1.750268   -0.646527
[...]
 0.00013479,0.00008757,-0.00000554,-0.00004851,-0.00088565,-0.00040732,
 0.00015655,0.00023240,0.00008899,0.00340210,0.00077941,-0.00132276,-0.
 00091918,-0.00087534,0.00005209,-0.00154591,0.00034607,-0.00015486,-0.
 00007819,0.00090842,0.00164164,0.00037627,-0.00068007,0.00042237,0.003
 04284,0.00020735,-0.00005220,0.00033859,0.00057993,0.00263477,0.000033
 47,-0.00020386,-0.00013684,0.01383713,-0.04043112,0.00007404,0.0002177
 7,-0.00063116,-0.00074896,-0.00426730,-0.00210368,-0.00001031,0.000189
 47,-0.00067211,-0.00084450,0.00010319,0.00005077,-0.00003645,-0.000012
 99,-0.00000543,-0.00000621,-0.00002688,-0.00000062,0.00001552,-0.00000
 595,-0.00000933,0.00000609,0.00002217,-0.00005303,-0.00005953,-0.00000
 693,0.00001897,0.00000595,-0.00000004,-0.00000021,0.00000764,-0.000006
 50,0.00000586,0.00000880,0.00001342,-0.00004040,0.00005088,0.00000755,
 0.00001283,-0.00000868,-0.00000268,-0.00000620,-0.00002022,-0.00002266
 ,0.00001670,0.00000032,0.00003593,-0.00007625,0.00001576,0.00002586,0.
 00001762,0.00001287,0.00000316,-0.00007939,0.00000411,-0.00006260,0.00
 005004,0.00000183,0.00007620,0.00014392,-0.00002040,-0.00000202,-0.000
 03111,-0.00001284,-0.00002575,-0.00001077,0.00000348,-0.00000974,-0.00
 001878,0.00002107,0.00020452,0.00014657,0.00000566,-0.00004335,-0.0000
 3738,0.00000716,0.00002024,0.00003554,-0.00002451,-0.00001210,-0.00000
 209,0.00000586,0.00000174,0.00000056,-0.00000209,-0.00000130,-0.000008
 26,-0.00000144,0.00002386,-0.00000350,0.00000800,-0.00000215,-0.000008
 19,-0.00000030,0.00003693,0.00002448,-0.00000637,-0.00001486,-0.000004
 43,0.00001038,-0.00304708,0.00041159,-0.00079698,0.00081671,-0.0004977
 9,-0.00001251,0.00094079,0.00034832,0.00017428,0.00075960,-0.00034712,
 0.00093143,0.03444386,-0.20852185,-0.02305509,-0.01941129,-0.03637566,
 -0.03681755,-0.05684336,0.29475477,0.00030678,0.00038477,-0.00004525,-
 0.00011902,0.00000345,-0.00017060,0.00000207,0.00000594,0.00001296,-0.
 00001784,0.00010212,-0.00006764,-0.00003853,0.00008891,-0.00013884,-0.
 00000860,-0.00003290,0.00001440,0.00000441,-0.00001697,0.00000249,-0.0
 0003973,-0.00007245,-0.00000890,-0.00001237,-0.00000603,0.00000877,0.0
 0000397,0.00003034,-0.00002133,0.00001687,-0.00005119,0.00009102,0.000
 00305,-0.00001535,0.00002740,0.00015992,0.00008441,0.00018726,-0.00001
 784,-0.00072840,0.00008599,-0.00000442,-0.00026339,0.00009381,0.000074
 38,-0.00004481,-0.00011001,0.00001018,0.00000564,0.00004178,-0.0000238
 3,0.00001070,0.00003086,-0.00005359,0.00004138,0.00013953,-0.00006234,
 -0.00012095,-0.00018211,-0.00002729,-0.00004532,0.00009579,-0.00000051
 ,0.00001373,-0.00009146,-0.00000733,0.00002235,0.00001833,0.00019862,0
 .00043485,0.00004150,0.00002334,0.00001387,0.00009374,-0.00002863,-0.0
 0019780,-0.00000420,-0.00032310,0.00013204,0.00025389,0.00005290,0.000
 41671,0.00020680,0.00010856,-0.00015044,-0.00004382,-0.00007042,-0.000
 07014,-0.00006095,-0.00003261,-0.00004438,-0.00004405,-0.00004169,0.00
 001461,-0.00003118,0.00001779,0.00000908,0.00001079,-0.00024321,-0.000
 03139,-0.00043460,-0.00008730,0.00005037,-0.00014669,0.00001223,-0.000
 02353,0.00001818,0.00000556,-0.00001875,-0.00001486,0.00001070,-0.0000
 0752,-0.00001688,-0.00000670,0.00000785,0.00001642,-0.00003015,-0.0000
 0266,0.00004072,0.00001898,0.00000481,0.00000142,0.00008676,-0.0001021
 0,0.00018341,0.00029948,0.00014348,-0.00023696,0.00002993,0.00000272,0
 .00002035,0.00001078,-0.00000491,0.00002629,0.00001554,-0.00001369,0.0
 0002914,0.00032799,0.00000431,-0.00006145,-0.00008810,0.00003290,0.000
 02911,-0.00009871,-0.00013942,-0.00022039,-0.00012731,0.00001361,0.000
 07510,-0.00122583,-0.00044775,0.00032387,0.00031504,0.00037482,0.00006
 844,0.00064468,-0.00004246,0.00018022,-0.00013658,-0.00076928,-0.00023
 916,-0.00027089,0.00036742,-0.00040377,-0.00099368,0.00041257,-0.00001
 453,0.00033286,-0.00055464,-0.00094250,-0.00001839,0.00004903,0.000075
 78,-0.00479583,0.01893555,0.00781896,-0.00005107,0.00027655,-0.0000734
 1,0.00144699,0.00064697,0.00048608,-0.00024636,0.00029560,0.00005273,-
 0.00002260,-0.00001726,0.00000486,0.00000674,0.00000239,0.00000483,0.0
 0000290,0.00000133,-0.00000174,0.00000029,-0.00000045,-0.00000246,-0.0
 0000495,-0.00000414,-0.00001232,-0.00000186,0.00000140,-0.00000254,0.0
 0000068,-0.00000413,0.00000568,0.00000392,0.00000146,0.00000070,-0.000
 00724,0.00001044,-0.00003354,0.00000270,0.00000128,0.00000452,0.000006
 94,-0.00001118,0.00000894,-0.00000352,0.00000198,0.00000323,0.00017297
 ,-0.00003348,-0.00004633,-0.00001848,0.00000033,0.00000219,-0.00003929
 ,-0.00000714,0.00003242,-0.00002565,0.00002073,0.00000735,0.00000459,0
 .00001848,-0.00000626,-0.00000074,0.00000074,-0.00000013,-0.00000006,-
 0.00000040,-0.00000103,-0.00000008,-0.00000565,0.00000647,-0.00004632,
 -0.00004953,-0.00006689,0.00000886,0.00000410,0.00001638,-0.00000295,-
 0.00000326,-0.00000407,-0.00000040,-0.00000041,-0.00000013,0.00000184,
 -0.00000210,0.00000158,0.00000048,0.00000249,0.00000210,-0.00000860,0.
 00000199,-0.00001199,0.00000204,0.00000499,0.00000217,-0.00000231,-0.0
 0000549,-0.00000091,0.00000131,-0.00000032,0.00000136,0.00109361,-0.00
 034637,0.00019997,-0.00031668,0.00023543,0.00004186,-0.00032044,-0.000
 06357,-0.00003308,-0.00025369,0.00013861,-0.00021835,0.00569032,-0.021
 19946,-0.07160959,-0.01181635,-0.04583852,-0.01636788,-0.01874910,0.07
 847101,0.09160085,-0.00011720,-0.00003633,-0.00000067,-0.00005582,0.00
 009160,0.00005079,-0.00012923,0.00013374,0.00001751,0.00005424,0.00006
 930,-0.00007028,-0.00009903,0.00029149,0.00002252,0.00001356,-0.000003
 21,0.00000141,-0.00000628,0.00001844,-0.00002195,0.00001460,-0.0000463
 8,-0.00003826,-0.00000107,-0.00004460,-0.00001738,0.00006739,0.0000206
 0,-0.00007229,0.00008086,-0.00012890,0.00003158,0.00003342,-0.00010605
 ,-0.00005102,0.00013122,-0.00006370,-0.00005876,0.00064977,-0.00004636
 ,-0.00042660,0.00024853,-0.00047185,-0.00005731,-0.00006753,0.00010262
 ,0.00017498,0.00002148,0.00000414,-0.00003444,-0.00001114,-0.00008925,
 -0.00003643,-0.00002940,-0.00020517,-0.00013391,-0.00006196,-0.0000589
 2,0.00009080,0.00003723,0.00006595,-0.00008504,-0.00002643,0.00000272,
 0.00008837,0.00003318,-0.00003309,0.00000144,-0.00108222,-0.00072031,0
 .00061519,0.00017312,0.00024054,0.00015984,0.00015136,0.00011762,0.000
 01516,0.00016018,-0.00069968,-0.00094694,0.00002408,0.00088437,0.00040
 173,0.00009700,-0.00024571,0.00002450,-0.00006478,-0.00010747,-0.00009
 032,-0.00008207,-0.00010275,-0.00011817,0.00009160,0.00002860,-0.00008
 441,-0.00002317,0.00006643,-0.00003156,0.00036908,0.00063464,-0.000093
 01,0.00006992,0.00003772,-0.00017724,0.00017389,-0.00014077,0.00002184
 ,-0.00000386,0.00003287,-0.00000560,0.00000898,0.00000261,0.00003385,0
 .00000305,-0.00000909,-0.00000247,0.00003670,-0.00000781,-0.00004923,-
 0.00001557,0.00000517,-0.00000405,-0.00035172,-0.00044961,0.00028396,-
 0.00027980,-0.00019277,0.00054593,-0.00012636,-0.00011881,0.00007568,-
 0.00018498,-0.00000284,0.00010595,-0.00016019,0.00010872,-0.00000099,0
 .00103444,0.00014207,0.00018621,-0.00022318,0.00004531,0.00004440,0.00
 004371,-0.00036876,0.00009878,-0.00042535,0.00005104,-0.00042678,0.001
 25355,0.00064526,-0.00048753,-0.00032227,-0.00053707,-0.00006963,-0.00
 047687,-0.00008395,0.00006365,-0.00077448,-0.00031414,-0.00027522,0.00
 030094,0.00006993,0.00002962,0.00202185,-0.00102963,0.00239189,0.00117
 701,-0.00070465,0.00067133,0.00016343,0.00008636,0.00000974,-0.0100005
 7,-0.00181457,0.01200897,0.00048693,0.00049935,-0.00047063,-0.00332425
 ,0.00039419,-0.00300819,0.00193371,0.00090563,-0.00045588,0.00010782,0
 .00006072,-0.00001766,-0.00001142,-0.00000056,-0.00000796,-0.00002074,
 0.00000146,0.00000690,-0.00000997,-0.00001587,0.00000996,0.00003789,-0
 .00005170,-0.00008255,0.00000880,0.00000995,0.00000312,0.00000314,0.00
 000621,0.00001644,-0.00001984,0.00000248,0.00001143,0.00010572,-0.0000
 5607,0.00006067,-0.00003196,-0.00000676,-0.00000807,0.00002001,-0.0000
 2062,0.00000067,-0.00001186,0.00001920,0.00000297,0.00011932,-0.000232
 24,0.00022362,-0.00004371,0.00000543,-0.00004826,-0.00000298,0.0000063
 1,0.00004692,-0.00001764,0.00007361,-0.00000647,0.00000857,0.00004317,
 -0.00000454,0.00000111,-0.00001208,-0.00000619,-0.00000084,0.00000003,
 0.00000359,-0.00000309,-0.00000434,0.00000592,0.00006393,0.00014460,-0
 .00000535,-0.00001346,-0.00004154,0.00000878,0.00000877,0.00003440,-0.
 00001883,-0.00000446,-0.00000255,0.00000339,0.00000102,0.00000014,0.00
 000290,-0.00000250,-0.00000969,-0.00000259,0.00000384,0.00000582,-0.00
 000100,-0.00000138,-0.00001154,0.00000043,0.00003135,0.00002621,-0.000
 00475,-0.00000486,-0.00000321,0.00000599,-0.00117920,-0.00004445,0.000
 08381,0.00037868,-0.00021957,-0.00009531,0.00039292,0.00018654,-0.0000
 2588,0.00024699,-0.00006155,0.00012696,-0.16526592,-0.02113874,0.07995
 622,-0.06975262,-0.01870193,0.00093414,-0.02595305,0.02831554,0.029450
 59,0.26817839,0.00020396,0.00031173,0.00004438,-0.00006998,0.00003315,
 0.00002295,0.00005568,0.00014598,0.00005382,-0.00001069,0.00007602,-0.
 00000362,0.00003009,-0.00000698,0.00008470,-0.00001195,-0.00002740,0.0
 0000268,0.00000722,0.00002239,-0.00000815,-0.00002186,-0.00004012,-0.0
 0002540,0.00000189,-0.00001973,-0.00001353,0.00003532,0.00000516,-0.00
 001411,-0.00003500,-0.00006889,-0.00002418,-0.00002461,-0.00013580,-0.
 00003866,-0.00002537,-0.00013468,-0.00006966,-0.00008596,-0.00027077,-
 0.00012929,-0.00011424,-0.00000692,-0.00006442,0.00000725,0.00000636,0
 .00008290,0.00000141,0.00000479,-0.00002861,-0.00002460,-0.00004408,-0
 .00001621,-0.00006036,-0.00006351,-0.00006359,0.00000762,0.00015186,0.
 00004657,0.00001459,0.00003953,-0.00003969,-0.00004737,-0.00001334,0.0
 0003056,0.00003308,-0.00004047,-0.00000577,0.00097568,0.00052743,-0.00
 034663,-0.00013326,-0.00015269,-0.00006012,-0.00023835,-0.00036532,-0.
 00011993,-0.00115582,-0.00245034,-0.00086166,0.00008738,0.00002082,0.0
 0006385,0.00000679,-0.00002103,0.00002055,-0.00002010,-0.00000351,-0.0
 0000186,-0.00002572,-0.00000597,-0.00004148,0.00006033,-0.00003455,-0.
 00001715,-0.00000673,0.00000584,-0.00004013,0.00027788,0.00013646,0.00
 029693,0.00008610,-0.00022838,-0.00001378,0.00004624,-0.00003153,0.000
 00619,0.00001175,0.00003182,-0.00000981,-0.00000867,-0.00000283,0.0000
 2027,0.00000453,-0.00000717,-0.00000562,0.00000096,-0.00001182,0.00000
 819,-0.00000220,0.00000157,0.00000106,-0.00020107,0.00009539,-0.000059
 34,-0.00037788,-0.00012169,0.00055268,-0.00008124,-0.00002471,0.000023
 62,-0.00006763,0.00002843,0.00002954,-0.00005374,0.00008400,-0.0000052
 7,0.00003862,0.00004186,0.00004823,-0.00005952,0.00002848,-0.00000193,
 -0.00006628,-0.00024267,-0.00009741,-0.00000516,0.00007432,-0.00007621
 ,0.00181706,0.00026789,-0.00058802,-0.00052971,-0.00052111,-0.00004573
 ,-0.00072755,0.00013169,-0.00008872,-0.00066380,-0.00130302,0.00027431
 ,-0.00042088,-0.00023797,0.00036361,0.00210585,-0.00017491,0.00302684,
 -0.00008879,-0.00005992,-0.00008808,0.00000256,0.00002711,0.00003221,-
 0.01861184,0.00389873,0.01557643,0.00012034,0.00038630,-0.00007917,-0.
 00041603,-0.00101230,0.00169932,0.00016104,-0.00050674,0.00123240,0.00
 005919,0.00003192,-0.00001745,-0.00000778,-0.00000266,-0.00000438,-0.0
 0001365,-0.00000008,0.00000702,-0.00000359,-0.00000607,0.00000410,0.00
 001541,-0.00002667,-0.00003309,-0.00000045,0.00000801,0.00000312,0.000
 00042,0.00000180,0.00000455,-0.00000658,0.00000213,0.00000496,0.000024
 95,-0.00002545,0.00003446,-0.00000374,0.00000262,-0.00000512,0.0000010
 6,-0.00000304,-0.00000834,-0.00000875,0.00000858,-0.00000014,-0.000015
 92,-0.00006049,0.00006121,0.00000517,0.00000599,-0.00000521,0.00000784
 ,-0.00001735,-0.00000169,-0.00001364,0.00002350,-0.00000232,0.00003478
 ,0.00006735,-0.00000818,-0.00000078,-0.00001497,-0.00000646,-0.0000116
 4,-0.00000497,0.00000203,-0.00000504,-0.00000882,0.00000953,0.00010034
 ,0.00008686,0.00000957,-0.00002028,-0.00002150,0.00000192,0.00000948,0
 .00001966,-0.00001207,-0.00000532,-0.00000114,0.00000289,0.00000064,0.
 00000062,-0.00000057,-0.00000090,-0.00000504,-0.00000124,0.00001127,-0
 .00000071,0.00000495,-0.00000123,-0.00000549,-0.00000045,0.00001902,0.
 00001370,-0.00000289,-0.00000672,-0.00000206,0.00000478,-0.00120363,0.
 00015618,-0.00046486,0.00035509,-0.00020087,0.00000522,0.00040114,0.00
 013658,0.00007315,0.00024895,-0.00009771,0.00029855,-0.01824221,-0.073
 91674,0.01892153,-0.01844808,0.00721970,0.00132128,0.04013962,-0.00584
 262,-0.03074119,0.01487831,0.07428698,0.00033187,0.00041915,0.00006097
 ,-0.00012478,-0.00006485,-0.00023685,0.00008302,-0.00009394,0.00000519
 ,-0.00006159,0.00007066,-0.00003316,0.00002610,-0.00009817,-0.00019516
 ,-0.00001850,-0.00003612,0.00001592,0.00001341,-0.00003358,0.00001892,
 -0.00003360,-0.00000366,0.00002751,-0.00001266,0.00002386,0.00002341,-
 0.00004389,0.00002386,0.00003121,-0.00002557,0.00003049,0.00009215,-0.
 00001396,0.00006240,0.00006699,0.00011212,0.00014670,0.00024520,-0.000
 56274,-0.00061022,0.00052160,-0.00016106,-0.00001688,0.00015786,0.0001
 2608,-0.00011755,-0.00024319,-0.00000147,0.00000351,0.00007243,-0.0000
 1807,0.00007251,0.00005932,-0.00003032,0.00017946,0.00025191,-0.000046
 61,-0.00013215,-0.00023195,-0.00004359,-0.00009427,0.00014013,0.000009
 10,0.00001448,-0.00015279,-0.00002650,0.00004607,0.00002050,0.00190328
 ,0.00115849,-0.00075735,-0.00014897,-0.00019591,-0.00000083,-0.0003368
 9,-0.00052783,-0.00004709,-0.00137948,-0.00102984,-0.00008984,0.000054
 55,-0.00009604,-0.00004738,0.00002056,0.00001215,-0.00001516,-0.000034
 62,-0.00000026,-0.00000470,0.00001592,0.00001458,0.00002811,-0.0001082
 7,0.00001863,0.00001956,0.00003817,-0.00001897,0.00004939,-0.00056654,
 -0.00038819,-0.00059978,-0.00013497,0.00015694,-0.00003747,-0.00009062
 ,0.00005943,-0.00000061,0.00000438,-0.00004925,-0.00001421,0.00001296,
 -0.00000979,-0.00004492,-0.00001025,0.00001671,0.00001936,-0.00002991,
 0.00001277,0.00004585,0.00002384,0.00000061,0.00000282,0.00035628,0.00
 003416,0.00011419,0.00075722,0.00034331,-0.00098345,0.00012828,0.00006
 686,-0.00002297,0.00012657,-0.00001830,-0.00003869,0.00010877,-0.00010
 170,0.00002779,-0.00021345,-0.00000547,-0.00015305,0.00003158,-0.00000
 416,0.00001318,0.00003657,-0.00005573,-0.00012955,0.00008769,-0.000027
 61,0.00028300,-0.00316858,-0.00088797,0.00063358,0.00082226,0.00102201
 ,0.00022106,0.00135559,-0.00013566,0.00025293,0.00217214,0.00116577,-0
 .00038333,0.00018395,0.00031833,-0.00045940,-0.00442490,0.00279467,-0.
 00533921,0.00010197,0.00033870,-0.00012862,-0.00002639,-0.00002874,-0.
 00005051,0.03447935,0.00748565,-0.01670754,-0.00014360,-0.00032116,0.0
 0008682,0.00155148,0.00121662,-0.00230830,-0.00067428,0.00094170,-0.00
 287187,-0.00010000,-0.00006082,0.00002269,0.00001647,0.00000410,0.0000
 1020,0.00001956,0.00000096,-0.00000826,0.00000624,0.00000965,-0.000009
 15,-0.00002906,0.00003341,0.00004325,-0.00000478,-0.00000755,-0.000005
 07,-0.00000096,-0.00000690,-0.00000480,0.00001539,-0.00000117,-0.00000
 712,-0.00006393,0.00004399,-0.00007084,0.00001807,0.00000301,0.0000094
 4,-0.00000320,0.00000038,0.00001120,0.00000640,-0.00001083,0.00000224,
 0.00009344,0.00009267,-0.00015210,0.00000608,-0.00000374,0.00002484,-0
 .00004340,-0.00000850,-0.00000563,-0.00001510,-0.00001987,0.00001065,-
 0.00000500,-0.00001356,-0.00000329,-0.00000170,0.00000958,0.00000402,0
 .00000227,-0.00000009,-0.00000361,0.00000227,-0.00000278,0.00000258,-0
 .00012390,-0.00016381,-0.00008501,0.00002293,0.00003271,0.00001252,-0.
 00001078,-0.00002745,0.00000952,0.00000371,0.00000135,-0.00000276,0.00
 000115,-0.00000261,0.00000043,0.00000224,0.00000928,0.00000382,-0.0000
 1497,-0.00000017,-0.00001387,0.00000352,0.00001316,0.00000222,-0.00002
 482,-0.00002423,0.00000237,0.00000609,0.00000197,-0.00000297,0.0020649
 9,-0.00045455,0.00054773,-0.00066869,0.00046430,0.00008926,-0.00066098
 ,-0.00016913,-0.00009026,-0.00043392,0.00019442,-0.00046421,0.07120410
 ,0.02023128,-0.13509284,-0.01166884,-0.00168533,0.02125308,0.02901612,
 -0.02163941,-0.01060595,-0.12099545,-0.00991099,0.15328573\\-0.0000007
 2,0.00000168,-0.00000210,0.00000028,0.00000001,-0.00000150,-0.00000026
 ,0.00000050,-0.00000268,-0.00000098,0.00000113,-0.00000081,-0.00000036
 ,0.00000054,-0.00000077,0.00000047,-0.00000013,-0.00000211,0.00000020,
 0.00000019,-0.00000164,-0.00000099,0.00000125,-0.00000181,-0.00000077,
 0.00000122,-0.00000161,-0.00000041,0.00000048,-0.00000070,-0.00000038,
 0.00000034,-0.00000119,-0.00000009,0.00000098,-0.00000264,-0.00000022,
 0.00000064,-0.00000288,-0.00000097,0.00000064,-0.00000090,-0.00000107,
 0.00000142,-0.00000008,-0.00000003,0.00000022,-0.00000041,-0.00000113,
 0.00000126,-0.00000032,-0.00000030,0.00000039,-0.00000048,-0.00000054,
 0.00000052,0.00000089,0.00000021,0.00000004,-0.00000260,0.00000042,-0.
 00000032,-0.00000253,0.00000010,0.00000065,-0.00000221,0.00000021,0.00
 000044,-0.00000311,-0.00000124,0.00000246,-0.00000110,-0.00000160,0.00
 000186,-0.00000097,-0.00000126,0.00000166,-0.00000209,-0.00000143,0.00
 000135,-0.00000127,-0.00000151,0.00000154,-0.00000003,-0.00000102,0.00
 000103,0.00000068,-0.00000119,0.00000112,0.00000045,-0.00000173,0.0000
 0165,0.00000095,0.00000056,-0.00000107,0.00000202,0.00000038,-0.000000
 36,0.00000133,0.00000074,-0.00000046,0.00000114,-0.00000033,0.00000014
 ,0.00000204,-0.00000045,-0.00000085,0.00000299,-0.00000021,0.00000004,
 0.00000035,0.00000009,-0.00000048,0.00000114,0.00000063,-0.00000134,0.
 00000164,0.00000033,-0.00000059,0.00000178,-0.00000030,0.,0.00000207,0
 .00000003,-0.00000013,0.00000088,0.00000171,-0.00000178,-0.00000043,0.
 00000091,-0.00000099,0.00000095,0.00000052,-0.00000093,0.00000258,0.00
 000082,0.00000007,0.00000258,-0.00000032,0.00000083,0.00000181,-0.0000
 0078,0.00000004,0.00000263,-0.00000126,0.00000047,0.00000167,-0.000001
 27,0.00000068,0.00000207,0.00000101,-0.00000074,0.00000021,0.00000099,
 -0.00000167,-0.00000102,0.00000061,-0.00000082,0.00000039,0.00000092,-
 0.00000070,-0.00000107,0.00000074,-0.00000129,-0.00000098,-0.00000011,
 -0.00000017,-0.00000032,0.00000116,0.00000027,-0.00000094,0.00000140,-
 0.00000107,-0.00000153,0.00000042,0.00000011,-0.00000048,0.00000011,-0
 .00000041,-0.00000013,-0.00000024,0.00000010,-0.00000130,0.00000008,0.
 00000028,-0.00000114,0.00000060,-0.00000180,0.00000151,0.00000065,-0.0
 0000102,0.00000109,0.00000133,-0.00000170,0.00000141,0.00000125,-0.000
 00093,0.00000046,0.00000146,-0.00000153,0.00000301,0.00000080,-0.00000
 160,0.00000348,0.00000128,-0.00000198,0.00000256,0.00000065,-0.0000018
 4,0.00000336,-0.00000109,-0.00000138,0.00000392,-0.00000019,-0.0000002
 2,0.00000384,-0.00000014,0.00000004,0.00000334,-0.00000024,-0.00000019
 ,0.00000425,-0.00000212,0.00000154,0.00000219,-0.00000179,0.00000164,0
 .00000258,-0.00000128,0.00000137,0.00000165,-0.00000156,0.00000121,0.0
 0000280,-0.00000016,0.00000052,-0.00000320,-0.00000043,0.00000127,-0.0
 0000319,-0.00000047,0.00000083,-0.00000239,0.00000026,0.00000023,-0.00
 000282,0.00000097,-0.00000071,-0.00000107,0.00000152,-0.00000085,-0.00
 000054,0.00000115,-0.00000109,-0.00000103,0.00000132,-0.00000155,-0.00
 000058,0.00000158,-0.00000138,-0.00000142,0.00000102,-0.00000079,-0.00
 000140,0.00000026,-0.00000034,-0.00000024,0.00000012,-0.00000025,-0.00
 000062,0.00000004,-0.00000027,0.00000028,0.00000052,-0.00000057,0.0000
 0017,0.00000069,-0.00000141,-0.00000286,0.00000125,-0.00000026,-0.0000
 0261,0.00000090,-0.00000049,-0.00000197,0.00000174,-0.00000095,-0.0000
 0189,-0.00000094,0.00000016,0.00000036,-0.00000047,0.00000089,0.000000
 32,-0.00000040,0.00000042,0.00000060,-0.00000070,0.00000101,-0.0000007
 0\\\@


 ALMOST ANYTHING IS EASIER TO GET INTO THAN OUT OF.

                         -- AGNES ALLEN'S LAW FROM
                PAUL DICKSON'S "THE OFFICIAL RULES"
 Job cpu time:       3 days  1 hours 27 minutes 37.1 seconds.
 Elapsed time:       0 days  2 hours 29 minutes 13.4 seconds.
 File lengths (MBytes):  RWF=   9734 Int=      0 D2E=      0 Chk=     87 Scr=      1
 Normal termination of Gaussian 16 at Wed Jun  5 15:06:24 2019.
