 Entering Gaussian System, Link 0=g16
 Input=clay_new-glu_gluC6-bisCF3-sm-m06l_d3-631gd-pcm_thf.gjf
 Output=clay_new-glu_gluC6-bisCF3-sm-m06l_d3-631gd-pcm_thf.out
 Initial command:
 /home/ekwan/sw/g16/l1.exe "/scratch/users/ekwan/clay_new-glu_gluC6-bisCF3-sm-m06l_d3-631gd-pcm_thf/Gau-31034.inp" -scrdir="/scratch/users/ekwan/clay_new-glu_gluC6-bisCF3-sm-m06l_d3-631gd-pcm_thf/"
 Entering Link 1 = /home/ekwan/sw/g16/l1.exe PID=     31036.
  
 Copyright (c) 1988,1990,1992,1993,1995,1998,2003,2009,2016,
            Gaussian, Inc.  All Rights Reserved.
  
 This is part of the Gaussian(R) 16 program.  It is based on
 the Gaussian(R) 09 system (copyright 2009, Gaussian, Inc.),
 the Gaussian(R) 03 system (copyright 2003, Gaussian, Inc.),
 the Gaussian(R) 98 system (copyright 1998, Gaussian, Inc.),
 the Gaussian(R) 94 system (copyright 1995, Gaussian, Inc.),
 the Gaussian 92(TM) system (copyright 1992, Gaussian, Inc.),
 the Gaussian 90(TM) system (copyright 1990, Gaussian, Inc.),
 the Gaussian 88(TM) system (copyright 1988, Gaussian, Inc.),
 the Gaussian 86(TM) system (copyright 1986, Carnegie Mellon
 University), and the Gaussian 82(TM) system (copyright 1983,
 Carnegie Mellon University). Gaussian is a federally registered
 trademark of Gaussian, Inc.
  
 This software contains proprietary and confidential information,
 including trade secrets, belonging to Gaussian, Inc.
  
 This software is provided under written license and may be
 used, copied, transmitted, or stored only in accord with that
 written license.
  
 The following legend is applicable only to US Government
 contracts under FAR:
  
                    RESTRICTED RIGHTS LEGEND
  
 Use, reproduction and disclosure by the US Government is
 subject to restrictions as set forth in subparagraphs (a)
 and (c) of the Commercial Computer Software - Restricted
 Rights clause in FAR 52.227-19.
  
 Gaussian, Inc.
 340 Quinnipiac St., Bldg. 40, Wallingford CT 06492
  
  
 ---------------------------------------------------------------
 Warning -- This program may not be used in any manner that
 competes with the business of Gaussian, Inc. or will provide
 assistance to any competitor of Gaussian, Inc.  The licensee
 of this program is prohibited from giving any competitor of
 Gaussian, Inc. access to this program.  By using this program,
 the user acknowledges that Gaussian, Inc. is engaged in the
 business of creating and licensing software in the field of
 computational chemistry and represents and warrants to the
 licensee that it is not a competitor of Gaussian, Inc. and that
 it will not use this program in any manner prohibited above.
 ---------------------------------------------------------------
  

 Cite this work as:
 Gaussian 16, Revision A.03,
 M. J. Frisch, G. W. Trucks, H. B. Schlegel, G. E. Scuseria, 
 M. A. Robb, J. R. Cheeseman, G. Scalmani, V. Barone, 
 G. A. Petersson, H. Nakatsuji, X. Li, M. Caricato, A. V. Marenich, 
 J. Bloino, B. G. Janesko, R. Gomperts, B. Mennucci, H. P. Hratchian, 
 J. V. Ortiz, A. F. Izmaylov, J. L. Sonnenberg, D. Williams-Young, 
 F. Ding, F. Lipparini, F. Egidi, J. Goings, B. Peng, A. Petrone, 
 T. Henderson, D. Ranasinghe, V. G. Zakrzewski, J. Gao, N. Rega, 
 G. Zheng, W. Liang, M. Hada, M. Ehara, K. Toyota, R. Fukuda, 
 J. Hasegawa, M. Ishida, T. Nakajima, Y. Honda, O. Kitao, H. Nakai, 
 T. Vreven, K. Throssell, J. A. Montgomery, Jr., J. E. Peralta, 
 F. Ogliaro, M. J. Bearpark, J. J. Heyd, E. N. Brothers, K. N. Kudin, 
 V. N. Staroverov, T. A. Keith, R. Kobayashi, J. Normand, 
 K. Raghavachari, A. P. Rendell, J. C. Burant, S. S. Iyengar, 
 J. Tomasi, M. Cossi, J. M. Millam, M. Klene, C. Adamo, R. Cammi, 
 J. W. Ochterski, R. L. Martin, K. Morokuma, O. Farkas, 
 J. B. Foresman, and D. J. Fox, Gaussian, Inc., Wallingford CT, 2016.
 
 ******************************************
 Gaussian 16:  AS64L-G16RevA.03 25-Dec-2016
                 5-Jun-2019 
 ******************************************
 %nprocshared=32
 Will use up to   32 processors via shared memory.
 %mem=48GB
 ----------------------------------------------------------------------
 #p opt freq=noraman pop=none 6-31g* scrf=(pcm,solvent=tetrahydrofuran)
  m06l empiricaldispersion=gd3
 ----------------------------------------------------------------------
 1/18=20,19=15,26=3,38=1/1,3;
 2/9=110,12=2,17=6,18=5,40=1/2;
 3/5=1,6=6,7=1,11=2,25=1,30=1,70=2201,71=1,72=20,74=-53,124=31/1,2,3;
 4//1;
 5/5=2,38=5,53=20/2;
 7//1,2,3,16;
 1/18=20,19=15,26=3/3(2);
 2/9=110/2;
 99//99;
 2/9=110/2;
 3/5=1,6=6,7=1,11=2,25=1,30=1,70=2205,71=1,72=20,74=-53,124=31/1,2,3;
 4/5=5,16=3,69=1/1;
 5/5=2,38=5,53=20/2;
 7//1,2,3,16;
 1/18=20,19=15,26=3/3(-5);
 2/9=110/2;
 99/9=1/99;
 Leave Link    1 at Wed Jun  5 17:44:51 2019, MaxMem=  6442450944 cpu:               5.2 elap:               0.2
 (Enter /home/ekwan/sw/g16/l101.exe)
 -----
 title
 -----
 Symbolic Z-matrix:
 Charge =  0 Multiplicity = 1
 6                     3.40146   0.39765   0.51254 
 6                     3.30543  -0.56348  -0.66272 
 6                     1.84614  -0.90455  -0.97568 
 6                     1.04423   1.11221   0.00794 
 6                     2.4592    1.57607   0.32867 
 1                     1.74058  -1.47482  -1.90438 
 1                     3.69488  -0.05446  -1.56621 
 1                     3.11467  -0.13887   1.43243 
 1                     0.63998   0.56848   0.87972 
 1                     2.82299   2.19939  -0.50475 
 8                     1.0507    0.22082  -1.12841 
 8                     1.38768  -1.74077   0.12689 
 8                     4.08629  -1.69198  -0.36294 
 8                     4.72266   0.89653   0.62854 
 8                     2.39302   2.33736   1.52196 
 6                     0.10609   2.26409  -0.30045 
 1                    -0.09185   2.79267   0.63827 
 1                    -0.84747   1.86025  -0.68088 
 8                     0.62036   3.23183  -1.18749 
 16                    0.08282  -2.68614  -0.1427 
 8                     0.06535  -3.58791   0.99233 
 8                     0.12586  -3.16376  -1.51662 
 6                    -1.27515  -1.54746   0.01525 
 6                    -1.72226  -1.21108   1.28736 
 6                    -1.83661  -0.9958   -1.13237 
 6                    -2.76329  -0.29233   1.40828 
 1                    -1.26635  -1.65759   2.16798 
 6                    -2.87704  -0.08519  -0.99054 
 1                    -1.46282  -1.27227  -2.11435 
 6                    -3.3421    0.26986   0.27529 
 1                    -4.15225   0.9878    0.37622 
 6                     4.21566  -2.59294  -1.44488 
 1                     3.2809   -3.1405   -1.64282 
 1                     4.52379  -2.07294  -2.36564 
 1                     4.98748  -3.31343  -1.16494 
 6                     5.43198   0.36112   1.72698 
 1                     6.42698   0.81467   1.7108 
 1                     4.94059   0.61432   2.68023 
 1                     5.531    -0.73087   1.65439 
 6                     3.10508   3.55834   1.45085 
 1                     2.96476   4.05961   2.41259 
 1                     4.17737   3.38985   1.28133 
 1                     2.71026   4.20163   0.64923 
 6                     0.64101   2.81571  -2.54024 
 1                     0.77113   3.71681  -3.14638 
 1                    -0.30534   2.32524  -2.81885 
 1                     1.46423   2.11828  -2.75063 
 6                    -3.29241   0.04647   2.77185 
 9                    -2.31464   0.03759   3.69674 
 9                    -4.22249  -0.84469   3.17126 
 9                    -3.87031   1.26081   2.79515 
 6                    -3.46746   0.58909  -2.19385 
 9                    -3.01249   1.85895  -2.30622 
 9                    -4.80831   0.66566  -2.11043 
 9                    -3.15907  -0.04707  -3.33537 
 
 ITRead=  0  0  0  0  0  0  0  0  0  0  0  0  0  0  0  0  0  0  0  0
 ITRead=  0  0  0  0  0  0  0  0  0  0  0  0  0  0  0  0  0  0  0  0
 ITRead=  0  0  0  0  0  0  0  0  0  0  0  0  0  0  0
 MicOpt= -1 -1 -1 -1 -1 -1 -1 -1 -1 -1 -1 -1 -1 -1 -1 -1 -1 -1 -1 -1
 MicOpt= -1 -1 -1 -1 -1 -1 -1 -1 -1 -1 -1 -1 -1 -1 -1 -1 -1 -1 -1 -1
 MicOpt= -1 -1 -1 -1 -1 -1 -1 -1 -1 -1 -1 -1 -1 -1 -1
 NAtoms=     55 NQM=       55 NQMF=       0 NMMI=      0 NMMIF=      0
                NMic=       0 NMicF=      0.
                    Isotopes and Nuclear Properties:
 (Nuclear quadrupole moments (NQMom) in fm**2, nuclear magnetic moments (NMagM)
  in nuclear magnetons)

  Atom         1           2           3           4           5           6           7           8           9          10
 IAtWgt=          12          12          12          12          12           1           1           1           1           1
 AtmWgt=  12.0000000  12.0000000  12.0000000  12.0000000  12.0000000   1.0078250   1.0078250   1.0078250   1.0078250   1.0078250
 NucSpn=           0           0           0           0           0           1           1           1           1           1
 AtZEff=   0.0000000   0.0000000   0.0000000   0.0000000   0.0000000   0.0000000   0.0000000   0.0000000   0.0000000   0.0000000
 NQMom=    0.0000000   0.0000000   0.0000000   0.0000000   0.0000000   0.0000000   0.0000000   0.0000000   0.0000000   0.0000000
 NMagM=    0.0000000   0.0000000   0.0000000   0.0000000   0.0000000   2.7928460   2.7928460   2.7928460   2.7928460   2.7928460
 AtZNuc=   6.0000000   6.0000000   6.0000000   6.0000000   6.0000000   1.0000000   1.0000000   1.0000000   1.0000000   1.0000000

  Atom        11          12          13          14          15          16          17          18          19          20
 IAtWgt=          16          16          16          16          16          12           1           1          16          32
 AtmWgt=  15.9949146  15.9949146  15.9949146  15.9949146  15.9949146  12.0000000   1.0078250   1.0078250  15.9949146  31.9720718
 NucSpn=           0           0           0           0           0           0           1           1           0           0
 AtZEff=   0.0000000   0.0000000   0.0000000   0.0000000   0.0000000   0.0000000   0.0000000   0.0000000   0.0000000   0.0000000
 NQMom=    0.0000000   0.0000000   0.0000000   0.0000000   0.0000000   0.0000000   0.0000000   0.0000000   0.0000000   0.0000000
 NMagM=    0.0000000   0.0000000   0.0000000   0.0000000   0.0000000   0.0000000   2.7928460   2.7928460   0.0000000   0.0000000
 AtZNuc=   8.0000000   8.0000000   8.0000000   8.0000000   8.0000000   6.0000000   1.0000000   1.0000000   8.0000000  16.0000000

  Atom        21          22          23          24          25          26          27          28          29          30
 IAtWgt=          16          16          12          12          12          12           1          12           1          12
 AtmWgt=  15.9949146  15.9949146  12.0000000  12.0000000  12.0000000  12.0000000   1.0078250  12.0000000   1.0078250  12.0000000
 NucSpn=           0           0           0           0           0           0           1           0           1           0
 AtZEff=   0.0000000   0.0000000   0.0000000   0.0000000   0.0000000   0.0000000   0.0000000   0.0000000   0.0000000   0.0000000
 NQMom=    0.0000000   0.0000000   0.0000000   0.0000000   0.0000000   0.0000000   0.0000000   0.0000000   0.0000000   0.0000000
 NMagM=    0.0000000   0.0000000   0.0000000   0.0000000   0.0000000   0.0000000   2.7928460   0.0000000   2.7928460   0.0000000
 AtZNuc=   8.0000000   8.0000000   6.0000000   6.0000000   6.0000000   6.0000000   1.0000000   6.0000000   1.0000000   6.0000000

  Atom        31          32          33          34          35          36          37          38          39          40
 IAtWgt=           1          12           1           1           1          12           1           1           1          12
 AtmWgt=   1.0078250  12.0000000   1.0078250   1.0078250   1.0078250  12.0000000   1.0078250   1.0078250   1.0078250  12.0000000
 NucSpn=           1           0           1           1           1           0           1           1           1           0
 AtZEff=   0.0000000   0.0000000   0.0000000   0.0000000   0.0000000   0.0000000   0.0000000   0.0000000   0.0000000   0.0000000
 NQMom=    0.0000000   0.0000000   0.0000000   0.0000000   0.0000000   0.0000000   0.0000000   0.0000000   0.0000000   0.0000000
 NMagM=    2.7928460   0.0000000   2.7928460   2.7928460   2.7928460   0.0000000   2.7928460   2.7928460   2.7928460   0.0000000
 AtZNuc=   1.0000000   6.0000000   1.0000000   1.0000000   1.0000000   6.0000000   1.0000000   1.0000000   1.0000000   6.0000000

  Atom        41          42          43          44          45          46          47          48          49          50
 IAtWgt=           1           1           1          12           1           1           1          12          19          19
 AtmWgt=   1.0078250   1.0078250   1.0078250  12.0000000   1.0078250   1.0078250   1.0078250  12.0000000  18.9984033  18.9984033
 NucSpn=           1           1           1           0           1           1           1           0           1           1
 AtZEff=   0.0000000   0.0000000   0.0000000   0.0000000   0.0000000   0.0000000   0.0000000   0.0000000   0.0000000   0.0000000
 NQMom=    0.0000000   0.0000000   0.0000000   0.0000000   0.0000000   0.0000000   0.0000000   0.0000000   0.0000000   0.0000000
 NMagM=    2.7928460   2.7928460   2.7928460   0.0000000   2.7928460   2.7928460   2.7928460   0.0000000   2.6288670   2.6288670
 AtZNuc=   1.0000000   1.0000000   1.0000000   6.0000000   1.0000000   1.0000000   1.0000000   6.0000000   9.0000000   9.0000000

  Atom        51          52          53          54          55
 IAtWgt=          19          12          19          19          19
 AtmWgt=  18.9984033  12.0000000  18.9984033  18.9984033  18.9984033
 NucSpn=           1           0           1           1           1
 AtZEff=   0.0000000   0.0000000   0.0000000   0.0000000   0.0000000
 NQMom=    0.0000000   0.0000000   0.0000000   0.0000000   0.0000000
 NMagM=    2.6288670   0.0000000   2.6288670   2.6288670   2.6288670
 AtZNuc=   9.0000000   6.0000000   9.0000000   9.0000000   9.0000000
 Leave Link  101 at Wed Jun  5 17:44:51 2019, MaxMem=  6442450944 cpu:              18.2 elap:               0.7
 (Enter /home/ekwan/sw/g16/l103.exe)

 GradGradGradGradGradGradGradGradGradGradGradGradGradGradGradGradGradGrad
 Berny optimization.
 Initialization pass.
                           ----------------------------
                           !    Initial Parameters    !
                           ! (Angstroms and Degrees)  !
 --------------------------                            --------------------------
 ! Name  Definition              Value          Derivative Info.                !
 --------------------------------------------------------------------------------
 ! R1    R(1,2)                  1.5213         estimate D2E/DX2                !
 ! R2    R(1,5)                  1.52           estimate D2E/DX2                !
 ! R3    R(1,8)                  1.1029         estimate D2E/DX2                !
 ! R4    R(1,14)                 1.417          estimate D2E/DX2                !
 ! R5    R(2,3)                  1.5309         estimate D2E/DX2                !
 ! R6    R(2,7)                  1.1077         estimate D2E/DX2                !
 ! R7    R(2,13)                 1.4047         estimate D2E/DX2                !
 ! R8    R(3,6)                  1.0949         estimate D2E/DX2                !
 ! R9    R(3,11)                 1.3865         estimate D2E/DX2                !
 ! R10   R(3,12)                 1.4578         estimate D2E/DX2                !
 ! R11   R(4,5)                  1.5232         estimate D2E/DX2                !
 ! R12   R(4,9)                  1.1041         estimate D2E/DX2                !
 ! R13   R(4,11)                 1.4443         estimate D2E/DX2                !
 ! R14   R(4,16)                 1.5172         estimate D2E/DX2                !
 ! R15   R(5,10)                 1.1025         estimate D2E/DX2                !
 ! R16   R(5,15)                 1.417          estimate D2E/DX2                !
 ! R17   R(12,20)                1.6337         estimate D2E/DX2                !
 ! R18   R(13,32)                1.4139         estimate D2E/DX2                !
 ! R19   R(14,36)                1.4129         estimate D2E/DX2                !
 ! R20   R(15,40)                1.4152         estimate D2E/DX2                !
 ! R21   R(16,17)                1.0953         estimate D2E/DX2                !
 ! R22   R(16,18)                1.1032         estimate D2E/DX2                !
 ! R23   R(16,19)                1.4099         estimate D2E/DX2                !
 ! R24   R(19,44)                1.4155         estimate D2E/DX2                !
 ! R25   R(20,21)                1.4497         estimate D2E/DX2                !
 ! R26   R(20,22)                1.4552         estimate D2E/DX2                !
 ! R27   R(20,23)                1.7792         estimate D2E/DX2                !
 ! R28   R(23,24)                1.3897         estimate D2E/DX2                !
 ! R29   R(23,25)                1.3916         estimate D2E/DX2                !
 ! R30   R(24,26)                1.3937         estimate D2E/DX2                !
 ! R31   R(24,27)                1.0875         estimate D2E/DX2                !
 ! R32   R(25,28)                1.3899         estimate D2E/DX2                !
 ! R33   R(25,29)                1.0865         estimate D2E/DX2                !
 ! R34   R(26,30)                1.3909         estimate D2E/DX2                !
 ! R35   R(26,48)                1.5014         estimate D2E/DX2                !
 ! R36   R(28,30)                1.3945         estimate D2E/DX2                !
 ! R37   R(28,52)                1.5004         estimate D2E/DX2                !
 ! R38   R(30,31)                1.0872         estimate D2E/DX2                !
 ! R39   R(32,33)                1.1013         estimate D2E/DX2                !
 ! R40   R(32,34)                1.1014         estimate D2E/DX2                !
 ! R41   R(32,35)                1.0923         estimate D2E/DX2                !
 ! R42   R(36,37)                1.0936         estimate D2E/DX2                !
 ! R43   R(36,38)                1.1019         estimate D2E/DX2                !
 ! R44   R(36,39)                1.0989         estimate D2E/DX2                !
 ! R45   R(40,41)                1.0936         estimate D2E/DX2                !
 ! R46   R(40,42)                1.0986         estimate D2E/DX2                !
 ! R47   R(40,43)                1.101          estimate D2E/DX2                !
 ! R48   R(44,45)                1.0938         estimate D2E/DX2                !
 ! R49   R(44,46)                1.1017         estimate D2E/DX2                !
 ! R50   R(44,47)                1.0993         estimate D2E/DX2                !
 ! R51   R(48,49)                1.3459         estimate D2E/DX2                !
 ! R52   R(48,50)                1.3486         estimate D2E/DX2                !
 ! R53   R(48,51)                1.345          estimate D2E/DX2                !
 ! R54   R(52,53)                1.3536         estimate D2E/DX2                !
 ! R55   R(52,54)                1.3456         estimate D2E/DX2                !
 ! R56   R(52,55)                1.3427         estimate D2E/DX2                !
 ! A1    A(2,1,5)              110.9307         estimate D2E/DX2                !
 ! A2    A(2,1,8)              108.7002         estimate D2E/DX2                !
 ! A3    A(2,1,14)             110.153          estimate D2E/DX2                !
 ! A4    A(5,1,8)              108.4733         estimate D2E/DX2                !
 ! A5    A(5,1,14)             108.358          estimate D2E/DX2                !
 ! A6    A(8,1,14)             110.2094         estimate D2E/DX2                !
 ! A7    A(1,2,3)              111.0295         estimate D2E/DX2                !
 ! A8    A(1,2,7)              108.5178         estimate D2E/DX2                !
 ! A9    A(1,2,13)             107.9154         estimate D2E/DX2                !
 ! A10   A(3,2,7)              105.7095         estimate D2E/DX2                !
 ! A11   A(3,2,13)             113.2364         estimate D2E/DX2                !
 ! A12   A(7,2,13)             110.3527         estimate D2E/DX2                !
 ! A13   A(2,3,6)              112.4156         estimate D2E/DX2                !
 ! A14   A(2,3,11)             112.8632         estimate D2E/DX2                !
 ! A15   A(2,3,12)             105.84           estimate D2E/DX2                !
 ! A16   A(6,3,11)             105.902          estimate D2E/DX2                !
 ! A17   A(6,3,12)             108.2063         estimate D2E/DX2                !
 ! A18   A(11,3,12)            111.6208         estimate D2E/DX2                !
 ! A19   A(5,4,9)              108.894          estimate D2E/DX2                !
 ! A20   A(5,4,11)             110.4545         estimate D2E/DX2                !
 ! A21   A(5,4,16)             112.7043         estimate D2E/DX2                !
 ! A22   A(9,4,11)             108.5986         estimate D2E/DX2                !
 ! A23   A(9,4,16)             107.9373         estimate D2E/DX2                !
 ! A24   A(11,4,16)            108.145          estimate D2E/DX2                !
 ! A25   A(1,5,4)              111.4221         estimate D2E/DX2                !
 ! A26   A(1,5,10)             108.979          estimate D2E/DX2                !
 ! A27   A(1,5,15)             110.0967         estimate D2E/DX2                !
 ! A28   A(4,5,10)             108.6346         estimate D2E/DX2                !
 ! A29   A(4,5,15)             107.3103         estimate D2E/DX2                !
 ! A30   A(10,5,15)            110.3811         estimate D2E/DX2                !
 ! A31   A(3,11,4)             114.6354         estimate D2E/DX2                !
 ! A32   A(3,12,20)            117.2784         estimate D2E/DX2                !
 ! A33   A(2,13,32)            113.5462         estimate D2E/DX2                !
 ! A34   A(1,14,36)            113.4724         estimate D2E/DX2                !
 ! A35   A(5,15,40)            113.4345         estimate D2E/DX2                !
 ! A36   A(4,16,17)            107.6927         estimate D2E/DX2                !
 ! A37   A(4,16,18)            109.0634         estimate D2E/DX2                !
 ! A38   A(4,16,19)            115.0522         estimate D2E/DX2                !
 ! A39   A(17,16,18)           108.4203         estimate D2E/DX2                !
 ! A40   A(17,16,19)           105.8949         estimate D2E/DX2                !
 ! A41   A(18,16,19)           110.4614         estimate D2E/DX2                !
 ! A42   A(16,19,44)           113.8793         estimate D2E/DX2                !
 ! A43   A(12,20,21)           103.9082         estimate D2E/DX2                !
 ! A44   A(12,20,22)           108.7895         estimate D2E/DX2                !
 ! A45   A(12,20,23)           102.9802         estimate D2E/DX2                !
 ! A46   A(21,20,22)           122.3696         estimate D2E/DX2                !
 ! A47   A(21,20,23)           108.6261         estimate D2E/DX2                !
 ! A48   A(22,20,23)           108.4481         estimate D2E/DX2                !
 ! A49   A(20,23,24)           118.7981         estimate D2E/DX2                !
 ! A50   A(20,23,25)           119.237          estimate D2E/DX2                !
 ! A51   A(24,23,25)           121.9464         estimate D2E/DX2                !
 ! A52   A(23,24,26)           118.6392         estimate D2E/DX2                !
 ! A53   A(23,24,27)           120.4621         estimate D2E/DX2                !
 ! A54   A(26,24,27)           120.8987         estimate D2E/DX2                !
 ! A55   A(23,25,28)           118.5272         estimate D2E/DX2                !
 ! A56   A(23,25,29)           120.3764         estimate D2E/DX2                !
 ! A57   A(28,25,29)           121.096          estimate D2E/DX2                !
 ! A58   A(24,26,30)           120.4365         estimate D2E/DX2                !
 ! A59   A(24,26,48)           119.3936         estimate D2E/DX2                !
 ! A60   A(30,26,48)           120.1272         estimate D2E/DX2                !
 ! A61   A(25,28,30)           120.602          estimate D2E/DX2                !
 ! A62   A(25,28,52)           120.475          estimate D2E/DX2                !
 ! A63   A(30,28,52)           118.838          estimate D2E/DX2                !
 ! A64   A(26,30,28)           119.848          estimate D2E/DX2                !
 ! A65   A(26,30,31)           120.0914         estimate D2E/DX2                !
 ! A66   A(28,30,31)           120.06           estimate D2E/DX2                !
 ! A67   A(13,32,33)           112.1299         estimate D2E/DX2                !
 ! A68   A(13,32,34)           111.3742         estimate D2E/DX2                !
 ! A69   A(13,32,35)           106.7891         estimate D2E/DX2                !
 ! A70   A(33,32,34)           108.7807         estimate D2E/DX2                !
 ! A71   A(33,32,35)           108.5338         estimate D2E/DX2                !
 ! A72   A(34,32,35)           109.1458         estimate D2E/DX2                !
 ! A73   A(14,36,37)           106.7438         estimate D2E/DX2                !
 ! A74   A(14,36,38)           111.1973         estimate D2E/DX2                !
 ! A75   A(14,36,39)           111.7429         estimate D2E/DX2                !
 ! A76   A(37,36,38)           108.8579         estimate D2E/DX2                !
 ! A77   A(37,36,39)           109.2189         estimate D2E/DX2                !
 ! A78   A(38,36,39)           109.0061         estimate D2E/DX2                !
 ! A79   A(15,40,41)           106.6616         estimate D2E/DX2                !
 ! A80   A(15,40,42)           111.5016         estimate D2E/DX2                !
 ! A81   A(15,40,43)           111.114          estimate D2E/DX2                !
 ! A82   A(41,40,42)           109.3438         estimate D2E/DX2                !
 ! A83   A(41,40,43)           109.0543         estimate D2E/DX2                !
 ! A84   A(42,40,43)           109.1024         estimate D2E/DX2                !
 ! A85   A(19,44,45)           106.8077         estimate D2E/DX2                !
 ! A86   A(19,44,46)           111.1021         estimate D2E/DX2                !
 ! A87   A(19,44,47)           112.3553         estimate D2E/DX2                !
 ! A88   A(45,44,46)           109.1974         estimate D2E/DX2                !
 ! A89   A(45,44,47)           109.1194         estimate D2E/DX2                !
 ! A90   A(46,44,47)           108.2063         estimate D2E/DX2                !
 ! A91   A(26,48,49)           111.5053         estimate D2E/DX2                !
 ! A92   A(26,48,50)           111.2798         estimate D2E/DX2                !
 ! A93   A(26,48,51)           111.7705         estimate D2E/DX2                !
 ! A94   A(49,48,50)           107.0455         estimate D2E/DX2                !
 ! A95   A(49,48,51)           107.8293         estimate D2E/DX2                !
 ! A96   A(50,48,51)           107.1666         estimate D2E/DX2                !
 ! A97   A(28,52,53)           110.8495         estimate D2E/DX2                !
 ! A98   A(28,52,54)           111.5904         estimate D2E/DX2                !
 ! A99   A(28,52,55)           112.2419         estimate D2E/DX2                !
 ! A100  A(53,52,54)           106.6603         estimate D2E/DX2                !
 ! A101  A(53,52,55)           107.2601         estimate D2E/DX2                !
 ! A102  A(54,52,55)           107.9704         estimate D2E/DX2                !
 ! D1    D(5,1,2,3)            -49.0743         estimate D2E/DX2                !
 ! D2    D(5,1,2,7)             66.6913         estimate D2E/DX2                !
 ! D3    D(5,1,2,13)          -173.7205         estimate D2E/DX2                !
 ! D4    D(8,1,2,3)             70.1099         estimate D2E/DX2                !
 ! D5    D(8,1,2,7)           -174.1245         estimate D2E/DX2                !
 ! D6    D(8,1,2,13)           -54.5363         estimate D2E/DX2                !
 ! D7    D(14,1,2,3)          -169.0454         estimate D2E/DX2                !
 ! D8    D(14,1,2,7)           -53.2798         estimate D2E/DX2                !
 ! D9    D(14,1,2,13)           66.3084         estimate D2E/DX2                !
 ! D10   D(2,1,5,4)             51.254          estimate D2E/DX2                !
 ! D11   D(2,1,5,10)           -68.6078         estimate D2E/DX2                !
 ! D12   D(2,1,5,15)           170.1945         estimate D2E/DX2                !
 ! D13   D(8,1,5,4)            -68.0664         estimate D2E/DX2                !
 ! D14   D(8,1,5,10)           172.0718         estimate D2E/DX2                !
 ! D15   D(8,1,5,15)            50.8741         estimate D2E/DX2                !
 ! D16   D(14,1,5,4)           172.2895         estimate D2E/DX2                !
 ! D17   D(14,1,5,10)           52.4277         estimate D2E/DX2                !
 ! D18   D(14,1,5,15)          -68.77           estimate D2E/DX2                !
 ! D19   D(2,1,14,36)         -107.2709         estimate D2E/DX2                !
 ! D20   D(5,1,14,36)          131.2138         estimate D2E/DX2                !
 ! D21   D(8,1,14,36)           12.6648         estimate D2E/DX2                !
 ! D22   D(1,2,3,6)            171.5901         estimate D2E/DX2                !
 ! D23   D(1,2,3,11)            51.8816         estimate D2E/DX2                !
 ! D24   D(1,2,3,12)           -70.4826         estimate D2E/DX2                !
 ! D25   D(7,2,3,6)             54.0996         estimate D2E/DX2                !
 ! D26   D(7,2,3,11)           -65.6089         estimate D2E/DX2                !
 ! D27   D(7,2,3,12)           172.0269         estimate D2E/DX2                !
 ! D28   D(13,2,3,6)           -66.8277         estimate D2E/DX2                !
 ! D29   D(13,2,3,11)          173.4638         estimate D2E/DX2                !
 ! D30   D(13,2,3,12)           51.0996         estimate D2E/DX2                !
 ! D31   D(1,2,13,32)         -172.6488         estimate D2E/DX2                !
 ! D32   D(3,2,13,32)           64.0369         estimate D2E/DX2                !
 ! D33   D(7,2,13,32)          -54.2284         estimate D2E/DX2                !
 ! D34   D(2,3,11,4)           -57.0116         estimate D2E/DX2                !
 ! D35   D(6,3,11,4)           179.5918         estimate D2E/DX2                !
 ! D36   D(12,3,11,4)           62.0512         estimate D2E/DX2                !
 ! D37   D(2,3,12,20)         -159.116          estimate D2E/DX2                !
 ! D38   D(6,3,12,20)          -38.4135         estimate D2E/DX2                !
 ! D39   D(11,3,12,20)          77.7301         estimate D2E/DX2                !
 ! D40   D(9,4,5,1)             65.2584         estimate D2E/DX2                !
 ! D41   D(9,4,5,10)          -174.6764         estimate D2E/DX2                !
 ! D42   D(9,4,5,15)           -55.3318         estimate D2E/DX2                !
 ! D43   D(11,4,5,1)           -53.9141         estimate D2E/DX2                !
 ! D44   D(11,4,5,10)           66.1511         estimate D2E/DX2                !
 ! D45   D(11,4,5,15)         -174.5042         estimate D2E/DX2                !
 ! D46   D(16,4,5,1)          -175.002          estimate D2E/DX2                !
 ! D47   D(16,4,5,10)          -54.9368         estimate D2E/DX2                !
 ! D48   D(16,4,5,15)           64.4079         estimate D2E/DX2                !
 ! D49   D(5,4,11,3)            57.7377         estimate D2E/DX2                !
 ! D50   D(9,4,11,3)           -61.6136         estimate D2E/DX2                !
 ! D51   D(16,4,11,3)         -178.5006         estimate D2E/DX2                !
 ! D52   D(5,4,16,17)          -71.6391         estimate D2E/DX2                !
 ! D53   D(5,4,16,18)          170.8994         estimate D2E/DX2                !
 ! D54   D(5,4,16,19)           46.1637         estimate D2E/DX2                !
 ! D55   D(9,4,16,17)           48.6519         estimate D2E/DX2                !
 ! D56   D(9,4,16,18)          -68.8096         estimate D2E/DX2                !
 ! D57   D(9,4,16,19)          166.4547         estimate D2E/DX2                !
 ! D58   D(11,4,16,17)         165.9655         estimate D2E/DX2                !
 ! D59   D(11,4,16,18)          48.5039         estimate D2E/DX2                !
 ! D60   D(11,4,16,19)         -76.2318         estimate D2E/DX2                !
 ! D61   D(1,5,15,40)          105.2332         estimate D2E/DX2                !
 ! D62   D(4,5,15,40)         -133.3407         estimate D2E/DX2                !
 ! D63   D(10,5,15,40)         -15.1225         estimate D2E/DX2                !
 ! D64   D(3,12,20,21)         167.5902         estimate D2E/DX2                !
 ! D65   D(3,12,20,22)          35.7662         estimate D2E/DX2                !
 ! D66   D(3,12,20,23)         -79.1598         estimate D2E/DX2                !
 ! D67   D(2,13,32,33)         -72.0829         estimate D2E/DX2                !
 ! D68   D(2,13,32,34)          50.0835         estimate D2E/DX2                !
 ! D69   D(2,13,32,35)         169.1589         estimate D2E/DX2                !
 ! D70   D(1,14,36,37)         179.9018         estimate D2E/DX2                !
 ! D71   D(1,14,36,38)         -61.4976         estimate D2E/DX2                !
 ! D72   D(1,14,36,39)          60.557          estimate D2E/DX2                !
 ! D73   D(5,15,40,41)         178.9137         estimate D2E/DX2                !
 ! D74   D(5,15,40,42)         -61.7775         estimate D2E/DX2                !
 ! D75   D(5,15,40,43)          60.1718         estimate D2E/DX2                !
 ! D76   D(4,16,19,44)          75.3594         estimate D2E/DX2                !
 ! D77   D(17,16,19,44)       -165.8304         estimate D2E/DX2                !
 ! D78   D(18,16,19,44)        -48.6419         estimate D2E/DX2                !
 ! D79   D(16,19,44,45)        163.7766         estimate D2E/DX2                !
 ! D80   D(16,19,44,46)         44.78           estimate D2E/DX2                !
 ! D81   D(16,19,44,47)        -76.6074         estimate D2E/DX2                !
 ! D82   D(12,20,23,24)        -80.4042         estimate D2E/DX2                !
 ! D83   D(12,20,23,25)         98.0605         estimate D2E/DX2                !
 ! D84   D(21,20,23,24)         29.3504         estimate D2E/DX2                !
 ! D85   D(21,20,23,25)       -152.1848         estimate D2E/DX2                !
 ! D86   D(22,20,23,24)        164.4237         estimate D2E/DX2                !
 ! D87   D(22,20,23,25)        -17.1115         estimate D2E/DX2                !
 ! D88   D(20,23,24,26)        178.3589         estimate D2E/DX2                !
 ! D89   D(20,23,24,27)         -1.6235         estimate D2E/DX2                !
 ! D90   D(25,23,24,26)         -0.0623         estimate D2E/DX2                !
 ! D91   D(25,23,24,27)        179.9554         estimate D2E/DX2                !
 ! D92   D(20,23,25,28)       -178.5845         estimate D2E/DX2                !
 ! D93   D(20,23,25,29)          1.1933         estimate D2E/DX2                !
 ! D94   D(24,23,25,28)         -0.17           estimate D2E/DX2                !
 ! D95   D(24,23,25,29)        179.6078         estimate D2E/DX2                !
 ! D96   D(23,24,26,30)          0.2103         estimate D2E/DX2                !
 ! D97   D(23,24,26,48)        177.8377         estimate D2E/DX2                !
 ! D98   D(27,24,26,30)       -179.8075         estimate D2E/DX2                !
 ! D99   D(27,24,26,48)         -2.1801         estimate D2E/DX2                !
 ! D100  D(23,25,28,30)          0.2578         estimate D2E/DX2                !
 ! D101  D(23,25,28,52)        176.8653         estimate D2E/DX2                !
 ! D102  D(29,25,28,30)       -179.5183         estimate D2E/DX2                !
 ! D103  D(29,25,28,52)         -2.9109         estimate D2E/DX2                !
 ! D104  D(24,26,30,28)         -0.1243         estimate D2E/DX2                !
 ! D105  D(24,26,30,31)       -179.8528         estimate D2E/DX2                !
 ! D106  D(48,26,30,28)       -177.7342         estimate D2E/DX2                !
 ! D107  D(48,26,30,31)          2.5372         estimate D2E/DX2                !
 ! D108  D(24,26,48,49)         34.596          estimate D2E/DX2                !
 ! D109  D(24,26,48,50)        -84.8484         estimate D2E/DX2                !
 ! D110  D(24,26,48,51)        155.3749         estimate D2E/DX2                !
 ! D111  D(30,26,48,49)       -147.7691         estimate D2E/DX2                !
 ! D112  D(30,26,48,50)         92.7865         estimate D2E/DX2                !
 ! D113  D(30,26,48,51)        -26.9902         estimate D2E/DX2                !
 ! D114  D(25,28,30,26)         -0.1147         estimate D2E/DX2                !
 ! D115  D(25,28,30,31)        179.6139         estimate D2E/DX2                !
 ! D116  D(52,28,30,26)       -176.7769         estimate D2E/DX2                !
 ! D117  D(52,28,30,31)          2.9517         estimate D2E/DX2                !
 ! D118  D(25,28,52,53)       -102.4801         estimate D2E/DX2                !
 ! D119  D(25,28,52,54)        138.792          estimate D2E/DX2                !
 ! D120  D(25,28,52,55)         17.4387         estimate D2E/DX2                !
 ! D121  D(30,28,52,53)         74.1865         estimate D2E/DX2                !
 ! D122  D(30,28,52,54)        -44.5414         estimate D2E/DX2                !
 ! D123  D(30,28,52,55)       -165.8947         estimate D2E/DX2                !
 --------------------------------------------------------------------------------
 Trust Radius=3.00D-01 FncErr=1.00D-07 GrdErr=1.00D-06 EigMax=2.50D+02 EigMin=1.00D-04
 Number of steps in this run=    291 maximum allowed number of steps=    330.
 GradGradGradGradGradGradGradGradGradGradGradGradGradGradGradGradGradGrad

 Leave Link  103 at Wed Jun  5 17:44:52 2019, MaxMem=  6442450944 cpu:               1.4 elap:               0.1
 (Enter /home/ekwan/sw/g16/l202.exe)
 Stoichiometry    C18H22F6O8S
 Framework group  C1[X(C18H22F6O8S)]
 Deg. of freedom   159
 Full point group                 C1      NOp   1
 Largest Abelian subgroup         C1      NOp   1
 Largest concise Abelian subgroup C1      NOp   1
                         Standard orientation:                         
 ---------------------------------------------------------------------
 Center     Atomic      Atomic             Coordinates (Angstroms)
 Number     Number       Type             X           Y           Z
 ---------------------------------------------------------------------
      1          6           0        3.401455    0.397648    0.512542
      2          6           0        3.305432   -0.563482   -0.662721
      3          6           0        1.846141   -0.904552   -0.975682
      4          6           0        1.044227    1.112209    0.007935
      5          6           0        2.459196    1.576073    0.328667
      6          1           0        1.740581   -1.474818   -1.904378
      7          1           0        3.694883   -0.054457   -1.566212
      8          1           0        3.114668   -0.138870    1.432429
      9          1           0        0.639984    0.568475    0.879724
     10          1           0        2.822991    2.199390   -0.504747
     11          8           0        1.050696    0.220820   -1.128406
     12          8           0        1.387684   -1.740766    0.126888
     13          8           0        4.086291   -1.691980   -0.362939
     14          8           0        4.722664    0.896528    0.628538
     15          8           0        2.393019    2.337362    1.521959
     16          6           0        0.106093    2.264090   -0.300446
     17          1           0       -0.091845    2.792669    0.638274
     18          1           0       -0.847466    1.860245   -0.680877
     19          8           0        0.620360    3.231829   -1.187487
     20         16           0        0.082816   -2.686139   -0.142696
     21          8           0        0.065354   -3.587906    0.992326
     22          8           0        0.125860   -3.163760   -1.516619
     23          6           0       -1.275147   -1.547455    0.015253
     24          6           0       -1.722255   -1.211078    1.287356
     25          6           0       -1.836605   -0.995804   -1.132372
     26          6           0       -2.763287   -0.292329    1.408282
     27          1           0       -1.266348   -1.657585    2.167976
     28          6           0       -2.877040   -0.085192   -0.990544
     29          1           0       -1.462824   -1.272273   -2.114348
     30          6           0       -3.342096    0.269861    0.275294
     31          1           0       -4.152254    0.987796    0.376217
     32          6           0        4.215659   -2.592941   -1.444881
     33          1           0        3.280895   -3.140501   -1.642817
     34          1           0        4.523787   -2.072937   -2.365638
     35          1           0        4.987484   -3.313431   -1.164943
     36          6           0        5.431984    0.361116    1.726977
     37          1           0        6.426980    0.814673    1.710799
     38          1           0        4.940593    0.614318    2.680225
     39          1           0        5.530998   -0.730871    1.654385
     40          6           0        3.105075    3.558339    1.450849
     41          1           0        2.964763    4.059611    2.412590
     42          1           0        4.177367    3.389852    1.281326
     43          1           0        2.710255    4.201630    0.649230
     44          6           0        0.641005    2.815706   -2.540243
     45          1           0        0.771134    3.716810   -3.146382
     46          1           0       -0.305342    2.325241   -2.818847
     47          1           0        1.464232    2.118278   -2.750625
     48          6           0       -3.292414    0.046474    2.771849
     49          9           0       -2.314644    0.037592    3.696736
     50          9           0       -4.222486   -0.844686    3.171261
     51          9           0       -3.870310    1.260812    2.795146
     52          6           0       -3.467461    0.589092   -2.193851
     53          9           0       -3.012491    1.858945   -2.306216
     54          9           0       -4.808307    0.665662   -2.110435
     55          9           0       -3.159071   -0.047068   -3.335369
 ---------------------------------------------------------------------
 Rotational constants (GHZ):           0.1515945           0.0851682           0.0838036
 Leave Link  202 at Wed Jun  5 17:44:52 2019, MaxMem=  6442450944 cpu:               5.9 elap:               0.2
 (Enter /home/ekwan/sw/g16/l301.exe)
 Standard basis: 6-31G(d) (6D, 7F)
 Ernie: Thresh=  0.10000D-02 Tol=  0.10000D-05 Strict=F.
 There are   543 symmetry adapted cartesian basis functions of A   symmetry.
 There are   543 symmetry adapted basis functions of A   symmetry.
   543 basis functions,  1036 primitive gaussians,   543 cartesian basis functions
   132 alpha electrons      132 beta electrons
       nuclear repulsion energy      4356.0908573103 Hartrees.
 IExCor= 4134 DFT=T Ex+Corr=M06L ExCW=0 ScaHFX=  0.000000
 ScaDFX=  1.000000  1.000000  1.000000  1.000000 ScalE2=  1.000000  1.000000
 IRadAn=      5 IRanWt=     -1 IRanGd=            0 ICorTp=0 IEmpDi=131
 NAtoms=   55 NActive=   55 NUniq=   55 SFac= 1.00D+00 NAtFMM=   60 NAOKFM=F Big=F
 Integral buffers will be    131072 words long.
 Raffenetti 2 integral format.
 Two-electron integral symmetry is turned on.
 R6Disp:  Grimme-D3 Dispersion energy=       -0.0066293262 Hartrees.
 Nuclear repulsion after empirical dispersion term =     4356.0842279841 Hartrees.
 ------------------------------------------------------------------------------
 Polarizable Continuum Model (PCM)
 =================================
 Model                : PCM.
 Atomic radii         : UFF (Universal Force Field).
 Polarization charges : Total charges.
 Charge compensation  : None.
 Solution method      : On-the-fly selection.
 Cavity type          : Scaled VdW (van der Waals Surface) (Alpha=1.100).
 Cavity algorithm     : GePol (No added spheres)
                        Default sphere list used, NSphG=   55.
                        Lebedev-Laikov grids with approx.  5.0 points / Ang**2.
                        Smoothing algorithm: York/Karplus (Gamma=1.0000).
                        Polarization charges: spherical gaussians, with
                                              point-specific exponents (IZeta= 3).
                        Self-potential: point-specific (ISelfS= 7).
                        Self-field    : sphere-specific E.n sum rule (ISelfD= 2).
 1st derivatives      : Analytical E(r).r(x)/FMM algorithm (CHGder, D1EAlg=3).
                        Cavity 1st derivative terms included.
 Solvent              : TetraHydroFuran, Eps=   7.425700 Eps(inf)=   1.974025
 ------------------------------------------------------------------------------
 GePol: Number of generator spheres                  =      55
 GePol: Total number of spheres                      =      55
 GePol: Number of exposed spheres                    =      55 (100.00%)
 GePol: Number of points                             =    3882
 GePol: Average weight of points                     =       0.13
 GePol: Minimum weight of points                     =   0.15D-11
 GePol: Maximum weight of points                     =    0.20577
 GePol: Number of points with low weight             =     247
 GePol: Fraction of low-weight points (<1% of avg)   =       6.36%
 GePol: Cavity surface area                          =    493.796 Ang**2
 GePol: Cavity volume                                =    575.868 Ang**3
 Leave Link  301 at Wed Jun  5 17:44:52 2019, MaxMem=  6442450944 cpu:               6.7 elap:               0.3
 (Enter /home/ekwan/sw/g16/l302.exe)
 NPDir=0 NMtPBC=     1 NCelOv=     1 NCel=       1 NClECP=     1 NCelD=      1
         NCelK=      1 NCelE2=     1 NClLst=     1 CellRange=     0.0.
 One-electron integrals computed using PRISM.
 One-electron integral symmetry used in STVInt
 NBasis=   543 RedAO= T EigKep=  4.07D-04  NBF=   543
 NBsUse=   543 1.00D-06 EigRej= -1.00D+00 NBFU=   543
 Precomputing XC quadrature grid using
 IXCGrd= 4 IRadAn=           5 IRanWt=          -1 IRanGd=           0 AccXCQ= 0.00D+00.
 Generated NRdTot=       0 NPtTot=           0 NUsed=           0 NTot=          32
 NSgBfM=   532   532   532   532   532 MxSgAt=    55 MxSgA2=    55.
 Leave Link  302 at Wed Jun  5 17:45:00 2019, MaxMem=  6442450944 cpu:             225.7 elap:               7.8
 (Enter /home/ekwan/sw/g16/l303.exe)
 DipDrv:  MaxL=1.
 Leave Link  303 at Wed Jun  5 17:45:01 2019, MaxMem=  6442450944 cpu:               9.4 elap:               0.4
 (Enter /home/ekwan/sw/g16/l401.exe)
 ExpMin= 1.17D-01 ExpMax= 2.19D+04 ExpMxC= 3.30D+03 IAcc=3 IRadAn=         5 AccDes= 0.00D+00
 Harris functional with IExCor= 1009 and IRadAn=       5 diagonalized for initial guess.
 HarFok:  IExCor= 1009 AccDes= 0.00D+00 IRadAn=         5 IDoV= 1 UseB2=F ITyADJ=14
 ICtDFT=  3500011 ScaDFX=  1.000000  1.000000  1.000000  1.000000
 FoFCou: FMM=F IPFlag=           0 FMFlag=      100000 FMFlg1=           0
         NFxFlg=           0 DoJE=T BraDBF=F KetDBF=T FulRan=T
         wScrn=  0.000000 ICntrl=       500 IOpCl=  0 I1Cent=   200000004 NGrid=           0
         NMat0=    1 NMatS0=      1 NMatT0=    0 NMatD0=    1 NMtDS0=    0 NMtDT0=    0
 Petite list used in FoFCou.
 Harris En= -2296.15167616635    
 JPrj=0 DoOrth=F DoCkMO=F.
 Leave Link  401 at Wed Jun  5 17:45:06 2019, MaxMem=  6442450944 cpu:             182.6 elap:               5.8
 (Enter /home/ekwan/sw/g16/l502.exe)
 Integral symmetry usage will be decided dynamically.
 Closed shell SCF:
 Using DIIS extrapolation, IDIIS=  1040.
 NGot=  6442450944 LenX=  6441838015 LenY=  6441542623
 Requested convergence on RMS density matrix=1.00D-08 within 128 cycles.
 Requested convergence on MAX density matrix=1.00D-06.
 Requested convergence on             energy=1.00D-06.
 No special actions if energy rises.
 Fock matrices will be formed incrementally for  20 cycles.

 Cycle   1  Pass 1  IDiag  1:
 FoFJK:  IHMeth= 1 ICntrl=     500 DoSepK=F KAlg= 0 I1Cent=           0 FoldK=F
 IRaf= 700000000 NMat=       1 IRICut=       1 DoRegI=T DoRafI=F ISym2E= 0 IDoP0=0 IntGTp=1.
 FoFCou: FMM=F IPFlag=           0 FMFlag=      100000 FMFlg1=           0
         NFxFlg=           0 DoJE=T BraDBF=F KetDBF=F FulRan=T
         wScrn=  0.000000 ICntrl=       500 IOpCl=  0 I1Cent=           0 NGrid=           0
         NMat0=    1 NMatS0=      1 NMatT0=    0 NMatD0=    1 NMtDS0=    0 NMtDT0=    0
 Symmetry not used in FoFCou.
 Inv3:  Mode=1 IEnd=    45209772.
 Iteration    1 A*A^-1 deviation from unit magnitude is 4.66D-15 for   3881.
 Iteration    1 A*A^-1 deviation from orthogonality  is 3.20D-15 for   3869   3831.
 Iteration    1 A^-1*A deviation from unit magnitude is 4.66D-15 for   3881.
 Iteration    1 A^-1*A deviation from orthogonality  is 4.75D-15 for   3377   3320.
 E= -2297.20486627082    
 DIIS: error= 2.82D-02 at cycle   1 NSaved=   1.
 NSaved= 1 IEnMin= 1 EnMin= -2297.20486627082     IErMin= 1 ErrMin= 2.82D-02
 ErrMax= 2.82D-02  0.00D+00 EMaxC= 1.00D-01 BMatC= 8.91D-01 BMatP= 8.91D-01
 IDIUse=3 WtCom= 7.18D-01 WtEn= 2.82D-01
 Coeff-Com:  0.100D+01
 Coeff-En:   0.100D+01
 Coeff:      0.100D+01
 Gap=     0.084 Goal=   None    Shift=    0.000
 GapD=    0.084 DampG=0.500 DampE=0.500 DampFc=0.2500 IDamp=-1.
 Damping current iteration by 2.50D-01
 RMSDP=3.86D-03 MaxDP=5.31D-01              OVMax= 2.05D-01

 Cycle   2  Pass 1  IDiag  1:
 RMSU=  9.65D-04    CP:  9.98D-01
 E= -2297.43326417500     Delta-E=       -0.228397904184 Rises=F Damp=T
 DIIS: error= 1.62D-02 at cycle   2 NSaved=   2.
 NSaved= 2 IEnMin= 2 EnMin= -2297.43326417500     IErMin= 2 ErrMin= 1.62D-02
 ErrMax= 1.62D-02  0.00D+00 EMaxC= 1.00D-01 BMatC= 2.20D-01 BMatP= 8.91D-01
 IDIUse=3 WtCom= 8.38D-01 WtEn= 1.62D-01
 Coeff-Com: -0.581D+00 0.158D+01
 Coeff-En:   0.000D+00 0.100D+01
 Coeff:     -0.487D+00 0.149D+01
 Gap=     0.139 Goal=   None    Shift=    0.000
 RMSDP=1.27D-03 MaxDP=6.48D-02 DE=-2.28D-01 OVMax= 1.85D-01

 Cycle   3  Pass 1  IDiag  1:
 RMSU=  1.23D-03    CP:  9.87D-01  1.26D+00
 E= -2297.78179175516     Delta-E=       -0.348527580158 Rises=F Damp=F
 DIIS: error= 1.02D-02 at cycle   3 NSaved=   3.
 NSaved= 3 IEnMin= 3 EnMin= -2297.78179175516     IErMin= 3 ErrMin= 1.02D-02
 ErrMax= 1.02D-02  0.00D+00 EMaxC= 1.00D-01 BMatC= 9.17D-02 BMatP= 2.20D-01
 IDIUse=3 WtCom= 8.98D-01 WtEn= 1.02D-01
 Coeff-Com: -0.371D+00 0.808D+00 0.563D+00
 Coeff-En:   0.000D+00 0.000D+00 0.100D+01
 Coeff:     -0.333D+00 0.725D+00 0.608D+00
 Gap=     0.117 Goal=   None    Shift=    0.000
 RMSDP=9.60D-04 MaxDP=6.16D-02 DE=-3.49D-01 OVMax= 9.24D-02

 Cycle   4  Pass 1  IDiag  1:
 RMSU=  6.51D-04    CP:  9.91D-01  1.53D+00  4.71D-01
 E= -2297.81688865119     Delta-E=       -0.035096896035 Rises=F Damp=F
 DIIS: error= 6.76D-03 at cycle   4 NSaved=   4.
 NSaved= 4 IEnMin= 4 EnMin= -2297.81688865119     IErMin= 4 ErrMin= 6.76D-03
 ErrMax= 6.76D-03  0.00D+00 EMaxC= 1.00D-01 BMatC= 5.25D-02 BMatP= 9.17D-02
 IDIUse=3 WtCom= 9.32D-01 WtEn= 6.76D-02
 Coeff-Com: -0.120D+00 0.205D+00 0.435D+00 0.480D+00
 Coeff-En:   0.000D+00 0.000D+00 0.391D+00 0.609D+00
 Coeff:     -0.112D+00 0.191D+00 0.432D+00 0.489D+00
 Gap=     0.119 Goal=   None    Shift=    0.000
 RMSDP=4.58D-04 MaxDP=3.00D-02 DE=-3.51D-02 OVMax= 5.72D-02

 Cycle   5  Pass 1  IDiag  1:
 RMSU=  1.53D-04    CP:  9.90D-01  1.46D+00  6.79D-01  4.79D-01
 E= -2297.86051338944     Delta-E=       -0.043624738243 Rises=F Damp=F
 DIIS: error= 2.94D-03 at cycle   5 NSaved=   5.
 NSaved= 5 IEnMin= 5 EnMin= -2297.86051338944     IErMin= 5 ErrMin= 2.94D-03
 ErrMax= 2.94D-03  0.00D+00 EMaxC= 1.00D-01 BMatC= 2.48D-03 BMatP= 5.25D-02
 IDIUse=3 WtCom= 9.71D-01 WtEn= 2.94D-02
 Coeff-Com: -0.474D-01 0.728D-01 0.220D+00 0.289D+00 0.465D+00
 Coeff-En:   0.000D+00 0.000D+00 0.000D+00 0.000D+00 0.100D+01
 Coeff:     -0.460D-01 0.706D-01 0.214D+00 0.281D+00 0.481D+00
 Gap=     0.119 Goal=   None    Shift=    0.000
 RMSDP=1.10D-04 MaxDP=6.13D-03 DE=-4.36D-02 OVMax= 2.31D-02

 Cycle   6  Pass 1  IDiag  1:
 RMSU=  5.81D-05    CP:  9.90D-01  1.47D+00  6.83D-01  5.41D-01  4.60D-01
 E= -2297.86268730170     Delta-E=       -0.002173912268 Rises=F Damp=F
 DIIS: error= 1.15D-03 at cycle   6 NSaved=   6.
 NSaved= 6 IEnMin= 6 EnMin= -2297.86268730170     IErMin= 6 ErrMin= 1.15D-03
 ErrMax= 1.15D-03  0.00D+00 EMaxC= 1.00D-01 BMatC= 2.30D-04 BMatP= 2.48D-03
 IDIUse=3 WtCom= 9.89D-01 WtEn= 1.15D-02
 Coeff-Com: -0.146D-01 0.202D-01 0.717D-01 0.100D+00 0.276D+00 0.546D+00
 Coeff-En:   0.000D+00 0.000D+00 0.000D+00 0.000D+00 0.751D-01 0.925D+00
 Coeff:     -0.145D-01 0.200D-01 0.709D-01 0.988D-01 0.274D+00 0.551D+00
 Gap=     0.119 Goal=   None    Shift=    0.000
 RMSDP=3.63D-05 MaxDP=1.96D-03 DE=-2.17D-03 OVMax= 7.87D-03

 Cycle   7  Pass 1  IDiag  1:
 RMSU=  1.75D-05    CP:  9.90D-01  1.47D+00  6.85D-01  5.35D-01  5.68D-01
                    CP:  5.43D-01
 E= -2297.86290296971     Delta-E=       -0.000215668001 Rises=F Damp=F
 DIIS: error= 3.09D-04 at cycle   7 NSaved=   7.
 NSaved= 7 IEnMin= 7 EnMin= -2297.86290296971     IErMin= 7 ErrMin= 3.09D-04
 ErrMax= 3.09D-04  0.00D+00 EMaxC= 1.00D-01 BMatC= 2.29D-05 BMatP= 2.30D-04
 IDIUse=3 WtCom= 9.97D-01 WtEn= 3.09D-03
 Coeff-Com: -0.569D-02 0.723D-02 0.247D-01 0.356D-01 0.125D+00 0.327D+00
 Coeff-Com:  0.486D+00
 Coeff-En:   0.000D+00 0.000D+00 0.000D+00 0.000D+00 0.000D+00 0.393D-01
 Coeff-En:   0.961D+00
 Coeff:     -0.567D-02 0.721D-02 0.246D-01 0.355D-01 0.125D+00 0.326D+00
 Coeff:      0.488D+00
 Gap=     0.119 Goal=   None    Shift=    0.000
 RMSDP=1.14D-05 MaxDP=7.59D-04 DE=-2.16D-04 OVMax= 2.06D-03

 Cycle   8  Pass 1  IDiag  1:
 RMSU=  6.91D-06    CP:  9.90D-01  1.47D+00  6.84D-01  5.36D-01  5.58D-01
                    CP:  6.20D-01  5.72D-01
 E= -2297.86292358931     Delta-E=       -0.000020619605 Rises=F Damp=F
 DIIS: error= 7.21D-05 at cycle   8 NSaved=   8.
 NSaved= 8 IEnMin= 8 EnMin= -2297.86292358931     IErMin= 8 ErrMin= 7.21D-05
 ErrMax= 7.21D-05  0.00D+00 EMaxC= 1.00D-01 BMatC= 3.21D-06 BMatP= 2.29D-05
 IDIUse=1 WtCom= 1.00D+00 WtEn= 0.00D+00
 Coeff-Com: -0.125D-02 0.133D-02 0.241D-02 0.395D-02 0.294D-01 0.110D+00
 Coeff-Com:  0.302D+00 0.552D+00
 Coeff:     -0.125D-02 0.133D-02 0.241D-02 0.395D-02 0.294D-01 0.110D+00
 Coeff:      0.302D+00 0.552D+00
 Gap=     0.119 Goal=   None    Shift=    0.000
 RMSDP=4.12D-06 MaxDP=2.88D-04 DE=-2.06D-05 OVMax= 5.39D-04

 Cycle   9  Pass 1  IDiag  1:
 RMSU=  2.42D-06    CP:  9.90D-01  1.47D+00  6.84D-01  5.36D-01  5.64D-01
                    CP:  6.26D-01  6.49D-01  5.94D-01
 E= -2297.86292626105     Delta-E=       -0.000002671737 Rises=F Damp=F
 DIIS: error= 1.32D-05 at cycle   9 NSaved=   9.
 NSaved= 9 IEnMin= 9 EnMin= -2297.86292626105     IErMin= 9 ErrMin= 1.32D-05
 ErrMax= 1.32D-05  0.00D+00 EMaxC= 1.00D-01 BMatC= 3.86D-07 BMatP= 3.21D-06
 IDIUse=1 WtCom= 1.00D+00 WtEn= 0.00D+00
 Coeff-Com: -0.348D-03 0.353D-03-0.107D-02-0.139D-02 0.415D-02 0.305D-01
 Coeff-Com:  0.126D+00 0.330D+00 0.512D+00
 Coeff:     -0.348D-03 0.353D-03-0.107D-02-0.139D-02 0.415D-02 0.305D-01
 Coeff:      0.126D+00 0.330D+00 0.512D+00
 Gap=     0.119 Goal=   None    Shift=    0.000
 RMSDP=1.34D-06 MaxDP=8.16D-05 DE=-2.67D-06 OVMax= 1.24D-04

 Cycle  10  Pass 1  IDiag  1:
 RMSU=  7.26D-07    CP:  9.90D-01  1.47D+00  6.84D-01  5.36D-01  5.65D-01
                    CP:  6.26D-01  6.53D-01  6.75D-01  6.04D-01
 E= -2297.86292657343     Delta-E=       -0.000000312378 Rises=F Damp=F
 DIIS: error= 5.74D-06 at cycle  10 NSaved=  10.
 NSaved=10 IEnMin=10 EnMin= -2297.86292657343     IErMin=10 ErrMin= 5.74D-06
 ErrMax= 5.74D-06  0.00D+00 EMaxC= 1.00D-01 BMatC= 2.75D-08 BMatP= 3.86D-07
 IDIUse=1 WtCom= 1.00D+00 WtEn= 0.00D+00
 Coeff-Com: -0.144D-03 0.165D-03-0.722D-03-0.100D-02-0.334D-03 0.702D-02
 Coeff-Com:  0.400D-01 0.127D+00 0.275D+00 0.554D+00
 Coeff:     -0.144D-03 0.165D-03-0.722D-03-0.100D-02-0.334D-03 0.702D-02
 Coeff:      0.400D-01 0.127D+00 0.275D+00 0.554D+00
 Gap=     0.119 Goal=   None    Shift=    0.000
 RMSDP=3.43D-07 MaxDP=2.70D-05 DE=-3.12D-07 OVMax= 2.91D-05

 Cycle  11  Pass 1  IDiag  1:
 RMSU=  2.48D-07    CP:  9.90D-01  1.47D+00  6.84D-01  5.36D-01  5.64D-01
                    CP:  6.26D-01  6.57D-01  6.80D-01  6.44D-01  7.34D-01
 E= -2297.86292659247     Delta-E=       -0.000000019042 Rises=F Damp=F
 DIIS: error= 1.79D-06 at cycle  11 NSaved=  11.
 NSaved=11 IEnMin=11 EnMin= -2297.86292659247     IErMin=11 ErrMin= 1.79D-06
 ErrMax= 1.79D-06  0.00D+00 EMaxC= 1.00D-01 BMatC= 3.30D-09 BMatP= 2.75D-08
 IDIUse=1 WtCom= 1.00D+00 WtEn= 0.00D+00
 Coeff-Com: -0.512D-04 0.654D-04-0.270D-03-0.364D-03-0.759D-03-0.629D-04
 Coeff-Com:  0.510D-02 0.258D-01 0.840D-01 0.301D+00 0.586D+00
 Coeff:     -0.512D-04 0.654D-04-0.270D-03-0.364D-03-0.759D-03-0.629D-04
 Coeff:      0.510D-02 0.258D-01 0.840D-01 0.301D+00 0.586D+00
 Gap=     0.119 Goal=   None    Shift=    0.000
 RMSDP=1.34D-07 MaxDP=1.46D-05 DE=-1.90D-08 OVMax= 9.54D-06

 Cycle  12  Pass 1  IDiag  1:
 RMSU=  8.79D-08    CP:  9.90D-01  1.47D+00  6.84D-01  5.36D-01  5.64D-01
                    CP:  6.27D-01  6.56D-01  6.80D-01  6.59D-01  7.81D-01
                    CP:  6.87D-01
 E= -2297.86292659503     Delta-E=       -0.000000002562 Rises=F Damp=F
 DIIS: error= 4.86D-07 at cycle  12 NSaved=  12.
 NSaved=12 IEnMin=12 EnMin= -2297.86292659503     IErMin=12 ErrMin= 4.86D-07
 ErrMax= 4.86D-07  0.00D+00 EMaxC= 1.00D-01 BMatC= 4.06D-10 BMatP= 3.30D-09
 IDIUse=1 WtCom= 1.00D+00 WtEn= 0.00D+00
 Coeff-Com: -0.192D-04 0.270D-04-0.666D-04-0.801D-04-0.371D-03-0.788D-03
 Coeff-Com: -0.166D-02 0.126D-03 0.146D-01 0.103D+00 0.325D+00 0.560D+00
 Coeff:     -0.192D-04 0.270D-04-0.666D-04-0.801D-04-0.371D-03-0.788D-03
 Coeff:     -0.166D-02 0.126D-03 0.146D-01 0.103D+00 0.325D+00 0.560D+00
 Gap=     0.119 Goal=   None    Shift=    0.000
 RMSDP=5.02D-08 MaxDP=3.26D-06 DE=-2.56D-09 OVMax= 5.33D-06

 Cycle  13  Pass 1  IDiag  1:
 RMSU=  3.40D-08    CP:  9.90D-01  1.47D+00  6.84D-01  5.36D-01  5.64D-01
                    CP:  6.27D-01  6.56D-01  6.81D-01  6.62D-01  7.92D-01
                    CP:  7.39D-01  6.76D-01
 E= -2297.86292659536     Delta-E=       -0.000000000329 Rises=F Damp=F
 DIIS: error= 3.40D-07 at cycle  13 NSaved=  13.
 NSaved=13 IEnMin=13 EnMin= -2297.86292659536     IErMin=13 ErrMin= 3.40D-07
 ErrMax= 3.40D-07  0.00D+00 EMaxC= 1.00D-01 BMatC= 9.03D-11 BMatP= 4.06D-10
 IDIUse=1 WtCom= 1.00D+00 WtEn= 0.00D+00
 Coeff-Com: -0.775D-05 0.116D-04-0.116D-04-0.843D-05-0.153D-03-0.498D-03
 Coeff-Com: -0.165D-02-0.286D-02-0.606D-03 0.316D-01 0.143D+00 0.372D+00
 Coeff-Com:  0.459D+00
 Coeff:     -0.775D-05 0.116D-04-0.116D-04-0.843D-05-0.153D-03-0.498D-03
 Coeff:     -0.165D-02-0.286D-02-0.606D-03 0.316D-01 0.143D+00 0.372D+00
 Coeff:      0.459D+00
 Gap=     0.119 Goal=   None    Shift=    0.000
 RMSDP=2.12D-08 MaxDP=1.76D-06 DE=-3.29D-10 OVMax= 2.46D-06

 Cycle  14  Pass 1  IDiag  1:
 RMSU=  1.28D-08    CP:  9.90D-01  1.47D+00  6.84D-01  5.36D-01  5.64D-01
                    CP:  6.27D-01  6.56D-01  6.82D-01  6.62D-01  7.96D-01
                    CP:  7.48D-01  7.48D-01  5.60D-01
 E= -2297.86292659536     Delta-E=        0.000000000003 Rises=F Damp=F
 DIIS: error= 9.18D-08 at cycle  14 NSaved=  14.
 NSaved=14 IEnMin=13 EnMin= -2297.86292659536     IErMin=14 ErrMin= 9.18D-08
 ErrMax= 9.18D-08  0.00D+00 EMaxC= 1.00D-01 BMatC= 8.90D-12 BMatP= 9.03D-11
 IDIUse=1 WtCom= 1.00D+00 WtEn= 0.00D+00
 Coeff-Com: -0.193D-05 0.315D-05 0.240D-05 0.635D-05-0.389D-04-0.181D-03
 Coeff-Com: -0.728D-03-0.171D-02-0.271D-02 0.366D-02 0.374D-01 0.140D+00
 Coeff-Com:  0.284D+00 0.541D+00
 Coeff:     -0.193D-05 0.315D-05 0.240D-05 0.635D-05-0.389D-04-0.181D-03
 Coeff:     -0.728D-03-0.171D-02-0.271D-02 0.366D-02 0.374D-01 0.140D+00
 Coeff:      0.284D+00 0.541D+00
 Gap=     0.119 Goal=   None    Shift=    0.000
 RMSDP=6.80D-09 MaxDP=4.36D-07 DE= 2.73D-12 OVMax= 6.66D-07

 Error on total polarization charges =  0.00874
 SCF Done:  E(RM06L) =  -2297.86292660     A.U. after   14 cycles
            NFock= 14  Conv=0.68D-08     -V/T= 2.0065
 KE= 2.283091362695D+03 PE=-1.412047845747D+04 EE= 5.183439940200D+03
 Leave Link  502 at Wed Jun  5 17:50:52 2019, MaxMem=  6442450944 cpu:           10465.7 elap:             345.7
 (Enter /home/ekwan/sw/g16/l701.exe)
 ... and contract with generalized density number  0.
 Compute integral first derivatives.
 R6Disp: Adding Grimme-D3 dispersion energy 1st derivatives to the gradient.
 D1PCM: PCM CHGder 1st derivatives, ID1Alg=3 FixD1E=F DoIter=F DoCFld=F I1PDM=0.
 GePol: Maximum number of non-zero 1st derivatives   =     220
 Leave Link  701 at Wed Jun  5 17:51:02 2019, MaxMem=  6442450944 cpu:             283.3 elap:               9.9
 (Enter /home/ekwan/sw/g16/l702.exe)
 L702 exits ... SP integral derivatives will be done elsewhere.
 Leave Link  702 at Wed Jun  5 17:51:02 2019, MaxMem=  6442450944 cpu:               2.7 elap:               0.1
 (Enter /home/ekwan/sw/g16/l703.exe)
 Integral derivatives from FoFJK, PRISM(SPDF).
 Compute integral first derivatives, UseDBF=F ICtDFT=           0.
 Calling FoFJK, ICntrl=      2527 FMM=F ISym2X=0 I1Cent= 0 IOpClX= 0 NMat=1 NMatS=1 NMatT=0.
 FoFJK:  IHMeth= 1 ICntrl=    2527 DoSepK=F KAlg= 0 I1Cent=           0 FoldK=F
 IRaf=         0 NMat=       1 IRICut=       1 DoRegI=T DoRafI=F ISym2E= 0 IDoP0=0 IntGTp=1.
 FoFCou: FMM=F IPFlag=           0 FMFlag=      100000 FMFlg1=         800
         NFxFlg=           0 DoJE=F BraDBF=F KetDBF=F FulRan=T
         wScrn=  0.000000 ICntrl=      2527 IOpCl=  0 I1Cent=           0 NGrid=           0
         NMat0=    1 NMatS0=      1 NMatT0=    0 NMatD0=    1 NMtDS0=    0 NMtDT0=    0
 Symmetry not used in FoFCou.
 Leave Link  703 at Wed Jun  5 17:51:43 2019, MaxMem=  6442450944 cpu:            1224.0 elap:              40.6
 (Enter /home/ekwan/sw/g16/l716.exe)
 Dipole        = 3.03869338D-01 9.57360537D-01-6.37871266D-01
 ***** Axes restored to original set *****
 -------------------------------------------------------------------
 Center     Atomic                   Forces (Hartrees/Bohr)
 Number     Number              X              Y              Z
 -------------------------------------------------------------------
      1        6          -0.000000333    0.000002721   -0.000001492
      2        6          -0.000001669    0.000000158    0.000000629
      3        6           0.000000032    0.000003714    0.000001699
      4        6           0.000001883    0.000001804   -0.000001058
      5        6           0.000001516   -0.000003118    0.000001994
      6        1          -0.000001521    0.000001703   -0.000003027
      7        1           0.000000184    0.000001418   -0.000001944
      8        1           0.000000813   -0.000003345    0.000000113
      9        1          -0.000000653   -0.000001798    0.000001556
     10        1          -0.000000288    0.000000312   -0.000001239
     11        8          -0.000002748   -0.000002708    0.000000597
     12        8          -0.000005259   -0.000004308   -0.000004136
     13        8          -0.000000787   -0.000003350   -0.000004426
     14        8           0.000001524   -0.000003316   -0.000001986
     15        8           0.000000230   -0.000000426    0.000001754
     16        6           0.000002996   -0.000001486    0.000002120
     17        1           0.000001095   -0.000000381    0.000003108
     18        1          -0.000001224    0.000002714    0.000002109
     19        8          -0.000000642    0.000001059    0.000000655
     20       16           0.000004512    0.000002471   -0.000000098
     21        8          -0.000001489    0.000001825   -0.000003827
     22        8          -0.000001491    0.000001277   -0.000002482
     23        6           0.000000065   -0.000000454   -0.000002604
     24        6          -0.000001449    0.000000329   -0.000002153
     25        6           0.000000270    0.000000241    0.000000867
     26        6          -0.000000513   -0.000000608    0.000000995
     27        1           0.000000451   -0.000001293   -0.000001194
     28        6          -0.000002347    0.000004041    0.000001942
     29        1          -0.000000570    0.000002101   -0.000001423
     30        6           0.000001975   -0.000001595    0.000000802
     31        1           0.000000077   -0.000000062    0.000002433
     32        6           0.000000241    0.000001603   -0.000002120
     33        1          -0.000001743   -0.000000170   -0.000004509
     34        1          -0.000001060    0.000001661   -0.000003962
     35        1          -0.000002147   -0.000000612   -0.000004121
     36        6          -0.000000560   -0.000000643   -0.000001064
     37        1           0.000000824   -0.000002695   -0.000001450
     38        1           0.000001828   -0.000004410   -0.000000769
     39        1           0.000000065   -0.000001874   -0.000002078
     40        6           0.000000778   -0.000002725    0.000002317
     41        1           0.000001637   -0.000002181    0.000002448
     42        1           0.000001363   -0.000002396    0.000002137
     43        1           0.000001732   -0.000000875    0.000003323
     44        6           0.000002651    0.000005198    0.000003026
     45        1           0.000000170    0.000002060    0.000003502
     46        1          -0.000003899   -0.000001546    0.000001451
     47        1          -0.000000996    0.000002848    0.000000477
     48        6           0.000001785   -0.000003092    0.000001364
     49        9           0.000000430   -0.000004814    0.000000762
     50        9           0.000001452    0.000002078   -0.000002008
     51        9           0.000002008   -0.000001209    0.000003098
     52        6           0.000001534    0.000008481    0.000001225
     53        9          -0.000001462    0.000001244    0.000006171
     54        9          -0.000000363    0.000002520    0.000001717
     55        9          -0.000000908    0.000001910   -0.000001222
 -------------------------------------------------------------------
 Cartesian Forces:  Max     0.000008481 RMS     0.000002260
 Leave Link  716 at Wed Jun  5 17:51:43 2019, MaxMem=  6442450944 cpu:               3.1 elap:               0.1
 (Enter /home/ekwan/sw/g16/l103.exe)

 GradGradGradGradGradGradGradGradGradGradGradGradGradGradGradGradGradGrad
 Berny optimization.
 FormGI is forming the generalized inverse of G from B-inverse, IUseBI=4.
 Internal  Forces:  Max     0.000023966 RMS     0.000002602
 Search for a local minimum.
 Step number   1 out of a maximum of  291
 All quantities printed in internal units (Hartrees-Bohrs-Radians)
 RMS Force = .26020D-05 SwitMx=.10000D-02 MixMth= 2
 Mixed Optimization -- En-DIIS/RFO-DIIS
 Second derivative matrix not updated -- first step.
 ITU=  0
     Eigenvalues ---    0.00538   0.00645   0.00660   0.00737   0.00748
     Eigenvalues ---    0.00761   0.00928   0.01435   0.01467   0.01467
     Eigenvalues ---    0.01487   0.01490   0.01508   0.01521   0.01561
     Eigenvalues ---    0.01577   0.01630   0.01635   0.01650   0.02173
     Eigenvalues ---    0.02180   0.02186   0.02197   0.02200   0.02211
     Eigenvalues ---    0.02215   0.02989   0.03323   0.04465   0.04622
     Eigenvalues ---    0.04706   0.04871   0.04951   0.05268   0.05299
     Eigenvalues ---    0.05820   0.06055   0.06622   0.07028   0.07104
     Eigenvalues ---    0.07237   0.07888   0.09278   0.10019   0.10034
     Eigenvalues ---    0.10076   0.10098   0.10547   0.10571   0.10599
     Eigenvalues ---    0.10605   0.10706   0.10794   0.10812   0.10846
     Eigenvalues ---    0.10959   0.11048   0.11486   0.11903   0.12049
     Eigenvalues ---    0.14155   0.14868   0.16000   0.16000   0.16000
     Eigenvalues ---    0.16000   0.16000   0.16000   0.16000   0.16000
     Eigenvalues ---    0.16000   0.16000   0.16000   0.16000   0.16000
     Eigenvalues ---    0.16000   0.16000   0.16564   0.16787   0.17460
     Eigenvalues ---    0.18673   0.19680   0.19780   0.20681   0.22139
     Eigenvalues ---    0.23477   0.23484   0.23499   0.24956   0.24978
     Eigenvalues ---    0.24991   0.25000   0.25000   0.25000   0.25000
     Eigenvalues ---    0.25000   0.25000   0.25000   0.25000   0.25000
     Eigenvalues ---    0.25000   0.25000   0.25000   0.27662   0.27825
     Eigenvalues ---    0.29327   0.29566   0.29767   0.30634   0.32235
     Eigenvalues ---    0.32335   0.32841   0.33231   0.33329   0.33368
     Eigenvalues ---    0.33410   0.33469   0.33495   0.33525   0.33543
     Eigenvalues ---    0.33567   0.33764   0.33808   0.33837   0.34203
     Eigenvalues ---    0.34252   0.34381   0.34398   0.34403   0.34545
     Eigenvalues ---    0.35100   0.35140   0.35223   0.37245   0.37676
     Eigenvalues ---    0.42750   0.42895   0.42913   0.42916   0.43151
     Eigenvalues ---    0.43187   0.43395   0.43543   0.44018   0.44854
     Eigenvalues ---    0.45211   0.45980   0.46698   0.47012   0.47096
     Eigenvalues ---    0.47309   0.54269   0.55320   0.55896   0.55964
     Eigenvalues ---    0.56091   0.56602   0.93650   0.96053
 RFO step:  Lambda=-4.17770476D-08 EMin= 5.37865456D-03
 Linear search not attempted -- first point.
 Iteration  1 RMS(Cart)=  0.00126732 RMS(Int)=  0.00000023
 Iteration  2 RMS(Cart)=  0.00000046 RMS(Int)=  0.00000000
 ITry= 1 IFail=0 DXMaxC= 6.41D-03 DCOld= 1.00D+10 DXMaxT= 3.00D-01 DXLimC= 3.00D+00 Rises=F
 Variable       Old X    -DE/DX   Delta X   Delta X   Delta X     New X
                                 (Linear)    (Quad)   (Total)
    R1        2.87477   0.00000   0.00000   0.00001   0.00001   2.87478
    R2        2.87235   0.00000   0.00000   0.00000   0.00000   2.87235
    R3        2.08410   0.00000   0.00000   0.00000   0.00000   2.08410
    R4        2.67777   0.00000   0.00000   0.00000   0.00000   2.67777
    R5        2.89307   0.00000   0.00000   0.00001   0.00001   2.89308
    R6        2.09331   0.00000   0.00000   0.00000   0.00000   2.09332
    R7        2.65446   0.00000   0.00000   0.00000   0.00000   2.65446
    R8        2.06908   0.00000   0.00000   0.00000   0.00000   2.06908
    R9        2.62020   0.00000   0.00000  -0.00001  -0.00001   2.62019
   R10        2.75479   0.00000   0.00000  -0.00001  -0.00001   2.75478
   R11        2.87845   0.00000   0.00000  -0.00001  -0.00001   2.87845
   R12        2.08648   0.00000   0.00000   0.00001   0.00001   2.08649
   R13        2.72926   0.00000   0.00000  -0.00001  -0.00001   2.72925
   R14        2.86717   0.00000   0.00000   0.00000   0.00000   2.86717
   R15        2.08337   0.00000   0.00000   0.00001   0.00001   2.08338
   R16        2.67774   0.00000   0.00000   0.00000   0.00000   2.67774
   R17        3.08731  -0.00001   0.00000  -0.00002  -0.00002   3.08729
   R18        2.67185   0.00000   0.00000   0.00000   0.00000   2.67185
   R19        2.67005   0.00000   0.00000   0.00000   0.00000   2.67005
   R20        2.67439   0.00000   0.00000   0.00000   0.00000   2.67439
   R21        2.06989   0.00000   0.00000   0.00000   0.00000   2.06989
   R22        2.08478   0.00000   0.00000   0.00000   0.00000   2.08478
   R23        2.66433   0.00000   0.00000   0.00000   0.00000   2.66433
   R24        2.67484   0.00000   0.00000   0.00000   0.00000   2.67484
   R25        2.73962   0.00000   0.00000   0.00000   0.00000   2.73962
   R26        2.74995   0.00000   0.00000   0.00000   0.00000   2.74995
   R27        3.36223   0.00000   0.00000  -0.00001  -0.00001   3.36222
   R28        2.62618   0.00000   0.00000   0.00000   0.00000   2.62617
   R29        2.62977   0.00000   0.00000   0.00000   0.00000   2.62977
   R30        2.63376   0.00000   0.00000  -0.00001  -0.00001   2.63375
   R31        2.05512   0.00000   0.00000   0.00000   0.00000   2.05512
   R32        2.62654   0.00000   0.00000   0.00001   0.00001   2.62654
   R33        2.05314   0.00000   0.00000   0.00000   0.00000   2.05314
   R34        2.62851   0.00000   0.00000  -0.00001  -0.00001   2.62851
   R35        2.83716   0.00000   0.00000  -0.00001  -0.00001   2.83715
   R36        2.63526   0.00000   0.00000   0.00000   0.00000   2.63526
   R37        2.83535   0.00000   0.00000   0.00000   0.00000   2.83535
   R38        2.05448   0.00000   0.00000   0.00000   0.00000   2.05448
   R39        2.08109   0.00000   0.00000   0.00000   0.00000   2.08109
   R40        2.08139   0.00000   0.00000   0.00000   0.00000   2.08140
   R41        2.06420   0.00000   0.00000   0.00000   0.00000   2.06420
   R42        2.06663   0.00000   0.00000   0.00000   0.00000   2.06663
   R43        2.08235   0.00000   0.00000   0.00000   0.00000   2.08235
   R44        2.07656   0.00000   0.00000   0.00000   0.00000   2.07656
   R45        2.06656   0.00000   0.00000   0.00000   0.00000   2.06656
   R46        2.07607   0.00000   0.00000   0.00000   0.00000   2.07607
   R47        2.08067   0.00000   0.00000   0.00000   0.00000   2.08067
   R48        2.06692   0.00000   0.00000   0.00000   0.00000   2.06692
   R49        2.08192   0.00001   0.00000   0.00002   0.00002   2.08193
   R50        2.07730   0.00000   0.00000   0.00000   0.00000   2.07730
   R51        2.54344   0.00000   0.00000   0.00000   0.00000   2.54344
   R52        2.54849   0.00000   0.00000  -0.00001  -0.00001   2.54848
   R53        2.54175   0.00000   0.00000   0.00000   0.00000   2.54175
   R54        2.55788   0.00000   0.00000   0.00000   0.00000   2.55787
   R55        2.54285   0.00000   0.00000   0.00000   0.00000   2.54285
   R56        2.53735   0.00000   0.00000   0.00000   0.00000   2.53736
    A1        1.93611   0.00000   0.00000   0.00001   0.00001   1.93611
    A2        1.89718   0.00000   0.00000   0.00001   0.00001   1.89718
    A3        1.92253   0.00000   0.00000  -0.00001  -0.00001   1.92252
    A4        1.89322   0.00000   0.00000   0.00001   0.00001   1.89322
    A5        1.89120   0.00000   0.00000  -0.00001  -0.00001   1.89119
    A6        1.92352   0.00000   0.00000   0.00000   0.00000   1.92352
    A7        1.93783   0.00000   0.00000   0.00003   0.00003   1.93787
    A8        1.89399   0.00000   0.00000  -0.00003  -0.00003   1.89397
    A9        1.88348   0.00000   0.00000   0.00002   0.00002   1.88349
   A10        1.84498   0.00000   0.00000  -0.00001  -0.00001   1.84497
   A11        1.97635   0.00000   0.00000  -0.00001  -0.00001   1.97634
   A12        1.92602   0.00000   0.00000   0.00000   0.00000   1.92601
   A13        1.96202   0.00000   0.00000   0.00000   0.00000   1.96202
   A14        1.96983   0.00000   0.00000   0.00003   0.00003   1.96987
   A15        1.84726   0.00001   0.00000   0.00006   0.00006   1.84731
   A16        1.84834   0.00000   0.00000  -0.00004  -0.00004   1.84829
   A17        1.88856   0.00000   0.00000  -0.00004  -0.00004   1.88852
   A18        1.94815   0.00000   0.00000  -0.00001  -0.00001   1.94814
   A19        1.90056   0.00000   0.00000  -0.00001  -0.00001   1.90055
   A20        1.92780   0.00000   0.00000  -0.00002  -0.00002   1.92778
   A21        1.96706   0.00000   0.00000   0.00002   0.00002   1.96708
   A22        1.89540   0.00000   0.00000   0.00002   0.00002   1.89543
   A23        1.88386   0.00000   0.00000   0.00000   0.00000   1.88386
   A24        1.88749   0.00000   0.00000  -0.00001  -0.00001   1.88747
   A25        1.94468   0.00000   0.00000  -0.00001  -0.00001   1.94467
   A26        1.90204   0.00000   0.00000   0.00001   0.00001   1.90205
   A27        1.92155   0.00000   0.00000   0.00000   0.00000   1.92155
   A28        1.89603   0.00000   0.00000   0.00000   0.00000   1.89603
   A29        1.87292   0.00000   0.00000  -0.00001  -0.00001   1.87291
   A30        1.92651   0.00000   0.00000   0.00001   0.00001   1.92652
   A31        2.00077   0.00000   0.00000   0.00002   0.00002   2.00078
   A32        2.04689  -0.00002   0.00000  -0.00010  -0.00010   2.04680
   A33        1.98176   0.00000   0.00000   0.00001   0.00001   1.98176
   A34        1.98047   0.00000   0.00000   0.00001   0.00001   1.98048
   A35        1.97981   0.00000   0.00000   0.00001   0.00001   1.97981
   A36        1.87959   0.00000   0.00000   0.00000   0.00000   1.87959
   A37        1.90351   0.00000   0.00000   0.00000   0.00000   1.90352
   A38        2.00804   0.00000   0.00000   0.00002   0.00002   2.00806
   A39        1.89229   0.00000   0.00000  -0.00001  -0.00001   1.89228
   A40        1.84821   0.00000   0.00000   0.00002   0.00002   1.84824
   A41        1.92791   0.00000   0.00000  -0.00004  -0.00004   1.92788
   A42        1.98757   0.00000   0.00000  -0.00002  -0.00002   1.98755
   A43        1.81354   0.00001   0.00000   0.00004   0.00004   1.81358
   A44        1.89874   0.00000   0.00000  -0.00001  -0.00001   1.89872
   A45        1.79734  -0.00002   0.00000  -0.00007  -0.00007   1.79727
   A46        2.13575   0.00000   0.00000   0.00002   0.00002   2.13577
   A47        1.89588   0.00000   0.00000   0.00000   0.00000   1.89589
   A48        1.89278   0.00000   0.00000   0.00001   0.00001   1.89279
   A49        2.07342  -0.00001   0.00000  -0.00002  -0.00002   2.07340
   A50        2.08108   0.00000   0.00000   0.00002   0.00002   2.08109
   A51        2.12837   0.00000   0.00000   0.00000   0.00000   2.12837
   A52        2.07064   0.00000   0.00000   0.00001   0.00001   2.07065
   A53        2.10246   0.00000   0.00000   0.00000   0.00000   2.10246
   A54        2.11008   0.00000   0.00000   0.00000   0.00000   2.11008
   A55        2.06869   0.00000   0.00000  -0.00001  -0.00001   2.06868
   A56        2.10097   0.00000   0.00000   0.00000   0.00000   2.10097
   A57        2.11352   0.00000   0.00000   0.00000   0.00000   2.11353
   A58        2.10201   0.00000   0.00000   0.00000   0.00000   2.10201
   A59        2.08381   0.00000   0.00000   0.00000   0.00000   2.08381
   A60        2.09662   0.00000   0.00000   0.00001   0.00001   2.09662
   A61        2.10490   0.00000   0.00000   0.00000   0.00000   2.10490
   A62        2.10269   0.00000   0.00000   0.00001   0.00001   2.10269
   A63        2.07411   0.00000   0.00000  -0.00001  -0.00001   2.07410
   A64        2.09174   0.00000   0.00000   0.00000   0.00000   2.09175
   A65        2.09599   0.00000   0.00000   0.00000   0.00000   2.09599
   A66        2.09544   0.00000   0.00000   0.00000   0.00000   2.09544
   A67        1.95704   0.00000   0.00000   0.00001   0.00001   1.95704
   A68        1.94385   0.00000   0.00000   0.00000   0.00000   1.94385
   A69        1.86382   0.00000   0.00000   0.00000   0.00000   1.86382
   A70        1.89858   0.00000   0.00000   0.00000   0.00000   1.89858
   A71        1.89427   0.00000   0.00000  -0.00001  -0.00001   1.89426
   A72        1.90495   0.00000   0.00000   0.00000   0.00000   1.90496
   A73        1.86303   0.00000   0.00000   0.00000   0.00000   1.86303
   A74        1.94076   0.00000   0.00000   0.00001   0.00001   1.94077
   A75        1.95028   0.00000   0.00000   0.00000   0.00000   1.95028
   A76        1.89993   0.00000   0.00000   0.00000   0.00000   1.89993
   A77        1.90623   0.00000   0.00000   0.00000   0.00000   1.90623
   A78        1.90252   0.00000   0.00000  -0.00001  -0.00001   1.90251
   A79        1.86160   0.00000   0.00000   0.00000   0.00000   1.86160
   A80        1.94607   0.00000   0.00000   0.00000   0.00000   1.94607
   A81        1.93931   0.00000   0.00000   0.00001   0.00001   1.93931
[...]
 ,0.00000034,-0.00001861,0.00001970,-0.00000506,-0.00002796,0.00001970,
 -0.00017477,-0.00033208,0.00006052,0.00000788,0.00003967,0.00001811,0.
 00005967,0.00002445,-0.00001532,-0.00000450,0.00003959,-0.00003439,0.0
 0033249,0.00039848,0.00096927,-0.00001038,0.00005211,-0.00011109,-0.00
 009643,0.00000982,0.00001149,-0.00001164,-0.00009997,-0.00004131,0.002
 10615,-0.00078817,-0.00599508,0.00021005,0.00020254,0.00200994,-0.0014
 3506,-0.00057991,0.00176000,-0.00080147,0.00096388,0.00149468,0.021526
 02,-0.02042475,0.58246421,0.00006454,-0.00011665,0.00001572,0.00006937
 ,-0.00003833,-0.00003253,0.00013386,-0.00035999,0.00013467,-0.00014555
 ,-0.00055177,-0.00016165,0.00004753,0.00023797,0.00008271,-0.00001514,
 0.00002536,-0.00000610,0.00000220,0.00000457,-0.00000005,-0.00000638,0
 .00000868,-0.00000792,-0.00000679,0.00002730,-0.00001469,0.00003192,-0
 .00001225,0.00000706,-0.00018959,0.00029386,0.00002291,0.00012743,0.00
 022999,-0.00008689,-0.00007950,0.00009421,0.00001737,-0.00016161,0.000
 04050,-0.00007656,-0.00010918,-0.00005923,-0.00006905,0.00144187,0.001
 15958,0.00019227,-0.00016977,-0.00002646,-0.00011542,-0.00132863,-0.00
 013900,-0.00044699,-0.00057813,-0.00059504,-0.00021976,-0.00008429,-0.
 00029591,0.00006003,0.00002841,0.00004632,-0.00001764,0.00000888,0.000
 08403,0.00003238,0.00025563,-0.00070590,0.00005525,0.00008461,-0.00003
 267,-0.00039176,-0.00016656,-0.00085426,0.00104673,-0.00062445,-0.0001
 7435,-0.00022549,0.00005692,0.00002826,0.00002647,0.01077889,0.0036634
 8,-0.00346426,0.00005775,0.00014316,0.00004119,-0.00004960,0.00111616,
 0.00004041,0.00002525,0.00022201,-0.00027208,0.00000697,-0.00003339,-0
 .00004608,0.00000601,0.00000048,0.00000797,0.00000316,0.00000015,0.000
 00855,-0.00000821,0.00000871,0.00000219,0.00003044,-0.00003176,0.00007
 981,-0.00001422,0.00000052,-0.00000991,0.00000386,0.00000199,-0.000011
 81,-0.00000375,0.00001347,-0.00000864,0.00007140,0.00009324,0.00001948
 ,-0.00000455,-0.00001479,-0.00001692,-0.00002323,-0.00000842,0.0000016
 3,0.00000867,0.00000883,0.00000711,0.00106256,0.00067514,0.00063697,-0
 .00016170,-0.00011035,0.00001016,-0.00296609,-0.00072576,0.00016514,-0
 .00030290,-0.00011656,-0.00001823,-0.00030064,-0.00004000,0.00019566,0
 .00005966,0.00000279,-0.00008623,0.00008605,0.00004843,-0.00005182,0.0
 0006870,-0.00003536,-0.00003495,-0.07871014,-0.04010530,0.00743551,0.1
 1131062,-0.00003022,-0.00019935,-0.00005224,-0.00012610,0.00001072,-0.
 00007885,-0.00025284,-0.00082012,0.00073010,-0.00020651,-0.00091380,-0
 .00017123,-0.00003219,0.00016712,-0.00002057,-0.00004760,0.00004504,-0
 .00003579,0.00007878,0.00002908,-0.00000407,-0.00001612,0.00001521,-0.
 00002740,-0.00007387,0.00004917,-0.00010518,0.00008430,0.00001150,0.00
 000972,0.00016352,0.00081007,-0.00002791,0.00147737,0.00061965,-0.0003
 8572,0.00006437,0.00005576,-0.00001359,-0.00001633,0.00009890,-0.00000
 964,-0.00004736,0.00014415,0.00001696,0.00116891,0.00063604,0.00045773
 ,-0.00012339,0.00000713,-0.00009460,0.00027563,-0.00085976,0.00038235,
 -0.00049691,-0.00005516,-0.00045500,-0.00303773,0.00169501,0.00045799,
 0.00073848,-0.00087161,0.00034336,0.00076423,-0.00057291,-0.00042083,0
 .00183691,0.00057435,0.00072029,0.00006229,-0.00043780,0.00068227,-0.0
 0213992,0.00038357,0.00309949,0.00167394,0.00074841,0.00141087,-0.0002
 2264,-0.00013761,-0.00002072,-0.00832226,-0.03752015,0.01445286,-0.000
 96632,-0.00049202,-0.00032167,0.00210526,-0.00197144,-0.00215235,-0.00
 104749,-0.00071003,0.00013057,-0.00006416,-0.00001096,0.00002936,0.000
 00213,0.00001900,0.00000951,0.00000942,0.00001306,-0.00001476,0.000009
 39,-0.00000018,0.00000320,-0.00000741,-0.00000995,0.00002695,0.0000034
 8,0.00000291,-0.00000328,0.00000272,-0.00000488,-0.00000059,-0.0000081
 5,0.00000896,-0.00000409,0.00002367,-0.00004649,0.00005578,0.00000489,
 0.00000101,-0.00000381,-0.00001303,0.00000476,-0.00000649,0.00001300,0
 .00003083,-0.00001904,0.00100605,0.00075855,0.00068025,-0.00011751,-0.
 00009139,-0.00002011,0.00011229,-0.00055596,-0.00032672,-0.00041461,-0
 .00011413,-0.00004502,0.00114420,-0.00099433,-0.00214465,0.00008828,0.
 00019806,0.00097818,-0.00051705,-0.00011139,0.00063680,-0.00037113,0.0
 0063021,0.00048359,-0.04359068,-0.22509513,0.03385826,0.09589931,0.334
 70504,0.00007032,-0.00000511,0.00003578,0.00013882,-0.00004098,0.00001
 407,0.00027114,0.00023311,-0.00043201,-0.00000297,-0.00006546,-0.00009
 579,0.00006137,0.00013605,0.00006093,0.00000158,0.00000996,0.00002523,
 -0.00005680,-0.00001747,0.00000685,0.00000609,-0.00000210,0.00001437,0
 .00003765,-0.00001161,0.00006626,-0.00003302,-0.00002143,0.00000184,-0
 .00026971,-0.00017596,0.00011401,-0.00096986,-0.00017476,0.00026436,-0
 .00011230,0.00006074,0.00005159,-0.00013880,-0.00001333,-0.00005270,-0
 .00007944,-0.00011397,-0.00004281,0.00062258,0.00086947,-0.00022289,-0
 .00006556,-0.00003949,-0.00000562,-0.00094690,0.00003581,-0.00081068,-
 0.00018628,-0.00031897,0.00062890,0.00186671,-0.00160610,-0.00063855,-
 0.00045580,0.00066182,-0.00019482,-0.00044035,0.00045992,0.00044711,-0
 .00175150,-0.00017716,-0.00123395,-0.00082127,0.00090047,-0.00003976,0
 .00263550,-0.00003276,-0.00263437,-0.00030278,-0.00075082,0.00059521,0
 .00009983,0.00006795,0.00006036,0.00314028,0.03308405,-0.00023460,0.00
 020198,0.00056100,-0.00003428,-0.00104071,0.00018958,0.00085286,0.0002
 8073,-0.00009260,0.00016940,0.00004390,-0.00003263,-0.00008148,0.00000
 829,-0.00000746,-0.00000111,-0.00000830,-0.00001189,0.00001987,-0.0000
 1181,0.00000777,0.00000264,0.00003025,-0.00002306,0.00004841,-0.000014
 90,-0.00000178,-0.00000752,0.00000065,0.00000496,-0.00000667,0.0000010
 0,0.00000780,-0.00000597,0.00005218,0.00010432,-0.00001806,-0.00000312
 ,-0.00001246,-0.00000631,-0.00001689,-0.00000803,0.00000483,0.00000176
 ,-0.00001285,0.00001149,-0.00023764,-0.00030004,-0.00049757,0.00002877
 ,0.00000071,0.00004906,0.00060249,0.00022597,0.00006873,0.00008422,0.0
 0006193,0.00003606,-0.00061276,0.00032296,0.00146327,-0.00003674,-0.00
 007567,-0.00052042,0.00034932,0.00014441,-0.00043133,0.00021981,-0.000
 27772,-0.00034403,0.00797283,0.03367712,-0.07842946,-0.00959804,-0.020
 25891,0.07269780,0.00015089,-0.00000482,0.00009007,0.00024783,-0.00009
 515,0.00003491,0.00043080,0.00002791,-0.00037404,0.00006473,0.00004636
 ,0.00006705,0.00010945,0.00019965,0.00016970,0.00002050,-0.00000195,0.
 00001876,-0.00006346,-0.00001697,-0.00000309,0.00000076,0.00000277,0.0
 0000360,0.00004266,0.00000610,0.00004249,-0.00001002,-0.00002336,-0.00
 000104,-0.00047276,-0.00012220,-0.00003811,-0.00102411,-0.00010150,0.0
 0013556,-0.00021314,0.00014498,0.00003126,-0.00027291,-0.00001206,-0.0
 0014151,-0.00015490,-0.00020637,-0.00015019,0.00070613,0.00057998,0.00
 011086,-0.00008290,-0.00004810,-0.00007256,0.00000898,-0.00004820,-0.0
 0000005,-0.00040730,-0.00037173,-0.00001100,0.00254704,-0.00186979,-0.
 00054562,-0.00078538,0.00116958,-0.00054333,-0.00061630,0.00069087,0.0
 0046992,-0.00057756,0.00211925,0.00050830,-0.00030885,-0.00010636,-0.0
 0051130,-0.00068534,-0.00067976,-0.00668423,0.00030483,0.00078514,-0.0
 0105345,0.00001729,-0.00017443,-0.00004185,-0.03929070,0.00820402,-0.0
 0264977,0.00021060,-0.00090754,0.00029068,-0.00091146,0.00182731,0.003
 39643,-0.00029440,-0.00106242,-0.00146818,0.00006723,-0.00006125,-0.00
 010748,0.00001013,-0.00001704,0.00000960,0.00000163,-0.00000710,0.0000
 2681,-0.00002709,0.00001779,-0.00000014,0.00006963,-0.00005723,0.00012
 902,-0.00002776,-0.00000209,-0.00001470,0.00000466,0.00000689,-0.00002
 304,0.00000028,0.00001953,-0.00001071,0.00010361,0.00017267,-0.0000018
 2,-0.00000755,-0.00002691,-0.00002343,-0.00003200,-0.00001464,0.000007
 97,0.00000209,-0.00000566,0.00001753,0.00048751,0.00031940,0.00019740,
 -0.00008472,-0.00009419,0.00002350,0.00005795,-0.00010584,-0.00014971,
 -0.00012157,-0.00002904,-0.00001545,-0.00138671,0.00055681,0.00185248,
 0.00004128,-0.00010305,-0.00071403,0.00065610,0.00023117,-0.00061539,0
 .00042861,-0.00045918,-0.00041822,-0.25878863,0.02301617,-0.01593517,-
 0.05217662,-0.04074310,0.00648502,0.38936821,-0.00003303,-0.00004905,-
 0.00002853,-0.00007437,0.00001128,-0.00002278,-0.00013692,-0.00019439,
 0.00024268,-0.00006473,-0.00024467,-0.00004991,-0.00002734,0.00000655,
 -0.00003759,-0.00001589,0.00000986,-0.00001263,0.00002970,0.00001080,-
 0.00000170,-0.00000442,0.00000355,-0.00000791,-0.00003032,0.00001510,-
 0.00003778,0.00002644,0.00000731,0.00000312,0.00013136,0.00021959,0.00
 000649,0.00048526,0.00016428,-0.00009652,0.00005311,-0.00000816,-0.000
 00761,0.00004118,0.00002809,0.00002031,0.00001387,0.00007645,0.0000304
 1,0.00017811,0.00004646,0.00009357,-0.00001752,0.00001349,-0.00001190,
 0.00004092,-0.00022415,0.00016232,-0.00007837,0.00005330,-0.00014486,-
 0.00129288,0.00059052,0.00018827,0.00039865,-0.00040190,0.00018752,0.0
 0029488,-0.00023824,-0.00019262,-0.00043434,-0.00122252,0.00054931,0.0
 0049078,-0.00022681,0.00008419,-0.00008455,0.00099647,0.00168304,-0.00
 039797,-0.00033018,0.00017875,0.00002215,0.00010111,-0.00000350,0.0210
 8293,0.00569614,0.00303478,0.00008758,0.00060234,-0.00016301,0.0007307
 5,-0.00082885,-0.00044551,0.00011188,0.00019391,0.00055791,-0.00002836
 ,0.00000571,0.00002494,-0.00000070,0.00000755,0.00000108,0.00000243,0.
 00000490,-0.00000836,0.00000643,-0.00000289,0.00000075,-0.00001275,0.0
 0000598,-0.00001370,0.00000562,0.00000108,0.00000160,-0.00000007,-0.00
 000250,0.00000357,-0.00000224,-0.00000057,0.00000079,-0.00001143,-0.00
 004455,0.00001616,0.00000292,0.00000508,0.00000321,0.00000184,0.000004
 09,-0.00000314,0.00000308,0.00000973,-0.00000881,0.00020724,0.00015735
 ,0.00017846,-0.00001849,-0.00000630,-0.00001090,0.00009896,-0.00011208
 ,-0.00011774,-0.00009303,-0.00002751,-0.00001069,0.00044756,-0.0003941
 4,-0.00083035,0.00001352,0.00007100,0.00030103,-0.00020977,-0.00003170
 ,0.00024454,-0.00016751,0.00024408,0.00018763,0.02225139,-0.07073037,0
 .00321150,-0.05591022,-0.01112069,0.00285297,-0.01492273,0.07512748,0.
 00005619,0.00002759,0.00002965,0.00010996,-0.00003221,0.00002558,0.000
 20532,0.00021796,-0.00037684,0.00008310,0.00014109,0.00000127,0.000042
 69,0.00003667,0.00005301,0.00000634,0.00000521,0.00002097,-0.00004637,
 -0.00001624,0.00000449,0.00000489,-0.00000226,0.00001156,0.00003337,-0
 .00000898,0.00005209,-0.00002488,-0.00001381,0.00000013,-0.00018758,-0
 .00018160,0.00006140,-0.00074320,-0.00017506,0.00019284,-0.00008537,0.
 00004568,0.00003770,-0.00008786,-0.00001890,-0.00003351,-0.00004710,-0
 .00008235,-0.00003378,0.00004735,0.00013696,-0.00008733,0.00000715,-0.
 00001399,0.00001263,-0.00001659,0.00009646,-0.00008311,-0.00004755,-0.
 00009571,0.00021660,0.00184301,-0.00103247,-0.00063512,-0.00058031,0.0
 0068254,-0.00024803,-0.00039884,0.00038729,0.00044260,-0.00066251,0.00
 191690,-0.00018085,-0.00068548,0.00052358,-0.00011019,-0.00040757,-0.0
 0095220,-0.00433276,-0.00022653,-0.00008819,0.00089631,-0.00004073,0.0
 0002872,0.00003904,-0.02863502,0.00673158,0.00610928,-0.00039462,-0.00
 004127,-0.00003565,-0.00048782,-0.00040367,-0.00087346,-0.00128034,0.0
 0085044,-0.00028532,0.00003541,-0.00002581,-0.00006236,0.00000678,-0.0
 0000620,-0.00000167,-0.00000676,-0.00000956,0.00001533,-0.00000940,0.0
 0000567,0.00000157,0.00002314,-0.00001612,0.00002908,-0.00001004,-0.00
 000186,-0.00000444,-0.00000019,0.00000384,-0.00000414,0.00000152,0.000
 00508,-0.00000346,0.00003197,0.00006343,-0.00001333,-0.00000144,-0.000
 00745,-0.00000325,-0.00001069,-0.00000447,0.00000328,0.00000015,-0.000
 00857,0.00000700,-0.00007563,-0.00007778,-0.00016258,0.00000234,-0.000
 00996,0.00001741,0.00001141,0.00002338,0.00000487,0.00001589,0.0000196
 1,0.00000638,-0.00045096,0.00016706,0.00135676,-0.00007115,-0.00004939
 ,-0.00045501,0.00029536,0.00012787,-0.00037583,0.00016623,-0.00021130,
 -0.00032281,-0.00871326,0.00236412,-0.07710584,0.00978648,0.00335391,0
 .01213838,-0.01962229,0.00208458,0.07595642,0.00003579,0.00001364,0.00
 003043,0.00006021,-0.00002640,0.00000835,0.00011957,-0.00002119,-0.000
 01396,0.00001260,0.00008931,0.00009378,0.00002655,0.00003617,0.0000351
 4,0.00001822,-0.00001522,-0.00000286,-0.00000811,-0.00000041,-0.000004
 20,-0.00000057,0.00000001,-0.00000253,0.00000642,0.00000257,-0.0000085
 2,0.00000062,-0.00000201,-0.00000201,-0.00009988,-0.00005878,-0.000078
 49,-0.00017139,0.00000246,-0.00003190,-0.00005280,0.00003185,-0.000007
 83,-0.00006299,-0.00000831,-0.00004034,-0.00003341,-0.00005893,-0.0000
 4664,0.00006547,0.00004248,0.00003039,-0.00001737,-0.00001434,-0.00002
 288,-0.00002677,0.00003026,-0.00001385,-0.00004336,-0.00007255,-0.0000
 7443,0.00047593,-0.00045417,0.00029149,-0.00007954,0.00016874,-0.00014
 444,-0.00015403,0.00017624,-0.00003230,0.00069188,-0.00064282,-0.00024
 020,0.00002130,0.00003667,-0.00032862,-0.00236363,0.00092852,-0.000711
 17,0.00015985,-0.00040300,-0.00078816,0.00005746,-0.00003452,-0.000100
 16,0.00977528,-0.00133308,-0.00724360,0.00041610,-0.00033917,-0.002110
 29,-0.00064493,0.00160704,-0.00081151,0.00008799,-0.00006747,-0.000370
 16,0.00001634,-0.00001134,-0.00001380,0.00000026,-0.00000671,0.0000043
 3,0.00000433,0.00000122,0.00000452,-0.00000805,0.00000463,-0.00000193,
 0.00001834,-0.00001457,0.00003466,-0.00000648,-0.00000029,-0.00000322,
 0.00000160,0.00000138,-0.00000734,0.00000040,0.00000448,-0.00000184,0.
 00002190,0.00004074,-0.00000114,-0.00000249,-0.00000707,-0.00000685,-0
 .00000581,-0.00000388,0.00000246,-0.00000084,-0.00000147,0.00000536,0.
 00009465,0.00006924,0.00007941,-0.00001669,-0.00002796,0.00000099,0.00
 007640,0.00022081,0.00008294,0.00001862,-0.00000076,-0.00000315,-0.000
 47055,0.00013028,0.00038285,0.00000927,-0.00003821,-0.00025660,0.00015
 217,0.00005667,-0.00013835,0.00011376,-0.00012086,-0.00007855,-0.07757
 189,0.01627581,0.02941736,0.01245406,-0.00576020,-0.00710081,-0.037337
 28,0.02680939,0.05124201,0.09416547,0.00000781,-0.00005899,-0.00001403
 ,-0.00000938,-0.00000415,-0.00001720,-0.00002074,-0.00022138,0.0000900
 4,-0.00002964,-0.00025277,-0.00008587,0.00000680,0.00005382,0.00000846
 ,-0.00002195,0.00001931,0.00000086,0.00000864,0.00000392,0.00000114,-0
 .00000317,0.00000379,-0.00000347,-0.00001280,0.00000806,-0.00000408,0.
 00001512,-0.00000178,0.00000343,-0.00004126,0.00022860,0.00004349,0.00
 018354,0.00016132,-0.00000245,-0.00000703,0.00004026,0.00001849,-0.000
 02850,0.00002885,-0.00000632,-0.00003078,0.00002946,0.00000409,0.00037
 453,0.00023972,0.00009503,-0.00003071,0.00000156,-0.00001547,0.0000980
 5,-0.00021826,0.00011909,-0.00019797,-0.00003074,-0.00001327,-0.000444
 87,0.00006165,-0.00039962,0.00006343,-0.00003124,0.00009288,0.00015621
 ,-0.00004289,0.00013581,-0.00068496,0.00080257,-0.00002761,-0.00019635
 ,0.00019847,0.00054802,0.00253643,-0.00193677,0.00095472,0.00005780,-0
 .00064439,0.00066996,-0.00007017,0.00003927,0.00009830,0.00087833,0.00
 803907,0.00356996,-0.00071369,0.00038422,0.00159470,0.00082460,0.00058
 241,-0.00007722,-0.00003500,0.00013240,0.00026148,-0.00001335,-0.00001
 886,-0.00002051,0.00000564,0.00000680,0.00000153,-0.00000104,-0.000000
 22,0.00000111,0.00000109,0.00000167,0.00000268,0.00000358,-0.00000763,
 0.00001250,-0.00000152,0.00000016,-0.00000223,0.00000024,-0.00000020,0
 .00000037,-0.00000238,0.00000462,-0.00000262,0.00001680,0.00000062,0.0
 0001304,0.00000200,-0.00000106,-0.00000043,-0.00000819,0.00000065,-0.0
 0000138,0.00000458,0.00000706,-0.00000545,0.00026609,0.00012905,0.0000
 7501,-0.00002133,-0.00001984,0.00000245,0.00015592,-0.00000874,-0.0000
 7238,-0.00011299,-0.00001607,-0.00000860,0.00009180,-0.00038120,-0.000
 22243,-0.00000553,0.00003818,0.00002430,-0.00009651,0.00003761,0.00011
 725,-0.00007677,0.00014005,0.00002916,0.01512184,-0.10091699,-0.070898
 99,-0.00308479,-0.05875603,-0.04999828,0.02235739,0.00195161,-0.016459
 85,-0.03723490,0.15019339,0.00009622,-0.00001070,0.00002763,0.00017261
 ,-0.00004594,0.00000973,0.00037048,0.00020589,-0.00058914,0.00011853,-
 0.00001405,-0.00012947,0.00007845,0.00011310,0.00009197,-0.00001081,0.
 00003418,0.00003491,-0.00007299,-0.00002547,0.00001342,0.00000698,-0.0
 0000127,0.00002072,0.00005551,-0.00001287,0.00010212,-0.00003528,-0.00
 002827,0.00000497,-0.00039248,-0.00013086,0.00021275,-0.00114989,-0.00
 011924,0.00031208,-0.00014508,0.00010398,0.00009332,-0.00016623,-0.000
 00695,-0.00004968,-0.00010653,-0.00011147,-0.00003991,0.00047565,0.000
 52866,-0.00010597,-0.00001677,-0.00002028,0.00001518,0.00004524,0.0000
 0118,-0.00006865,-0.00027776,-0.00021640,0.00048944,0.00258632,-0.0020
 5545,-0.00077737,-0.00066270,0.00082046,-0.00021452,-0.00060513,0.0006
 7667,0.00075111,-0.00006778,0.00090354,-0.00015371,-0.00024776,0.00000
 790,-0.00056445,0.00255378,-0.00180631,-0.00080040,0.00196879,-0.00072
 665,-0.00259564,-0.00008472,-0.00000164,0.00007525,0.01085244,-0.02319
 986,-0.04524553,-0.00177041,0.00082318,-0.00142187,-0.00743087,0.00569
 146,-0.00386989,-0.00005968,-0.00025845,0.00074064,0.00004863,-0.00005
 812,-0.00013046,0.00001743,-0.00000291,-0.00000362,-0.00001612,-0.0000
 1923,0.00002838,-0.00001287,0.00000987,0.00000651,0.00003809,-0.000030
 02,0.00004990,-0.00001786,-0.00000315,-0.00000908,-0.00000079,0.000006
 70,-0.00000385,0.00000058,0.00001143,-0.00000828,0.00006810,0.00011164
 ,-0.00001534,-0.00000067,-0.00001230,-0.00000426,-0.00002541,-0.000007
 36,0.00000410,0.00000481,-0.00001059,0.00000822,0.00003226,-0.00007276
 ,-0.00031017,-0.00001151,-0.00002822,0.00003943,0.00013346,-0.00006401
 ,-0.00010615,-0.00007770,0.00002325,0.00000847,-0.00166249,0.00107385,
 0.00243304,-0.00025092,-0.00022146,-0.00135974,0.00085870,0.00031326,-
 0.00084964,0.00034890,-0.00044173,-0.00056661,0.02216747,-0.06183376,-
 0.23834189,-0.00464034,-0.03576550,-0.00292691,0.03782197,-0.01386738,
 -0.01191295,-0.06090183,0.12977041,0.30760187\\-0.00000025,0.,0.000000
 17,0.00000035,-0.00000016,0.00000223,0.00000005,-0.00000223,0.00000204
 ,0.00000070,-0.00000012,0.00000033,-0.00000032,0.00000110,-0.00000098,
 0.00000032,-0.00000133,0.00000171,0.00000068,-0.00000063,0.00000120,-0
 .00000058,0.00000199,0.00000133,0.00000031,0.00000078,-0.00000046,-0.0
 0000016,0.00000005,-0.00000066,0.00000032,-0.00000116,-0.00000039,0.00
 000280,0.00000216,0.00000245,0.00000092,0.00000143,0.00000268,-0.00000
 126,0.00000335,0.00000125,-0.00000050,0.00000147,-0.00000093,-0.000000
 28,-0.00000060,-0.00000253,-0.00000090,0.00000018,-0.00000231,0.000000
 96,-0.00000057,-0.00000156,-0.00000160,0.00000066,-0.00000219,-0.00000
 210,-0.00000179,0.00000113,0.00000122,0.00000068,0.00000319,0.00000180
 ,-0.00000093,0.00000281,0.00000035,-0.00000017,0.00000229,-0.00000015,
 -0.00000043,0.00000085,0.00000021,-0.00000171,-0.00000036,-0.00000195,
 0.00000189,-0.00000170,-0.00000024,0.00000142,0.00000106,-0.00000013,-
 0.00000161,-0.00000033,0.00000111,-0.00000224,0.00000058,0.00000046,-0
 .00000113,-0.00000048,-0.00000059,-0.00000026,-0.00000207,0.00000082,-
 0.00000137,0.00000344,0.00000119,-0.00000065,0.00000393,0.00000120,-0.
 00000100,0.00000325,0.00000152,0.00000015,0.00000403,0.00000014,0.0000
 0120,0.00000150,-0.00000062,0.00000292,0.00000134,-0.00000094,0.000003
 44,0.00000098,-0.00000041,0.00000286,0.00000232,-0.00000148,0.00000234
 ,-0.00000207,-0.00000147,0.00000259,-0.00000242,-0.00000117,0.00000185
 ,-0.00000169,-0.00000134,0.00000104,-0.00000290,0.00000096,-0.00000261
 ,-0.00000327,0.00000037,-0.00000259,-0.00000272,0.00000032,-0.00000185
 ,-0.00000209,-0.00000007,-0.00000161,-0.00000167,-0.00000080,0.0000020
 0,-0.00000130,-0.00000056,0.00000354,-0.00000009,-0.00000071,0.0000009
 9,-0.00000047,-0.00000068,-0.00000038,-0.00000298,-0.00000011,-0.00000
 506,-0.00000221,0.00000026,-0.00000166,-0.00000309,0.00000126,-0.00000
 264,-0.00000176,0.00000079,-0.00000361,-0.00000043\\\@


 IT'S WHAT YOU LEARN AFTER YOU KNOW IT ALL
 THAT COUNTS.
 Job cpu time:       1 days  3 hours 48 minutes 12.3 seconds.
 Elapsed time:       0 days  0 hours 55 minutes  6.4 seconds.
 File lengths (MBytes):  RWF=   2245 Int=      0 D2E=      0 Chk=     39 Scr=      1
 Normal termination of Gaussian 16 at Wed Jun  5 18:59:31 2019.
