 Entering Gaussian System, Link 0=g16
 Input=clay_new-glu_gluC6-bisCF3-sm-mpw1pbe-631gd-pcm_thf.gjf
 Output=clay_new-glu_gluC6-bisCF3-sm-mpw1pbe-631gd-pcm_thf.out
 Initial command:
 /home/ekwan/sw/g16/l1.exe "/scratch/users/ekwan/clay_new-glu_gluC6-bisCF3-sm-mpw1pbe-631gd-pcm_thf/Gau-5811.inp" -scrdir="/scratch/users/ekwan/clay_new-glu_gluC6-bisCF3-sm-mpw1pbe-631gd-pcm_thf/"
 Entering Link 1 = /home/ekwan/sw/g16/l1.exe PID=      5812.
  
 Copyright (c) 1988,1990,1992,1993,1995,1998,2003,2009,2016,
            Gaussian, Inc.  All Rights Reserved.
  
 This is part of the Gaussian(R) 16 program.  It is based on
 the Gaussian(R) 09 system (copyright 2009, Gaussian, Inc.),
 the Gaussian(R) 03 system (copyright 2003, Gaussian, Inc.),
 the Gaussian(R) 98 system (copyright 1998, Gaussian, Inc.),
 the Gaussian(R) 94 system (copyright 1995, Gaussian, Inc.),
 the Gaussian 92(TM) system (copyright 1992, Gaussian, Inc.),
 the Gaussian 90(TM) system (copyright 1990, Gaussian, Inc.),
 the Gaussian 88(TM) system (copyright 1988, Gaussian, Inc.),
 the Gaussian 86(TM) system (copyright 1986, Carnegie Mellon
 University), and the Gaussian 82(TM) system (copyright 1983,
 Carnegie Mellon University). Gaussian is a federally registered
 trademark of Gaussian, Inc.
  
 This software contains proprietary and confidential information,
 including trade secrets, belonging to Gaussian, Inc.
  
 This software is provided under written license and may be
 used, copied, transmitted, or stored only in accord with that
 written license.
  
 The following legend is applicable only to US Government
 contracts under FAR:
  
                    RESTRICTED RIGHTS LEGEND
  
 Use, reproduction and disclosure by the US Government is
 subject to restrictions as set forth in subparagraphs (a)
 and (c) of the Commercial Computer Software - Restricted
 Rights clause in FAR 52.227-19.
  
 Gaussian, Inc.
 340 Quinnipiac St., Bldg. 40, Wallingford CT 06492
  
  
 ---------------------------------------------------------------
 Warning -- This program may not be used in any manner that
 competes with the business of Gaussian, Inc. or will provide
 assistance to any competitor of Gaussian, Inc.  The licensee
 of this program is prohibited from giving any competitor of
 Gaussian, Inc. access to this program.  By using this program,
 the user acknowledges that Gaussian, Inc. is engaged in the
 business of creating and licensing software in the field of
 computational chemistry and represents and warrants to the
 licensee that it is not a competitor of Gaussian, Inc. and that
 it will not use this program in any manner prohibited above.
 ---------------------------------------------------------------
  

 Cite this work as:
 Gaussian 16, Revision A.03,
 M. J. Frisch, G. W. Trucks, H. B. Schlegel, G. E. Scuseria, 
 M. A. Robb, J. R. Cheeseman, G. Scalmani, V. Barone, 
 G. A. Petersson, H. Nakatsuji, X. Li, M. Caricato, A. V. Marenich, 
 J. Bloino, B. G. Janesko, R. Gomperts, B. Mennucci, H. P. Hratchian, 
 J. V. Ortiz, A. F. Izmaylov, J. L. Sonnenberg, D. Williams-Young, 
 F. Ding, F. Lipparini, F. Egidi, J. Goings, B. Peng, A. Petrone, 
 T. Henderson, D. Ranasinghe, V. G. Zakrzewski, J. Gao, N. Rega, 
 G. Zheng, W. Liang, M. Hada, M. Ehara, K. Toyota, R. Fukuda, 
 J. Hasegawa, M. Ishida, T. Nakajima, Y. Honda, O. Kitao, H. Nakai, 
 T. Vreven, K. Throssell, J. A. Montgomery, Jr., J. E. Peralta, 
 F. Ogliaro, M. J. Bearpark, J. J. Heyd, E. N. Brothers, K. N. Kudin, 
 V. N. Staroverov, T. A. Keith, R. Kobayashi, J. Normand, 
 K. Raghavachari, A. P. Rendell, J. C. Burant, S. S. Iyengar, 
 J. Tomasi, M. Cossi, J. M. Millam, M. Klene, C. Adamo, R. Cammi, 
 J. W. Ochterski, R. L. Martin, K. Morokuma, O. Farkas, 
 J. B. Foresman, and D. J. Fox, Gaussian, Inc., Wallingford CT, 2016.
 
 ******************************************
 Gaussian 16:  AS64L-G16RevA.03 25-Dec-2016
                 5-Jun-2019 
 ******************************************
 %nprocshared=32
 Will use up to   32 processors via shared memory.
 %mem=48GB
 ----------------------------------------------------------------------
 #p opt freq=noraman pop=none 6-31g* scrf=(pcm,solvent=tetrahydrofuran)
  mpw1pbe
 ----------------------------------------------------------------------
 1/18=20,19=15,26=3,38=1/1,3;
 2/9=110,12=2,17=6,18=5,40=1/2;
 3/5=1,6=6,7=1,11=2,25=1,30=1,70=2201,71=1,72=20,74=-11/1,2,3;
 4//1;
 5/5=2,38=5,53=20/2;
 7//1,2,3,16;
 1/18=20,19=15,26=3/3(2);
 2/9=110/2;
 99//99;
 2/9=110/2;
 3/5=1,6=6,7=1,11=2,25=1,30=1,70=2205,71=1,72=20,74=-11/1,2,3;
 4/5=5,16=3,69=1/1;
 5/5=2,38=5,53=20/2;
 7//1,2,3,16;
 1/18=20,19=15,26=3/3(-5);
 2/9=110/2;
 99/9=1/99;
 Leave Link    1 at Wed Jun  5 18:17:12 2019, MaxMem=  6442450944 cpu:               3.8 elap:               0.1
 (Enter /home/ekwan/sw/g16/l101.exe)
 -----
 title
 -----
 Symbolic Z-matrix:
 Charge =  0 Multiplicity = 1
 6                     3.51369  -0.22654   0.71393 
 6                     3.34121  -0.49001  -0.77971 
 6                     1.86791  -0.37273  -1.19234 
 6                     1.3642    1.09207   0.61484 
 6                     2.81339   1.07291   1.10055 
 1                     1.74468  -0.42758  -2.27422 
 1                     3.87285   0.30581  -1.3254 
 1                     3.05959  -1.05048   1.28184 
 1                     0.80048   0.32153   1.15886 
 1                     3.34523   1.91339   0.63643 
 8                     1.29173   0.81678  -0.7919 
 8                     1.18901  -1.51107  -0.60301 
 8                     3.88404  -1.74373  -1.08852 
 8                     4.87897  -0.09724   1.04202 
 8                     2.78907   1.21243   2.50421 
 6                     0.68167   2.42664   0.87515 
 1                     0.57733   2.52652   1.9588 
 1                    -0.32314   2.40957   0.43144 
 8                     1.40115   3.55449   0.43894 
 16                   -0.09931  -2.13932  -1.3556 
 8                    -0.19193  -3.49487  -0.85349 
 8                     0.00829  -1.86217  -2.77909 
 6                    -1.46472  -1.20574  -0.70528 
 6                    -2.11803  -1.67233   0.42898 
 6                    -1.84972  -0.03407  -1.34646 
 6                    -3.18465  -0.93476   0.93343 
 1                    -1.80356  -2.59617   0.90047 
 6                    -2.91146   0.69289  -0.81958 
 1                    -1.33604   0.29978  -2.23982 
 6                    -3.58113   0.24779   0.3168 
 1                    -4.41094   0.81833   0.71743 
 6                     4.20774  -1.923    -2.45279 
 1                     3.31554  -1.97041  -3.08988 
 1                     4.86231  -1.11923  -2.81537 
 1                     4.73648  -2.87462  -2.52625 
 6                     5.46856  -1.26573   1.57632 
 1                     6.50779  -1.01607   1.80142 
 1                     4.96905  -1.5729    2.50517 
 1                     5.44093  -2.09524   0.86305 
 6                     3.68619   2.18382   3.00563 
 1                     3.56379   2.19287   4.09099 
 1                     4.7234    1.93254   2.76042 
 1                     3.4517    3.18109   2.61139 
 6                     1.21216   3.88787  -0.92142 
 1                     1.65772   4.87435  -1.06843 
 1                     0.1432    3.93953  -1.17007 
 1                     1.69321   3.17111  -1.59511 
 6                    -3.95102  -1.45273   2.12092 
 9                    -3.16578  -2.16603   2.93941 
 9                    -4.9584   -2.25321   1.73775 
 9                    -4.48761  -0.45273   2.83402 
 6                    -3.29873   2.00192  -1.45154 
 9                    -2.6084    3.02386  -0.90912 
 9                    -4.59874   2.2711   -1.278 
 9                    -3.04649   2.01022  -2.76644 
 
 ITRead=  0  0  0  0  0  0  0  0  0  0  0  0  0  0  0  0  0  0  0  0
 ITRead=  0  0  0  0  0  0  0  0  0  0  0  0  0  0  0  0  0  0  0  0
 ITRead=  0  0  0  0  0  0  0  0  0  0  0  0  0  0  0
 MicOpt= -1 -1 -1 -1 -1 -1 -1 -1 -1 -1 -1 -1 -1 -1 -1 -1 -1 -1 -1 -1
 MicOpt= -1 -1 -1 -1 -1 -1 -1 -1 -1 -1 -1 -1 -1 -1 -1 -1 -1 -1 -1 -1
 MicOpt= -1 -1 -1 -1 -1 -1 -1 -1 -1 -1 -1 -1 -1 -1 -1
 NAtoms=     55 NQM=       55 NQMF=       0 NMMI=      0 NMMIF=      0
                NMic=       0 NMicF=      0.
                    Isotopes and Nuclear Properties:
 (Nuclear quadrupole moments (NQMom) in fm**2, nuclear magnetic moments (NMagM)
  in nuclear magnetons)

  Atom         1           2           3           4           5           6           7           8           9          10
 IAtWgt=          12          12          12          12          12           1           1           1           1           1
 AtmWgt=  12.0000000  12.0000000  12.0000000  12.0000000  12.0000000   1.0078250   1.0078250   1.0078250   1.0078250   1.0078250
 NucSpn=           0           0           0           0           0           1           1           1           1           1
 AtZEff=   0.0000000   0.0000000   0.0000000   0.0000000   0.0000000   0.0000000   0.0000000   0.0000000   0.0000000   0.0000000
 NQMom=    0.0000000   0.0000000   0.0000000   0.0000000   0.0000000   0.0000000   0.0000000   0.0000000   0.0000000   0.0000000
 NMagM=    0.0000000   0.0000000   0.0000000   0.0000000   0.0000000   2.7928460   2.7928460   2.7928460   2.7928460   2.7928460
 AtZNuc=   6.0000000   6.0000000   6.0000000   6.0000000   6.0000000   1.0000000   1.0000000   1.0000000   1.0000000   1.0000000

  Atom        11          12          13          14          15          16          17          18          19          20
 IAtWgt=          16          16          16          16          16          12           1           1          16          32
 AtmWgt=  15.9949146  15.9949146  15.9949146  15.9949146  15.9949146  12.0000000   1.0078250   1.0078250  15.9949146  31.9720718
 NucSpn=           0           0           0           0           0           0           1           1           0           0
 AtZEff=   0.0000000   0.0000000   0.0000000   0.0000000   0.0000000   0.0000000   0.0000000   0.0000000   0.0000000   0.0000000
 NQMom=    0.0000000   0.0000000   0.0000000   0.0000000   0.0000000   0.0000000   0.0000000   0.0000000   0.0000000   0.0000000
 NMagM=    0.0000000   0.0000000   0.0000000   0.0000000   0.0000000   0.0000000   2.7928460   2.7928460   0.0000000   0.0000000
 AtZNuc=   8.0000000   8.0000000   8.0000000   8.0000000   8.0000000   6.0000000   1.0000000   1.0000000   8.0000000  16.0000000

  Atom        21          22          23          24          25          26          27          28          29          30
 IAtWgt=          16          16          12          12          12          12           1          12           1          12
 AtmWgt=  15.9949146  15.9949146  12.0000000  12.0000000  12.0000000  12.0000000   1.0078250  12.0000000   1.0078250  12.0000000
 NucSpn=           0           0           0           0           0           0           1           0           1           0
 AtZEff=   0.0000000   0.0000000   0.0000000   0.0000000   0.0000000   0.0000000   0.0000000   0.0000000   0.0000000   0.0000000
 NQMom=    0.0000000   0.0000000   0.0000000   0.0000000   0.0000000   0.0000000   0.0000000   0.0000000   0.0000000   0.0000000
 NMagM=    0.0000000   0.0000000   0.0000000   0.0000000   0.0000000   0.0000000   2.7928460   0.0000000   2.7928460   0.0000000
 AtZNuc=   8.0000000   8.0000000   6.0000000   6.0000000   6.0000000   6.0000000   1.0000000   6.0000000   1.0000000   6.0000000

  Atom        31          32          33          34          35          36          37          38          39          40
 IAtWgt=           1          12           1           1           1          12           1           1           1          12
 AtmWgt=   1.0078250  12.0000000   1.0078250   1.0078250   1.0078250  12.0000000   1.0078250   1.0078250   1.0078250  12.0000000
 NucSpn=           1           0           1           1           1           0           1           1           1           0
 AtZEff=   0.0000000   0.0000000   0.0000000   0.0000000   0.0000000   0.0000000   0.0000000   0.0000000   0.0000000   0.0000000
 NQMom=    0.0000000   0.0000000   0.0000000   0.0000000   0.0000000   0.0000000   0.0000000   0.0000000   0.0000000   0.0000000
 NMagM=    2.7928460   0.0000000   2.7928460   2.7928460   2.7928460   0.0000000   2.7928460   2.7928460   2.7928460   0.0000000
 AtZNuc=   1.0000000   6.0000000   1.0000000   1.0000000   1.0000000   6.0000000   1.0000000   1.0000000   1.0000000   6.0000000

  Atom        41          42          43          44          45          46          47          48          49          50
 IAtWgt=           1           1           1          12           1           1           1          12          19          19
 AtmWgt=   1.0078250   1.0078250   1.0078250  12.0000000   1.0078250   1.0078250   1.0078250  12.0000000  18.9984033  18.9984033
 NucSpn=           1           1           1           0           1           1           1           0           1           1
 AtZEff=   0.0000000   0.0000000   0.0000000   0.0000000   0.0000000   0.0000000   0.0000000   0.0000000   0.0000000   0.0000000
 NQMom=    0.0000000   0.0000000   0.0000000   0.0000000   0.0000000   0.0000000   0.0000000   0.0000000   0.0000000   0.0000000
 NMagM=    2.7928460   2.7928460   2.7928460   0.0000000   2.7928460   2.7928460   2.7928460   0.0000000   2.6288670   2.6288670
 AtZNuc=   1.0000000   1.0000000   1.0000000   6.0000000   1.0000000   1.0000000   1.0000000   6.0000000   9.0000000   9.0000000

  Atom        51          52          53          54          55
 IAtWgt=          19          12          19          19          19
 AtmWgt=  18.9984033  12.0000000  18.9984033  18.9984033  18.9984033
 NucSpn=           1           0           1           1           1
 AtZEff=   0.0000000   0.0000000   0.0000000   0.0000000   0.0000000
 NQMom=    0.0000000   0.0000000   0.0000000   0.0000000   0.0000000
 NMagM=    2.6288670   0.0000000   2.6288670   2.6288670   2.6288670
 AtZNuc=   9.0000000   6.0000000   9.0000000   9.0000000   9.0000000
 Leave Link  101 at Wed Jun  5 18:17:13 2019, MaxMem=  6442450944 cpu:              17.2 elap:               0.6
 (Enter /home/ekwan/sw/g16/l103.exe)

 GradGradGradGradGradGradGradGradGradGradGradGradGradGradGradGradGradGrad
 Berny optimization.
 Initialization pass.
                           ----------------------------
                           !    Initial Parameters    !
                           ! (Angstroms and Degrees)  !
 --------------------------                            --------------------------
 ! Name  Definition              Value          Derivative Info.                !
 --------------------------------------------------------------------------------
 ! R1    R(1,2)                  1.5265         estimate D2E/DX2                !
 ! R2    R(1,5)                  1.5259         estimate D2E/DX2                !
 ! R3    R(1,8)                  1.0989         estimate D2E/DX2                !
 ! R4    R(1,14)                 1.4101         estimate D2E/DX2                !
 ! R5    R(2,3)                  1.5345         estimate D2E/DX2                !
 ! R6    R(2,7)                  1.1017         estimate D2E/DX2                !
 ! R7    R(2,13)                 1.4007         estimate D2E/DX2                !
 ! R8    R(3,6)                  1.0903         estimate D2E/DX2                !
 ! R9    R(3,11)                 1.381          estimate D2E/DX2                !
 ! R10   R(3,12)                 1.4505         estimate D2E/DX2                !
 ! R11   R(4,5)                  1.5285         estimate D2E/DX2                !
 ! R12   R(4,9)                  1.0989         estimate D2E/DX2                !
 ! R13   R(4,11)                 1.4353         estimate D2E/DX2                !
 ! R14   R(4,16)                 1.5214         estimate D2E/DX2                !
 ! R15   R(5,10)                 1.0976         estimate D2E/DX2                !
 ! R16   R(5,15)                 1.4108         estimate D2E/DX2                !
 ! R17   R(12,20)                1.6189         estimate D2E/DX2                !
 ! R18   R(13,32)                1.4136         estimate D2E/DX2                !
 ! R19   R(14,36)                1.4137         estimate D2E/DX2                !
 ! R20   R(15,40)                1.4142         estimate D2E/DX2                !
 ! R21   R(16,17)                1.0932         estimate D2E/DX2                !
 ! R22   R(16,18)                1.0986         estimate D2E/DX2                !
 ! R23   R(16,19)                1.4071         estimate D2E/DX2                !
 ! R24   R(19,44)                1.4133         estimate D2E/DX2                !
 ! R25   R(20,21)                1.4485         estimate D2E/DX2                !
 ! R26   R(20,22)                1.4542         estimate D2E/DX2                !
 ! R27   R(20,23)                1.7773         estimate D2E/DX2                !
 ! R28   R(23,24)                1.3896         estimate D2E/DX2                !
 ! R29   R(23,25)                1.39           estimate D2E/DX2                !
 ! R30   R(24,26)                1.3915         estimate D2E/DX2                !
 ! R31   R(24,27)                1.0838         estimate D2E/DX2                !
 ! R32   R(25,28)                1.3905         estimate D2E/DX2                !
 ! R33   R(25,29)                1.0832         estimate D2E/DX2                !
 ! R34   R(26,30)                1.3913         estimate D2E/DX2                !
 ! R35   R(26,48)                1.5052         estimate D2E/DX2                !
 ! R36   R(28,30)                1.3921         estimate D2E/DX2                !
 ! R37   R(28,52)                1.5043         estimate D2E/DX2                !
 ! R38   R(30,31)                1.0838         estimate D2E/DX2                !
 ! R39   R(32,33)                1.0973         estimate D2E/DX2                !
 ! R40   R(32,34)                1.0982         estimate D2E/DX2                !
 ! R41   R(32,35)                1.0911         estimate D2E/DX2                !
 ! R42   R(36,37)                1.0923         estimate D2E/DX2                !
 ! R43   R(36,38)                1.0985         estimate D2E/DX2                !
 ! R44   R(36,39)                1.0943         estimate D2E/DX2                !
 ! R45   R(40,41)                1.0923         estimate D2E/DX2                !
 ! R46   R(40,42)                1.095          estimate D2E/DX2                !
 ! R47   R(40,43)                1.0977         estimate D2E/DX2                !
 ! R48   R(44,45)                1.0924         estimate D2E/DX2                !
 ! R49   R(44,46)                1.0987         estimate D2E/DX2                !
 ! R50   R(44,47)                1.095          estimate D2E/DX2                !
 ! R51   R(48,49)                1.3399         estimate D2E/DX2                !
 ! R52   R(48,50)                1.3425         estimate D2E/DX2                !
 ! R53   R(48,51)                1.3403         estimate D2E/DX2                !
 ! R54   R(52,53)                1.3473         estimate D2E/DX2                !
 ! R55   R(52,54)                1.3389         estimate D2E/DX2                !
 ! R56   R(52,55)                1.3389         estimate D2E/DX2                !
 ! A1    A(2,1,5)              110.0628         estimate D2E/DX2                !
 ! A2    A(2,1,8)              109.243          estimate D2E/DX2                !
 ! A3    A(2,1,14)             110.6645         estimate D2E/DX2                !
 ! A4    A(5,1,8)              108.5371         estimate D2E/DX2                !
 ! A5    A(5,1,14)             107.8972         estimate D2E/DX2                !
 ! A6    A(8,1,14)             110.4012         estimate D2E/DX2                !
 ! A7    A(1,2,3)              111.0026         estimate D2E/DX2                !
 ! A8    A(1,2,7)              107.7856         estimate D2E/DX2                !
 ! A9    A(1,2,13)             109.0528         estimate D2E/DX2                !
 ! A10   A(3,2,7)              105.9576         estimate D2E/DX2                !
 ! A11   A(3,2,13)             112.4098         estimate D2E/DX2                !
 ! A12   A(7,2,13)             110.5086         estimate D2E/DX2                !
 ! A13   A(2,3,6)              111.8089         estimate D2E/DX2                !
 ! A14   A(2,3,11)             112.8569         estimate D2E/DX2                !
 ! A15   A(2,3,12)             106.2689         estimate D2E/DX2                !
 ! A16   A(6,3,11)             106.4933         estimate D2E/DX2                !
 ! A17   A(6,3,12)             108.1064         estimate D2E/DX2                !
 ! A18   A(11,3,12)            111.2765         estimate D2E/DX2                !
 ! A19   A(5,4,9)              108.6795         estimate D2E/DX2                !
 ! A20   A(5,4,11)             110.9112         estimate D2E/DX2                !
 ! A21   A(5,4,16)             112.4545         estimate D2E/DX2                !
 ! A22   A(9,4,11)             108.956          estimate D2E/DX2                !
 ! A23   A(9,4,16)             107.4731         estimate D2E/DX2                !
 ! A24   A(11,4,16)            108.258          estimate D2E/DX2                !
 ! A25   A(1,5,4)              111.424          estimate D2E/DX2                !
 ! A26   A(1,5,10)             108.8192         estimate D2E/DX2                !
 ! A27   A(1,5,15)             110.1342         estimate D2E/DX2                !
 ! A28   A(4,5,10)             108.3874         estimate D2E/DX2                !
 ! A29   A(4,5,15)             107.3721         estimate D2E/DX2                !
 ! A30   A(10,5,15)            110.6923         estimate D2E/DX2                !
 ! A31   A(3,11,4)             115.3618         estimate D2E/DX2                !
 ! A32   A(3,12,20)            119.2185         estimate D2E/DX2                !
 ! A33   A(2,13,32)            114.5229         estimate D2E/DX2                !
 ! A34   A(1,14,36)            114.5796         estimate D2E/DX2                !
 ! A35   A(5,15,40)            114.1909         estimate D2E/DX2                !
 ! A36   A(4,16,17)            107.0114         estimate D2E/DX2                !
 ! A37   A(4,16,18)            109.1225         estimate D2E/DX2                !
 ! A38   A(4,16,19)            114.8774         estimate D2E/DX2                !
 ! A39   A(17,16,18)           108.3298         estimate D2E/DX2                !
 ! A40   A(17,16,19)           106.4311         estimate D2E/DX2                !
 ! A41   A(18,16,19)           110.7887         estimate D2E/DX2                !
 ! A42   A(16,19,44)           114.7774         estimate D2E/DX2                !
 ! A43   A(12,20,21)           104.6493         estimate D2E/DX2                !
 ! A44   A(12,20,22)           108.7965         estimate D2E/DX2                !
 ! A45   A(12,20,23)           103.7342         estimate D2E/DX2                !
 ! A46   A(21,20,22)           121.4938         estimate D2E/DX2                !
 ! A47   A(21,20,23)           108.3973         estimate D2E/DX2                !
 ! A48   A(22,20,23)           108.3555         estimate D2E/DX2                !
 ! A49   A(20,23,24)           118.9121         estimate D2E/DX2                !
 ! A50   A(20,23,25)           119.1281         estimate D2E/DX2                !
 ! A51   A(24,23,25)           121.9596         estimate D2E/DX2                !
 ! A52   A(23,24,26)           118.5748         estimate D2E/DX2                !
 ! A53   A(23,24,27)           120.323          estimate D2E/DX2                !
 ! A54   A(26,24,27)           121.1001         estimate D2E/DX2                !
 ! A55   A(23,25,28)           118.5158         estimate D2E/DX2                !
 ! A56   A(23,25,29)           120.588          estimate D2E/DX2                !
 ! A57   A(28,25,29)           120.8952         estimate D2E/DX2                !
 ! A58   A(24,26,30)           120.5503         estimate D2E/DX2                !
 ! A59   A(24,26,48)           119.5957         estimate D2E/DX2                !
 ! A60   A(30,26,48)           119.8026         estimate D2E/DX2                !
 ! A61   A(25,28,30)           120.6293         estimate D2E/DX2                !
 ! A62   A(25,28,52)           119.4953         estimate D2E/DX2                !
 ! A63   A(30,28,52)           119.8229         estimate D2E/DX2                !
 ! A64   A(26,30,28)           119.7652         estimate D2E/DX2                !
 ! A65   A(26,30,31)           120.118          estimate D2E/DX2                !
 ! A66   A(28,30,31)           120.1163         estimate D2E/DX2                !
 ! A67   A(13,32,33)           112.3105         estimate D2E/DX2                !
 ! A68   A(13,32,34)           111.2432         estimate D2E/DX2                !
 ! A69   A(13,32,35)           106.6516         estimate D2E/DX2                !
 ! A70   A(33,32,34)           108.9393         estimate D2E/DX2                !
 ! A71   A(33,32,35)           108.4954         estimate D2E/DX2                !
 ! A72   A(34,32,35)           109.1033         estimate D2E/DX2                !
 ! A73   A(14,36,37)           106.6053         estimate D2E/DX2                !
 ! A74   A(14,36,38)           111.1662         estimate D2E/DX2                !
 ! A75   A(14,36,39)           111.695          estimate D2E/DX2                !
 ! A76   A(37,36,38)           108.8025         estimate D2E/DX2                !
 ! A77   A(37,36,39)           109.3663         estimate D2E/DX2                !
 ! A78   A(38,36,39)           109.1289         estimate D2E/DX2                !
 ! A79   A(15,40,41)           106.674          estimate D2E/DX2                !
 ! A80   A(15,40,42)           111.3377         estimate D2E/DX2                !
 ! A81   A(15,40,43)           111.1735         estimate D2E/DX2                !
 ! A82   A(41,40,42)           109.3027         estimate D2E/DX2                !
 ! A83   A(41,40,43)           108.9906         estimate D2E/DX2                !
 ! A84   A(42,40,43)           109.2926         estimate D2E/DX2                !
 ! A85   A(19,44,45)           106.7393         estimate D2E/DX2                !
 ! A86   A(19,44,46)           111.0399         estimate D2E/DX2                !
 ! A87   A(19,44,47)           112.2744         estimate D2E/DX2                !
 ! A88   A(45,44,46)           108.8999         estimate D2E/DX2                !
 ! A89   A(45,44,47)           109.2168         estimate D2E/DX2                !
 ! A90   A(46,44,47)           108.6002         estimate D2E/DX2                !
 ! A91   A(26,48,49)           111.5136         estimate D2E/DX2                !
 ! A92   A(26,48,50)           111.2264         estimate D2E/DX2                !
 ! A93   A(26,48,51)           111.5198         estimate D2E/DX2                !
 ! A94   A(49,48,50)           107.2577         estimate D2E/DX2                !
 ! A95   A(49,48,51)           107.8664         estimate D2E/DX2                !
 ! A96   A(50,48,51)           107.2358         estimate D2E/DX2                !
 ! A97   A(28,52,53)           111.0398         estimate D2E/DX2                !
 ! A98   A(28,52,54)           111.7444         estimate D2E/DX2                !
 ! A99   A(28,52,55)           111.6827         estimate D2E/DX2                !
 ! A100  A(53,52,54)           107.0274         estimate D2E/DX2                !
 ! A101  A(53,52,55)           107.107          estimate D2E/DX2                !
 ! A102  A(54,52,55)           107.9973         estimate D2E/DX2                !
 ! D1    D(5,1,2,3)            -50.2664         estimate D2E/DX2                !
 ! D2    D(5,1,2,7)             65.3553         estimate D2E/DX2                !
 ! D3    D(5,1,2,13)          -174.6419         estimate D2E/DX2                !
 ! D4    D(8,1,2,3)             68.8099         estimate D2E/DX2                !
 ! D5    D(8,1,2,7)           -175.5684         estimate D2E/DX2                !
 ! D6    D(8,1,2,13)           -55.5656         estimate D2E/DX2                !
 ! D7    D(14,1,2,3)          -169.4365         estimate D2E/DX2                !
 ! D8    D(14,1,2,7)           -53.8148         estimate D2E/DX2                !
 ! D9    D(14,1,2,13)           66.1881         estimate D2E/DX2                !
 ! D10   D(2,1,5,4)             51.7626         estimate D2E/DX2                !
 ! D11   D(2,1,5,10)           -67.6908         estimate D2E/DX2                !
 ! D12   D(2,1,5,15)           170.8058         estimate D2E/DX2                !
 ! D13   D(8,1,5,4)            -67.7443         estimate D2E/DX2                !
 ! D14   D(8,1,5,10)           172.8023         estimate D2E/DX2                !
 ! D15   D(8,1,5,15)            51.2989         estimate D2E/DX2                !
 ! D16   D(14,1,5,4)           172.609          estimate D2E/DX2                !
 ! D17   D(14,1,5,10)           53.1557         estimate D2E/DX2                !
 ! D18   D(14,1,5,15)          -68.3477         estimate D2E/DX2                !
 ! D19   D(2,1,14,36)          -98.617          estimate D2E/DX2                !
 ! D20   D(5,1,14,36)          140.9133         estimate D2E/DX2                !
 ! D21   D(8,1,14,36)           22.453          estimate D2E/DX2                !
 ! D22   D(1,2,3,6)            172.47           estimate D2E/DX2                !
 ! D23   D(1,2,3,11)            52.4354         estimate D2E/DX2                !
 ! D24   D(1,2,3,12)           -69.7887         estimate D2E/DX2                !
 ! D25   D(7,2,3,6)             55.7209         estimate D2E/DX2                !
 ! D26   D(7,2,3,11)           -64.3137         estimate D2E/DX2                !
 ! D27   D(7,2,3,12)           173.4621         estimate D2E/DX2                !
 ! D28   D(13,2,3,6)           -65.081          estimate D2E/DX2                !
 ! D29   D(13,2,3,11)          174.8844         estimate D2E/DX2                !
 ! D30   D(13,2,3,12)           52.6602         estimate D2E/DX2                !
 ! D31   D(1,2,13,32)         -159.3861         estimate D2E/DX2                !
 ! D32   D(3,2,13,32)           77.0702         estimate D2E/DX2                !
 ! D33   D(7,2,13,32)          -41.0782         estimate D2E/DX2                !
 ! D34   D(2,3,11,4)           -56.1544         estimate D2E/DX2                !
 ! D35   D(6,3,11,4)          -179.1982         estimate D2E/DX2                !
 ! D36   D(12,3,11,4)           63.2128         estimate D2E/DX2                !
 ! D37   D(2,3,12,20)         -149.6046         estimate D2E/DX2                !
 ! D38   D(6,3,12,20)          -29.433          estimate D2E/DX2                !
 ! D39   D(11,3,12,20)          87.1741         estimate D2E/DX2                !
 ! D40   D(9,4,5,1)             66.3857         estimate D2E/DX2                !
 ! D41   D(9,4,5,10)          -173.9049         estimate D2E/DX2                !
 ! D42   D(9,4,5,15)           -54.2912         estimate D2E/DX2                !
 ! D43   D(11,4,5,1)           -53.3672         estimate D2E/DX2                !
 ! D44   D(11,4,5,10)           66.3423         estimate D2E/DX2                !
 ! D45   D(11,4,5,15)         -174.0441         estimate D2E/DX2                !
 ! D46   D(16,4,5,1)          -174.7538         estimate D2E/DX2                !
 ! D47   D(16,4,5,10)          -55.0443         estimate D2E/DX2                !
 ! D48   D(16,4,5,15)           64.5693         estimate D2E/DX2                !
 ! D49   D(5,4,11,3)            56.4029         estimate D2E/DX2                !
 ! D50   D(9,4,11,3)           -63.1846         estimate D2E/DX2                !
 ! D51   D(16,4,11,3)         -179.7755         estimate D2E/DX2                !
 ! D52   D(5,4,16,17)          -67.7183         estimate D2E/DX2                !
 ! D53   D(5,4,16,18)          175.2708         estimate D2E/DX2                !
 ! D54   D(5,4,16,19)           50.1817         estimate D2E/DX2                !
 ! D55   D(9,4,16,17)           51.8465         estimate D2E/DX2                !
 ! D56   D(9,4,16,18)          -65.1645         estimate D2E/DX2                !
 ! D57   D(9,4,16,19)          169.7464         estimate D2E/DX2                !
 ! D58   D(11,4,16,17)         169.3924         estimate D2E/DX2                !
 ! D59   D(11,4,16,18)          52.3814         estimate D2E/DX2                !
 ! D60   D(11,4,16,19)         -72.7077         estimate D2E/DX2                !
 ! D61   D(1,5,15,40)          106.4551         estimate D2E/DX2                !
 ! D62   D(4,5,15,40)         -132.0561         estimate D2E/DX2                !
 ! D63   D(10,5,15,40)         -13.9261         estimate D2E/DX2                !
 ! D64   D(3,12,20,21)         157.7852         estimate D2E/DX2                !
 ! D65   D(3,12,20,22)          26.5351         estimate D2E/DX2                !
 ! D66   D(3,12,20,23)         -88.6554         estimate D2E/DX2                !
 ! D67   D(2,13,32,33)         -68.6817         estimate D2E/DX2                !
 ! D68   D(2,13,32,34)          53.7248         estimate D2E/DX2                !
 ! D69   D(2,13,32,35)         172.5913         estimate D2E/DX2                !
 ! D70   D(1,14,36,37)        -178.7954         estimate D2E/DX2                !
 ! D71   D(1,14,36,38)         -60.3623         estimate D2E/DX2                !
 ! D72   D(1,14,36,39)          61.7942         estimate D2E/DX2                !
 ! D73   D(5,15,40,41)         179.749          estimate D2E/DX2                !
 ! D74   D(5,15,40,42)         -61.0768         estimate D2E/DX2                !
 ! D75   D(5,15,40,43)          61.0436         estimate D2E/DX2                !
 ! D76   D(4,16,19,44)          84.8397         estimate D2E/DX2                !
 ! D77   D(17,16,19,44)       -156.9333         estimate D2E/DX2                !
 ! D78   D(18,16,19,44)        -39.374          estimate D2E/DX2                !
 ! D79   D(16,19,44,45)        168.9682         estimate D2E/DX2                !
 ! D80   D(16,19,44,46)         50.4067         estimate D2E/DX2                !
 ! D81   D(16,19,44,47)        -71.3871         estimate D2E/DX2                !
 ! D82   D(12,20,23,24)        -90.6874         estimate D2E/DX2                !
 ! D83   D(12,20,23,25)         89.4712         estimate D2E/DX2                !
 ! D84   D(21,20,23,24)         20.1465         estimate D2E/DX2                !
 ! D85   D(21,20,23,25)       -159.695          estimate D2E/DX2                !
 ! D86   D(22,20,23,24)        153.8092         estimate D2E/DX2                !
 ! D87   D(22,20,23,25)        -26.0322         estimate D2E/DX2                !
 ! D88   D(20,23,24,26)        179.8948         estimate D2E/DX2                !
 ! D89   D(20,23,24,27)         -0.6203         estimate D2E/DX2                !
 ! D90   D(25,23,24,26)         -0.2684         estimate D2E/DX2                !
 ! D91   D(25,23,24,27)        179.2165         estimate D2E/DX2                !
 ! D92   D(20,23,25,28)       -179.4044         estimate D2E/DX2                !
 ! D93   D(20,23,25,29)          0.9496         estimate D2E/DX2                !
 ! D94   D(24,23,25,28)          0.7592         estimate D2E/DX2                !
 ! D95   D(24,23,25,29)       -178.8868         estimate D2E/DX2                !
 ! D96   D(23,24,26,30)         -0.336          estimate D2E/DX2                !
 ! D97   D(23,24,26,48)        177.0525         estimate D2E/DX2                !
 ! D98   D(27,24,26,30)       -179.8167         estimate D2E/DX2                !
 ! D99   D(27,24,26,48)         -2.4282         estimate D2E/DX2                !
 ! D100  D(23,25,28,30)         -0.6544         estimate D2E/DX2                !
 ! D101  D(23,25,28,52)        176.7053         estimate D2E/DX2                !
 ! D102  D(29,25,28,30)        178.9906         estimate D2E/DX2                !
 ! D103  D(29,25,28,52)         -3.6498         estimate D2E/DX2                !
 ! D104  D(24,26,30,28)          0.4325         estimate D2E/DX2                !
 ! D105  D(24,26,30,31)       -179.8123         estimate D2E/DX2                !
 ! D106  D(48,26,30,28)       -176.9506         estimate D2E/DX2                !
 ! D107  D(48,26,30,31)          2.8047         estimate D2E/DX2                !
 ! D108  D(24,26,48,49)         31.319          estimate D2E/DX2                !
 ! D109  D(24,26,48,50)        -88.3637         estimate D2E/DX2                !
 ! D110  D(24,26,48,51)        151.9771         estimate D2E/DX2                !
 ! D111  D(30,26,48,49)       -151.2727         estimate D2E/DX2                !
 ! D112  D(30,26,48,50)         89.0445         estimate D2E/DX2                !
 ! D113  D(30,26,48,51)        -30.6146         estimate D2E/DX2                !
 ! D114  D(25,28,30,26)          0.0733         estimate D2E/DX2                !
 ! D115  D(25,28,30,31)       -179.6819         estimate D2E/DX2                !
 ! D116  D(52,28,30,26)       -177.2777         estimate D2E/DX2                !
 ! D117  D(52,28,30,31)          2.967          estimate D2E/DX2                !
 ! D118  D(25,28,52,53)        -88.6678         estimate D2E/DX2                !
 ! D119  D(25,28,52,54)        151.9126         estimate D2E/DX2                !
 ! D120  D(25,28,52,55)         30.8115         estimate D2E/DX2                !
 ! D121  D(30,28,52,53)         88.7135         estimate D2E/DX2                !
 ! D122  D(30,28,52,54)        -30.7062         estimate D2E/DX2                !
 ! D123  D(30,28,52,55)       -151.8073         estimate D2E/DX2                !
 --------------------------------------------------------------------------------
 Trust Radius=3.00D-01 FncErr=1.00D-07 GrdErr=1.00D-06 EigMax=2.50D+02 EigMin=1.00D-04
 Number of steps in this run=    291 maximum allowed number of steps=    330.
 GradGradGradGradGradGradGradGradGradGradGradGradGradGradGradGradGradGrad

 Leave Link  103 at Wed Jun  5 18:17:13 2019, MaxMem=  6442450944 cpu:               1.5 elap:               0.1
 (Enter /home/ekwan/sw/g16/l202.exe)
 Stoichiometry    C18H22F6O8S
 Framework group  C1[X(C18H22F6O8S)]
 Deg. of freedom   159
 Full point group                 C1      NOp   1
 Largest Abelian subgroup         C1      NOp   1
 Largest concise Abelian subgroup C1      NOp   1
                         Standard orientation:                         
 ---------------------------------------------------------------------
 Center     Atomic      Atomic             Coordinates (Angstroms)
 Number     Number       Type             X           Y           Z
 ---------------------------------------------------------------------
      1          6           0        3.513686   -0.226539    0.713929
      2          6           0        3.341212   -0.490010   -0.779712
      3          6           0        1.867905   -0.372731   -1.192338
      4          6           0        1.364200    1.092067    0.614841
      5          6           0        2.813390    1.072910    1.100555
      6          1           0        1.744677   -0.427578   -2.274218
      7          1           0        3.872854    0.305808   -1.325398
      8          1           0        3.059595   -1.050481    1.281839
      9          1           0        0.800475    0.321525    1.158861
     10          1           0        3.345233    1.913389    0.636432
     11          8           0        1.291727    0.816781   -0.791897
     12          8           0        1.189007   -1.511070   -0.603014
     13          8           0        3.884044   -1.743726   -1.088524
     14          8           0        4.878973   -0.097244    1.042025
     15          8           0        2.789071    1.212430    2.504205
     16          6           0        0.681674    2.426642    0.875153
     17          1           0        0.577327    2.526523    1.958795
     18          1           0       -0.323136    2.409567    0.431435
     19          8           0        1.401146    3.554489    0.438939
     20         16           0       -0.099313   -2.139324   -1.355604
     21          8           0       -0.191930   -3.494868   -0.853487
     22          8           0        0.008293   -1.862172   -2.779086
     23          6           0       -1.464722   -1.205739   -0.705277
     24          6           0       -2.118031   -1.672332    0.428984
     25          6           0       -1.849715   -0.034072   -1.346458
     26          6           0       -3.184647   -0.934763    0.933425
     27          1           0       -1.803559   -2.596170    0.900469
     28          6           0       -2.911455    0.692891   -0.819582
     29          1           0       -1.336037    0.299777   -2.239816
     30          6           0       -3.581131    0.247786    0.316798
     31          1           0       -4.410943    0.818327    0.717433
     32          6           0        4.207740   -1.922999   -2.452789
     33          1           0        3.315535   -1.970410   -3.089880
     34          1           0        4.862312   -1.119235   -2.815370
     35          1           0        4.736479   -2.874620   -2.526246
     36          6           0        5.468555   -1.265733    1.576316
     37          1           0        6.507794   -1.016072    1.801422
     38          1           0        4.969049   -1.572899    2.505165
     39          1           0        5.440925   -2.095238    0.863050
     40          6           0        3.686191    2.183821    3.005628
     41          1           0        3.563788    2.192866    4.090988
     42          1           0        4.723400    1.932541    2.760418
     43          1           0        3.451702    3.181091    2.611387
     44          6           0        1.212163    3.887872   -0.921419
     45          1           0        1.657716    4.874354   -1.068427
     46          1           0        0.143196    3.939532   -1.170069
     47          1           0        1.693210    3.171113   -1.595105
     48          6           0       -3.951023   -1.452730    2.120916
     49          9           0       -3.165783   -2.166030    2.939410
     50          9           0       -4.958403   -2.253213    1.737753
     51          9           0       -4.487607   -0.452728    2.834023
     52          6           0       -3.298728    2.001923   -1.451543
     53          9           0       -2.608401    3.023861   -0.909124
     54          9           0       -4.598740    2.271102   -1.277999
     55          9           0       -3.046491    2.010223   -2.766436
 ---------------------------------------------------------------------
 Rotational constants (GHZ):           0.1515633           0.0806752           0.0745874
 Leave Link  202 at Wed Jun  5 18:17:13 2019, MaxMem=  6442450944 cpu:               3.4 elap:               0.1
 (Enter /home/ekwan/sw/g16/l301.exe)
 Standard basis: 6-31G(d) (6D, 7F)
 Ernie: Thresh=  0.10000D-02 Tol=  0.10000D-05 Strict=F.
 There are   543 symmetry adapted cartesian basis functions of A   symmetry.
 There are   543 symmetry adapted basis functions of A   symmetry.
   543 basis functions,  1036 primitive gaussians,   543 cartesian basis functions
   132 alpha electrons      132 beta electrons
       nuclear repulsion energy      4285.8272472928 Hartrees.
 IExCor=  909 DFT=T Ex+Corr=mPW1PBE ExCW=0 ScaHFX=  0.250000
 ScaDFX=  0.750000  0.750000  1.000000  1.000000 ScalE2=  1.000000  1.000000
 IRadAn=      5 IRanWt=     -1 IRanGd=            0 ICorTp=0 IEmpDi=  4
 NAtoms=   55 NActive=   55 NUniq=   55 SFac= 1.00D+00 NAtFMM=   60 NAOKFM=F Big=F
 Integral buffers will be    131072 words long.
 Raffenetti 2 integral format.
 Two-electron integral symmetry is turned on.
 ------------------------------------------------------------------------------
 Polarizable Continuum Model (PCM)
 =================================
 Model                : PCM.
 Atomic radii         : UFF (Universal Force Field).
 Polarization charges : Total charges.
 Charge compensation  : None.
 Solution method      : On-the-fly selection.
 Cavity type          : Scaled VdW (van der Waals Surface) (Alpha=1.100).
 Cavity algorithm     : GePol (No added spheres)
                        Default sphere list used, NSphG=   55.
                        Lebedev-Laikov grids with approx.  5.0 points / Ang**2.
                        Smoothing algorithm: York/Karplus (Gamma=1.0000).
                        Polarization charges: spherical gaussians, with
                                              point-specific exponents (IZeta= 3).
                        Self-potential: point-specific (ISelfS= 7).
                        Self-field    : sphere-specific E.n sum rule (ISelfD= 2).
 1st derivatives      : Analytical E(r).r(x)/FMM algorithm (CHGder, D1EAlg=3).
                        Cavity 1st derivative terms included.
 Solvent              : TetraHydroFuran, Eps=   7.425700 Eps(inf)=   1.974025
 ------------------------------------------------------------------------------
 GePol: Number of generator spheres                  =      55
 GePol: Total number of spheres                      =      55
 GePol: Number of exposed spheres                    =      55 (100.00%)
 GePol: Number of points                             =    3994
 GePol: Average weight of points                     =       0.13
 GePol: Minimum weight of points                     =   0.29D-11
 GePol: Maximum weight of points                     =    0.20577
 GePol: Number of points with low weight             =     257
 GePol: Fraction of low-weight points (<1% of avg)   =       6.43%
 GePol: Cavity surface area                          =    505.212 Ang**2
 GePol: Cavity volume                                =    578.659 Ang**3
 Leave Link  301 at Wed Jun  5 18:17:13 2019, MaxMem=  6442450944 cpu:               7.1 elap:               0.3
 (Enter /home/ekwan/sw/g16/l302.exe)
 NPDir=0 NMtPBC=     1 NCelOv=     1 NCel=       1 NClECP=     1 NCelD=      1
         NCelK=      1 NCelE2=     1 NClLst=     1 CellRange=     0.0.
 One-electron integrals computed using PRISM.
 One-electron integral symmetry used in STVInt
 NBasis=   543 RedAO= T EigKep=  4.06D-04  NBF=   543
 NBsUse=   543 1.00D-06 EigRej= -1.00D+00 NBFU=   543
 Precomputing XC quadrature grid using
 IXCGrd= 4 IRadAn=           5 IRanWt=          -1 IRanGd=           0 AccXCQ= 0.00D+00.
 Generated NRdTot=       0 NPtTot=           0 NUsed=           0 NTot=          32
 NSgBfM=   531   530   531   531   531 MxSgAt=    55 MxSgA2=    55.
 Leave Link  302 at Wed Jun  5 18:17:20 2019, MaxMem=  6442450944 cpu:             188.8 elap:               6.8
 (Enter /home/ekwan/sw/g16/l303.exe)
 DipDrv:  MaxL=1.
 Leave Link  303 at Wed Jun  5 18:17:21 2019, MaxMem=  6442450944 cpu:               8.4 elap:               0.4
 (Enter /home/ekwan/sw/g16/l401.exe)
 ExpMin= 1.17D-01 ExpMax= 2.19D+04 ExpMxC= 3.30D+03 IAcc=3 IRadAn=         5 AccDes= 0.00D+00
 Harris functional with IExCor=  909 and IRadAn=       5 diagonalized for initial guess.
 HarFok:  IExCor=  909 AccDes= 0.00D+00 IRadAn=         5 IDoV= 1 UseB2=F ITyADJ=14
 ICtDFT=  3500011 ScaDFX=  1.000000  1.000000  1.000000  1.000000
 FoFCou: FMM=F IPFlag=           0 FMFlag=      100000 FMFlg1=           0
         NFxFlg=           0 DoJE=T BraDBF=F KetDBF=T FulRan=T
         wScrn=  0.000000 ICntrl=       500 IOpCl=  0 I1Cent=   200000004 NGrid=           0
         NMat0=    1 NMatS0=      1 NMatT0=    0 NMatD0=    1 NMtDS0=    0 NMtDT0=    0
 Petite list used in FoFCou.
 Harris En= -2297.55486690603    
 JPrj=0 DoOrth=F DoCkMO=F.
 Leave Link  401 at Wed Jun  5 18:17:30 2019, MaxMem=  6442450944 cpu:             261.9 elap:               9.5
 (Enter /home/ekwan/sw/g16/l502.exe)
 Integral symmetry usage will be decided dynamically.
 Closed shell SCF:
 Using DIIS extrapolation, IDIIS=  1040.
 NGot=  6442450944 LenX=  6441838015 LenY=  6441542623
 Requested convergence on RMS density matrix=1.00D-08 within 128 cycles.
 Requested convergence on MAX density matrix=1.00D-06.
 Requested convergence on             energy=1.00D-06.
 No special actions if energy rises.
 Fock matrices will be formed incrementally for  20 cycles.

 Cycle   1  Pass 1  IDiag  1:
 FoFJK:  IHMeth= 1 ICntrl=       0 DoSepK=F KAlg= 0 I1Cent=           0 FoldK=F
 IRaf= 680000000 NMat=       1 IRICut=       1 DoRegI=T DoRafI=F ISym2E= 0 IDoP0=0 IntGTp=1.
 FoFCou: FMM=F IPFlag=           0 FMFlag=      100000 FMFlg1=           0
         NFxFlg=           0 DoJE=F BraDBF=F KetDBF=F FulRan=T
         wScrn=  0.000000 ICntrl=         0 IOpCl=  0 I1Cent=           0 NGrid=           0
         NMat0=    1 NMatS0=      1 NMatT0=    0 NMatD0=    1 NMtDS0=    0 NMtDT0=    0
 Symmetry not used in FoFCou.
 Inv3:  Mode=1 IEnd=    47856108.
 Iteration    1 A*A^-1 deviation from unit magnitude is 5.88D-15 for   3987.
 Iteration    1 A*A^-1 deviation from orthogonality  is 4.22D-15 for   3994   2478.
 Iteration    1 A^-1*A deviation from unit magnitude is 6.11D-15 for   3987.
 Iteration    1 A^-1*A deviation from orthogonality  is 2.77D-15 for   3658   2414.
 E= -2296.33222792976    
 DIIS: error= 2.84D-02 at cycle   1 NSaved=   1.
 NSaved= 1 IEnMin= 1 EnMin= -2296.33222792976     IErMin= 1 ErrMin= 2.84D-02
 ErrMax= 2.84D-02  0.00D+00 EMaxC= 1.00D-01 BMatC= 8.29D-01 BMatP= 8.29D-01
 IDIUse=3 WtCom= 7.16D-01 WtEn= 2.84D-01
 Coeff-Com:  0.100D+01
 Coeff-En:   0.100D+01
 Coeff:      0.100D+01
 Gap=     0.172 Goal=   None    Shift=    0.000
 GapD=    0.172 DampG=1.000 DampE=0.500 DampFc=0.5000 IDamp=-1.
 Damping current iteration by 5.00D-01
 RMSDP=3.46D-03 MaxDP=5.02D-01              OVMax= 1.81D-01

 Cycle   2  Pass 1  IDiag  1:
 RMSU=  1.73D-03    CP:  9.96D-01
 E= -2296.55745149679     Delta-E=       -0.225223567028 Rises=F Damp=T
 DIIS: error= 8.37D-03 at cycle   2 NSaved=   2.
 NSaved= 2 IEnMin= 2 EnMin= -2296.55745149679     IErMin= 2 ErrMin= 8.37D-03
 ErrMax= 8.37D-03  0.00D+00 EMaxC= 1.00D-01 BMatC= 8.77D-02 BMatP= 8.29D-01
 IDIUse=3 WtCom= 9.16D-01 WtEn= 8.37D-02
 Coeff-Com:  0.148D+00 0.852D+00
 Coeff-En:   0.265D+00 0.735D+00
 Coeff:      0.158D+00 0.842D+00
 Gap=     0.219 Goal=   None    Shift=    0.000
 RMSDP=1.02D-03 MaxDP=1.23D-01 DE=-2.25D-01 OVMax= 1.47D-01

 Cycle   3  Pass 1  IDiag  1:
 RMSU=  9.08D-04    CP:  9.90D-01  7.32D-01
 E= -2296.93609827117     Delta-E=       -0.378646774375 Rises=F Damp=F
 DIIS: error= 6.92D-03 at cycle   3 NSaved=   3.
 NSaved= 3 IEnMin= 3 EnMin= -2296.93609827117     IErMin= 3 ErrMin= 6.92D-03
 ErrMax= 6.92D-03  0.00D+00 EMaxC= 1.00D-01 BMatC= 5.52D-02 BMatP= 8.77D-02
 IDIUse=3 WtCom= 9.31D-01 WtEn= 6.92D-02
 Coeff-Com:  0.893D-02 0.432D+00 0.559D+00
 Coeff-En:   0.000D+00 0.000D+00 0.100D+01
 Coeff:      0.831D-02 0.403D+00 0.589D+00
 Gap=     0.189 Goal=   None    Shift=    0.000
 RMSDP=6.03D-04 MaxDP=4.33D-02 DE=-3.79D-01 OVMax= 5.48D-02

 Cycle   4  Pass 1  IDiag  1:
 RMSU=  3.85D-04    CP:  9.93D-01  8.46D-01  5.41D-01
 E= -2296.97167494430     Delta-E=       -0.035576673132 Rises=F Damp=F
 DIIS: error= 2.94D-03 at cycle   4 NSaved=   4.
 NSaved= 4 IEnMin= 4 EnMin= -2296.97167494430     IErMin= 4 ErrMin= 2.94D-03
 ErrMax= 2.94D-03  0.00D+00 EMaxC= 1.00D-01 BMatC= 1.27D-02 BMatP= 5.52D-02
 IDIUse=3 WtCom= 9.71D-01 WtEn= 2.94D-02
 Coeff-Com: -0.174D-01 0.101D+00 0.347D+00 0.570D+00
 Coeff-En:   0.000D+00 0.000D+00 0.198D+00 0.802D+00
 Coeff:     -0.169D-01 0.978D-01 0.343D+00 0.576D+00
 Gap=     0.190 Goal=   None    Shift=    0.000
 RMSDP=2.23D-04 MaxDP=1.53D-02 DE=-3.56D-02 OVMax= 2.26D-02

 Cycle   5  Pass 1  IDiag  1:
 RMSU=  9.28D-05    CP:  9.92D-01  8.25D-01  6.70D-01  5.83D-01
 E= -2296.98149609829     Delta-E=       -0.009821153988 Rises=F Damp=F
 DIIS: error= 9.67D-04 at cycle   5 NSaved=   5.
 NSaved= 5 IEnMin= 5 EnMin= -2296.98149609829     IErMin= 5 ErrMin= 9.67D-04
 ErrMax= 9.67D-04  0.00D+00 EMaxC= 1.00D-01 BMatC= 7.77D-04 BMatP= 1.27D-02
 IDIUse=3 WtCom= 9.90D-01 WtEn= 9.67D-03
 Coeff-Com: -0.862D-02 0.253D-01 0.136D+00 0.300D+00 0.547D+00
 Coeff-En:   0.000D+00 0.000D+00 0.000D+00 0.000D+00 0.100D+01
 Coeff:     -0.854D-02 0.250D-01 0.135D+00 0.297D+00 0.552D+00
 Gap=     0.190 Goal=   None    Shift=    0.000
 RMSDP=5.36D-05 MaxDP=3.90D-03 DE=-9.82D-03 OVMax= 5.97D-03

 Cycle   6  Pass 1  IDiag  1:
 RMSU=  2.99D-05    CP:  9.92D-01  8.31D-01  6.73D-01  6.34D-01  5.85D-01
 E= -2296.98212302678     Delta-E=       -0.000626928490 Rises=F Damp=F
 DIIS: error= 2.15D-04 at cycle   6 NSaved=   6.
 NSaved= 6 IEnMin= 6 EnMin= -2296.98212302678     IErMin= 6 ErrMin= 2.15D-04
 ErrMax= 2.15D-04  0.00D+00 EMaxC= 1.00D-01 BMatC= 4.54D-05 BMatP= 7.77D-04
 IDIUse=3 WtCom= 9.98D-01 WtEn= 2.15D-03
 Coeff-Com: -0.289D-02 0.455D-02 0.366D-01 0.953D-01 0.264D+00 0.602D+00
 Coeff-En:   0.000D+00 0.000D+00 0.000D+00 0.000D+00 0.000D+00 0.100D+01
 Coeff:     -0.288D-02 0.454D-02 0.365D-01 0.951D-01 0.264D+00 0.603D+00
 Gap=     0.190 Goal=   None    Shift=    0.000
 RMSDP=1.44D-05 MaxDP=7.62D-04 DE=-6.27D-04 OVMax= 1.54D-03

 Cycle   7  Pass 1  IDiag  1:
 RMSU=  7.41D-06    CP:  9.92D-01  8.30D-01  6.73D-01  6.38D-01  6.36D-01
                    CP:  6.29D-01
 E= -2296.98216074989     Delta-E=       -0.000037723119 Rises=F Damp=F
 DIIS: error= 2.82D-05 at cycle   7 NSaved=   7.
 NSaved= 7 IEnMin= 7 EnMin= -2296.98216074989     IErMin= 7 ErrMin= 2.82D-05
 ErrMax= 2.82D-05  0.00D+00 EMaxC= 1.00D-01 BMatC= 2.06D-06 BMatP= 4.54D-05
 IDIUse=1 WtCom= 1.00D+00 WtEn= 0.00D+00
 Coeff-Com: -0.880D-03 0.600D-03 0.842D-02 0.257D-01 0.878D-01 0.264D+00
 Coeff-Com:  0.614D+00
 Coeff:     -0.880D-03 0.600D-03 0.842D-02 0.257D-01 0.878D-01 0.264D+00
 Coeff:      0.614D+00
 Gap=     0.190 Goal=   None    Shift=    0.000
 RMSDP=3.39D-06 MaxDP=2.11D-04 DE=-3.77D-05 OVMax= 4.67D-04

 Cycle   8  Pass 1  IDiag  1:
 RMSU=  2.18D-06    CP:  9.92D-01  8.30D-01  6.73D-01  6.39D-01  6.38D-01
                    CP:  6.80D-01  7.21D-01
 E= -2296.98216238024     Delta-E=       -0.000001630340 Rises=F Damp=F
 DIIS: error= 1.14D-05 at cycle   8 NSaved=   8.
 NSaved= 8 IEnMin= 8 EnMin= -2296.98216238024     IErMin= 8 ErrMin= 1.14D-05
 ErrMax= 1.14D-05  0.00D+00 EMaxC= 1.00D-01 BMatC= 2.67D-07 BMatP= 2.06D-06
 IDIUse=1 WtCom= 1.00D+00 WtEn= 0.00D+00
 Coeff-Com: -0.106D-03-0.163D-03-0.242D-03 0.120D-02 0.122D-01 0.591D-01
 Coeff-Com:  0.299D+00 0.629D+00
 Coeff:     -0.106D-03-0.163D-03-0.242D-03 0.120D-02 0.122D-01 0.591D-01
 Coeff:      0.299D+00 0.629D+00
 Gap=     0.190 Goal=   None    Shift=    0.000
 RMSDP=1.12D-06 MaxDP=7.19D-05 DE=-1.63D-06 OVMax= 8.90D-05

 Cycle   9  Pass 1  IDiag  1:
 RMSU=  7.46D-07    CP:  9.92D-01  8.30D-01  6.73D-01  6.39D-01  6.41D-01
                    CP:  6.81D-01  7.76D-01  6.98D-01
 E= -2296.98216257068     Delta-E=       -0.000000190445 Rises=F Damp=F
 DIIS: error= 6.45D-06 at cycle   9 NSaved=   9.
 NSaved= 9 IEnMin= 9 EnMin= -2296.98216257068     IErMin= 9 ErrMin= 6.45D-06
 ErrMax= 6.45D-06  0.00D+00 EMaxC= 1.00D-01 BMatC= 3.96D-08 BMatP= 2.67D-07
 IDIUse=1 WtCom= 1.00D+00 WtEn= 0.00D+00
 Coeff-Com:  0.171D-04-0.103D-03-0.869D-03-0.175D-02-0.177D-02 0.665D-02
 Coeff-Com:  0.103D+00 0.345D+00 0.550D+00
 Coeff:      0.171D-04-0.103D-03-0.869D-03-0.175D-02-0.177D-02 0.665D-02
 Coeff:      0.103D+00 0.345D+00 0.550D+00
 Gap=     0.190 Goal=   None    Shift=    0.000
 RMSDP=4.46D-07 MaxDP=3.76D-05 DE=-1.90D-07 OVMax= 4.43D-05

 Cycle  10  Pass 1  IDiag  1:
 RMSU=  2.52D-07    CP:  9.92D-01  8.30D-01  6.73D-01  6.39D-01  6.41D-01
                    CP:  6.81D-01  7.90D-01  7.65D-01  5.73D-01
 E= -2296.98216259920     Delta-E=       -0.000000028525 Rises=F Damp=F
 DIIS: error= 2.24D-06 at cycle  10 NSaved=  10.
 NSaved=10 IEnMin=10 EnMin= -2296.98216259920     IErMin=10 ErrMin= 2.24D-06
 ErrMax= 2.24D-06  0.00D+00 EMaxC= 1.00D-01 BMatC= 4.07D-09 BMatP= 3.96D-08
 IDIUse=1 WtCom= 1.00D+00 WtEn= 0.00D+00
 Coeff-Com:  0.173D-04-0.395D-04-0.456D-03-0.107D-02-0.219D-02-0.184D-02
 Coeff-Com:  0.278D-01 0.129D+00 0.306D+00 0.543D+00
 Coeff:      0.173D-04-0.395D-04-0.456D-03-0.107D-02-0.219D-02-0.184D-02
 Coeff:      0.278D-01 0.129D+00 0.306D+00 0.543D+00
 Gap=     0.190 Goal=   None    Shift=    0.000
 RMSDP=1.37D-07 MaxDP=1.09D-05 DE=-2.85D-08 OVMax= 1.60D-05

 Cycle  11  Pass 1  IDiag  1:
 RMSU=  8.89D-08    CP:  9.92D-01  8.30D-01  6.73D-01  6.39D-01  6.40D-01
                    CP:  6.81D-01  7.94D-01  7.70D-01  6.49D-01  6.85D-01
 E= -2296.98216260224     Delta-E=       -0.000000003030 Rises=F Damp=F
 DIIS: error= 5.01D-07 at cycle  11 NSaved=  11.
 NSaved=11 IEnMin=11 EnMin= -2296.98216260224     IErMin=11 ErrMin= 5.01D-07
 ErrMax= 5.01D-07  0.00D+00 EMaxC= 1.00D-01 BMatC= 4.04D-10 BMatP= 4.07D-09
 IDIUse=1 WtCom= 1.00D+00 WtEn= 0.00D+00
 Coeff-Com:  0.729D-05-0.902D-05-0.137D-03-0.354D-03-0.101D-02-0.197D-02
 Coeff-Com:  0.329D-03 0.203D-01 0.893D-01 0.286D+00 0.608D+00
 Coeff:      0.729D-05-0.902D-05-0.137D-03-0.354D-03-0.101D-02-0.197D-02
 Coeff:      0.329D-03 0.203D-01 0.893D-01 0.286D+00 0.608D+00
 Gap=     0.190 Goal=   None    Shift=    0.000
 RMSDP=4.41D-08 MaxDP=3.77D-06 DE=-3.03D-09 OVMax= 3.22D-06

 Cycle  12  Pass 1  IDiag  1:
 RMSU=  2.57D-08    CP:  9.92D-01  8.30D-01  6.73D-01  6.39D-01  6.41D-01
                    CP:  6.82D-01  7.93D-01  7.75D-01  6.59D-01  7.43D-01
                    CP:  6.82D-01
 E= -2296.98216260260     Delta-E=       -0.000000000364 Rises=F Damp=F
 DIIS: error= 1.19D-07 at cycle  12 NSaved=  12.
 NSaved=12 IEnMin=12 EnMin= -2296.98216260260     IErMin=12 ErrMin= 1.19D-07
 ErrMax= 1.19D-07  0.00D+00 EMaxC= 1.00D-01 BMatC= 2.44D-11 BMatP= 4.04D-10
 IDIUse=1 WtCom= 1.00D+00 WtEn= 0.00D+00
 Coeff-Com:  0.117D-05 0.526D-06-0.760D-05-0.286D-04-0.192D-03-0.603D-03
 Coeff-Com: -0.267D-02-0.568D-02 0.334D-02 0.546D-01 0.242D+00 0.709D+00
 Coeff:      0.117D-05 0.526D-06-0.760D-05-0.286D-04-0.192D-03-0.603D-03
 Coeff:     -0.267D-02-0.568D-02 0.334D-02 0.546D-01 0.242D+00 0.709D+00
 Gap=     0.190 Goal=   None    Shift=    0.000
 RMSDP=1.25D-08 MaxDP=6.71D-07 DE=-3.64D-10 OVMax= 1.79D-06

 Cycle  13  Pass 1  IDiag  1:
 RMSU=  8.84D-09    CP:  9.92D-01  8.30D-01  6.73D-01  6.39D-01  6.41D-01
                    CP:  6.82D-01  7.94D-01  7.75D-01  6.61D-01  7.54D-01
                    CP:  7.45D-01  8.11D-01
 E= -2296.98216260261     Delta-E=       -0.000000000014 Rises=F Damp=F
 DIIS: error= 3.76D-08 at cycle  13 NSaved=  13.
 NSaved=13 IEnMin=13 EnMin= -2296.98216260261     IErMin=13 ErrMin= 3.76D-08
 ErrMax= 3.76D-08  0.00D+00 EMaxC= 1.00D-01 BMatC= 3.17D-12 BMatP= 2.44D-11
 IDIUse=1 WtCom= 1.00D+00 WtEn= 0.00D+00
 Coeff-Com:  0.401D-07 0.696D-06 0.860D-05 0.178D-04-0.724D-07-0.787D-04
 Coeff-Com: -0.110D-02-0.423D-02-0.619D-02-0.204D-02 0.484D-01 0.318D+00
 Coeff-Com:  0.648D+00
 Coeff:      0.401D-07 0.696D-06 0.860D-05 0.178D-04-0.724D-07-0.787D-04
 Coeff:     -0.110D-02-0.423D-02-0.619D-02-0.204D-02 0.484D-01 0.318D+00
 Coeff:      0.648D+00
 Gap=     0.190 Goal=   None    Shift=    0.000
 RMSDP=3.99D-09 MaxDP=3.83D-07 DE=-1.36D-11 OVMax= 4.85D-07

 Error on total polarization charges =  0.00864
 SCF Done:  E(RmPW1PBE) =  -2296.98216260     A.U. after   13 cycles
            NFock= 13  Conv=0.40D-08     -V/T= 2.0070
 KE= 2.280953483446D+03 PE=-1.397827530190D+04 EE= 5.114512408558D+03
 Leave Link  502 at Wed Jun  5 18:21:53 2019, MaxMem=  6442450944 cpu:            7355.2 elap:             263.2
 (Enter /home/ekwan/sw/g16/l701.exe)
 ... and contract with generalized density number  0.
 Compute integral first derivatives.
 D1PCM: PCM CHGder 1st derivatives, ID1Alg=3 FixD1E=F DoIter=F DoCFld=F I1PDM=0.
 GePol: Maximum number of non-zero 1st derivatives   =     225
 Leave Link  701 at Wed Jun  5 18:22:04 2019, MaxMem=  6442450944 cpu:             289.3 elap:              10.4
 (Enter /home/ekwan/sw/g16/l702.exe)
 L702 exits ... SP integral derivatives will be done elsewhere.
 Leave Link  702 at Wed Jun  5 18:22:04 2019, MaxMem=  6442450944 cpu:               2.4 elap:               0.1
 (Enter /home/ekwan/sw/g16/l703.exe)
 Integral derivatives from FoFJK, PRISM(SPDF).
 Compute integral first derivatives, UseDBF=F ICtDFT=           0.
 Calling FoFJK, ICntrl=      2127 FMM=F ISym2X=0 I1Cent= 0 IOpClX= 0 NMat=1 NMatS=1 NMatT=0.
 FoFJK:  IHMeth= 1 ICntrl=    2127 DoSepK=F KAlg= 0 I1Cent=           0 FoldK=F
 IRaf=         0 NMat=       1 IRICut=       1 DoRegI=T DoRafI=F ISym2E= 0 IDoP0=0 IntGTp=1.
 FoFCou: FMM=F IPFlag=           0 FMFlag=      100000 FMFlg1=         800
         NFxFlg=           0 DoJE=F BraDBF=F KetDBF=F FulRan=T
         wScrn=  0.000000 ICntrl=      2127 IOpCl=  0 I1Cent=           0 NGrid=           0
         NMat0=    1 NMatS0=      1 NMatT0=    0 NMatD0=    1 NMtDS0=    0 NMtDT0=    0
 Symmetry not used in FoFCou.
 Leave Link  703 at Wed Jun  5 18:22:40 2019, MaxMem=  6442450944 cpu:            1023.5 elap:              36.6
 (Enter /home/ekwan/sw/g16/l716.exe)
 Dipole        = 3.65388557D-01 1.16999212D+00-1.26418693D-01
 ***** Axes restored to original set *****
 -------------------------------------------------------------------
 Center     Atomic                   Forces (Hartrees/Bohr)
 Number     Number              X              Y              Z
 -------------------------------------------------------------------
      1        6          -0.000003590    0.000000446   -0.000004801
      2        6          -0.000005516    0.000006868   -0.000000160
      3        6          -0.000000227   -0.000014239    0.000001757
      4        6          -0.000001171    0.000004454    0.000006491
      5        6          -0.000000047    0.000002319    0.000000443
      6        1           0.000004066    0.000002384    0.000002078
      7        1           0.000000502    0.000000195    0.000000204
      8        1           0.000000570   -0.000000291    0.000002227
      9        1          -0.000002163   -0.000001630   -0.000003662
     10        1           0.000000534   -0.000000062   -0.000000836
     11        8           0.000006498   -0.000000384    0.000000521
     12        8          -0.000007519    0.000013835   -0.000001131
     13        8           0.000007679   -0.000001331   -0.000000591
     14        8           0.000001042    0.000000504    0.000005411
     15        8           0.000004572   -0.000000259    0.000001143
     16        6           0.000001583   -0.000002902   -0.000003486
     17        1           0.000001187    0.000000507   -0.000001545
     18        1          -0.000003760    0.000000300    0.000000376
     19        8          -0.000001216   -0.000002055   -0.000004698
     20       16           0.000014246   -0.000003293    0.000002323
     21        8          -0.000003269    0.000006133   -0.000003124
     22        8          -0.000008241   -0.000004474    0.000002595
     23        6           0.000001398   -0.000006633    0.000002660
     24        6          -0.000000032    0.000000698   -0.000004395
     25        6          -0.000004698    0.000000850    0.000000353
     26        6           0.000003424   -0.000003398    0.000000528
     27        1          -0.000000647   -0.000000685    0.000002919
     28        6           0.000005422   -0.000002424   -0.000001020
     29        1           0.000001521   -0.000002593   -0.000000594
     30        6          -0.000001195   -0.000000745   -0.000001538
     31        1          -0.000000918   -0.000000394   -0.000001743
     32        6          -0.000004198    0.000001924    0.000005467
     33        1           0.000002031    0.000001375    0.000000892
     34        1           0.000002271   -0.000000153    0.000001278
     35        1           0.000000119   -0.000000902    0.000001519
     36        6          -0.000000993    0.000001471   -0.000002935
     37        1          -0.000000325    0.000002358    0.000001355
     38        1          -0.000000241    0.000001570    0.000001239
     39        1           0.000000058    0.000001746    0.000002827
     40        6          -0.000003535    0.000001233   -0.000002428
     41        1          -0.000001257    0.000001150   -0.000000228
     42        1          -0.000001247    0.000000849    0.000000100
     43        1          -0.000001097    0.000000958   -0.000000009
     44        6           0.000000567   -0.000000080    0.000003093
     45        1          -0.000002123    0.000000920   -0.000000669
     46        1           0.000000251   -0.000001210   -0.000001767
     47        1           0.000000275    0.000000785   -0.000000486
     48        6           0.000002469   -0.000003451    0.000005723
     49        9          -0.000004121    0.000003809   -0.000005248
     50        9           0.000000614    0.000002509   -0.000000909
     51        9           0.000002344   -0.000002893   -0.000002405
     52        6          -0.000011087   -0.000001259   -0.000014308
     53        9           0.000001607    0.000000723    0.000002713
     54        9           0.000008657   -0.000003824   -0.000002859
     55        9          -0.000001071   -0.000001307    0.000009339
 -------------------------------------------------------------------
 Cartesian Forces:  Max     0.000014308 RMS     0.000003724
 Leave Link  716 at Wed Jun  5 18:22:41 2019, MaxMem=  6442450944 cpu:               2.7 elap:               0.1
 (Enter /home/ekwan/sw/g16/l103.exe)

 GradGradGradGradGradGradGradGradGradGradGradGradGradGradGradGradGradGrad
 Berny optimization.
 FormGI is forming the generalized inverse of G from B-inverse, IUseBI=4.
 Internal  Forces:  Max     0.000022891 RMS     0.000002653
 Search for a local minimum.
 Step number   1 out of a maximum of  291
 All quantities printed in internal units (Hartrees-Bohrs-Radians)
 RMS Force = .26530D-05 SwitMx=.10000D-02 MixMth= 2
 Mixed Optimization -- En-DIIS/RFO-DIIS
 Second derivative matrix not updated -- first step.
 ITU=  0
     Eigenvalues ---    0.00483   0.00614   0.00670   0.00670   0.00697
     Eigenvalues ---    0.00709   0.01023   0.01421   0.01504   0.01511
     Eigenvalues ---    0.01512   0.01516   0.01549   0.01558   0.01574
     Eigenvalues ---    0.01598   0.01636   0.01642   0.01683   0.02198
     Eigenvalues ---    0.02201   0.02208   0.02214   0.02218   0.02222
     Eigenvalues ---    0.02369   0.02931   0.03348   0.04439   0.04610
     Eigenvalues ---    0.04692   0.04861   0.04935   0.05264   0.05291
     Eigenvalues ---    0.05811   0.06081   0.06568   0.06996   0.07053
     Eigenvalues ---    0.07184   0.07814   0.09318   0.10008   0.10044
     Eigenvalues ---    0.10077   0.10107   0.10581   0.10591   0.10614
     Eigenvalues ---    0.10616   0.10707   0.10762   0.10830   0.10944
     Eigenvalues ---    0.10976   0.10981   0.11480   0.11858   0.11907
     Eigenvalues ---    0.14146   0.14960   0.15999   0.16000   0.16000
     Eigenvalues ---    0.16000   0.16000   0.16000   0.16000   0.16000
     Eigenvalues ---    0.16000   0.16000   0.16000   0.16000   0.16000
     Eigenvalues ---    0.16000   0.16000   0.16441   0.16853   0.17477
     Eigenvalues ---    0.18701   0.19702   0.19799   0.20817   0.22139
     Eigenvalues ---    0.23482   0.23484   0.23502   0.24971   0.24976
     Eigenvalues ---    0.25000   0.25000   0.25000   0.25000   0.25000
     Eigenvalues ---    0.25000   0.25000   0.25000   0.25000   0.25000
     Eigenvalues ---    0.25000   0.25000   0.25000   0.27338   0.27988
     Eigenvalues ---    0.28898   0.29046   0.29326   0.30231   0.31833
     Eigenvalues ---    0.31930   0.33495   0.33803   0.33809   0.33824
     Eigenvalues ---    0.33843   0.33853   0.33886   0.33937   0.33952
     Eigenvalues ---    0.33978   0.34239   0.34242   0.34315   0.34442
     Eigenvalues ---    0.34540   0.34551   0.34553   0.34683   0.34783
     Eigenvalues ---    0.35537   0.35540   0.35606   0.38176   0.38827
     Eigenvalues ---    0.42909   0.43011   0.43352   0.43429   0.43446
     Eigenvalues ---    0.43485   0.43880   0.43987   0.44462   0.45512
     Eigenvalues ---    0.46924   0.47026   0.47157   0.47196   0.47326
     Eigenvalues ---    0.47729   0.55607   0.56641   0.57134   0.57227
     Eigenvalues ---    0.57454   0.57456   0.94089   0.96605
 RFO step:  Lambda=-1.72993214D-08 EMin= 4.82707664D-03
 Linear search not attempted -- first point.
 Iteration  1 RMS(Cart)=  0.00018050 RMS(Int)=  0.00000001
 Iteration  2 RMS(Cart)=  0.00000002 RMS(Int)=  0.00000000
 ITry= 1 IFail=0 DXMaxC= 8.82D-04 DCOld= 1.00D+10 DXMaxT= 3.00D-01 DXLimC= 3.00D+00 Rises=F
 Variable       Old X    -DE/DX   Delta X   Delta X   Delta X     New X
                                 (Linear)    (Quad)   (Total)
    R1        2.88462   0.00000   0.00000  -0.00001  -0.00001   2.88461
    R2        2.88359   0.00000   0.00000  -0.00001  -0.00001   2.88358
    R3        2.07664   0.00000   0.00000   0.00000   0.00000   2.07664
    R4        2.66470   0.00000   0.00000   0.00000   0.00000   2.66470
    R5        2.89976   0.00000   0.00000  -0.00001  -0.00001   2.89975
    R6        2.08191   0.00000   0.00000   0.00000   0.00000   2.08191
    R7        2.64685   0.00000   0.00000   0.00000   0.00000   2.64686
    R8        2.06028   0.00000   0.00000  -0.00001  -0.00001   2.06028
    R9        2.60979   0.00000   0.00000   0.00000   0.00000   2.60978
   R10        2.74109   0.00000   0.00000  -0.00001  -0.00001   2.74108
   R11        2.88852   0.00000   0.00000   0.00000   0.00000   2.88852
   R12        2.07653   0.00000   0.00000   0.00000   0.00000   2.07653
   R13        2.71223   0.00000   0.00000   0.00000   0.00000   2.71223
   R14        2.87505   0.00000   0.00000  -0.00001  -0.00001   2.87504
   R15        2.07412   0.00000   0.00000   0.00000   0.00000   2.07412
   R16        2.66598   0.00000   0.00000   0.00000   0.00000   2.66598
   R17        3.05929   0.00000   0.00000   0.00000   0.00000   3.05929
   R18        2.67123  -0.00001   0.00000  -0.00001  -0.00001   2.67122
   R19        2.67143   0.00000   0.00000  -0.00001  -0.00001   2.67143
   R20        2.67238   0.00000   0.00000  -0.00001  -0.00001   2.67237
   R21        2.06590   0.00000   0.00000   0.00000   0.00000   2.06590
   R22        2.07597   0.00000   0.00000   0.00001   0.00001   2.07597
   R23        2.65905   0.00000   0.00000   0.00000   0.00000   2.65905
   R24        2.67076   0.00000   0.00000  -0.00001  -0.00001   2.67075
   R25        2.73730  -0.00001   0.00000  -0.00001  -0.00001   2.73729
   R26        2.74804   0.00000   0.00000   0.00000   0.00000   2.74803
   R27        3.35864  -0.00001   0.00000  -0.00002  -0.00002   3.35862
   R28        2.62602   0.00000   0.00000   0.00000   0.00000   2.62601
   R29        2.62674   0.00000   0.00000   0.00000   0.00000   2.62674
   R30        2.62946   0.00000   0.00000  -0.00001  -0.00001   2.62946
   R31        2.04812   0.00000   0.00000   0.00000   0.00000   2.04813
   R32        2.62758   0.00000   0.00000  -0.00001  -0.00001   2.62757
   R33        2.04703   0.00000   0.00000   0.00000   0.00000   2.04703
   R34        2.62927   0.00000   0.00000   0.00000   0.00000   2.62927
   R35        2.84450   0.00000   0.00000  -0.00001  -0.00001   2.84449
   R36        2.63069   0.00000   0.00000   0.00000   0.00000   2.63069
   R37        2.84272   0.00000   0.00000   0.00000   0.00000   2.84272
   R38        2.04808   0.00000   0.00000   0.00000   0.00000   2.04808
   R39        2.07368   0.00000   0.00000   0.00000   0.00000   2.07368
   R40        2.07523   0.00000   0.00000   0.00000   0.00000   2.07523
   R41        2.06192   0.00000   0.00000   0.00000   0.00000   2.06192
   R42        2.06406   0.00000   0.00000   0.00000   0.00000   2.06406
   R43        2.07579   0.00000   0.00000   0.00000   0.00000   2.07579
   R44        2.06801   0.00000   0.00000   0.00000   0.00000   2.06801
   R45        2.06411   0.00000   0.00000   0.00000   0.00000   2.06411
   R46        2.06929   0.00000   0.00000   0.00000   0.00000   2.06929
   R47        2.07436   0.00000   0.00000   0.00000   0.00000   2.07436
   R48        2.06428   0.00000   0.00000   0.00000   0.00000   2.06428
   R49        2.07628   0.00000   0.00000   0.00000   0.00000   2.07628
   R50        2.06923   0.00000   0.00000   0.00000   0.00000   2.06923
   R51        2.53204  -0.00001   0.00000  -0.00001  -0.00001   2.53203
   R52        2.53702   0.00000   0.00000   0.00000   0.00000   2.53702
   R53        2.53283   0.00000   0.00000  -0.00001  -0.00001   2.53282
   R54        2.54596   0.00000   0.00000   0.00001   0.00001   2.54597
   R55        2.53012  -0.00001   0.00000  -0.00002  -0.00002   2.53010
   R56        2.53014  -0.00001   0.00000  -0.00002  -0.00002   2.53012
    A1        1.92096   0.00000   0.00000   0.00000   0.00000   1.92095
    A2        1.90665   0.00000   0.00000   0.00001   0.00001   1.90666
    A3        1.93146   0.00000   0.00000   0.00001   0.00001   1.93147
    A4        1.89433   0.00000   0.00000   0.00001   0.00001   1.89434
    A5        1.88316   0.00000   0.00000  -0.00001  -0.00001   1.88315
    A6        1.92686   0.00000   0.00000  -0.00001  -0.00001   1.92685
    A7        1.93736   0.00000   0.00000  -0.00001  -0.00001   1.93735
    A8        1.88121   0.00000   0.00000   0.00001   0.00001   1.88122
    A9        1.90333   0.00000   0.00000  -0.00001  -0.00001   1.90332
   A10        1.84931   0.00000   0.00000   0.00001   0.00001   1.84932
   A11        1.96192   0.00000   0.00000   0.00000   0.00000   1.96192
   A12        1.92874   0.00000   0.00000   0.00000   0.00000   1.92874
   A13        1.95143   0.00000   0.00000  -0.00001  -0.00001   1.95142
   A14        1.96973   0.00000   0.00000  -0.00004  -0.00004   1.96968
   A15        1.85474   0.00000   0.00000   0.00001   0.00001   1.85475
   A16        1.85866   0.00000   0.00000   0.00001   0.00001   1.85867
   A17        1.88681   0.00000   0.00000   0.00006   0.00006   1.88687
   A18        1.94214   0.00000   0.00000  -0.00002  -0.00002   1.94212
   A19        1.89681   0.00000   0.00000   0.00002   0.00002   1.89684
   A20        1.93577   0.00000   0.00000  -0.00001  -0.00001   1.93575
   A21        1.96270   0.00000   0.00000   0.00001   0.00001   1.96271
   A22        1.90164   0.00000   0.00000  -0.00004  -0.00004   1.90161
   A23        1.87576   0.00000   0.00000   0.00001   0.00001   1.87577
   A24        1.88946   0.00000   0.00000   0.00001   0.00001   1.88947
   A25        1.94472   0.00000   0.00000  -0.00001  -0.00001   1.94471
   A26        1.89925   0.00000   0.00000  -0.00001  -0.00001   1.89925
   A27        1.92220   0.00000   0.00000  -0.00001  -0.00001   1.92219
   A28        1.89172   0.00000   0.00000   0.00000   0.00000   1.89172
   A29        1.87400   0.00000   0.00000   0.00002   0.00002   1.87402
   A30        1.93194   0.00000   0.00000   0.00001   0.00001   1.93195
   A31        2.01344   0.00000   0.00000  -0.00002  -0.00002   2.01342
   A32        2.08075   0.00002   0.00000   0.00009   0.00009   2.08085
   A33        1.99880  -0.00001   0.00000  -0.00002  -0.00002   1.99878
   A34        1.99979   0.00000   0.00000  -0.00001  -0.00001   1.99979
   A35        1.99301   0.00000   0.00000  -0.00001  -0.00001   1.99300
   A36        1.86770   0.00000   0.00000  -0.00002  -0.00002   1.86768
   A37        1.90455   0.00000   0.00000   0.00002   0.00002   1.90457
   A38        2.00499   0.00000   0.00000   0.00002   0.00002   2.00501
   A39        1.89071   0.00000   0.00000  -0.00001  -0.00001   1.89071
   A40        1.85757   0.00000   0.00000  -0.00003  -0.00003   1.85755
   A41        1.93363   0.00000   0.00000   0.00002   0.00002   1.93364
   A42        2.00324   0.00001   0.00000   0.00003   0.00003   2.00327
   A43        1.82647   0.00000   0.00000   0.00003   0.00003   1.82650
   A44        1.89886   0.00001   0.00000   0.00008   0.00008   1.89893
   A45        1.81050  -0.00001   0.00000  -0.00001  -0.00001   1.81049
   A46        2.12047   0.00000   0.00000  -0.00002  -0.00002   2.12045
   A47        1.89189   0.00000   0.00000  -0.00004  -0.00004   1.89185
   A48        1.89116   0.00000   0.00000  -0.00003  -0.00003   1.89113
   A49        2.07541   0.00000   0.00000   0.00002   0.00002   2.07542
   A50        2.07918  -0.00001   0.00000  -0.00002  -0.00002   2.07916
   A51        2.12860   0.00000   0.00000   0.00000   0.00000   2.12860
   A52        2.06952   0.00000   0.00000  -0.00001  -0.00001   2.06951
   A53        2.10003   0.00000   0.00000   0.00002   0.00002   2.10005
   A54        2.11360   0.00000   0.00000  -0.00001  -0.00001   2.11358
   A55        2.06849   0.00000   0.00000   0.00000   0.00000   2.06849
   A56        2.10466   0.00000   0.00000  -0.00001  -0.00001   2.10464
   A57        2.11002   0.00000   0.00000   0.00001   0.00001   2.11003
   A58        2.10400   0.00000   0.00000   0.00000   0.00000   2.10400
   A59        2.08734   0.00000   0.00000   0.00000   0.00000   2.08734
   A60        2.09095   0.00000   0.00000  -0.00001  -0.00001   2.09094
   A61        2.10538   0.00000   0.00000   0.00000   0.00000   2.10538
   A62        2.08559   0.00000   0.00000   0.00001   0.00001   2.08560
   A63        2.09130   0.00000   0.00000  -0.00001  -0.00001   2.09130
   A64        2.09030   0.00000   0.00000   0.00000   0.00000   2.09030
   A65        2.09646   0.00000   0.00000   0.00001   0.00001   2.09646
   A66        2.09643   0.00000   0.00000   0.00000   0.00000   2.09642
   A67        1.96019   0.00000   0.00000   0.00001   0.00001   1.96019
   A68        1.94156   0.00000   0.00000   0.00000   0.00000   1.94156
   A69        1.86142   0.00000   0.00000   0.00000   0.00000   1.86142
   A70        1.90135   0.00000   0.00000   0.00000   0.00000   1.90135
   A71        1.89360   0.00000   0.00000   0.00000   0.00000   1.89360
   A72        1.90421   0.00000   0.00000   0.00000   0.00000   1.90421
   A73        1.86061   0.00000   0.00000  -0.00001  -0.00001   1.86061
   A74        1.94022   0.00000   0.00000   0.00000   0.00000   1.94021
   A75        1.94945   0.00000   0.00000   0.00001   0.00001   1.94945
   A76        1.89896   0.00000   0.00000   0.00000   0.00000   1.89896
   A77        1.90880   0.00000   0.00000   0.00001   0.00001   1.90881
   A78        1.90466   0.00000   0.00000   0.00000   0.00000   1.90466
   A79        1.86181   0.00000   0.00000   0.00000   0.00000   1.86181
   A80        1.94321   0.00000   0.00000  -0.00001  -0.00001   1.94320
   A81        1.94034   0.00000   0.00000   0.00000   0.00000   1.94035
   A82        1.90769   0.00000   0.00000   0.00000   0.00000   1.90769
   A83        1.90225   0.00000   0.00000   0.00000   0.00000   1.90225
   A84        1.90752   0.00000   0.00000   0.00000   0.00000   1.90752
   A85        1.86295   0.00000   0.00000   0.00000   0.00000   1.86295
   A86        1.93801   0.00000   0.00000   0.00001   0.00001   1.93802
   A87        1.95956   0.00000   0.00000   0.00000   0.00000   1.95956
   A88        1.90066   0.00000   0.00000  -0.00001  -0.00001   1.90065
   A89        1.90619   0.00000   0.00000   0.00000   0.00000   1.90619
   A90        1.89543   0.00000   0.00000   0.00000   0.00000   1.89543
   A91        1.94628   0.00000   0.00000   0.00000   0.00000   1.94628
   A92        1.94127   0.00000   0.00000  -0.00001  -0.00001   1.94126
   A93        1.94639   0.00000   0.00000  -0.00001  -0.00001   1.94638
   A94        1.87200   0.00000   0.00000   0.00001   0.00001   1.87201
   A95        1.88262   0.00000   0.00000   0.00000   0.00000   1.88262
   A96        1.87162   0.00000   0.00000   0.00000   0.00000   1.87162
   A97        1.93801   0.00000   0.00000  -0.00002  -0.00002   1.93799
   A98        1.95031   0.00000   0.00000   0.00000   0.00000   1.95031
   A99        1.94923   0.00000   0.00000   0.00001   0.00001   1.94924
   A100       1.86798   0.00000   0.00000   0.00000   0.00000   1.86798
[...]
 -0.00002538,0.00000191,-0.00014937,-0.00013004,-0.00008025,-0.00000029
 ,0.00001333,0.00001527,0.00004521,0.00000544,0.00000054,-0.00001045,0.
 00000838,0.00000057,-0.00069375,0.00009266,0.00022439,0.00013435,0.000
 06419,-0.00003154,-0.00036916,-0.00030006,0.00029296,0.00023039,-0.000
 06562,-0.00005486,0.00104447,0.00225440,-0.00166330,-0.00010695,-0.000
 49710,0.00053588,-0.00068665,-0.00070029,0.00024935,-0.00037461,-0.000
 29067,0.00061542,-0.01194170,-0.03607957,0.56132836,0.00002170,-0.0001
 2457,-0.00005310,0.00003763,0.00000335,-0.00005624,-0.00002290,-0.0006
 0967,-0.00000333,-0.00022329,-0.00039630,-0.00036476,0.00008275,0.0001
 5713,0.00016792,-0.00001491,0.00002932,0.00000555,0.00002034,0.0000053
 6,0.00000441,-0.00000623,0.00001251,-0.00000684,-0.00000207,0.00002629
 ,-0.00000993,0.00003201,-0.00001600,-0.00000270,-0.00012381,0.00040395
 ,0.00021936,0.00048335,0.00037215,0.00001733,-0.00005347,0.00008641,0.
 00005356,-0.00012608,0.00010487,-0.00002814,-0.00011598,0.00001748,-0.
 00006716,0.00154820,0.00044791,0.00038420,-0.00018447,0.00004040,-0.00
 012089,-0.00091466,0.00007375,-0.00027521,-0.00092383,-0.00024641,-0.0
 0030194,-0.00084934,0.00001110,0.00023107,0.00020136,-0.00016818,-0.00
 003506,0.00019278,0.00000364,-0.00010007,0.00081207,-0.00093481,0.0004
 8496,0.00044634,-0.00009470,-0.00052697,-0.00096983,-0.00099408,0.0008
 0216,-0.00028724,0.00034350,-0.00010726,-0.00000606,-0.00002945,-0.000
 02503,0.00795611,-0.00556862,-0.00376048,-0.00017482,-0.00016312,-0.00
 022000,0.00023818,0.00046998,0.00072056,-0.00005106,0.00018980,-0.0004
 1029,0.00000443,-0.00000436,-0.00004316,0.00000123,-0.00000541,0.00000
 837,0.00000387,-0.00000108,0.00000530,-0.00000588,0.00000640,0.0000054
 6,0.00001740,-0.00006412,0.00003922,-0.00001083,0.00000792,-0.00000610
 ,0.00000296,0.00000729,-0.00000784,-0.00000303,0.00001427,-0.00000005,
 0.00007792,0.00004394,0.00005791,-0.00000389,-0.00000441,-0.00001861,-
 0.00002219,-0.00000398,-0.00000204,0.00001005,0.00001080,0.00000698,0.
 00104917,-0.00034661,0.00040801,-0.00022072,-0.00004291,-0.00002042,-0
 .00074229,0.00033448,-0.00006035,-0.00015246,0.00002208,0.00003092,-0.
 00001104,0.00005978,-0.00037273,0.00005647,-0.00005865,0.00013266,-0.0
 0004746,-0.00004924,0.00007024,-0.00001988,0.00000894,0.00011084,-0.11
 145048,-0.07085245,-0.02925128,0.16321018,-0.00006727,-0.00011692,-0.0
 0012283,-0.00012993,0.00013238,-0.00005947,-0.00044524,-0.00111985,0.0
 0029039,-0.00026541,-0.00047357,-0.00048370,0.00001698,0.00007937,0.00
 004510,-0.00003411,0.00004469,-0.00000726,0.00008967,0.00000629,0.0000
 1368,-0.00000813,0.00002222,-0.00001890,-0.00001243,0.00004332,-0.0000
 4437,0.00005605,-0.00000626,0.00000497,0.00024040,0.00068030,0.0003468
 6,0.00168561,0.00068618,-0.00006324,0.00009318,0.00001510,-0.00002207,
 0.00003962,0.00007360,0.00004822,-0.00000904,0.00011058,0.00007898,0.0
 0096489,0.00009162,0.00046265,-0.00006974,0.00005114,-0.00005978,0.000
 52020,-0.00077358,0.00031875,-0.00051963,0.00026203,-0.00041316,-0.003
 63662,0.00155312,0.00145987,0.00085385,-0.00108119,-0.00021617,0.00090
 634,-0.00034587,-0.00082597,0.00166497,-0.00023406,0.00164538,0.000164
 23,-0.00115019,0.00032566,-0.00265521,-0.00044910,0.00231738,0.0016785
 7,-0.00005154,0.00199006,-0.00020872,-0.00005602,-0.00017257,-0.021941
 07,-0.04420312,-0.01322310,-0.00079760,-0.00050717,-0.00081219,0.00265
 234,-0.00168205,-0.00256265,-0.00096202,-0.00049297,-0.00065721,-0.000
 06279,-0.00000061,0.00004723,-0.00000511,-0.00000057,0.00001717,0.0000
 1712,0.00001610,-0.00000705,0.00000376,-0.00000460,-0.00000111,-0.0000
 1623,-0.00000525,0.00000834,0.00000689,0.00000308,0.00000113,0.0000006
 9,-0.00000499,-0.00000416,-0.00000793,0.00000591,0.00000255,-0.0000007
 7,-0.00006357,0.00001283,0.00000451,0.00000200,-0.00000072,-0.00000638
 ,0.00000636,-0.00000176,0.00001390,0.00002920,-0.00000243,0.00119451,-
 0.00031360,0.00063859,-0.00019658,-0.00001620,-0.00003187,0.00004907,0
 .00039081,-0.00035874,-0.00024147,0.00001678,0.00002131,0.00184823,0.0
 0073783,-0.00236968,-0.00011312,-0.00059596,0.00103260,-0.00076143,-0.
 00051949,0.00037395,-0.00050067,0.00018515,0.00079416,-0.07366168,-0.2
 0962144,-0.05249504,0.12591963,0.25428789,0.00001625,-0.00007769,-0.00
 004025,0.00003585,-0.00001701,-0.00003400,0.00004040,-0.00019751,-0.00
 007472,-0.00012965,-0.00026079,-0.00029170,0.00005918,0.00010860,0.000
 10413,-0.00001495,0.00002675,0.00000957,-0.00000438,0.00000088,0.00000
 146,-0.00000206,0.00000303,0.00000070,0.00000265,-0.00000241,0.0000110
 1,0.00000885,-0.00001289,-0.00000259,-0.00010023,0.00018145,0.00019345
 ,0.00001576,0.00011279,0.00008871,-0.00004454,0.00005133,0.00006080,-0
 .00008784,0.00006411,-0.00001050,-0.00008090,0.00000691,-0.00002288,0.
 00097813,0.00042542,0.00030471,-0.00009208,0.00001295,-0.00005045,-0.0
 0048339,-0.00004943,-0.00024607,-0.00052456,-0.00024108,0.00010361,-0.
 00001001,-0.00016493,-0.00042707,-0.00000093,0.00005846,0.00007394,0.0
 0001705,-0.00000699,0.00015292,-0.00033263,0.00034581,-0.00057082,-0.0
 0054330,0.00028001,0.00035799,0.00122168,0.00047962,-0.00026319,-0.000
 06202,-0.00083789,0.00058175,-0.00000098,-0.00001940,0.00002413,-0.000
 85691,0.00396426,0.01089744,-0.00021864,0.00031496,-0.00000162,0.00026
 417,-0.00097639,-0.00040451,-0.00005291,-0.00003757,-0.00005462,0.0000
 0833,-0.00000259,-0.00005285,0.00000682,-0.00000089,0.00000737,-0.0000
 0343,-0.00000340,0.00000467,-0.00000321,0.00000311,0.00000569,0.000012
 40,-0.00003844,0.00001917,-0.00000790,0.00000481,-0.00000462,0.0000008
 1,0.00000404,-0.00000215,-0.00000189,0.00001009,-0.00000024,0.00005353
 ,0.00003265,0.00003494,-0.00000017,-0.00000402,-0.00000783,-0.00001681
 ,-0.00000128,-0.00000095,0.00000701,0.00000441,0.00000079,0.00040752,-
 0.00003541,0.00001297,-0.00007302,-0.00002942,0.00001695,0.00025768,0.
 00009721,-0.00025003,-0.00009822,0.00002026,0.00003087,0.00005646,-0.0
 0018415,-0.00006990,0.00001987,-0.00003086,0.00009193,0.00002251,0.000
 04658,0.00001787,-0.00000150,0.00006757,0.00003388,-0.02955982,-0.0506
 1858,-0.09284030,0.06684727,0.10131059,0.12898496,0.00009547,-0.000053
 06,0.00005872,0.00016733,-0.00013534,-0.00001363,0.00032847,0.00015738
 ,-0.00023400,0.00001328,-0.00003357,0.00010436,0.00009627,0.00008479,0
 .00016231,0.00001793,-0.00001264,0.00000959,-0.00004970,0.00000447,-0.
 00000959,-0.00000213,0.00000011,0.00000418,0.00000856,0.00000301,0.000
 01761,0.00000273,-0.00001153,-0.00000969,-0.00034909,-0.00004592,-0.00
 008612,-0.00082300,-0.00012483,0.00004377,-0.00015209,0.00011623,0.000
 07930,-0.00019771,0.00007720,-0.00009057,-0.00013463,-0.00005987,-0.00
 016609,0.00069912,0.00022168,0.00021692,-0.00008562,0.00000114,-0.0000
 7336,0.00003939,-0.00006759,0.00015651,-0.00041722,-0.00014964,-0.0001
 5232,0.00202910,-0.00106931,-0.00099459,-0.00058857,0.00105661,0.00008
 446,-0.00049526,0.00031679,0.00056267,-0.00089906,0.00075962,0.0013630
 8,0.00003067,0.00019556,-0.00046675,0.00022467,0.00420878,-0.00483972,
 0.00045588,0.00105163,-0.00052328,0.00007919,-0.00008552,-0.00011432,-
 0.03069335,0.01259467,0.00437231,0.00039294,-0.00069470,-0.00020033,-0
 .00139024,-0.00098699,0.00385356,0.00046884,0.00006472,-0.00216043,0.0
 0006046,-0.00000925,-0.00008961,0.00000329,-0.00001014,-0.00000571,-0.
 00000494,-0.00001371,0.00001344,-0.00001370,0.00001499,0.00000684,0.00
 004139,-0.00008938,0.00004968,-0.00001962,0.00000751,-0.00000881,0.000
 00400,0.00001485,-0.00000988,0.00000315,0.00001378,-0.00000089,0.00009
 431,0.00009194,0.00006133,-0.00000715,-0.00000800,-0.00002363,-0.00002
 249,-0.00000884,0.00000036,-0.00000005,-0.00000525,0.00000822,0.000512
 96,-0.00008925,0.00020880,-0.00012062,-0.00005063,-0.00001683,0.000013
 87,0.00021590,-0.00010375,-0.00003656,0.00001414,-0.00000063,-0.001335
 59,-0.00030054,0.00117534,0.00014884,0.00024587,-0.00043720,0.00058386
 ,0.00034006,-0.00018259,0.00038818,-0.00015507,-0.00042908,-0.26804497
 ,0.06514556,0.01138033,-0.06935702,-0.02645867,-0.01355805,0.40041937,
 -0.00006480,-0.00002577,-0.00007004,-0.00012011,0.00010828,-0.00002120
 ,-0.00031506,-0.00055640,0.00023001,-0.00011772,-0.00017620,-0.0002221
 3,-0.00003215,-0.00000047,-0.00004487,-0.00001934,0.00001887,-0.000009
 28,0.00005874,0.00000219,0.00000970,-0.00000264,0.00000938,-0.00001053
 ,-0.00000896,0.00001828,-0.00002964,0.00002132,0.00000304,0.00000603,0
 .00021933,0.00030277,0.00016126,0.00103670,0.00034275,-0.00004554,0.00
 009854,-0.00003832,-0.00004621,0.00009298,0.00000009,0.00005227,0.0000
 4896,0.00006701,0.00009228,0.00014112,-0.00007029,0.00007640,-0.000005
 24,0.00002011,0.00000021,0.00002937,-0.00015318,0.00004549,-0.00005951
 ,0.00013405,-0.00009312,-0.00260255,0.00084093,0.00102264,0.00075338,-
 0.00097702,-0.00009774,0.00059693,-0.00021305,-0.00063957,0.00054836,-
 0.00205476,-0.00111690,0.00068549,-0.00059075,-0.00000701,-0.00007167,
 -0.00276944,0.00515213,0.00003193,-0.00010607,-0.00037660,0.00000589,0
 .00004128,0.00001706,0.03966464,-0.00653970,-0.00227824,0.00010554,0.0
 0054472,0.00018198,0.00096931,-0.00072894,-0.00016913,0.00075304,-0.00
 085172,0.00083154,-0.00004959,0.00000336,0.00006000,-0.00000503,0.0000
 0266,0.00000862,0.00001037,0.00001249,-0.00000820,0.00000643,-0.000007
 31,-0.00000369,-0.00002256,0.00003174,-0.00001470,0.00001048,-0.000001
 62,0.00000405,-0.00000100,-0.00000761,0.00000158,-0.00000441,-0.000003
 19,0.00000147,-0.00003725,-0.00006027,-0.00001836,0.00000420,0.0000039
 3,0.00000821,0.00000663,0.00000548,-0.00000080,0.00000502,0.00001349,-
 0.00000371,0.00019578,-0.00006823,0.00011497,-0.00001684,0.00001305,-0
 .00000548,0.00001923,0.00005637,-0.00004970,-0.00005366,-0.00000273,0.
 00000832,0.00106486,0.00058882,-0.00145750,-0.00005866,-0.00030183,0.0
 0051679,-0.00049190,-0.00033316,0.00023865,-0.00033349,0.00009089,0.00
 049446,0.05928208,-0.09670888,0.00115862,-0.04267903,0.00794607,-0.003
 95016,-0.06381936,0.09038627,0.00001735,-0.00000480,0.00000319,0.00003
 142,-0.00003360,0.00000102,0.00008435,0.00015298,-0.00009734,0.0000185
 2,-0.00000289,-0.00002558,0.00001499,0.00001224,0.00001658,-0.00000206
 ,0.00000518,0.00000639,-0.00001936,-0.00000150,-0.00000254,0.00000077,
 -0.00000326,0.00000429,0.00000283,-0.00001040,0.00001419,-0.00000546,-
 0.00000393,-0.00000160,-0.00005387,-0.00004972,0.00002774,-0.00033302,
 -0.00008735,0.00006459,-0.00002973,0.00001561,0.00003389,-0.00003205,0
 .00000850,-0.00000594,-0.00002387,-0.00001010,-0.00000810,0.00010905,0
 .00007283,0.00000465,0.00000171,-0.00000328,0.00000519,0.00001811,-0.0
 0001604,0.00003078,-0.00006315,-0.00005819,0.00006933,0.00071470,-0.00
 025819,-0.00056092,-0.00019778,0.00029398,0.00008212,-0.00015858,0.000
 02344,0.00028225,-0.00087120,0.00053662,0.00050581,-0.00016374,0.00026
 832,-0.00002612,0.00019836,0.00174903,-0.00176586,-0.00059975,-0.00026
 671,0.00060649,-0.00005131,0.00003413,0.00005989,-0.01022923,0.0052025
 7,0.01053600,-0.00030143,0.00030371,0.00006326,-0.00031414,0.00053457,
 -0.00184412,-0.00136548,0.00089455,0.00044144,0.00001161,-0.00000168,-
 0.00003476,0.00000571,0.00000038,0.00000144,-0.00000515,-0.00000393,0.
 00000299,-0.00000152,0.00000138,0.00000276,0.00000682,-0.00001042,0.00
 000195,-0.00000336,0.00000081,-0.00000178,-0.00000040,0.00000152,0.000
 00092,0.00000042,0.00000277,-0.00000022,0.00001587,0.00001485,0.000006
 83,0.00000067,-0.00000161,-0.00000034,-0.00000514,-0.00000022,0.000000
 12,0.00000115,-0.00000179,-0.00000083,0.00005105,-0.00000700,-0.000041
 98,-0.00000965,-0.00000560,0.00000448,0.00004094,0.00003484,-0.0000326
 4,-0.00002614,0.00000839,0.00000602,-0.00022565,-0.00045077,0.00040907
 ,-0.00001609,0.00013172,-0.00015807,0.00016370,0.00015331,-0.00005366,
 0.00006367,0.00006964,-0.00012306,0.01647649,-0.00076119,-0.07709910,-
 0.01945839,-0.00326256,0.01064329,-0.04262821,0.00779439,0.08500711,0.
 00002229,-0.00001250,0.00002101,0.00003758,-0.00002566,-0.00000767,0.0
 0006662,-0.00006793,-0.00001270,-0.00000037,0.00000316,0.00008094,0.00
 002358,0.00001442,0.00003619,0.00001043,-0.00001023,-0.00000298,-0.000
 00304,0.00000313,-0.00000156,-0.00000138,0.00000209,-0.00000212,0.0000
 0061,0.00000768,-0.00000744,0.00000480,-0.00000078,-0.00000189,-0.0000
 7925,0.00002386,-0.00005651,-0.00006963,0.00004853,-0.00002426,-0.0000
 3426,0.00003318,0.00000702,-0.00004609,0.00002060,-0.00002725,-0.00003
 094,-0.00001279,-0.00004969,0.00010651,0.00000140,0.00005130,-0.000020
 27,0.00000088,-0.00002303,0.00000955,-0.00000792,0.00004268,-0.0000726
 4,0.00000566,-0.00010455,0.00018730,-0.00039805,0.00009785,-0.00000744
 ,0.00013154,-0.00004162,-0.00007046,0.00012797,0.00000317,0.00047651,-
 0.00050661,-0.00046533,0.00005282,0.00013811,-0.00010243,-0.00184093,0
 .00072619,-0.00036730,0.00028741,-0.00002749,-0.00071803,0.00007741,0.
 00002973,-0.00005017,0.01043186,0.00157151,-0.00252995,0.00070954,0.00
 044740,-0.00114771,-0.00055524,0.00128798,-0.00000954,0.00020491,0.000
 31665,-0.00036678,0.00001271,-0.00000270,-0.00001018,-0.00000227,-0.00
 000472,-0.00000242,0.00000220,-0.00000197,0.00000296,-0.00000427,0.000
 00461,0.00000043,0.00001040,-0.00002437,0.00001510,-0.00000440,0.00000
 196,-0.00000188,0.00000146,0.00000395,-0.00000396,0.00000079,0.0000030
 2,0.00000018,0.00002076,0.00001986,0.00001467,-0.00000223,-0.00000189,
 -0.00000702,-0.00000449,-0.00000252,0.00000031,-0.00000066,-0.00000025
 ,0.00000268,0.00011932,-0.00002284,0.00009530,-0.00003224,-0.00001638,
 -0.00001342,-0.00003424,0.00006013,0.00003185,0.00002530,-0.00000032,-
 0.00000553,-0.00030231,-0.00000460,0.00014651,0.00003544,0.00006144,-0
 .00011355,0.00010838,0.00006087,-0.00002431,0.00007378,-0.00004296,-0.
 00005807,-0.07939604,-0.00041723,0.03206741,0.01059074,-0.00689021,-0.
 02339325,-0.03218317,0.00452585,0.05914464,0.09108725,-0.00004417,-0.0
 0002978,-0.00005019,-0.00008391,0.00007300,-0.00001419,-0.00025254,-0.
 00047125,0.00016641,-0.00009958,-0.00015642,-0.00016180,-0.00001733,0.
 00000951,-0.00001556,-0.00001653,0.00001306,-0.00000518,0.00004508,0.0
 0000308,0.00000635,-0.00000284,0.00000920,-0.00000951,-0.00000802,0.00
 001977,-0.00002552,0.00002073,0.00000195,0.00000380,0.00015849,0.00026
 792,0.00011719,0.00081235,0.00024347,-0.00003186,0.00006670,-0.0000155
 1,-0.00003359,0.00005612,0.00001145,0.00003104,0.00002771,0.00005240,0
 .00005441,0.00018237,-0.00005533,0.00010518,-0.00001692,0.00001709,-0.
 00001244,0.00005796,-0.00014255,0.00002392,-0.00009469,0.00011786,-0.0
 0012556,-0.00183025,0.00101743,0.00056442,0.00041479,-0.00052728,-0.00
 006557,0.00047755,-0.00022285,-0.00042964,-0.00058895,0.00018410,-0.00
 003137,-0.00026553,-0.00039873,0.00087369,0.00072511,-0.00106526,0.000
 88138,-0.00116829,-0.00168102,0.00089431,-0.00002529,0.00003214,0.0000
 4602,-0.00503356,0.00167434,0.03525572,0.00022369,-0.00104455,0.001188
 30,0.00418935,-0.00290846,0.00030678,0.00013796,0.00037053,0.00017724,
 -0.00003637,0.00000094,0.00004311,-0.00000456,0.00000069,0.00000635,0.
 00000952,0.00000955,-0.00000552,0.00000361,-0.00000409,-0.00000259,-0.
 00001439,0.00001456,-0.00000455,0.00000681,-0.00000033,0.00000247,-0.0
 0000009,-0.00000445,-0.00000078,-0.00000343,-0.00000111,0.00000126,-0.
 00002171,-0.00004279,-0.00000797,0.00000233,0.00000242,0.00000328,0.00
 000354,0.00000350,-0.00000061,0.00000398,0.00001181,-0.00000187,0.0002
 1407,-0.00006159,0.00012702,-0.00002609,0.00000497,-0.00000806,-0.0000
 0814,0.00005101,-0.00001997,-0.00004034,-0.00000257,0.00000519,0.00121
 930,0.00013498,-0.00158381,-0.00001973,-0.00033642,0.00064385,-0.00062
 339,-0.00034761,0.00026434,-0.00030958,0.00010955,0.00044697,0.0010242
 7,-0.08135594,0.02303822,-0.00577630,-0.00358937,-0.05023747,0.0075295
 8,0.01173857,-0.01300558,-0.00118047,0.07826444,0.00005922,-0.00003488
 ,-0.00000316,0.00010541,-0.00008720,-0.00001275,0.00028174,0.00031448,
 -0.00030752,0.00004139,-0.00005369,-0.00013536,0.00006553,0.00005876,0
 .00008266,-0.00001087,0.00002437,0.00002010,-0.00005432,-0.00000471,-0
 .00000534,0.00000169,-0.00000917,0.00001311,0.00001241,-0.00003535,0.0
 0004976,-0.00001658,-0.00001503,-0.00000637,-0.00026059,-0.00008544,0.
 00013485,-0.00087356,-0.00015494,0.00020462,-0.00010530,0.00006253,0.0
 0011826,-0.00012085,0.00004114,-0.00002022,-0.00009678,-0.00003358,-0.
 00003981,0.00058725,0.00030452,0.00010253,-0.00002708,-0.00000812,-0.0
 0000178,0.00009521,-0.00007499,0.00003338,-0.00032099,-0.00024046,0.00
 023644,0.00203051,-0.00102017,-0.00151593,-0.00052100,0.00065017,0.000
 23537,-0.00046797,0.00011641,0.00086212,-0.00010033,0.00128824,0.00051
 648,-0.00032730,0.00032174,-0.00020817,0.00334578,-0.00168207,-0.00106
 954,0.00183934,0.00068019,-0.00129118,-0.00012063,-0.00007139,0.000046
 66,0.00866049,0.00604170,-0.03917693,-0.00197449,0.00067217,0.00004795
 ,-0.00509278,0.00561530,-0.00052681,-0.00032857,-0.00064659,0.00047343
 ,0.00003647,-0.00000535,-0.00011937,0.00001889,0.00000140,0.00000675,-
 0.00001653,-0.00001281,0.00001026,-0.00000499,0.00000478,0.00001003,0.
 00002384,-0.00004072,0.00001098,-0.00001251,0.00000364,-0.00000645,-0.
 00000081,0.00000585,0.00000260,0.00000083,0.00001100,-0.00000116,0.000
 06418,0.00005858,0.00003235,0.00000077,-0.00000571,-0.00000460,-0.0000
 1999,-0.00000200,-0.00000035,0.00000458,-0.00000545,-0.00000115,0.0002
 1426,-0.00001140,-0.00016290,-0.00004630,-0.00002569,0.00001685,0.0001
 0821,0.00007686,-0.00010786,-0.00010119,0.00003144,0.00002331,-0.00156
 588,-0.00048658,0.00167871,0.00000178,0.00053345,-0.00089601,0.0007708
 6,0.00050025,-0.00022093,0.00031401,0.00001656,-0.00047745,0.02747357,
 0.02961315,-0.28156957,-0.01509793,-0.03530864,-0.05714781,0.04363595,
 -0.00749906,-0.02706148,-0.06210808,0.00061252,0.40712838\\0.00000357,
 -0.00000042,0.00000477,0.00000551,-0.00000692,0.00000016,0.00000032,0.
 00001422,-0.00000181,0.00000119,-0.00000438,-0.00000645,0.00000005,-0.
 00000231,-0.00000041,-0.00000408,-0.00000238,-0.00000206,-0.00000050,-
 0.00000018,-0.00000021,-0.00000057,0.00000029,-0.00000222,0.00000215,0
 .00000162,0.00000365,-0.00000053,0.00000006,0.00000082,-0.00000653,0.0
 0000039,-0.00000050,0.00000753,-0.00001379,0.00000115,-0.00000769,0.00
 000134,0.00000060,-0.00000105,-0.00000051,-0.00000541,-0.00000457,0.00
 000027,-0.00000114,-0.00000158,0.00000285,0.00000348,-0.00000119,-0.00
 000050,0.00000154,0.00000376,-0.00000029,-0.00000038,0.00000121,0.0000
 0205,0.00000472,-0.00001428,0.00000319,-0.00000242,0.00000327,-0.00000
 611,0.00000313,0.00000823,0.00000448,-0.00000253,-0.00000129,0.0000066
 5,-0.00000275,0.00000017,-0.00000086,0.00000439,0.00000472,-0.00000082
 ,-0.00000040,-0.00000352,0.00000358,-0.00000058,0.00000064,0.00000066,
 -0.00000290,-0.00000547,0.00000235,0.00000114,-0.00000153,0.00000259,0
 .00000060,0.00000115,0.00000088,0.00000147,0.00000095,0.00000035,0.000
 00174,0.00000419,-0.00000192,-0.00000544,-0.00000203,-0.00000138,-0.00
 000090,-0.00000227,0.00000016,-0.00000129,-0.00000012,0.00000090,-0.00
 000152,0.00000101,-0.00000149,0.00000294,0.00000032,-0.00000235,-0.000
 00136,0.00000024,-0.00000157,-0.00000124,-0.00000006,-0.00000174,-0.00
 000283,0.00000349,-0.00000129,0.00000240,0.00000126,-0.00000114,0.0000
 0023,0.00000126,-0.00000084,-0.00000009,0.00000111,-0.00000094,0.00000
 001,-0.00000057,0.00000008,-0.00000313,0.00000213,-0.00000091,0.000000
 67,-0.00000025,0.00000121,0.00000177,-0.00000028,-0.00000078,0.0000004
 9,-0.00000261,0.00000341,-0.00000558,0.00000422,-0.00000388,0.00000531
 ,-0.00000065,-0.00000255,0.00000085,-0.00000235,0.00000296,0.00000242,
 0.00001106,0.00000132,0.00001432,-0.00000158,-0.00000071,-0.00000270,-
 0.00000869,0.00000381,0.00000287,0.00000109,0.00000130,-0.00000941\\\@


 RESEARCH IS WHAT I AM DOING WHEN I DON'T KNOW WHAT I AM DOING.
     -- WERNER VON BRAUN
 Job cpu time:       0 days 19 hours 48 minutes 25.2 seconds.
 Elapsed time:       0 days  0 hours 42 minutes  7.1 seconds.
 File lengths (MBytes):  RWF=   2261 Int=      0 D2E=      0 Chk=     40 Scr=      1
 Normal termination of Gaussian 16 at Wed Jun  5 19:05:05 2019.
