 Entering Gaussian System, Link 0=g16
 Input=clay_new-glu_gluC6-bisCF3-sm-m06_hf_d3-631gd-pcm_thf.gjf
 Output=clay_new-glu_gluC6-bisCF3-sm-m06_hf_d3-631gd-pcm_thf.out
 Initial command:
 /home/ekwan/sw/g16/l1.exe "/scratch/users/ekwan/clay_new-glu_gluC6-bisCF3-sm-m06_hf_d3-631gd-pcm_thf/Gau-53069.inp" -scrdir="/scratch/users/ekwan/clay_new-glu_gluC6-bisCF3-sm-m06_hf_d3-631gd-pcm_thf/"
 Entering Link 1 = /home/ekwan/sw/g16/l1.exe PID=     53070.
  
 Copyright (c) 1988,1990,1992,1993,1995,1998,2003,2009,2016,
            Gaussian, Inc.  All Rights Reserved.
  
 This is part of the Gaussian(R) 16 program.  It is based on
 the Gaussian(R) 09 system (copyright 2009, Gaussian, Inc.),
 the Gaussian(R) 03 system (copyright 2003, Gaussian, Inc.),
 the Gaussian(R) 98 system (copyright 1998, Gaussian, Inc.),
 the Gaussian(R) 94 system (copyright 1995, Gaussian, Inc.),
 the Gaussian 92(TM) system (copyright 1992, Gaussian, Inc.),
 the Gaussian 90(TM) system (copyright 1990, Gaussian, Inc.),
 the Gaussian 88(TM) system (copyright 1988, Gaussian, Inc.),
 the Gaussian 86(TM) system (copyright 1986, Carnegie Mellon
 University), and the Gaussian 82(TM) system (copyright 1983,
 Carnegie Mellon University). Gaussian is a federally registered
 trademark of Gaussian, Inc.
  
 This software contains proprietary and confidential information,
 including trade secrets, belonging to Gaussian, Inc.
  
 This software is provided under written license and may be
 used, copied, transmitted, or stored only in accord with that
 written license.
  
 The following legend is applicable only to US Government
 contracts under FAR:
  
                    RESTRICTED RIGHTS LEGEND
  
 Use, reproduction and disclosure by the US Government is
 subject to restrictions as set forth in subparagraphs (a)
 and (c) of the Commercial Computer Software - Restricted
 Rights clause in FAR 52.227-19.
  
 Gaussian, Inc.
 340 Quinnipiac St., Bldg. 40, Wallingford CT 06492
  
  
 ---------------------------------------------------------------
 Warning -- This program may not be used in any manner that
 competes with the business of Gaussian, Inc. or will provide
 assistance to any competitor of Gaussian, Inc.  The licensee
 of this program is prohibited from giving any competitor of
 Gaussian, Inc. access to this program.  By using this program,
 the user acknowledges that Gaussian, Inc. is engaged in the
 business of creating and licensing software in the field of
 computational chemistry and represents and warrants to the
 licensee that it is not a competitor of Gaussian, Inc. and that
 it will not use this program in any manner prohibited above.
 ---------------------------------------------------------------
  

 Cite this work as:
 Gaussian 16, Revision A.03,
 M. J. Frisch, G. W. Trucks, H. B. Schlegel, G. E. Scuseria, 
 M. A. Robb, J. R. Cheeseman, G. Scalmani, V. Barone, 
 G. A. Petersson, H. Nakatsuji, X. Li, M. Caricato, A. V. Marenich, 
 J. Bloino, B. G. Janesko, R. Gomperts, B. Mennucci, H. P. Hratchian, 
 J. V. Ortiz, A. F. Izmaylov, J. L. Sonnenberg, D. Williams-Young, 
 F. Ding, F. Lipparini, F. Egidi, J. Goings, B. Peng, A. Petrone, 
 T. Henderson, D. Ranasinghe, V. G. Zakrzewski, J. Gao, N. Rega, 
 G. Zheng, W. Liang, M. Hada, M. Ehara, K. Toyota, R. Fukuda, 
 J. Hasegawa, M. Ishida, T. Nakajima, Y. Honda, O. Kitao, H. Nakai, 
 T. Vreven, K. Throssell, J. A. Montgomery, Jr., J. E. Peralta, 
 F. Ogliaro, M. J. Bearpark, J. J. Heyd, E. N. Brothers, K. N. Kudin, 
 V. N. Staroverov, T. A. Keith, R. Kobayashi, J. Normand, 
 K. Raghavachari, A. P. Rendell, J. C. Burant, S. S. Iyengar, 
 J. Tomasi, M. Cossi, J. M. Millam, M. Klene, C. Adamo, R. Cammi, 
 J. W. Ochterski, R. L. Martin, K. Morokuma, O. Farkas, 
 J. B. Foresman, and D. J. Fox, Gaussian, Inc., Wallingford CT, 2016.
 
 ******************************************
 Gaussian 16:  AS64L-G16RevA.03 25-Dec-2016
                10-Jun-2019 
 ******************************************
 %nprocshared=64
 Will use up to   64 processors via shared memory.
 %mem=96GB
 ----------------------------------------------------------------------
 #p opt freq=noraman 6-31g(d) scrf=(solvent=tetrahydrofuran,pcm) pop=no
 ne empiricaldispersion=gd3 m06hf
 ----------------------------------------------------------------------
 1/18=20,19=15,26=3,38=1/1,3;
 2/9=110,12=2,17=6,18=5,40=1/2;
 3/5=1,6=6,7=1,11=2,25=1,30=1,70=2201,71=1,72=20,74=-52,124=31/1,2,3;
 4//1;
 5/5=2,38=5,53=20/2;
 7//1,2,3,16;
 1/18=20,19=15,26=3/3(2);
 2/9=110/2;
 99//99;
 2/9=110/2;
 3/5=1,6=6,7=1,11=2,25=1,30=1,70=2205,71=1,72=20,74=-52,124=31/1,2,3;
 4/5=5,16=3,69=1/1;
 5/5=2,38=5,53=20/2;
 7//1,2,3,16;
 1/18=20,19=15,26=3/3(-5);
 2/9=110/2;
 99/9=1/99;
 Leave Link    1 at Mon Jun 10 05:35:14 2019, MaxMem= 12884901888 cpu:              21.8 elap:               0.4
 (Enter /home/ekwan/sw/g16/l101.exe)
 -----
 title
 -----
 Symbolic Z-matrix:
 Charge =  0 Multiplicity = 1
 C                     3.37673   0.28734   0.63207 
 C                     3.30152  -0.45238  -0.7043 
 C                     1.83823  -0.73365  -1.0881 
 C                     1.02405   1.08671   0.22041 
 C                     2.44401   1.49552   0.62213 
 H                     1.74841  -1.13744  -2.09227 
 H                     3.70523   0.20323  -1.48521 
 H                     3.0629   -0.38914   1.43273 
 H                     0.61246   0.43199   0.99437 
 H                     2.8154    2.22705  -0.10067 
 O                     1.03717   0.39396  -1.03351 
 O                     1.36774  -1.73353  -0.15286 
 O                     4.05255  -1.62722  -0.59304 
 O                     4.68946   0.74837   0.84773 
 O                     2.37378   2.04985   1.91456 
 C                     0.1174    2.31187   0.0898 
 H                    -0.06744   2.68729   1.09417 
 H                    -0.82886   2.00906  -0.36729 
 O                     0.70253   3.36767  -0.63498 
 S                     0.08548  -2.59947  -0.55276 
 O                     0.04456  -3.68064   0.40081 
 O                     0.14318  -2.85968  -1.97617 
 C                    -1.27632  -1.50805  -0.23828 
 C                    -1.7748   -1.42577   1.05401 
 C                    -1.78126  -0.75259  -1.28962 
 C                    -2.81821  -0.53682   1.29245 
 H                    -1.36251  -2.0377    1.84603 
 C                    -2.82385   0.12124  -1.01438 
 H                    -1.3712   -0.84898  -2.28589 
 C                    -3.34858   0.23964   0.2698 
 H                    -4.15931   0.92756   0.46854 
 C                     4.2215   -2.34926  -1.8052 
 H                     3.29701  -2.85274  -2.09471 
 H                     4.54489  -1.68156  -2.60662 
 H                     4.9891   -3.09414  -1.61819 
 C                     5.43524  -0.01828   1.78369 
 H                     6.42826   0.42145   1.82526 
 H                     4.9696    0.03685   2.76996 
 H                     5.50123  -1.05646   1.46157 
 C                     3.06467   3.28537   2.05507 
 H                     2.94678   3.59211   3.091 
 H                     4.12106   3.1546    1.82331 
 H                     2.62618   4.03562   1.39497 
 C                     0.74131   3.17982  -2.04297 
 H                     0.9487    4.15252  -2.4816 
 H                    -0.22248   2.81279  -2.40247 
 H                     1.52107   2.47352  -2.32687 
 C                    -3.41612  -0.46203   2.67585 
 F                    -2.48437  -0.66041   3.61657 
 F                    -4.36231  -1.39482   2.84749 
 F                    -3.98288   0.7303    2.89756 
 C                    -3.34956   1.01588  -2.1083 
 F                    -2.73344   2.21099  -2.09005 
 F                    -4.65934   1.24698  -1.96468 
 F                    -3.14852   0.48322  -3.31812 
 
 ITRead=  0  0  0  0  0  0  0  0  0  0  0  0  0  0  0  0  0  0  0  0
 ITRead=  0  0  0  0  0  0  0  0  0  0  0  0  0  0  0  0  0  0  0  0
 ITRead=  0  0  0  0  0  0  0  0  0  0  0  0  0  0  0
 MicOpt= -1 -1 -1 -1 -1 -1 -1 -1 -1 -1 -1 -1 -1 -1 -1 -1 -1 -1 -1 -1
 MicOpt= -1 -1 -1 -1 -1 -1 -1 -1 -1 -1 -1 -1 -1 -1 -1 -1 -1 -1 -1 -1
 MicOpt= -1 -1 -1 -1 -1 -1 -1 -1 -1 -1 -1 -1 -1 -1 -1
 NAtoms=     55 NQM=       55 NQMF=       0 NMMI=      0 NMMIF=      0
                NMic=       0 NMicF=      0.
                    Isotopes and Nuclear Properties:
 (Nuclear quadrupole moments (NQMom) in fm**2, nuclear magnetic moments (NMagM)
  in nuclear magnetons)

  Atom         1           2           3           4           5           6           7           8           9          10
 IAtWgt=          12          12          12          12          12           1           1           1           1           1
 AtmWgt=  12.0000000  12.0000000  12.0000000  12.0000000  12.0000000   1.0078250   1.0078250   1.0078250   1.0078250   1.0078250
 NucSpn=           0           0           0           0           0           1           1           1           1           1
 AtZEff=   0.0000000   0.0000000   0.0000000   0.0000000   0.0000000   0.0000000   0.0000000   0.0000000   0.0000000   0.0000000
 NQMom=    0.0000000   0.0000000   0.0000000   0.0000000   0.0000000   0.0000000   0.0000000   0.0000000   0.0000000   0.0000000
 NMagM=    0.0000000   0.0000000   0.0000000   0.0000000   0.0000000   2.7928460   2.7928460   2.7928460   2.7928460   2.7928460
 AtZNuc=   6.0000000   6.0000000   6.0000000   6.0000000   6.0000000   1.0000000   1.0000000   1.0000000   1.0000000   1.0000000

  Atom        11          12          13          14          15          16          17          18          19          20
 IAtWgt=          16          16          16          16          16          12           1           1          16          32
 AtmWgt=  15.9949146  15.9949146  15.9949146  15.9949146  15.9949146  12.0000000   1.0078250   1.0078250  15.9949146  31.9720718
 NucSpn=           0           0           0           0           0           0           1           1           0           0
 AtZEff=   0.0000000   0.0000000   0.0000000   0.0000000   0.0000000   0.0000000   0.0000000   0.0000000   0.0000000   0.0000000
 NQMom=    0.0000000   0.0000000   0.0000000   0.0000000   0.0000000   0.0000000   0.0000000   0.0000000   0.0000000   0.0000000
 NMagM=    0.0000000   0.0000000   0.0000000   0.0000000   0.0000000   0.0000000   2.7928460   2.7928460   0.0000000   0.0000000
 AtZNuc=   8.0000000   8.0000000   8.0000000   8.0000000   8.0000000   6.0000000   1.0000000   1.0000000   8.0000000  16.0000000

  Atom        21          22          23          24          25          26          27          28          29          30
 IAtWgt=          16          16          12          12          12          12           1          12           1          12
 AtmWgt=  15.9949146  15.9949146  12.0000000  12.0000000  12.0000000  12.0000000   1.0078250  12.0000000   1.0078250  12.0000000
 NucSpn=           0           0           0           0           0           0           1           0           1           0
 AtZEff=   0.0000000   0.0000000   0.0000000   0.0000000   0.0000000   0.0000000   0.0000000   0.0000000   0.0000000   0.0000000
 NQMom=    0.0000000   0.0000000   0.0000000   0.0000000   0.0000000   0.0000000   0.0000000   0.0000000   0.0000000   0.0000000
 NMagM=    0.0000000   0.0000000   0.0000000   0.0000000   0.0000000   0.0000000   2.7928460   0.0000000   2.7928460   0.0000000
 AtZNuc=   8.0000000   8.0000000   6.0000000   6.0000000   6.0000000   6.0000000   1.0000000   6.0000000   1.0000000   6.0000000

  Atom        31          32          33          34          35          36          37          38          39          40
 IAtWgt=           1          12           1           1           1          12           1           1           1          12
 AtmWgt=   1.0078250  12.0000000   1.0078250   1.0078250   1.0078250  12.0000000   1.0078250   1.0078250   1.0078250  12.0000000
 NucSpn=           1           0           1           1           1           0           1           1           1           0
 AtZEff=   0.0000000   0.0000000   0.0000000   0.0000000   0.0000000   0.0000000   0.0000000   0.0000000   0.0000000   0.0000000
 NQMom=    0.0000000   0.0000000   0.0000000   0.0000000   0.0000000   0.0000000   0.0000000   0.0000000   0.0000000   0.0000000
 NMagM=    2.7928460   0.0000000   2.7928460   2.7928460   2.7928460   0.0000000   2.7928460   2.7928460   2.7928460   0.0000000
 AtZNuc=   1.0000000   6.0000000   1.0000000   1.0000000   1.0000000   6.0000000   1.0000000   1.0000000   1.0000000   6.0000000

  Atom        41          42          43          44          45          46          47          48          49          50
 IAtWgt=           1           1           1          12           1           1           1          12          19          19
 AtmWgt=   1.0078250   1.0078250   1.0078250  12.0000000   1.0078250   1.0078250   1.0078250  12.0000000  18.9984033  18.9984033
 NucSpn=           1           1           1           0           1           1           1           0           1           1
 AtZEff=   0.0000000   0.0000000   0.0000000   0.0000000   0.0000000   0.0000000   0.0000000   0.0000000   0.0000000   0.0000000
 NQMom=    0.0000000   0.0000000   0.0000000   0.0000000   0.0000000   0.0000000   0.0000000   0.0000000   0.0000000   0.0000000
 NMagM=    2.7928460   2.7928460   2.7928460   0.0000000   2.7928460   2.7928460   2.7928460   0.0000000   2.6288670   2.6288670
 AtZNuc=   1.0000000   1.0000000   1.0000000   6.0000000   1.0000000   1.0000000   1.0000000   6.0000000   9.0000000   9.0000000

  Atom        51          52          53          54          55
 IAtWgt=          19          12          19          19          19
 AtmWgt=  18.9984033  12.0000000  18.9984033  18.9984033  18.9984033
 NucSpn=           1           0           1           1           1
 AtZEff=   0.0000000   0.0000000   0.0000000   0.0000000   0.0000000
 NQMom=    0.0000000   0.0000000   0.0000000   0.0000000   0.0000000
 NMagM=    2.6288670   0.0000000   2.6288670   2.6288670   2.6288670
 AtZNuc=   9.0000000   6.0000000   9.0000000   9.0000000   9.0000000
 Leave Link  101 at Mon Jun 10 05:35:14 2019, MaxMem= 12884901888 cpu:              38.4 elap:               0.7
 (Enter /home/ekwan/sw/g16/l103.exe)

 GradGradGradGradGradGradGradGradGradGradGradGradGradGradGradGradGradGrad
 Berny optimization.
 Initialization pass.
                           ----------------------------
                           !    Initial Parameters    !
                           ! (Angstroms and Degrees)  !
 --------------------------                            --------------------------
 ! Name  Definition              Value          Derivative Info.                !
 --------------------------------------------------------------------------------
 ! R1    R(1,2)                  1.5293         estimate D2E/DX2                !
 ! R2    R(1,5)                  1.5264         estimate D2E/DX2                !
 ! R3    R(1,8)                  1.0942         estimate D2E/DX2                !
 ! R4    R(1,14)                 1.4079         estimate D2E/DX2                !
 ! R5    R(2,3)                  1.5387         estimate D2E/DX2                !
 ! R6    R(2,7)                  1.0966         estimate D2E/DX2                !
 ! R7    R(2,13)                 1.3988         estimate D2E/DX2                !
 ! R8    R(3,6)                  1.086          estimate D2E/DX2                !
 ! R9    R(3,11)                 1.3843         estimate D2E/DX2                !
 ! R10   R(3,12)                 1.4477         estimate D2E/DX2                !
 ! R11   R(4,5)                  1.5313         estimate D2E/DX2                !
 ! R12   R(4,9)                  1.0941         estimate D2E/DX2                !
 ! R13   R(4,11)                 1.4326         estimate D2E/DX2                !
 ! R14   R(4,16)                 1.5297         estimate D2E/DX2                !
 ! R15   R(5,10)                 1.0934         estimate D2E/DX2                !
 ! R16   R(5,15)                 1.408          estimate D2E/DX2                !
 ! R17   R(12,20)                1.5981         estimate D2E/DX2                !
 ! R18   R(13,32)                1.421          estimate D2E/DX2                !
 ! R19   R(14,36)                1.4212         estimate D2E/DX2                !
 ! R20   R(15,40)                1.4225         estimate D2E/DX2                !
 ! R21   R(16,17)                1.0881         estimate D2E/DX2                !
 ! R22   R(16,18)                1.0936         estimate D2E/DX2                !
 ! R23   R(16,19)                1.408          estimate D2E/DX2                !
 ! R24   R(19,44)                1.421          estimate D2E/DX2                !
 ! R25   R(20,21)                1.4422         estimate D2E/DX2                !
 ! R26   R(20,22)                1.4481         estimate D2E/DX2                !
 ! R27   R(20,23)                1.7733         estimate D2E/DX2                !
 ! R28   R(23,24)                1.3875         estimate D2E/DX2                !
 ! R29   R(23,25)                1.3896         estimate D2E/DX2                !
 ! R30   R(24,26)                1.3913         estimate D2E/DX2                !
 ! R31   R(24,27)                1.0825         estimate D2E/DX2                !
 ! R32   R(25,28)                1.3879         estimate D2E/DX2                !
 ! R33   R(25,29)                1.0817         estimate D2E/DX2                !
 ! R34   R(26,30)                1.3892         estimate D2E/DX2                !
 ! R35   R(26,48)                1.5089         estimate D2E/DX2                !
 ! R36   R(28,30)                1.3923         estimate D2E/DX2                !
 ! R37   R(28,52)                1.5078         estimate D2E/DX2                !
 ! R38   R(30,31)                1.0817         estimate D2E/DX2                !
 ! R39   R(32,33)                1.0918         estimate D2E/DX2                !
 ! R40   R(32,34)                1.0921         estimate D2E/DX2                !
 ! R41   R(32,35)                1.0858         estimate D2E/DX2                !
 ! R42   R(36,37)                1.0868         estimate D2E/DX2                !
 ! R43   R(36,38)                1.0921         estimate D2E/DX2                !
 ! R44   R(36,39)                1.089          estimate D2E/DX2                !
 ! R45   R(40,41)                1.0868         estimate D2E/DX2                !
 ! R46   R(40,42)                1.0894         estimate D2E/DX2                !
 ! R47   R(40,43)                1.0913         estimate D2E/DX2                !
 ! R48   R(44,45)                1.087          estimate D2E/DX2                !
 ! R49   R(44,46)                1.0922         estimate D2E/DX2                !
 ! R50   R(44,47)                1.0897         estimate D2E/DX2                !
 ! R51   R(48,49)                1.3388         estimate D2E/DX2                !
 ! R52   R(48,50)                1.3397         estimate D2E/DX2                !
 ! R53   R(48,51)                1.3387         estimate D2E/DX2                !
 ! R54   R(52,53)                1.3447         estimate D2E/DX2                !
 ! R55   R(52,54)                1.3377         estimate D2E/DX2                !
 ! R56   R(52,55)                1.3371         estimate D2E/DX2                !
 ! A1    A(2,1,5)              110.3119         estimate D2E/DX2                !
 ! A2    A(2,1,8)              109.0435         estimate D2E/DX2                !
 ! A3    A(2,1,14)             109.7609         estimate D2E/DX2                !
 ! A4    A(5,1,8)              108.5953         estimate D2E/DX2                !
 ! A5    A(5,1,14)             108.1533         estimate D2E/DX2                !
 ! A6    A(8,1,14)             110.9641         estimate D2E/DX2                !
 ! A7    A(1,2,3)              110.6804         estimate D2E/DX2                !
 ! A8    A(1,2,7)              108.36           estimate D2E/DX2                !
 ! A9    A(1,2,13)             108.0799         estimate D2E/DX2                !
 ! A10   A(3,2,7)              106.3648         estimate D2E/DX2                !
 ! A11   A(3,2,13)             112.142          estimate D2E/DX2                !
 ! A12   A(7,2,13)             111.1672         estimate D2E/DX2                !
 ! A13   A(2,3,6)              112.1635         estimate D2E/DX2                !
 ! A14   A(2,3,11)             113.0535         estimate D2E/DX2                !
 ! A15   A(2,3,12)             105.913          estimate D2E/DX2                !
 ! A16   A(6,3,11)             106.946          estimate D2E/DX2                !
 ! A17   A(6,3,12)             108.2792         estimate D2E/DX2                !
 ! A18   A(11,3,12)            110.4301         estimate D2E/DX2                !
 ! A19   A(5,4,9)              108.8461         estimate D2E/DX2                !
 ! A20   A(5,4,11)             110.5015         estimate D2E/DX2                !
 ! A21   A(5,4,16)             110.9883         estimate D2E/DX2                !
 ! A22   A(9,4,11)             109.4652         estimate D2E/DX2                !
 ! A23   A(9,4,16)             108.4632         estimate D2E/DX2                !
 ! A24   A(11,4,16)            108.54           estimate D2E/DX2                !
 ! A25   A(1,5,4)              110.9185         estimate D2E/DX2                !
 ! A26   A(1,5,10)             109.0451         estimate D2E/DX2                !
 ! A27   A(1,5,15)             109.6407         estimate D2E/DX2                !
 ! A28   A(4,5,10)             108.6736         estimate D2E/DX2                !
 ! A29   A(4,5,15)             107.4373         estimate D2E/DX2                !
 ! A30   A(10,5,15)            111.1205         estimate D2E/DX2                !
 ! A31   A(3,11,4)             115.7035         estimate D2E/DX2                !
 ! A32   A(3,12,20)            118.252          estimate D2E/DX2                !
 ! A33   A(2,13,32)            115.0081         estimate D2E/DX2                !
 ! A34   A(1,14,36)            114.4247         estimate D2E/DX2                !
 ! A35   A(5,15,40)            114.1027         estimate D2E/DX2                !
 ! A36   A(4,16,17)            107.3503         estimate D2E/DX2                !
 ! A37   A(4,16,18)            109.0719         estimate D2E/DX2                !
 ! A38   A(4,16,19)            113.4668         estimate D2E/DX2                !
 ! A39   A(17,16,18)           109.5332         estimate D2E/DX2                !
 ! A40   A(17,16,19)           106.6804         estimate D2E/DX2                !
 ! A41   A(18,16,19)           110.613          estimate D2E/DX2                !
 ! A42   A(16,19,44)           114.9777         estimate D2E/DX2                !
 ! A43   A(12,20,21)           105.2792         estimate D2E/DX2                !
 ! A44   A(12,20,22)           108.1403         estimate D2E/DX2                !
 ! A45   A(12,20,23)           103.7863         estimate D2E/DX2                !
 ! A46   A(21,20,22)           121.086          estimate D2E/DX2                !
 ! A47   A(21,20,23)           108.8058         estimate D2E/DX2                !
 ! A48   A(22,20,23)           108.3915         estimate D2E/DX2                !
 ! A49   A(20,23,24)           118.5255         estimate D2E/DX2                !
 ! A50   A(20,23,25)           118.6513         estimate D2E/DX2                !
 ! A51   A(24,23,25)           122.8106         estimate D2E/DX2                !
 ! A52   A(23,24,26)           117.8341         estimate D2E/DX2                !
 ! A53   A(23,24,27)           120.7371         estimate D2E/DX2                !
 ! A54   A(26,24,27)           121.4286         estimate D2E/DX2                !
 ! A55   A(23,25,28)           117.7236         estimate D2E/DX2                !
 ! A56   A(23,25,29)           120.7073         estimate D2E/DX2                !
 ! A57   A(28,25,29)           121.5691         estimate D2E/DX2                !
 ! A58   A(24,26,30)           121.148          estimate D2E/DX2                !
 ! A59   A(24,26,48)           119.0747         estimate D2E/DX2                !
 ! A60   A(30,26,48)           119.7291         estimate D2E/DX2                !
 ! A61   A(25,28,30)           121.3025         estimate D2E/DX2                !
 ! A62   A(25,28,52)           119.4463         estimate D2E/DX2                !
 ! A63   A(30,28,52)           119.1643         estimate D2E/DX2                !
 ! A64   A(26,30,28)           119.1796         estimate D2E/DX2                !
 ! A65   A(26,30,31)           120.4206         estimate D2E/DX2                !
 ! A66   A(28,30,31)           120.3997         estimate D2E/DX2                !
 ! A67   A(13,32,33)           111.0908         estimate D2E/DX2                !
 ! A68   A(13,32,34)           110.5203         estimate D2E/DX2                !
 ! A69   A(13,32,35)           106.601          estimate D2E/DX2                !
 ! A70   A(33,32,34)           109.7614         estimate D2E/DX2                !
 ! A71   A(33,32,35)           109.1419         estimate D2E/DX2                !
 ! A72   A(34,32,35)           109.6619         estimate D2E/DX2                !
 ! A73   A(14,36,37)           106.6421         estimate D2E/DX2                !
 ! A74   A(14,36,38)           110.1073         estimate D2E/DX2                !
 ! A75   A(14,36,39)           110.5635         estimate D2E/DX2                !
 ! A76   A(37,36,38)           109.549          estimate D2E/DX2                !
 ! A77   A(37,36,39)           109.9783         estimate D2E/DX2                !
 ! A78   A(38,36,39)           109.9442         estimate D2E/DX2                !
 ! A79   A(15,40,41)           106.6549         estimate D2E/DX2                !
 ! A80   A(15,40,42)           110.2239         estimate D2E/DX2                !
 ! A81   A(15,40,43)           110.0128         estimate D2E/DX2                !
 ! A82   A(41,40,42)           109.9895         estimate D2E/DX2                !
 ! A83   A(41,40,43)           109.8127         estimate D2E/DX2                !
 ! A84   A(42,40,43)           110.0891         estimate D2E/DX2                !
 ! A85   A(19,44,45)           106.663          estimate D2E/DX2                !
 ! A86   A(19,44,46)           110.2727         estimate D2E/DX2                !
 ! A87   A(19,44,47)           111.3063         estimate D2E/DX2                !
 ! A88   A(45,44,46)           109.6494         estimate D2E/DX2                !
 ! A89   A(45,44,47)           109.7758         estimate D2E/DX2                !
 ! A90   A(46,44,47)           109.1404         estimate D2E/DX2                !
 ! A91   A(26,48,49)           111.1667         estimate D2E/DX2                !
 ! A92   A(26,48,50)           111.2721         estimate D2E/DX2                !
 ! A93   A(26,48,51)           111.3312         estimate D2E/DX2                !
 ! A94   A(49,48,50)           107.3569         estimate D2E/DX2                !
 ! A95   A(49,48,51)           108.0744         estimate D2E/DX2                !
 ! A96   A(50,48,51)           107.4524         estimate D2E/DX2                !
 ! A97   A(28,52,53)           110.9614         estimate D2E/DX2                !
 ! A98   A(28,52,54)           111.4682         estimate D2E/DX2                !
 ! A99   A(28,52,55)           111.5716         estimate D2E/DX2                !
 ! A100  A(53,52,54)           107.0741         estimate D2E/DX2                !
 ! A101  A(53,52,55)           107.3041         estimate D2E/DX2                !
 ! A102  A(54,52,55)           108.2511         estimate D2E/DX2                !
 ! D1    D(5,1,2,3)            -50.2829         estimate D2E/DX2                !
 ! D2    D(5,1,2,7)             65.9861         estimate D2E/DX2                !
 ! D3    D(5,1,2,13)          -173.4456         estimate D2E/DX2                !
 ! D4    D(8,1,2,3)             68.892          estimate D2E/DX2                !
 ! D5    D(8,1,2,7)           -174.839          estimate D2E/DX2                !
 ! D6    D(8,1,2,13)           -54.2707         estimate D2E/DX2                !
 ! D7    D(14,1,2,3)          -169.3598         estimate D2E/DX2                !
 ! D8    D(14,1,2,7)           -53.0908         estimate D2E/DX2                !
 ! D9    D(14,1,2,13)           67.4775         estimate D2E/DX2                !
 ! D10   D(2,1,5,4)             52.9395         estimate D2E/DX2                !
 ! D11   D(2,1,5,10)           -66.7018         estimate D2E/DX2                !
 ! D12   D(2,1,5,15)           171.4315         estimate D2E/DX2                !
 ! D13   D(8,1,5,4)            -66.5075         estimate D2E/DX2                !
 ! D14   D(8,1,5,10)           173.8512         estimate D2E/DX2                !
 ! D15   D(8,1,5,15)            51.9845         estimate D2E/DX2                !
 ! D16   D(14,1,5,4)           172.9899         estimate D2E/DX2                !
 ! D17   D(14,1,5,10)           53.3486         estimate D2E/DX2                !
 ! D18   D(14,1,5,15)          -68.518          estimate D2E/DX2                !
 ! D19   D(2,1,14,36)         -103.5358         estimate D2E/DX2                !
 ! D20   D(5,1,14,36)          136.0689         estimate D2E/DX2                !
 ! D21   D(8,1,14,36)           17.0565         estimate D2E/DX2                !
 ! D22   D(1,2,3,6)            172.3178         estimate D2E/DX2                !
 ! D23   D(1,2,3,11)            51.2937         estimate D2E/DX2                !
 ! D24   D(1,2,3,12)           -69.758          estimate D2E/DX2                !
 ! D25   D(7,2,3,6)             54.8182         estimate D2E/DX2                !
 ! D26   D(7,2,3,11)           -66.2059         estimate D2E/DX2                !
 ! D27   D(7,2,3,12)           172.7425         estimate D2E/DX2                !
 ! D28   D(13,2,3,6)           -66.9032         estimate D2E/DX2                !
 ! D29   D(13,2,3,11)          172.0726         estimate D2E/DX2                !
 ! D30   D(13,2,3,12)           51.021          estimate D2E/DX2                !
 ! D31   D(1,2,13,32)         -172.5169         estimate D2E/DX2                !
 ! D32   D(3,2,13,32)           65.2126         estimate D2E/DX2                !
 ! D33   D(7,2,13,32)          -53.7183         estimate D2E/DX2                !
 ! D34   D(2,3,11,4)           -55.6472         estimate D2E/DX2                !
 ! D35   D(6,3,11,4)          -179.5839         estimate D2E/DX2                !
 ! D36   D(12,3,11,4)           62.8099         estimate D2E/DX2                !
 ! D37   D(2,3,12,20)         -159.7412         estimate D2E/DX2                !
 ! D38   D(6,3,12,20)          -39.2568         estimate D2E/DX2                !
 ! D39   D(11,3,12,20)          77.5257         estimate D2E/DX2                !
 ! D40   D(9,4,5,1)             65.7047         estimate D2E/DX2                !
 ! D41   D(9,4,5,10)          -174.432          estimate D2E/DX2                !
 ! D42   D(9,4,5,15)           -54.1121         estimate D2E/DX2                !
 ! D43   D(11,4,5,1)           -54.5303         estimate D2E/DX2                !
 ! D44   D(11,4,5,10)           65.333          estimate D2E/DX2                !
 ! D45   D(11,4,5,15)         -174.3471         estimate D2E/DX2                !
 ! D46   D(16,4,5,1)          -174.9969         estimate D2E/DX2                !
 ! D47   D(16,4,5,10)          -55.1336         estimate D2E/DX2                !
 ! D48   D(16,4,5,15)           65.1864         estimate D2E/DX2                !
 ! D49   D(5,4,11,3)            56.9157         estimate D2E/DX2                !
 ! D50   D(9,4,11,3)           -62.9476         estimate D2E/DX2                !
 ! D51   D(16,4,11,3)          178.8354         estimate D2E/DX2                !
 ! D52   D(5,4,16,17)          -71.4462         estimate D2E/DX2                !
 ! D53   D(5,4,16,18)          169.9564         estimate D2E/DX2                !
 ! D54   D(5,4,16,19)           46.1645         estimate D2E/DX2                !
 ! D55   D(9,4,16,17)           48.0815         estimate D2E/DX2                !
 ! D56   D(9,4,16,18)          -70.5159         estimate D2E/DX2                !
 ! D57   D(9,4,16,19)          165.6922         estimate D2E/DX2                !
 ! D58   D(11,4,16,17)         166.9318         estimate D2E/DX2                !
 ! D59   D(11,4,16,18)          48.3344         estimate D2E/DX2                !
 ! D60   D(11,4,16,19)         -75.4575         estimate D2E/DX2                !
 ! D61   D(1,5,15,40)          107.1006         estimate D2E/DX2                !
 ! D62   D(4,5,15,40)         -132.272          estimate D2E/DX2                !
 ! D63   D(10,5,15,40)         -13.5151         estimate D2E/DX2                !
 ! D64   D(3,12,20,21)         167.4431         estimate D2E/DX2                !
 ! D65   D(3,12,20,22)          36.6947         estimate D2E/DX2                !
 ! D66   D(3,12,20,23)         -78.2819         estimate D2E/DX2                !
 ! D67   D(2,13,32,33)         -73.4727         estimate D2E/DX2                !
 ! D68   D(2,13,32,34)          48.6198         estimate D2E/DX2                !
 ! D69   D(2,13,32,35)         167.7293         estimate D2E/DX2                !
 ! D70   D(1,14,36,37)         177.9765         estimate D2E/DX2                !
 ! D71   D(1,14,36,38)         -63.2505         estimate D2E/DX2                !
 ! D72   D(1,14,36,39)          58.4381         estimate D2E/DX2                !
 ! D73   D(5,15,40,41)        -179.0779         estimate D2E/DX2                !
 ! D74   D(5,15,40,42)         -59.7064         estimate D2E/DX2                !
 ! D75   D(5,15,40,43)          61.8778         estimate D2E/DX2                !
 ! D76   D(4,16,19,44)          75.6842         estimate D2E/DX2                !
 ! D77   D(17,16,19,44)       -166.3163         estimate D2E/DX2                !
 ! D78   D(18,16,19,44)        -47.2632         estimate D2E/DX2                !
 ! D79   D(16,19,44,45)        164.5333         estimate D2E/DX2                !
 ! D80   D(16,19,44,46)         45.5378         estimate D2E/DX2                !
 ! D81   D(16,19,44,47)        -75.7432         estimate D2E/DX2                !
 ! D82   D(12,20,23,24)        -83.8961         estimate D2E/DX2                !
 ! D83   D(12,20,23,25)         94.8487         estimate D2E/DX2                !
 ! D84   D(21,20,23,24)         27.8318         estimate D2E/DX2                !
 ! D85   D(21,20,23,25)       -153.4234         estimate D2E/DX2                !
 ! D86   D(22,20,23,24)        161.3059         estimate D2E/DX2                !
 ! D87   D(22,20,23,25)        -19.9493         estimate D2E/DX2                !
 ! D88   D(20,23,24,26)        178.2034         estimate D2E/DX2                !
 ! D89   D(20,23,24,27)         -1.9367         estimate D2E/DX2                !
 ! D90   D(25,23,24,26)         -0.486          estimate D2E/DX2                !
 ! D91   D(25,23,24,27)        179.3739         estimate D2E/DX2                !
 ! D92   D(20,23,25,28)       -178.3333         estimate D2E/DX2                !
 ! D93   D(20,23,25,29)          1.7457         estimate D2E/DX2                !
 ! D94   D(24,23,25,28)          0.3545         estimate D2E/DX2                !
 ! D95   D(24,23,25,29)       -179.5664         estimate D2E/DX2                !
 ! D96   D(23,24,26,30)          0.2697         estimate D2E/DX2                !
 ! D97   D(23,24,26,48)        177.7367         estimate D2E/DX2                !
 ! D98   D(27,24,26,30)       -179.5891         estimate D2E/DX2                !
 ! D99   D(27,24,26,48)         -2.1222         estimate D2E/DX2                !
 ! D100  D(23,25,28,30)         -0.0025         estimate D2E/DX2                !
 ! D101  D(23,25,28,52)        176.5793         estimate D2E/DX2                !
 ! D102  D(29,25,28,30)        179.9178         estimate D2E/DX2                !
 ! D103  D(29,25,28,52)         -3.5005         estimate D2E/DX2                !
 ! D104  D(24,26,30,28)          0.0595         estimate D2E/DX2                !
 ! D105  D(24,26,30,31)       -179.9539         estimate D2E/DX2                !
 ! D106  D(48,26,30,28)       -177.3911         estimate D2E/DX2                !
 ! D107  D(48,26,30,31)          2.5955         estimate D2E/DX2                !
 ! D108  D(24,26,48,49)         34.5051         estimate D2E/DX2                !
 ! D109  D(24,26,48,50)        -85.1016         estimate D2E/DX2                !
 ! D110  D(24,26,48,51)        155.0606         estimate D2E/DX2                !
 ! D111  D(30,26,48,49)       -147.9913         estimate D2E/DX2                !
 ! D112  D(30,26,48,50)         92.402          estimate D2E/DX2                !
 ! D113  D(30,26,48,51)        -27.4358         estimate D2E/DX2                !
 ! D114  D(25,28,30,26)         -0.1974         estimate D2E/DX2                !
 ! D115  D(25,28,30,31)        179.8159         estimate D2E/DX2                !
 ! D116  D(52,28,30,26)       -176.7887         estimate D2E/DX2                !
 ! D117  D(52,28,30,31)          3.2247         estimate D2E/DX2                !
 ! D118  D(25,28,52,53)        -92.9746         estimate D2E/DX2                !
 ! D119  D(25,28,52,54)        147.7824         estimate D2E/DX2                !
 ! D120  D(25,28,52,55)         26.6273         estimate D2E/DX2                !
 ! D121  D(30,28,52,53)         83.6808         estimate D2E/DX2                !
 ! D122  D(30,28,52,54)        -35.5622         estimate D2E/DX2                !
 ! D123  D(30,28,52,55)       -156.7173         estimate D2E/DX2                !
 --------------------------------------------------------------------------------
 Trust Radius=3.00D-01 FncErr=1.00D-07 GrdErr=1.00D-06 EigMax=2.50D+02 EigMin=1.00D-04
 Number of steps in this run=    291 maximum allowed number of steps=    330.
 GradGradGradGradGradGradGradGradGradGradGradGradGradGradGradGradGradGrad

 Leave Link  103 at Mon Jun 10 05:35:14 2019, MaxMem= 12884901888 cpu:               4.9 elap:               0.1
 (Enter /home/ekwan/sw/g16/l202.exe)
 Stoichiometry    C18H22F6O8S
 Framework group  C1[X(C18H22F6O8S)]
 Deg. of freedom   159
 Full point group                 C1      NOp   1
 Largest Abelian subgroup         C1      NOp   1
 Largest concise Abelian subgroup C1      NOp   1
                         Standard orientation:                         
 ---------------------------------------------------------------------
 Center     Atomic      Atomic             Coordinates (Angstroms)
 Number     Number       Type             X           Y           Z
 ---------------------------------------------------------------------
      1          6           0        3.376729    0.287342    0.632066
      2          6           0        3.301518   -0.452377   -0.704300
      3          6           0        1.838233   -0.733645   -1.088103
      4          6           0        1.024054    1.086705    0.220413
      5          6           0        2.444005    1.495520    0.622130
      6          1           0        1.748406   -1.137436   -2.092269
      7          1           0        3.705229    0.203225   -1.485209
      8          1           0        3.062903   -0.389140    1.432726
      9          1           0        0.612463    0.431992    0.994365
     10          1           0        2.815404    2.227051   -0.100674
     11          8           0        1.037165    0.393959   -1.033507
     12          8           0        1.367741   -1.733532   -0.152861
     13          8           0        4.052555   -1.627223   -0.593039
     14          8           0        4.689457    0.748368    0.847734
     15          8           0        2.373782    2.049848    1.914563
     16          6           0        0.117404    2.311865    0.089797
     17          1           0       -0.067436    2.687292    1.094165
     18          1           0       -0.828864    2.009060   -0.367293
     19          8           0        0.702529    3.367671   -0.634983
     20         16           0        0.085475   -2.599465   -0.552758
     21          8           0        0.044558   -3.680635    0.400807
     22          8           0        0.143182   -2.859678   -1.976168
     23          6           0       -1.276318   -1.508047   -0.238277
     24          6           0       -1.774795   -1.425773    1.054014
     25          6           0       -1.781257   -0.752591   -1.289615
     26          6           0       -2.818211   -0.536824    1.292452
     27          1           0       -1.362507   -2.037703    1.846029
     28          6           0       -2.823850    0.121236   -1.014384
     29          1           0       -1.371201   -0.848980   -2.285893
     30          6           0       -3.348582    0.239636    0.269799
     31          1           0       -4.159309    0.927559    0.468540
     32          6           0        4.221501   -2.349256   -1.805200
     33          1           0        3.297010   -2.852743   -2.094705
     34          1           0        4.544891   -1.681562   -2.606616
     35          1           0        4.989098   -3.094144   -1.618191
     36          6           0        5.435241   -0.018277    1.783689
     37          1           0        6.428256    0.421451    1.825264
     38          1           0        4.969601    0.036851    2.769963
     39          1           0        5.501234   -1.056458    1.461566
     40          6           0        3.064666    3.285370    2.055069
     41          1           0        2.946781    3.592112    3.091004
     42          1           0        4.121065    3.154599    1.823307
     43          1           0        2.626182    4.035622    1.394974
     44          6           0        0.741309    3.179821   -2.042969
     45          1           0        0.948703    4.152518   -2.481596
     46          1           0       -0.222478    2.812793   -2.402467
     47          1           0        1.521071    2.473524   -2.326869
     48          6           0       -3.416116   -0.462025    2.675845
     49          9           0       -2.484372   -0.660412    3.616571
     50          9           0       -4.362308   -1.394817    2.847486
     51          9           0       -3.982877    0.730304    2.897559
     52          6           0       -3.349560    1.015875   -2.108304
     53          9           0       -2.733440    2.210991   -2.090048
     54          9           0       -4.659338    1.246977   -1.964679
     55          9           0       -3.148516    0.483224   -3.318121
 ---------------------------------------------------------------------
 Rotational constants (GHZ):           0.1522878           0.0858513           0.0838618
 Leave Link  202 at Mon Jun 10 05:35:15 2019, MaxMem= 12884901888 cpu:              10.3 elap:               0.2
 (Enter /home/ekwan/sw/g16/l301.exe)
 Standard basis: 6-31G(d) (6D, 7F)
 Ernie: Thresh=  0.10000D-02 Tol=  0.10000D-05 Strict=F.
 There are   543 symmetry adapted cartesian basis functions of A   symmetry.
 There are   543 symmetry adapted basis functions of A   symmetry.
   543 basis functions,  1036 primitive gaussians,   543 cartesian basis functions
   132 alpha electrons      132 beta electrons
       nuclear repulsion energy      4369.7604182449 Hartrees.
 IExCor= 4033 DFT=T Ex+Corr=M06HF ExCW=0 ScaHFX=  1.000000
 ScaDFX=  1.000000  1.000000  1.000000  1.000000 ScalE2=  1.000000  1.000000
 IRadAn=      5 IRanWt=     -1 IRanGd=            0 ICorTp=0 IEmpDi=131
 NAtoms=   55 NActive=   55 NUniq=   55 SFac= 1.00D+00 NAtFMM=   60 NAOKFM=F Big=F
 Integral buffers will be    131072 words long.
 Raffenetti 2 integral format.
 Two-electron integral symmetry is turned on.
 R6Disp:  Grimme-D3 Dispersion energy=       -0.0100829579 Hartrees.
 Nuclear repulsion after empirical dispersion term =     4369.7503352870 Hartrees.
 ------------------------------------------------------------------------------
 Polarizable Continuum Model (PCM)
 =================================
 Model                : PCM.
 Atomic radii         : UFF (Universal Force Field).
 Polarization charges : Total charges.
 Charge compensation  : None.
 Solution method      : On-the-fly selection.
 Cavity type          : Scaled VdW (van der Waals Surface) (Alpha=1.100).
 Cavity algorithm     : GePol (No added spheres)
                        Default sphere list used, NSphG=   55.
                        Lebedev-Laikov grids with approx.  5.0 points / Ang**2.
                        Smoothing algorithm: York/Karplus (Gamma=1.0000).
                        Polarization charges: spherical gaussians, with
                                              point-specific exponents (IZeta= 3).
                        Self-potential: point-specific (ISelfS= 7).
                        Self-field    : sphere-specific E.n sum rule (ISelfD= 2).
 1st derivatives      : Analytical E(r).r(x)/FMM algorithm (CHGder, D1EAlg=3).
                        Cavity 1st derivative terms included.
 Solvent              : TetraHydroFuran, Eps=   7.425700 Eps(inf)=   1.974025
 ------------------------------------------------------------------------------
 GePol: Number of generator spheres                  =      55
 GePol: Total number of spheres                      =      55
 GePol: Number of exposed spheres                    =      55 (100.00%)
 GePol: Number of points                             =    3865
 GePol: Average weight of points                     =       0.13
 GePol: Minimum weight of points                     =   0.38D-09
 GePol: Maximum weight of points                     =    0.20577
 GePol: Number of points with low weight             =     254
 GePol: Fraction of low-weight points (<1% of avg)   =       6.57%
 GePol: Cavity surface area                          =    488.784 Ang**2
 GePol: Cavity volume                                =    572.434 Ang**3
 Leave Link  301 at Mon Jun 10 05:35:15 2019, MaxMem= 12884901888 cpu:              16.9 elap:               0.3
 (Enter /home/ekwan/sw/g16/l302.exe)
 NPDir=0 NMtPBC=     1 NCelOv=     1 NCel=       1 NClECP=     1 NCelD=      1
         NCelK=      1 NCelE2=     1 NClLst=     1 CellRange=     0.0.
 One-electron integrals computed using PRISM.
 One-electron integral symmetry used in STVInt
 NBasis=   543 RedAO= T EigKep=  4.15D-04  NBF=   543
 NBsUse=   543 1.00D-06 EigRej= -1.00D+00 NBFU=   543
 Precomputing XC quadrature grid using
 IXCGrd= 4 IRadAn=           5 IRanWt=          -1 IRanGd=           0 AccXCQ= 0.00D+00.
 Generated NRdTot=       0 NPtTot=           0 NUsed=           0 NTot=          32
 NSgBfM=   532   532   532   532   532 MxSgAt=    55 MxSgA2=    55.
 Leave Link  302 at Mon Jun 10 05:35:23 2019, MaxMem= 12884901888 cpu:             452.3 elap:               7.5
 (Enter /home/ekwan/sw/g16/l303.exe)
 DipDrv:  MaxL=1.
 Leave Link  303 at Mon Jun 10 05:35:23 2019, MaxMem= 12884901888 cpu:              18.1 elap:               0.4
 (Enter /home/ekwan/sw/g16/l401.exe)
 ExpMin= 1.17D-01 ExpMax= 2.19D+04 ExpMxC= 3.30D+03 IAcc=3 IRadAn=         5 AccDes= 0.00D+00
 Harris functional with IExCor= 1009 and IRadAn=       5 diagonalized for initial guess.
 HarFok:  IExCor= 1009 AccDes= 0.00D+00 IRadAn=         5 IDoV= 1 UseB2=F ITyADJ=14
 ICtDFT=  3500011 ScaDFX=  1.000000  1.000000  1.000000  1.000000
 FoFCou: FMM=F IPFlag=           0 FMFlag=      100000 FMFlg1=           0
         NFxFlg=           0 DoJE=T BraDBF=F KetDBF=T FulRan=T
         wScrn=  0.000000 ICntrl=       500 IOpCl=  0 I1Cent=   200000004 NGrid=           0
         NMat0=    1 NMatS0=      1 NMatT0=    0 NMatD0=    1 NMtDS0=    0 NMtDT0=    0
 Petite list used in FoFCou.
 Harris En= -2296.15808115297    
 JPrj=0 DoOrth=F DoCkMO=F.
 Leave Link  401 at Mon Jun 10 05:35:27 2019, MaxMem= 12884901888 cpu:             246.7 elap:               4.0
 (Enter /home/ekwan/sw/g16/l502.exe)
 Integral symmetry usage will be decided dynamically.
 Closed shell SCF:
 Using DIIS extrapolation, IDIIS=  1040.
 NGot= 12884901888 LenX= 12884271583 LenY= 12883976191
 Requested convergence on RMS density matrix=1.00D-08 within 128 cycles.
 Requested convergence on MAX density matrix=1.00D-06.
 Requested convergence on             energy=1.00D-06.
 No special actions if energy rises.
 Fock matrices will be formed incrementally for  20 cycles.

 Cycle   1  Pass 1  IDiag  1:
 FoFJK:  IHMeth= 1 ICntrl=       0 DoSepK=F KAlg= 0 I1Cent=           0 FoldK=F
 IRaf= 700000000 NMat=       1 IRICut=       1 DoRegI=T DoRafI=F ISym2E= 0 IDoP0=0 IntGTp=1.
 FoFCou: FMM=F IPFlag=           0 FMFlag=      100000 FMFlg1=           0
         NFxFlg=           0 DoJE=F BraDBF=F KetDBF=F FulRan=T
         wScrn=  0.000000 ICntrl=         0 IOpCl=  0 I1Cent=           0 NGrid=           0
         NMat0=    1 NMatS0=      1 NMatT0=    0 NMatD0=    1 NMtDS0=    0 NMtDT0=    0
 Symmetry not used in FoFCou.
 Inv3:  Mode=1 IEnd=    44814675.
 Iteration    1 A*A^-1 deviation from unit magnitude is 4.11D-15 for   3855.
 Iteration    1 A*A^-1 deviation from orthogonality  is 4.98D-15 for   3864   2434.
 Iteration    1 A^-1*A deviation from unit magnitude is 3.89D-15 for   3855.
 Iteration    1 A^-1*A deviation from orthogonality  is 7.81D-15 for   2959   2939.
 E= -2296.73323085056    
 DIIS: error= 2.76D-02 at cycle   1 NSaved=   1.
 NSaved= 1 IEnMin= 1 EnMin= -2296.73323085056     IErMin= 1 ErrMin= 2.76D-02
 ErrMax= 2.76D-02  0.00D+00 EMaxC= 1.00D-01 BMatC= 9.91D-01 BMatP= 9.91D-01
 IDIUse=3 WtCom= 7.24D-01 WtEn= 2.76D-01
 Coeff-Com:  0.100D+01
 Coeff-En:   0.100D+01
 Coeff:      0.100D+01
 Gap=     0.400 Goal=   None    Shift=    0.000
 GapD=    0.400 DampG=1.000 DampE=0.500 DampFc=0.5000 IDamp=-1.
 Damping current iteration by 5.00D-01
 RMSDP=2.56D-03 MaxDP=2.83D-01              OVMax= 1.23D-01

 Cycle   2  Pass 1  IDiag  1:
 RMSU=  1.28D-03    CP:  9.97D-01
 E= -2297.11281607895     Delta-E=       -0.379585228393 Rises=F Damp=T
 DIIS: error= 9.16D-03 at cycle   2 NSaved=   2.
 NSaved= 2 IEnMin= 2 EnMin= -2297.11281607895     IErMin= 2 ErrMin= 9.16D-03
 ErrMax= 9.16D-03  0.00D+00 EMaxC= 1.00D-01 BMatC= 1.11D-01 BMatP= 9.91D-01
 IDIUse=3 WtCom= 9.08D-01 WtEn= 9.16D-02
 Coeff-Com: -0.215D+00 0.122D+01
 Coeff-En:   0.000D+00 0.100D+01
 Coeff:     -0.196D+00 0.120D+01
 Gap=     0.420 Goal=   None    Shift=    0.000
 RMSDP=7.26D-04 MaxDP=4.17D-02 DE=-3.80D-01 OVMax= 6.37D-02

 Cycle   3  Pass 1  IDiag  1:
 RMSU=  6.63D-04    CP:  9.95D-01  1.23D+00
 E= -2297.45637520062     Delta-E=       -0.343559121674 Rises=F Damp=F
 DIIS: error= 5.31D-03 at cycle   3 NSaved=   3.
 NSaved= 3 IEnMin= 3 EnMin= -2297.45637520062     IErMin= 3 ErrMin= 5.31D-03
 ErrMax= 5.31D-03  0.00D+00 EMaxC= 1.00D-01 BMatC= 1.81D-02 BMatP= 1.11D-01
 IDIUse=3 WtCom= 9.47D-01 WtEn= 5.31D-02
 Coeff-Com: -0.127D+00 0.329D+00 0.799D+00
 Coeff-En:   0.000D+00 0.000D+00 0.100D+01
 Coeff:     -0.121D+00 0.311D+00 0.809D+00
 Gap=     0.395 Goal=   None    Shift=    0.000
 RMSDP=2.85D-04 MaxDP=2.57D-02 DE=-3.44D-01 OVMax= 2.31D-02

 Cycle   4  Pass 1  IDiag  1:
 RMSU=  2.25D-04    CP:  9.96D-01  1.33D+00  8.13D-01
 E= -2297.46808647465     Delta-E=       -0.011711274031 Rises=F Damp=F
 DIIS: error= 1.53D-03 at cycle   4 NSaved=   4.
 NSaved= 4 IEnMin= 4 EnMin= -2297.46808647465     IErMin= 4 ErrMin= 1.53D-03
 ErrMax= 1.53D-03  0.00D+00 EMaxC= 1.00D-01 BMatC= 2.69D-03 BMatP= 1.81D-02
 IDIUse=3 WtCom= 9.85D-01 WtEn= 1.53D-02
 Coeff-Com: -0.301D-01 0.370D-01 0.313D+00 0.680D+00
 Coeff-En:   0.000D+00 0.000D+00 0.000D+00 0.100D+01
 Coeff:     -0.297D-01 0.364D-01 0.308D+00 0.685D+00
 Gap=     0.397 Goal=   None    Shift=    0.000
 RMSDP=1.02D-04 MaxDP=6.78D-03 DE=-1.17D-02 OVMax= 8.21D-03

 Cycle   5  Pass 1  IDiag  1:
 RMSU=  6.38D-05    CP:  9.95D-01  1.32D+00  8.98D-01  7.54D-01
 E= -2297.47027285572     Delta-E=       -0.002186381063 Rises=F Damp=F
 DIIS: error= 3.26D-04 at cycle   5 NSaved=   5.
 NSaved= 5 IEnMin= 5 EnMin= -2297.47027285572     IErMin= 5 ErrMin= 3.26D-04
 ErrMax= 3.26D-04  0.00D+00 EMaxC= 1.00D-01 BMatC= 1.47D-04 BMatP= 2.69D-03
 IDIUse=3 WtCom= 9.97D-01 WtEn= 3.26D-03
 Coeff-Com: -0.859D-03-0.735D-02 0.217D-01 0.178D+00 0.809D+00
 Coeff-En:   0.000D+00 0.000D+00 0.000D+00 0.000D+00 0.100D+01
 Coeff:     -0.856D-03-0.733D-02 0.217D-01 0.177D+00 0.810D+00
 Gap=     0.397 Goal=   None    Shift=    0.000
 RMSDP=2.75D-05 MaxDP=1.84D-03 DE=-2.19D-03 OVMax= 2.70D-03

 Cycle   6  Pass 1  IDiag  1:
 RMSU=  2.21D-05    CP:  9.95D-01  1.33D+00  9.05D-01  8.19D-01  1.00D+00
 E= -2297.47042916453     Delta-E=       -0.000156308814 Rises=F Damp=F
 DIIS: error= 1.29D-04 at cycle   6 NSaved=   6.
 NSaved= 6 IEnMin= 6 EnMin= -2297.47042916453     IErMin= 6 ErrMin= 1.29D-04
 ErrMax= 1.29D-04  0.00D+00 EMaxC= 1.00D-01 BMatC= 2.15D-05 BMatP= 1.47D-04
 IDIUse=3 WtCom= 9.99D-01 WtEn= 1.29D-03
 Coeff-Com:  0.348D-02-0.584D-02-0.460D-01-0.717D-01 0.168D+00 0.952D+00
 Coeff-En:   0.000D+00 0.000D+00 0.000D+00 0.000D+00 0.000D+00 0.100D+01
 Coeff:      0.347D-02-0.583D-02-0.460D-01-0.716D-01 0.168D+00 0.952D+00
 Gap=     0.397 Goal=   None    Shift=    0.000
 RMSDP=1.43D-05 MaxDP=6.32D-04 DE=-1.56D-04 OVMax= 1.50D-03

 Cycle   7  Pass 1  IDiag  1:
 RMSU=  8.68D-06    CP:  9.95D-01  1.33D+00  9.10D-01  8.39D-01  1.14D+00
                    CP:  1.17D+00
 E= -2297.47046040384     Delta-E=       -0.000031239314 Rises=F Damp=F
 DIIS: error= 3.71D-05 at cycle   7 NSaved=   7.
 NSaved= 7 IEnMin= 7 EnMin= -2297.47046040384     IErMin= 7 ErrMin= 3.71D-05
 ErrMax= 3.71D-05  0.00D+00 EMaxC= 1.00D-01 BMatC= 2.00D-06 BMatP= 2.15D-05
 IDIUse=1 WtCom= 1.00D+00 WtEn= 0.00D+00
 Coeff-Com:  0.842D-03-0.582D-03-0.139D-01-0.350D-01-0.469D-01 0.227D+00
 Coeff-Com:  0.869D+00
 Coeff:      0.842D-03-0.582D-03-0.139D-01-0.350D-01-0.469D-01 0.227D+00
 Coeff:      0.869D+00
 Gap=     0.397 Goal=   None    Shift=    0.000
 RMSDP=4.79D-06 MaxDP=2.37D-04 DE=-3.12D-05 OVMax= 5.84D-04

 Cycle   8  Pass 1  IDiag  1:
 RMSU=  2.70D-06    CP:  9.95D-01  1.33D+00  9.10D-01  8.42D-01  1.18D+00
                    CP:  1.30D+00  1.03D+00
 E= -2297.47046371159     Delta-E=       -0.000003307749 Rises=F Damp=F
 DIIS: error= 1.15D-05 at cycle   8 NSaved=   8.
 NSaved= 8 IEnMin= 8 EnMin= -2297.47046371159     IErMin= 8 ErrMin= 1.15D-05
 ErrMax= 1.15D-05  0.00D+00 EMaxC= 1.00D-01 BMatC= 2.15D-07 BMatP= 2.00D-06
 IDIUse=1 WtCom= 1.00D+00 WtEn= 0.00D+00
 Coeff-Com: -0.167D-03 0.467D-03 0.212D-02 0.116D-02-0.257D-01-0.461D-01
 Coeff-Com:  0.134D+00 0.934D+00
 Coeff:     -0.167D-03 0.467D-03 0.212D-02 0.116D-02-0.257D-01-0.461D-01
 Coeff:      0.134D+00 0.934D+00
 Gap=     0.397 Goal=   None    Shift=    0.000
 RMSDP=1.78D-06 MaxDP=6.73D-05 DE=-3.31D-06 OVMax= 2.36D-04

 Cycle   9  Pass 1  IDiag  1:
 RMSU=  9.69D-07    CP:  9.95D-01  1.33D+00  9.10D-01  8.42D-01  1.18D+00
                    CP:  1.34D+00  1.16D+00  1.18D+00
 E= -2297.47046412248     Delta-E=       -0.000000410889 Rises=F Damp=F
 DIIS: error= 7.94D-06 at cycle   9 NSaved=   9.
 NSaved= 9 IEnMin= 9 EnMin= -2297.47046412248     IErMin= 9 ErrMin= 7.94D-06
 ErrMax= 7.94D-06  0.00D+00 EMaxC= 1.00D-01 BMatC= 4.83D-08 BMatP= 2.15D-07
 IDIUse=1 WtCom= 1.00D+00 WtEn= 0.00D+00
 Coeff-Com: -0.134D-03 0.125D-03 0.287D-02 0.618D-02-0.868D-04-0.482D-01
 Coeff-Com: -0.114D+00 0.267D+00 0.887D+00
 Coeff:     -0.134D-03 0.125D-03 0.287D-02 0.618D-02-0.868D-04-0.482D-01
 Coeff:     -0.114D+00 0.267D+00 0.887D+00
 Gap=     0.397 Goal=   None    Shift=    0.000
 RMSDP=8.03D-07 MaxDP=2.86D-05 DE=-4.11D-07 OVMax= 1.19D-04

 Cycle  10  Pass 1  IDiag  1:
 RMSU=  3.82D-07    CP:  9.95D-01  1.33D+00  9.10D-01  8.42D-01  1.19D+00
                    CP:  1.35D+00  1.20D+00  1.37D+00  1.07D+00
 E= -2297.47046420523     Delta-E=       -0.000000082749 Rises=F Damp=F
 DIIS: error= 2.07D-06 at cycle  10 NSaved=  10.
 NSaved=10 IEnMin=10 EnMin= -2297.47046420523     IErMin=10 ErrMin= 2.07D-06
 ErrMax= 2.07D-06  0.00D+00 EMaxC= 1.00D-01 BMatC= 6.48D-09 BMatP= 4.83D-08
 IDIUse=1 WtCom= 1.00D+00 WtEn= 0.00D+00
 Coeff-Com:  0.110D-04-0.808D-04 0.427D-03 0.144D-02 0.344D-02-0.547D-02
 Coeff-Com: -0.496D-01-0.560D-01 0.249D+00 0.856D+00
 Coeff:      0.110D-04-0.808D-04 0.427D-03 0.144D-02 0.344D-02-0.547D-02
 Coeff:     -0.496D-01-0.560D-01 0.249D+00 0.856D+00
 Gap=     0.397 Goal=   None    Shift=    0.000
 RMSDP=2.74D-07 MaxDP=1.39D-05 DE=-8.27D-08 OVMax= 4.49D-05

 Cycle  11  Pass 1  IDiag  1:
 RMSU=  1.43D-07    CP:  9.95D-01  1.33D+00  9.10D-01  8.42D-01  1.19D+00
                    CP:  1.36D+00  1.20D+00  1.43D+00  1.22D+00  1.03D+00
 E= -2297.47046421563     Delta-E=       -0.000000010401 Rises=F Damp=F
 DIIS: error= 1.08D-06 at cycle  11 NSaved=  11.
 NSaved=11 IEnMin=11 EnMin= -2297.47046421563     IErMin=11 ErrMin= 1.08D-06
 ErrMax= 1.08D-06  0.00D+00 EMaxC= 1.00D-01 BMatC= 6.06D-10 BMatP= 6.48D-09
 IDIUse=1 WtCom= 1.00D+00 WtEn= 0.00D+00
 Coeff-Com:  0.227D-04-0.334D-04-0.314D-03-0.660D-03 0.384D-03 0.580D-02
 Coeff-Com:  0.950D-02-0.453D-01-0.903D-01 0.127D+00 0.994D+00
 Coeff:      0.227D-04-0.334D-04-0.314D-03-0.660D-03 0.384D-03 0.580D-02
 Coeff:      0.950D-02-0.453D-01-0.903D-01 0.127D+00 0.994D+00
 Gap=     0.397 Goal=   None    Shift=    0.000
 RMSDP=1.02D-07 MaxDP=4.26D-06 DE=-1.04D-08 OVMax= 1.69D-05

 Cycle  12  Pass 1  IDiag  1:
 RMSU=  4.27D-08    CP:  9.95D-01  1.33D+00  9.10D-01  8.42D-01  1.19D+00
                    CP:  1.36D+00  1.21D+00  1.45D+00  1.27D+00  1.19D+00
                    CP:  1.13D+00
 E= -2297.47046421696     Delta-E=       -0.000000001331 Rises=F Damp=F
 DIIS: error= 3.34D-07 at cycle  12 NSaved=  12.
 NSaved=12 IEnMin=12 EnMin= -2297.47046421696     IErMin=12 ErrMin= 3.34D-07
 ErrMax= 3.34D-07  0.00D+00 EMaxC= 1.00D-01 BMatC= 6.36D-11 BMatP= 6.06D-10
 IDIUse=1 WtCom= 1.00D+00 WtEn= 0.00D+00
 Coeff-Com:  0.206D-05 0.236D-05-0.804D-04-0.229D-03-0.242D-03 0.142D-02
 Coeff-Com:  0.594D-02-0.274D-02-0.375D-01-0.532D-01 0.171D+00 0.916D+00
 Coeff:      0.206D-05 0.236D-05-0.804D-04-0.229D-03-0.242D-03 0.142D-02
 Coeff:      0.594D-02-0.274D-02-0.375D-01-0.532D-01 0.171D+00 0.916D+00
 Gap=     0.397 Goal=   None    Shift=    0.000
 RMSDP=2.98D-08 MaxDP=1.51D-06 DE=-1.33D-09 OVMax= 5.01D-06

 Cycle  13  Pass 1  IDiag  1:
 RMSU=  1.87D-08    CP:  9.95D-01  1.33D+00  9.10D-01  8.42D-01  1.19D+00
                    CP:  1.36D+00  1.21D+00  1.45D+00  1.28D+00  1.22D+00
                    CP:  1.25D+00  1.15D+00
 E= -2297.47046421701     Delta-E=       -0.000000000052 Rises=F Damp=F
 DIIS: error= 1.16D-07 at cycle  13 NSaved=  13.
 NSaved=13 IEnMin=13 EnMin= -2297.47046421701     IErMin=13 ErrMin= 1.16D-07
 ErrMax= 1.16D-07  0.00D+00 EMaxC= 1.00D-01 BMatC= 1.51D-11 BMatP= 6.36D-11
 IDIUse=1 WtCom= 1.00D+00 WtEn= 0.00D+00
 Coeff-Com: -0.371D-05 0.718D-05 0.300D-04 0.407D-04-0.158D-03-0.563D-03
 Coeff-Com:  0.347D-03 0.711D-02 0.295D-02-0.397D-01-0.115D+00 0.306D+00
 Coeff-Com:  0.839D+00
 Coeff:     -0.371D-05 0.718D-05 0.300D-04 0.407D-04-0.158D-03-0.563D-03
 Coeff:      0.347D-03 0.711D-02 0.295D-02-0.397D-01-0.115D+00 0.306D+00
 Coeff:      0.839D+00
 Gap=     0.397 Goal=   None    Shift=    0.000
 RMSDP=1.30D-08 MaxDP=8.80D-07 DE=-5.18D-11 OVMax= 1.92D-06

 Cycle  14  Pass 1  IDiag  1:
 RMSU=  6.97D-09    CP:  9.95D-01  1.33D+00  9.10D-01  8.42D-01  1.19D+00
                    CP:  1.36D+00  1.21D+00  1.45D+00  1.28D+00  1.24D+00
                    CP:  1.29D+00  1.35D+00  1.09D+00
 E= -2297.47046421710     Delta-E=       -0.000000000086 Rises=F Damp=F
 DIIS: error= 6.71D-08 at cycle  14 NSaved=  14.
 NSaved=14 IEnMin=14 EnMin= -2297.47046421710     IErMin=14 ErrMin= 6.71D-08
 ErrMax= 6.71D-08  0.00D+00 EMaxC= 1.00D-01 BMatC= 1.63D-12 BMatP= 1.51D-11
 IDIUse=1 WtCom= 1.00D+00 WtEn= 0.00D+00
 Coeff-Com: -0.116D-05 0.135D-05 0.177D-04 0.409D-04-0.438D-05-0.328D-03
 Coeff-Com: -0.717D-03 0.209D-02 0.580D-02-0.150D-02-0.501D-01-0.552D-01
 Coeff-Com:  0.201D+00 0.899D+00
 Coeff:     -0.116D-05 0.135D-05 0.177D-04 0.409D-04-0.438D-05-0.328D-03
 Coeff:     -0.717D-03 0.209D-02 0.580D-02-0.150D-02-0.501D-01-0.552D-01
 Coeff:      0.201D+00 0.899D+00
 Gap=     0.397 Goal=   None    Shift=    0.000
 RMSDP=5.07D-09 MaxDP=2.85D-07 DE=-8.64D-11 OVMax= 7.40D-07

 Error on total polarization charges =  0.00865
 SCF Done:  E(RM06HF) =  -2297.47046422     A.U. after   14 cycles
            NFock= 14  Conv=0.51D-08     -V/T= 2.0076
 KE= 2.280169130597D+03 PE=-1.414197141542D+04 EE= 5.194581485315D+03
 Leave Link  502 at Mon Jun 10 05:39:55 2019, MaxMem= 12884901888 cpu:           16117.3 elap:             268.0
 (Enter /home/ekwan/sw/g16/l701.exe)
 ... and contract with generalized density number  0.
 Compute integral first derivatives.
 R6Disp: Adding Grimme-D3 dispersion energy 1st derivatives to the gradient.
 D1PCM: PCM CHGder 1st derivatives, ID1Alg=3 FixD1E=F DoIter=F DoCFld=F I1PDM=0.
 GePol: Maximum number of non-zero 1st derivatives   =     221
 Leave Link  701 at Mon Jun 10 05:40:04 2019, MaxMem= 12884901888 cpu:             519.0 elap:               8.7
 (Enter /home/ekwan/sw/g16/l702.exe)
 L702 exits ... SP integral derivatives will be done elsewhere.
 Leave Link  702 at Mon Jun 10 05:40:04 2019, MaxMem= 12884901888 cpu:               5.7 elap:               0.1
 (Enter /home/ekwan/sw/g16/l703.exe)
 Integral derivatives from FoFJK, PRISM(SPDF).
 Compute integral first derivatives, UseDBF=F ICtDFT=           0.
 Calling FoFJK, ICntrl=      2127 FMM=F ISym2X=0 I1Cent= 0 IOpClX= 0 NMat=1 NMatS=1 NMatT=0.
 FoFJK:  IHMeth= 1 ICntrl=    2127 DoSepK=F KAlg= 0 I1Cent=           0 FoldK=F
 IRaf=         0 NMat=       1 IRICut=       1 DoRegI=T DoRafI=F ISym2E= 0 IDoP0=0 IntGTp=1.
 FoFCou: FMM=F IPFlag=           0 FMFlag=      100000 FMFlg1=         800
         NFxFlg=           0 DoJE=F BraDBF=F KetDBF=F FulRan=T
         wScrn=  0.000000 ICntrl=      2127 IOpCl=  0 I1Cent=           0 NGrid=           0
         NMat0=    1 NMatS0=      1 NMatT0=    0 NMatD0=    1 NMtDS0=    0 NMtDT0=    0
 Symmetry not used in FoFCou.
 Leave Link  703 at Mon Jun 10 05:40:27 2019, MaxMem= 12884901888 cpu:            1405.3 elap:              22.7
 (Enter /home/ekwan/sw/g16/l716.exe)
 Dipole        = 3.57622455D-01 1.19637082D+00-6.12081182D-01
 ***** Axes restored to original set *****
 -------------------------------------------------------------------
 Center     Atomic                   Forces (Hartrees/Bohr)
 Number     Number              X              Y              Z
 -------------------------------------------------------------------
      1        6          -0.000004130    0.000000407    0.000000973
      2        6           0.000001915    0.000001413   -0.000001489
      3        6          -0.000002496    0.000002122    0.000000461
      4        6           0.000001467    0.000002057    0.000004452
      5        6          -0.000001675   -0.000002326   -0.000003294
      6        1          -0.000000274   -0.000000545   -0.000000400
      7        1          -0.000000410   -0.000000146   -0.000000525
      8        1           0.000001449   -0.000000864   -0.000001533
      9        1           0.000000025    0.000000197   -0.000000666
     10        1           0.000000664   -0.000000650   -0.000000705
     11        8           0.000000075    0.000000184   -0.000002816
     12        8           0.000002826   -0.000001428    0.000000844
     13        8          -0.000001410   -0.000001636   -0.000001019
     14        8           0.000003022   -0.000001765   -0.000001904
     15        8           0.000002433    0.000000079    0.000001915
     16        6          -0.000000242    0.000002358   -0.000001370
     17        1          -0.000000340    0.000000584    0.000000555
     18        1          -0.000000092   -0.000000636   -0.000000049
     19        8           0.000001681   -0.000002639    0.000000383
     20       16          -0.000002087    0.000000961   -0.000002643
     21        8          -0.000000579    0.000000058    0.000001287
     22        8          -0.000001022   -0.000000706    0.000002344
     23        6           0.000001913   -0.000001029    0.000000996
     24        6           0.000000123   -0.000000701    0.000001122
     25        6          -0.000002769    0.000000460    0.000000317
     26        6           0.000000182    0.000001013    0.000000076
     27        1           0.000000327    0.000000467    0.000000714
     28        6           0.000001807   -0.000000002    0.000001509
     29        1          -0.000000366   -0.000000079    0.000000850
     30        6          -0.000000950   -0.000000062    0.000000319
     31        1           0.000000533    0.000000834    0.000001637
     32        6          -0.000001393    0.000000470   -0.000000183
     33        1          -0.000000688   -0.000000460   -0.000000120
     34        1          -0.000000997   -0.000000463   -0.000001273
     35        1           0.000000352   -0.000000607   -0.000000887
     36        6          -0.000000476    0.000002538   -0.000001378
     37        1           0.000000547   -0.000000093   -0.000001055
     38        1           0.000000638   -0.000000735   -0.000000881
     39        1           0.000000690   -0.000000651   -0.000001152
     40        6          -0.000000970   -0.000000551   -0.000001900
     41        1           0.000001046    0.000000320   -0.000000364
     42        1           0.000001130    0.000000168   -0.000001078
     43        1           0.000000895    0.000000549   -0.000001073
     44        6          -0.000001633    0.000000214    0.000000085
     45        1          -0.000000621    0.000000053   -0.000000493
     46        1          -0.000000601   -0.000000442   -0.000000212
     47        1           0.000000324   -0.000000654   -0.000000204
     48        6           0.000002692    0.000001692    0.000002958
     49        9           0.000000466    0.000000576    0.000000422
     50        9          -0.000000800   -0.000000299    0.000001635
     51        9           0.000000899    0.000000033    0.000000904
     52        6          -0.000003112   -0.000000545    0.000000487
     53        9           0.000000863    0.000000887    0.000000403
     54        9          -0.000000461   -0.000000305    0.000001442
     55        9          -0.000000390    0.000000323    0.000001577
 -------------------------------------------------------------------
 Cartesian Forces:  Max     0.000004452 RMS     0.000001318
 Leave Link  716 at Mon Jun 10 05:40:27 2019, MaxMem= 12884901888 cpu:               6.2 elap:               0.1
 (Enter /home/ekwan/sw/g16/l103.exe)

 GradGradGradGradGradGradGradGradGradGradGradGradGradGradGradGradGradGrad
 Berny optimization.
 FormGI is forming the generalized inverse of G from B-inverse, IUseBI=4.
 GSVD:  received Info=                   1 from GESDD.
 Internal  Forces:  Max     0.000003068 RMS     0.000000635
 Search for a local minimum.
 Step number   1 out of a maximum of  291
 All quantities printed in internal units (Hartrees-Bohrs-Radians)
 RMS Force = .63496D-06 SwitMx=.10000D-02 MixMth= 2
 Mixed Optimization -- En-DIIS/RFO-DIIS
 Second derivative matrix not updated -- first step.
 ITU=  0
     Eigenvalues ---    0.00373   0.00568   0.00648   0.00659   0.00663
     Eigenvalues ---    0.00724   0.01061   0.01394   0.01397   0.01411
     Eigenvalues ---    0.01414   0.01414   0.01580   0.01585   0.01586
     Eigenvalues ---    0.01587   0.01634   0.01673   0.01707   0.02207
     Eigenvalues ---    0.02213   0.02225   0.02228   0.02238   0.02242
     Eigenvalues ---    0.02644   0.02967   0.03348   0.04567   0.04676
     Eigenvalues ---    0.04826   0.04859   0.04933   0.05222   0.05266
     Eigenvalues ---    0.05803   0.06018   0.06554   0.06954   0.07039
     Eigenvalues ---    0.07175   0.07691   0.09366   0.10150   0.10172
     Eigenvalues ---    0.10239   0.10274   0.10603   0.10624   0.10627
     Eigenvalues ---    0.10646   0.10651   0.10789   0.10878   0.10943
     Eigenvalues ---    0.10974   0.10999   0.11341   0.11691   0.11913
     Eigenvalues ---    0.14027   0.14753   0.16000   0.16000   0.16000
     Eigenvalues ---    0.16000   0.16000   0.16000   0.16000   0.16000
     Eigenvalues ---    0.16000   0.16000   0.16000   0.16000   0.16000
     Eigenvalues ---    0.16000   0.16000   0.16350   0.16990   0.17336
     Eigenvalues ---    0.18605   0.19525   0.19718   0.20874   0.22162
     Eigenvalues ---    0.23482   0.23492   0.23507   0.24956   0.24976
     Eigenvalues ---    0.24994   0.25000   0.25000   0.25000   0.25000
     Eigenvalues ---    0.25000   0.25000   0.25000   0.25000   0.25000
     Eigenvalues ---    0.25000   0.25000   0.25000   0.27053   0.28339
     Eigenvalues ---    0.28668   0.28969   0.29028   0.29448   0.31459
     Eigenvalues ---    0.31574   0.34057   0.34337   0.34343   0.34396
     Eigenvalues ---    0.34423   0.34563   0.34572   0.34576   0.34607
     Eigenvalues ---    0.34666   0.34845   0.34882   0.34928   0.35038
     Eigenvalues ---    0.35163   0.35183   0.35184   0.35275   0.35299
     Eigenvalues ---    0.35698   0.35793   0.35793   0.38549   0.39154
     Eigenvalues ---    0.42082   0.42273   0.42311   0.42312   0.43031
     Eigenvalues ---    0.43184   0.44313   0.44323   0.44329   0.45817
     Eigenvalues ---    0.46393   0.47079   0.47390   0.47420   0.47665
     Eigenvalues ---    0.51584   0.56163   0.57268   0.57468   0.57505
     Eigenvalues ---    0.57714   0.57863   0.96770   0.99517
 RFO step:  Lambda= 0.00000000D+00 EMin= 3.72599165D-03
 Linear search not attempted -- first point.
 Iteration  1 RMS(Cart)=  0.00011960 RMS(Int)=  0.00000000
 Iteration  2 RMS(Cart)=  0.00000000 RMS(Int)=  0.00000000
 ITry= 1 IFail=0 DXMaxC= 4.64D-04 DCOld= 1.00D+10 DXMaxT= 3.00D-01 DXLimC= 3.00D+00 Rises=F
 Variable       Old X    -DE/DX   Delta X   Delta X   Delta X     New X
                                 (Linear)    (Quad)   (Total)
    R1        2.88993   0.00000   0.00000   0.00000   0.00000   2.88993
    R2        2.88440   0.00000   0.00000   0.00000   0.00000   2.88440
    R3        2.06765   0.00000   0.00000   0.00000   0.00000   2.06765
    R4        2.66063   0.00000   0.00000   0.00000   0.00000   2.66064
    R5        2.90773   0.00000   0.00000   0.00000   0.00000   2.90773
    R6        2.07235   0.00000   0.00000   0.00000   0.00000   2.07235
    R7        2.64339   0.00000   0.00000   0.00000   0.00000   2.64339
    R8        2.05230   0.00000   0.00000   0.00000   0.00000   2.05230
    R9        2.61588   0.00000   0.00000   0.00000   0.00000   2.61588
   R10        2.73574   0.00000   0.00000   0.00000   0.00000   2.73575
   R11        2.89367   0.00000   0.00000   0.00000   0.00000   2.89366
   R12        2.06755   0.00000   0.00000   0.00000   0.00000   2.06755
   R13        2.70725   0.00000   0.00000   0.00001   0.00001   2.70726
   R14        2.89078   0.00000   0.00000   0.00000   0.00000   2.89078
   R15        2.06622   0.00000   0.00000   0.00000   0.00000   2.06622
   R16        2.66082   0.00000   0.00000   0.00000   0.00000   2.66083
   R17        3.02000   0.00000   0.00000   0.00000   0.00000   3.02000
   R18        2.68528   0.00000   0.00000   0.00000   0.00000   2.68528
   R19        2.68577   0.00000   0.00000   0.00000   0.00000   2.68577
   R20        2.68818   0.00000   0.00000   0.00000   0.00000   2.68818
   R21        2.05613   0.00000   0.00000   0.00000   0.00000   2.05613
   R22        2.06668   0.00000   0.00000   0.00000   0.00000   2.06668
   R23        2.66069   0.00000   0.00000   0.00000   0.00000   2.66069
   R24        2.68528   0.00000   0.00000   0.00000   0.00000   2.68528
   R25        2.72533   0.00000   0.00000   0.00000   0.00000   2.72533
   R26        2.73661   0.00000   0.00000   0.00000   0.00000   2.73660
   R27        3.35104   0.00000   0.00000   0.00000   0.00000   3.35104
   R28        2.62207   0.00000   0.00000   0.00000   0.00000   2.62207
   R29        2.62596   0.00000   0.00000   0.00000   0.00000   2.62597
   R30        2.62923   0.00000   0.00000   0.00000   0.00000   2.62923
   R31        2.04556   0.00000   0.00000   0.00000   0.00000   2.04556
   R32        2.62279   0.00000   0.00000   0.00000   0.00000   2.62279
   R33        2.04406   0.00000   0.00000   0.00000   0.00000   2.04406
   R34        2.62529   0.00000   0.00000   0.00000   0.00000   2.62529
   R35        2.85146   0.00000   0.00000   0.00000   0.00000   2.85146
   R36        2.63106   0.00000   0.00000   0.00000   0.00000   2.63106
   R37        2.84930   0.00000   0.00000   0.00000   0.00000   2.84930
   R38        2.04406   0.00000   0.00000   0.00000   0.00000   2.04406
   R39        2.06318   0.00000   0.00000   0.00000   0.00000   2.06318
   R40        2.06375   0.00000   0.00000   0.00000   0.00000   2.06375
   R41        2.05193   0.00000   0.00000   0.00000   0.00000   2.05193
   R42        2.05378   0.00000   0.00000   0.00000   0.00000   2.05378
   R43        2.06370   0.00000   0.00000   0.00000   0.00000   2.06370
   R44        2.05793   0.00000   0.00000   0.00000   0.00000   2.05793
   R45        2.05377   0.00000   0.00000   0.00000   0.00000   2.05377
   R46        2.05867   0.00000   0.00000   0.00000   0.00000   2.05867
   R47        2.06220   0.00000   0.00000   0.00000   0.00000   2.06220
   R48        2.05411   0.00000   0.00000   0.00000   0.00000   2.05411
   R49        2.06390   0.00000   0.00000   0.00000   0.00000   2.06390
   R50        2.05927   0.00000   0.00000   0.00000   0.00000   2.05927
   R51        2.53002   0.00000   0.00000   0.00000   0.00000   2.53002
   R52        2.53170   0.00000   0.00000   0.00000   0.00000   2.53170
   R53        2.52971   0.00000   0.00000   0.00000   0.00000   2.52971
   R54        2.54113   0.00000   0.00000   0.00000   0.00000   2.54113
   R55        2.52797   0.00000   0.00000   0.00000   0.00000   2.52797
   R56        2.52672   0.00000   0.00000   0.00000   0.00000   2.52672
    A1        1.92531   0.00000   0.00000  -0.00001  -0.00001   1.92530
    A2        1.90317   0.00000   0.00000   0.00000   0.00000   1.90317
    A3        1.91569   0.00000   0.00000   0.00000   0.00000   1.91569
    A4        1.89534   0.00000   0.00000   0.00001   0.00001   1.89536
    A5        1.88763   0.00000   0.00000  -0.00001  -0.00001   1.88763
    A6        1.93669   0.00000   0.00000   0.00000   0.00000   1.93669
    A7        1.93174   0.00000   0.00000  -0.00001  -0.00001   1.93172
    A8        1.89124   0.00000   0.00000   0.00000   0.00000   1.89124
    A9        1.88635   0.00000   0.00000   0.00000   0.00000   1.88635
   A10        1.85642   0.00000   0.00000   0.00001   0.00001   1.85642
   A11        1.95725   0.00000   0.00000   0.00000   0.00000   1.95724
   A12        1.94023   0.00000   0.00000   0.00000   0.00000   1.94024
   A13        1.95762   0.00000   0.00000   0.00000   0.00000   1.95762
   A14        1.97316   0.00000   0.00000   0.00000   0.00000   1.97315
   A15        1.84853   0.00000   0.00000  -0.00001  -0.00001   1.84852
   A16        1.86656   0.00000   0.00000   0.00000   0.00000   1.86656
   A17        1.88983   0.00000   0.00000   0.00001   0.00001   1.88983
   A18        1.92737   0.00000   0.00000   0.00000   0.00000   1.92737
   A19        1.89972   0.00000   0.00000   0.00001   0.00001   1.89973
   A20        1.92862   0.00000   0.00000   0.00000   0.00000   1.92861
   A21        1.93711   0.00000   0.00000   0.00000   0.00000   1.93711
   A22        1.91053   0.00000   0.00000   0.00000   0.00000   1.91053
   A23        1.89304   0.00000   0.00000   0.00001   0.00001   1.89305
   A24        1.89438   0.00000   0.00000  -0.00002  -0.00002   1.89436
   A25        1.93589   0.00000   0.00000   0.00001   0.00001   1.93591
   A26        1.90320   0.00000   0.00000  -0.00001  -0.00001   1.90319
   A27        1.91359   0.00000   0.00000   0.00000   0.00000   1.91359
   A28        1.89671   0.00000   0.00000   0.00000   0.00000   1.89671
   A29        1.87513   0.00000   0.00000   0.00000   0.00000   1.87514
   A30        1.93942   0.00000   0.00000   0.00000   0.00000   1.93942
   A31        2.01941   0.00000   0.00000   0.00000   0.00000   2.01941
   A32        2.06389   0.00000   0.00000   0.00001   0.00001   2.06390
   A33        2.00727   0.00000   0.00000   0.00000   0.00000   2.00727
   A34        1.99709   0.00000   0.00000   0.00000   0.00000   1.99709
   A35        1.99147   0.00000   0.00000   0.00000   0.00000   1.99146
   A36        1.87362   0.00000   0.00000   0.00001   0.00001   1.87363
   A37        1.90366   0.00000   0.00000  -0.00001  -0.00001   1.90366
   A38        1.98037   0.00000   0.00000  -0.00001  -0.00001   1.98035
   A39        1.91171   0.00000   0.00000   0.00000   0.00000   1.91172
   A40        1.86192   0.00000   0.00000   0.00001   0.00001   1.86193
   A41        1.93056   0.00000   0.00000   0.00000   0.00000   1.93056
   A42        2.00674   0.00000   0.00000   0.00000   0.00000   2.00674
   A43        1.83747   0.00000   0.00000   0.00000   0.00000   1.83746
   A44        1.88740   0.00000   0.00000   0.00001   0.00001   1.88741
   A45        1.81141   0.00000   0.00000   0.00000   0.00000   1.81141
   A46        2.11335   0.00000   0.00000   0.00000   0.00000   2.11335
   A47        1.89902   0.00000   0.00000   0.00000   0.00000   1.89901
   A48        1.89179   0.00000   0.00000   0.00000   0.00000   1.89179
   A49        2.06866   0.00000   0.00000   0.00000   0.00000   2.06866
   A50        2.07086   0.00000   0.00000   0.00000   0.00000   2.07086
   A51        2.14345   0.00000   0.00000   0.00000   0.00000   2.14345
   A52        2.05659   0.00000   0.00000   0.00000   0.00000   2.05659
   A53        2.10726   0.00000   0.00000   0.00000   0.00000   2.10726
   A54        2.11933   0.00000   0.00000   0.00000   0.00000   2.11933
   A55        2.05466   0.00000   0.00000   0.00000   0.00000   2.05467
   A56        2.10674   0.00000   0.00000   0.00000   0.00000   2.10674
   A57        2.12178   0.00000   0.00000   0.00000   0.00000   2.12178
   A58        2.11443   0.00000   0.00000   0.00000   0.00000   2.11443
   A59        2.07825   0.00000   0.00000   0.00000   0.00000   2.07824
   A60        2.08967   0.00000   0.00000   0.00000   0.00000   2.08967
   A61        2.11713   0.00000   0.00000   0.00000   0.00000   2.11713
   A62        2.08473   0.00000   0.00000   0.00000   0.00000   2.08473
   A63        2.07981   0.00000   0.00000   0.00000   0.00000   2.07981
   A64        2.08008   0.00000   0.00000   0.00000   0.00000   2.08008
   A65        2.10174   0.00000   0.00000   0.00000   0.00000   2.10174
   A66        2.10137   0.00000   0.00000   0.00000   0.00000   2.10137
   A67        1.93890   0.00000   0.00000   0.00000   0.00000   1.93890
   A68        1.92894   0.00000   0.00000   0.00000   0.00000   1.92895
   A69        1.86054   0.00000   0.00000   0.00000   0.00000   1.86054
   A70        1.91570   0.00000   0.00000   0.00000   0.00000   1.91570
   A71        1.90489   0.00000   0.00000   0.00000   0.00000   1.90489
   A72        1.91396   0.00000   0.00000   0.00000   0.00000   1.91396
   A73        1.86126   0.00000   0.00000   0.00000   0.00000   1.86126
   A74        1.92174   0.00000   0.00000   0.00000   0.00000   1.92174
   A75        1.92970   0.00000   0.00000   0.00000   0.00000   1.92970
   A76        1.91199   0.00000   0.00000   0.00000   0.00000   1.91199
   A77        1.91948   0.00000   0.00000   0.00000   0.00000   1.91948
   A78        1.91889   0.00000   0.00000   0.00000   0.00000   1.91888
   A79        1.86148   0.00000   0.00000   0.00000   0.00000   1.86148
   A80        1.92377   0.00000   0.00000   0.00000   0.00000   1.92377
   A81        1.92009   0.00000   0.00000   0.00000   0.00000   1.92009
[...]
 83,0.00001831,-0.00015516,-0.00026555,-0.00002642,0.00000556,0.0000317
 1,0.00001734,0.00004283,0.00002032,-0.00000548,-0.00000962,0.00001636,
 -0.00001032,0.00001141,0.00002847,0.00065276,0.00002925,0.00006954,-0.
 00007962,-0.00017469,0.00008278,0.00013331,0.00004496,-0.00004308,-0.0
 0002295,0.00173299,0.00060364,-0.00467389,0.00006702,-0.00012535,0.001
 58510,-0.00112084,-0.00072492,0.00114917,-0.00064227,0.00041771,0.0013
 4525,0.00106504,-0.01365521,0.63438844,0.00005759,-0.00012838,-0.00000
 219,0.00006599,-0.00002089,-0.00004269,0.00011439,-0.00054070,0.000119
 04,-0.00012947,-0.00050152,-0.00013721,0.00006820,0.00022646,0.0001380
 1,-0.00001093,0.00002553,-0.00000560,0.00001361,0.00000444,-0.00000319
 ,-0.00000874,0.00000993,-0.00000747,-0.00001286,0.00005174,-0.00002953
 ,0.00005107,-0.00000644,0.00000292,-0.00021746,0.00043625,0.00001313,0
 .00029931,0.00034682,-0.00009918,-0.00008239,0.00010663,0.00002675,-0.
 00016949,0.00006559,-0.00007274,-0.00012828,-0.00004641,-0.00011546,0.
 00122214,0.00070918,0.00032136,-0.00020055,-0.00002192,-0.00016708,-0.
 00132827,-0.00034726,-0.00049538,-0.00073761,-0.00056857,-0.00061471,-
 0.00049236,-0.00015159,0.00012791,0.00011496,-0.00003931,0.00000283,0.
 00011488,0.00004003,-0.00003200,0.00059419,-0.00068406,0.00041547,0.00
 034107,-0.00020801,-0.00049717,-0.00045705,-0.00083028,0.00103301,-0.0
 0057118,0.00022510,-0.00022061,0.00001526,-0.00001494,0.00000951,0.010
 22352,0.00018487,-0.00261577,-0.00012764,-0.00009295,0.00003466,-0.000
 00777,0.00085699,0.00066874,-0.00005331,0.00016098,-0.00040016,0.00000
 536,-0.00003087,-0.00004281,0.00000248,-0.00000182,0.00000921,0.000005
 26,0.00000316,0.00000538,-0.00000776,0.00000851,0.00000339,0.00003592,
 -0.00004601,0.00007065,-0.00001330,0.00000372,-0.00000978,0.00000045,0
 .00000564,-0.00000884,-0.00000355,0.00001066,-0.00000699,0.00007793,0.
 00007609,0.00004648,-0.00000670,-0.00001147,-0.00002047,-0.00001938,-0
 .00000863,-0.00000023,0.00001370,0.00002334,0.00000997,0.00124951,0.00
 048886,0.00096859,-0.00029192,-0.00017879,-0.00004451,-0.00168729,-0.0
 0020204,-0.00049880,-0.00037293,-0.00010573,-0.00005048,-0.00019389,-0
 .00008100,-0.00009312,0.00007188,0.00001877,0.00002491,0.00002612,0.00
 000914,0.00002729,0.00003358,0.00001244,0.00003064,-0.11261908,-0.0836
 4997,0.00410177,0.15818217,-0.00002536,-0.00017314,-0.00008497,-0.0001
 3252,0.00001997,-0.00006672,-0.00029800,-0.00083575,0.00049678,-0.0002
 8335,-0.00079922,-0.00026641,0.00000793,0.00015664,0.00002808,-0.00004
 274,0.00005455,-0.00001317,0.00006807,0.00001726,0.00000278,-0.0000181
 7,0.00001753,-0.00002366,-0.00010181,0.00004503,-0.00010596,0.00009116
 ,0.00000659,0.00001496,0.00026802,0.00084331,0.00007100,0.00139469,0.0
 0058418,-0.00026777,0.00007797,0.00005524,-0.00000001,-0.00001851,0.00
 010234,0.00000610,-0.00005650,0.00012981,0.00000627,0.00116409,0.00048
 518,0.00059530,-0.00014801,0.00000123,-0.00013091,0.00021744,-0.000961
 89,0.00054778,-0.00053334,0.00002061,-0.00065940,-0.00304971,0.0015933
 9,0.00065861,0.00075823,-0.00097798,0.00020611,0.00083584,-0.00057610,
 -0.00055357,0.00138561,0.00069628,0.00085881,0.00009634,-0.00056516,0.
 00080877,-0.00119877,-0.00002018,0.00252531,0.00164489,0.00048564,0.00
 148894,-0.00020374,-0.00007359,-0.00009401,-0.01760122,-0.03817851,0.0
 0805124,-0.00089089,-0.00064613,-0.00036373,0.00249316,-0.00229772,-0.
 00110041,-0.00095476,-0.00079990,-0.00010381,-0.00006252,-0.00001982,0
 .00001659,0.00000362,0.00001703,0.00001425,0.00000925,0.00001021,-0.00
 000903,0.00000855,0.00000101,0.00000328,-0.00000205,-0.00001841,0.0000
 2421,0.00000221,0.00000360,-0.00000316,0.00000091,-0.00000407,-0.00000
 361,-0.00000784,0.00000755,-0.00000111,0.00003276,-0.00005241,0.000046
 85,0.00000123,0.00000175,-0.00000833,-0.00001180,0.00000456,-0.0000038
 8,0.00002053,0.00003849,-0.00000364,0.00124320,0.00076012,0.00109909,-
 0.00023237,-0.00013801,-0.00004834,0.00022464,-0.00046790,-0.00069179,
 -0.00049955,-0.00012762,-0.00008139,0.00120143,-0.00052295,-0.00215104
 ,0.00004740,0.00001634,0.00100496,-0.00053392,-0.00023707,0.00055211,-
 0.00035968,0.00046828,0.00058435,-0.08655875,-0.27058919,0.01509190,0.
 14785546,0.35813536,0.00004537,-0.00004058,0.00001793,0.00010990,-0.00
 002613,-0.00000503,0.00023551,0.00014001,-0.00026306,-0.00001152,-0.00
 014789,-0.00013138,0.00004525,0.00014306,0.00008151,-0.00000773,0.0000
 0898,0.00000466,-0.00003608,-0.00000819,-0.00000257,0.00000586,-0.0000
 0253,0.00001170,0.00005105,0.00001393,0.00005430,-0.00001905,-0.000016
 41,-0.00000620,-0.00027555,-0.00009180,0.00012642,-0.00067415,-0.00008
 154,0.00017339,-0.00009479,0.00005086,0.00005315,-0.00012203,0.0000099
 7,-0.00004042,-0.00007835,-0.00007630,-0.00005241,0.00046631,0.0006775
 0,-0.00008511,-0.00006776,-0.00004057,-0.00002721,-0.00115655,-0.00005
 439,-0.00094279,-0.00025139,-0.00037107,0.00045341,0.00139663,-0.00113
 320,-0.00069929,-0.00036141,0.00055487,-0.00005688,-0.00035997,0.00033
 254,0.00044422,-0.00106037,-0.00011160,-0.00142063,-0.00082274,0.00082
 824,0.00017300,0.00200333,-0.00001956,-0.00176868,-0.00043140,-0.00086
 880,0.00042264,0.00008255,0.00001645,0.00007394,0.00733543,0.02879915,
 0.00527412,0.00013392,0.00063458,-0.00000033,-0.00089270,-0.00016747,0
 .00020447,0.00032199,0.00003667,0.00014128,0.00003635,-0.00001758,-0.0
 0006371,0.00000421,-0.00000469,-0.00000268,-0.00000712,-0.00000686,0.0
 0001116,-0.00000805,0.00000481,0.00000404,0.00002539,-0.00002435,0.000
 03236,-0.00001123,0.00000064,-0.00000634,-0.00000093,0.00000599,-0.000
 00115,0.00000043,0.00000552,-0.00000537,0.00004609,0.00007798,0.000009
 35,-0.00000172,-0.00000943,-0.00000521,-0.00001269,-0.00000589,0.00000
 123,0.00000276,-0.00000415,0.00000263,-0.00016599,-0.00006714,-0.00038
 445,0.00003556,0.00000319,0.00004814,0.00008781,0.00002180,-0.00015334
 ,0.00005070,0.00002493,0.00003221,-0.00048470,-0.00001094,0.00103068,0
 .00000084,0.00001853,-0.00038476,0.00026733,0.00017005,-0.00026248,0.0
 0016118,-0.00012021,-0.00027898,0.00477140,0.01634320,-0.07706125,0.00
 193202,0.00885769,0.07556544,0.00010793,-0.00003476,0.00007614,0.00021
 730,-0.00007337,0.00000759,0.00039986,0.00001360,-0.00027677,0.0000597
 3,0.00002676,0.00007849,0.00010488,0.00015567,0.00017099,0.00002632,-0
 .00001366,0.00000432,-0.00004361,-0.00000983,-0.00001037,0.00000164,0.
 00000083,0.00000844,0.00005486,0.00003733,0.00004340,0.00000222,-0.000
 01197,-0.00001042,-0.00050912,-0.00007727,-0.00007623,-0.00090758,-0.0
 0005202,0.00009109,-0.00018909,0.00012058,0.00003770,-0.00023421,0.000
 01354,-0.00012032,-0.00013927,-0.00015103,-0.00017092,0.00070642,0.000
 41415,0.00019000,-0.00010926,-0.00003721,-0.00009127,-0.00001936,-0.00
 007506,0.00017616,-0.00041082,-0.00033742,-0.00015321,0.00213083,-0.00
 160581,-0.00061188,-0.00064186,0.00113259,-0.00032966,-0.00056904,0.00
 061698,0.00048777,-0.00060370,0.00143534,0.00078648,-0.00013911,0.0000
 1187,-0.00057878,-0.00066928,0.00187833,-0.00617741,0.00022995,0.00081
 890,-0.00075500,0.00006864,-0.00014269,-0.00004931,-0.03369669,0.01081
 372,0.00194023,0.00029070,-0.00076375,0.00000884,-0.00098004,0.0010925
 6,0.00318931,-0.00027855,-0.00062771,-0.00186682,0.00006170,-0.0000330
 7,-0.00007589,0.00000105,-0.00001904,0.00000219,0.00000091,-0.00000211
 ,0.00001487,-0.00002130,0.00001225,0.00000175,0.00005914,-0.00005770,0
 .00008966,-0.00002094,0.00000226,-0.00001187,-0.00000012,0.00001135,-0
 .00001155,0.00000120,0.00001027,-0.00000867,0.00008605,0.00013389,0.00
 003488,-0.00000804,-0.00001817,-0.00002176,-0.00001948,-0.00001356,0.0
 0000390,0.00000492,0.00000420,0.00001233,0.00056821,0.00027784,0.00036
 912,-0.00013272,-0.00010278,-0.00000819,0.00004509,-0.00001835,-0.0002
 5521,-0.00013219,-0.00003457,-0.00001980,-0.00122755,0.00022005,0.0014
 3536,0.00007430,0.00001061,-0.00057246,0.00054412,0.00024581,-0.000399
 59,0.00037432,-0.00032126,-0.00039359,-0.31325830,0.05684560,0.0027332
 3,-0.06300174,-0.03172298,0.00528850,0.43987453,-0.00004133,-0.0000411
 1,-0.00004881,-0.00010914,0.00002688,-0.00002302,-0.00021567,-0.000284
 95,0.00025644,-0.00010956,-0.00024687,-0.00009128,-0.00002890,-0.00000
 397,-0.00004745,-0.00001945,0.00001849,-0.00000593,0.00003590,0.000009
 21,0.00000380,-0.00000641,0.00000503,-0.00001084,-0.00005212,0.0000027
 8,-0.00005147,0.00002892,0.00000648,0.00000810,0.00022495,0.00028286,0
 .00003838,0.00071174,0.00021114,-0.00010794,0.00008249,-0.00001752,-0.
 00001345,0.00006719,0.00002810,0.00003773,0.00002541,0.00008896,0.0000
 5426,0.00013748,-0.00000777,0.00008850,-0.00001422,0.00001448,-0.00001
 039,0.00002437,-0.00022871,0.00012909,-0.00005804,0.00011623,-0.000172
 90,-0.00180075,0.00086342,0.00042955,0.00054610,-0.00068959,0.00019564
 ,0.00044693,-0.00034906,-0.00034872,-0.00011657,-0.00164093,0.00030559
 ,0.00070362,-0.00041894,-0.00001034,0.00016026,0.00001326,0.00340533,-
 0.00037371,-0.00012823,-0.00012416,-0.00002358,0.00007413,-0.00000080,
 0.03046953,0.00149474,0.00067944,0.00003924,0.00064256,-0.00002938,0.0
 0049360,-0.00118988,-0.00009439,0.00017739,-0.00012637,0.00089462,-0.0
 0004009,0.00000273,0.00002947,0.00000058,0.00001076,0.00000458,0.00000
 336,0.00000461,-0.00000773,0.00000880,-0.00000335,0.00000026,-0.000018
 54,0.00001130,-0.00001942,0.00000732,0.00000048,0.00000273,0.00000037,
 -0.00000486,0.00000223,-0.00000290,-0.00000074,0.00000250,-0.00001693,
 -0.00005962,0.00000390,0.00000305,0.00000619,0.00000419,0.00000242,0.0
 0000565,-0.00000223,0.00000496,0.00001098,-0.00000507,0.00025147,0.000
 10664,0.00024491,-0.00003411,-0.00000803,-0.00001502,0.00008029,-0.000
 04362,-0.00013984,-0.00010392,-0.00002509,-0.00001780,0.00062576,-0.00
 020418,-0.00110955,0.00000033,0.00000576,0.00041765,-0.00027073,-0.000
 10609,0.00028055,-0.00021511,0.00023800,0.00029938,0.05506356,-0.08925
 589,0.00242743,-0.05323101,0.00082819,0.00244947,-0.05982727,0.0899375
 7,0.00003795,0.00000818,0.00002454,0.00008945,-0.00002587,0.00001375,0
 .00018920,0.00020581,-0.00025584,0.00008015,0.00009973,0.00000765,0.00
 003318,0.00002518,0.00004378,0.00000043,-0.00000229,0.00000519,-0.0000
 3307,-0.00000856,-0.00000366,0.00000496,-0.00000340,0.00001038,0.00004
 141,0.00000393,0.00004550,-0.00001790,-0.00000857,-0.00000556,-0.00019
 086,-0.00015885,0.00005072,-0.00065228,-0.00013085,0.00014382,-0.00007
 274,0.00003203,0.00003662,-0.00007026,-0.00000817,-0.00002545,-0.00004
 072,-0.00005565,-0.00003377,0.00005571,0.00010002,-0.00004584,0.000008
 27,-0.00000953,0.00000992,0.00003153,0.00006221,-0.00002456,-0.0000573
 5,-0.00009897,0.00016994,0.00154285,-0.00089910,-0.00065607,-0.0004493
 6,0.00062761,-0.00012093,-0.00035881,0.00030241,0.00045085,-0.00073395
 ,0.00154920,0.00000133,-0.00056591,0.00042613,-0.00006492,-0.00018315,
 0.00036838,-0.00387838,-0.00040666,0.00000022,0.00084378,-0.00001924,0
 .00002156,0.00005793,-0.02453667,0.00876884,0.00859051,-0.00037596,0.0
 0007988,-0.00005183,-0.00066990,-0.00010944,-0.00161196,-0.00092163,0.
 00082149,-0.00022002,0.00003109,-0.00001250,-0.00004686,0.00000330,-0.
 00000487,-0.00000361,-0.00000595,-0.00000584,0.00000842,-0.00000671,0.
 00000321,0.00000225,0.00001789,-0.00001388,0.00001656,-0.00000703,-0.0
 0000043,-0.00000339,-0.00000092,0.00000424,-0.00000012,0.00000134,0.00
 000279,-0.00000299,0.00002404,0.00004594,0.00000134,-0.00000044,-0.000
 00525,-0.00000186,-0.00000674,-0.00000319,0.00000131,0.00000066,-0.000
 00496,0.00000139,-0.00006466,-0.00003533,-0.00014861,0.00000650,-0.000
 00581,0.00001320,0.00001652,0.00001451,0.00000608,0.00001704,0.0000129
 5,0.00000656,-0.00039845,-0.00014358,0.00113901,-0.00005143,0.00003873
 ,-0.00039696,0.00025742,0.00017169,-0.00026803,0.00013814,-0.00009393,
 -0.00030112,0.00778764,0.00119864,-0.08141973,0.00548226,0.00101653,0.
 01211249,-0.04030173,0.00749503,0.08410111,0.00002849,-0.00000166,0.00
 002786,0.00006127,-0.00002139,-0.00000075,0.00012000,-0.00002613,-0.00
 002699,0.00001109,0.00004090,0.00007215,0.00002980,0.00003521,0.000038
 88,0.00001993,-0.00001162,-0.00000056,-0.00000746,-0.00000106,-0.00000
 247,-0.00000008,-0.00000001,0.00000033,0.00001079,0.00000792,0.0000011
 4,0.00000164,-0.00000107,-0.00000251,-0.00011965,-0.00003179,-0.000067
 23,-0.00019385,0.00001877,-0.00001937,-0.00005194,0.00003305,0.0000007
 8,-0.00006133,0.00000082,-0.00003692,-0.00003479,-0.00004413,-0.000051
 13,0.00012481,0.00008262,0.00003542,-0.00002236,-0.00000982,-0.0000215
 8,0.00000919,-0.00002756,0.00008606,-0.00007371,-0.00007379,-0.0000631
 0,0.00050657,-0.00053947,0.00016358,-0.00008769,0.00021308,-0.00010863
 ,-0.00015651,0.00019982,0.00003278,0.00054198,-0.00047404,-0.00033346,
 -0.00001033,0.00007464,-0.00022737,-0.00172525,0.00015608,-0.00044326,
 0.00026175,-0.00017107,-0.00083392,0.00005492,-0.00001906,-0.00004998,
 0.01063184,-0.00076480,-0.00865036,0.00036625,0.00007954,-0.00136259,-
 0.00113970,0.00144177,-0.00053919,0.00010876,0.00006305,-0.00040655,0.
 00001602,-0.00000767,-0.00001314,-0.00000091,-0.00000716,0.00000174,0.
 00000254,0.00000089,0.00000315,-0.00000665,0.00000355,-0.00000069,0.00
 001660,-0.00001602,0.00002588,-0.00000547,0.00000069,-0.00000303,0.000
 00012,0.00000298,-0.00000395,0.00000051,0.00000248,-0.00000195,0.00002
 107,0.00003543,0.00000863,-0.00000233,-0.00000501,-0.00000621,-0.00000
 435,-0.00000384,0.00000147,0.00000047,0.00000068,0.00000373,0.00012120
 ,0.00005913,0.00008689,-0.00002781,-0.00002533,-0.00000397,0.00000101,
 0.00005030,0.00000923,-0.00000154,-0.00000181,0.00000068,-0.00042357,0
 .00008870,0.00040110,0.00000815,0.00000283,-0.00023327,0.00017023,0.00
 007919,-0.00012007,0.00010742,-0.00009320,-0.00009749,-0.07950651,0.01
 162902,0.02459969,0.00995236,-0.01560577,-0.01752772,-0.02813385,0.026
 30268,0.05530147,0.08849084,-0.00000422,-0.00005980,-0.00003062,-0.000
 03649,0.00000604,-0.00001835,-0.00007724,-0.00027477,0.00010834,-0.000
 07648,-0.00025269,-0.00010453,0.00000877,0.00004951,0.00001342,-0.0000
 2361,0.00002042,-0.00000159,0.00001698,0.00000458,0.00000031,-0.000004
 92,0.00000485,-0.00000598,-0.00002664,0.00001431,-0.00002327,0.0000244
 6,0.00000009,0.00000367,0.00004427,0.00027760,0.00005817,0.00035569,0.
 00018315,-0.00001228,0.00001624,0.00002770,0.00001408,-0.00001240,0.00
 003552,0.00000428,-0.00002503,0.00004206,0.00000560,0.00041009,0.00017
 056,0.00015106,-0.00005180,-0.00000212,-0.00003553,0.00003846,-0.00025
 692,0.00016502,-0.00021173,-0.00000128,-0.00013025,-0.00085035,0.00039
 724,-0.00025165,0.00017271,-0.00018978,0.00010916,0.00026560,-0.000157
 13,0.00001128,-0.00057382,0.00072472,-0.00019081,-0.00037400,0.0002051
 1,0.00081346,0.00197471,-0.00159888,0.00084342,-0.00002858,-0.00100639
 ,0.00086208,-0.00007325,0.00002368,0.00004334,-0.00026105,0.01120278,0
 .01304956,-0.00038069,-0.00021691,0.00114133,0.00159829,-0.00031506,-0
 .00011168,0.00001262,0.00019209,0.00024775,-0.00001978,-0.00001359,-0.
 00000946,0.00000368,0.00000736,0.00000404,0.00000103,0.00000195,-0.000
 00140,0.00000271,0.00000066,0.00000234,0.00000066,-0.00000754,0.000006
 92,0.00000020,0.00000102,-0.00000140,-0.00000004,-0.00000097,-0.000000
 17,-0.00000272,0.00000321,-0.00000077,0.00001332,-0.00001457,0.0000144
 8,0.00000105,0.00000017,-0.00000173,-0.00000521,0.00000151,-0.00000125
 ,0.00000727,0.00001182,-0.00000215,0.00037120,0.00013915,0.00022794,-0
 .00005741,-0.00003134,-0.00000957,0.00011045,-0.00002470,-0.00015259,-
 0.00013384,-0.00002555,-0.00001943,0.00035866,-0.00036534,-0.00064178,
 0.00000755,0.00002112,0.00021765,-0.00019637,-0.00003293,0.00020592,-0
 .00013238,0.00016950,0.00014832,0.01093309,-0.10431265,-0.07545728,-0.
 01021573,-0.04652455,-0.05670135,0.01982753,0.00001772,-0.02165826,-0.
 02272152,0.14172828,0.00008158,-0.00004153,0.00002145,0.00016605,-0.00
 003873,-0.00000042,0.00038889,0.00018024,-0.00046030,0.00011467,-0.000
 01342,-0.00012217,0.00008432,0.00010921,0.00012006,-0.00002021,0.00001
 855,0.00000524,-0.00005709,-0.00001503,-0.00000577,0.00000746,-0.00000
 371,0.00001908,0.00008350,0.00002116,0.00009334,-0.00002256,-0.0000214
 5,-0.00000963,-0.00046934,-0.00012220,0.00020868,-0.00106723,-0.000069
 48,0.00026774,-0.00014844,0.00009235,0.00009925,-0.00017054,0.00001298
 ,-0.00004883,-0.00011829,-0.00009601,-0.00007097,0.00057502,0.00040694
 ,0.00003447,-0.00004503,-0.00002450,-0.00002041,0.00001182,0.00001923,
 0.00002905,-0.00035726,-0.00027971,0.00030799,0.00244324,-0.00193815,-
 0.00110411,-0.00063624,0.00091026,-0.00008558,-0.00060044,0.00059158,0
 .00088069,0.00017821,0.00094314,-0.00000348,-0.00031045,0.00015419,-0.
 00065265,0.00240615,-0.00105676,-0.00125156,0.00160888,0.00042635,-0.0
 0206584,-0.00006779,-0.00005400,0.00010215,0.00672628,-0.01786803,-0.0
 4575477,-0.00201350,0.00092849,-0.00085029,-0.00607536,0.00541277,-0.0
 0287896,-0.00026101,-0.00041297,0.00063393,0.00005298,-0.00003786,-0.0
 0011660,0.00001088,-0.00000315,-0.00000494,-0.00001394,-0.00001255,0.0
 0001830,-0.00001152,0.00000737,0.00000786,0.00003924,-0.00003597,0.000
 04092,-0.00001597,-0.00000005,-0.00000885,-0.00000209,0.00000900,0.000
 00064,0.00000057,0.00000897,-0.00000796,0.00006823,0.00010011,0.000015
 55,-0.00000111,-0.00001187,-0.00000638,-0.00002011,-0.00000710,0.00000
 147,0.00000765,-0.00000199,0.00000277,0.00018517,0.00005819,-0.0001466
 1,-0.00004528,-0.00004600,0.00002393,0.00011081,-0.00005161,-0.0001526
 1,-0.00009633,0.00000142,-0.00000563,-0.00150894,0.00046020,0.00227864
 ,-0.00014693,0.00003471,-0.00117465,0.00079189,0.00040682,-0.00065051,
 0.00034213,-0.00028049,-0.00060443,0.02067643,-0.07035049,-0.30066304,
 -0.00929176,-0.03783884,-0.01244819,0.03607593,-0.01768280,-0.01832384
 ,-0.04964324,0.13710221,0.38448680\\0.00000416,-0.00000037,-0.00000095
 ,-0.00000188,-0.00000144,0.00000149,0.00000246,-0.00000206,-0.00000046
 ,-0.00000146,-0.00000207,-0.00000447,0.00000170,0.00000233,0.00000333,
 0.00000027,0.00000053,0.00000039,0.00000040,0.00000015,0.00000052,-0.0
 0000145,0.00000085,0.00000154,-0.00000003,-0.00000021,0.00000068,-0.00
 000067,0.00000065,0.00000070,-0.00000007,-0.00000019,0.00000279,-0.000
 00278,0.00000143,-0.00000086,0.00000141,0.00000163,0.00000101,-0.00000
 305,0.00000175,0.00000190,-0.00000243,-0.00000008,-0.00000194,0.000000
 24,-0.00000232,0.00000136,0.00000034,-0.00000059,-0.00000055,0.0000000
 9,0.00000063,0.00000005,-0.00000168,0.00000262,-0.00000040,0.00000203,
 -0.00000104,0.00000294,0.00000059,-0.00000004,-0.00000133,0.00000104,0
 .00000071,-0.00000254,-0.00000197,0.00000112,-0.00000111,-0.00000016,0
 .00000072,-0.00000107,0.00000285,-0.00000055,-0.00000027,-0.00000007,-
 0.00000115,0.00000002,-0.00000034,-0.00000045,-0.00000073,-0.00000184,
 0.00000004,-0.00000153,0.00000036,0.00000009,-0.00000084,0.00000091,0.
 00000012,-0.00000041,-0.00000054,-0.00000082,-0.00000163,0.00000140,-0
 .00000047,0.00000020,0.00000068,0.00000046,0.00000012,0.00000100,0.000
 00047,0.00000127,-0.00000036,0.00000061,0.00000088,0.00000048,-0.00000
 253,0.00000138,-0.00000055,0.00000009,0.00000106,-0.00000064,0.0000007
 3,0.00000088,-0.00000069,0.00000065,0.00000115,0.00000097,0.00000055,0
 .00000191,-0.00000104,-0.00000032,0.00000036,-0.00000114,-0.00000017,0
 .00000108,-0.00000090,-0.00000055,0.00000107,0.00000163,-0.00000020,-0
 .00000007,0.00000062,-0.00000007,0.00000050,0.00000061,0.00000044,0.00
 000021,-0.00000033,0.00000066,0.00000021,-0.00000266,-0.00000170,-0.00
 000293,-0.00000049,-0.00000057,-0.00000045,0.00000079,0.00000030,-0.00
 000164,-0.00000091,-0.00000002,-0.00000091,0.00000313,0.00000053,-0.00
 000052,-0.00000087,-0.00000088,-0.00000040,0.00000045,0.00000031,-0.00
 000144,0.00000038,-0.00000032,-0.00000155\\\@


 ERWIN WITH HIS PSI CAN DO
 CALCULATIONS QUITE A FEW.
 BUT ONE THING HAS NOT BEEN SEEN
 JUST WHAT DOES PSI REALLY MEAN.
 -- WALTER HUCKEL, TRANS. BY FELIX BLOCH
 Job cpu time:       1 days 15 hours 59 minutes 47.3 seconds.
 Elapsed time:       0 days  0 hours 38 minutes 59.7 seconds.
 File lengths (MBytes):  RWF=   2244 Int=      0 D2E=      0 Chk=     39 Scr=      1
 Normal termination of Gaussian 16 at Mon Jun 10 06:19:46 2019.
