 Entering Gaussian System, Link 0=g16
 Input=clay_new-glu_gluC6-BCDR-Na2_1Me2O-bisCF3-ts-n12sx-631gd-pcm_thf.gjf
 Output=clay_new-glu_gluC6-BCDR-Na2_1Me2O-bisCF3-ts-n12sx-631gd-pcm_thf.out
 Initial command:
 /home/ekwan/sw/g16/l1.exe "/scratch/users/ekwan/clay_new-glu_gluC6-BCDR-Na2_1Me2O-bisCF3-ts-n12sx-631gd-pcm_thf/Gau-52792.inp" -scrdir="/scratch/users/ekwan/clay_new-glu_gluC6-BCDR-Na2_1Me2O-bisCF3-ts-n12sx-631gd-pcm_thf/"
 Entering Link 1 = /home/ekwan/sw/g16/l1.exe PID=     52793.
  
 Copyright (c) 1988,1990,1992,1993,1995,1998,2003,2009,2016,
            Gaussian, Inc.  All Rights Reserved.
  
 This is part of the Gaussian(R) 16 program.  It is based on
 the Gaussian(R) 09 system (copyright 2009, Gaussian, Inc.),
 the Gaussian(R) 03 system (copyright 2003, Gaussian, Inc.),
 the Gaussian(R) 98 system (copyright 1998, Gaussian, Inc.),
 the Gaussian(R) 94 system (copyright 1995, Gaussian, Inc.),
 the Gaussian 92(TM) system (copyright 1992, Gaussian, Inc.),
 the Gaussian 90(TM) system (copyright 1990, Gaussian, Inc.),
 the Gaussian 88(TM) system (copyright 1988, Gaussian, Inc.),
 the Gaussian 86(TM) system (copyright 1986, Carnegie Mellon
 University), and the Gaussian 82(TM) system (copyright 1983,
 Carnegie Mellon University). Gaussian is a federally registered
 trademark of Gaussian, Inc.
  
 This software contains proprietary and confidential information,
 including trade secrets, belonging to Gaussian, Inc.
  
 This software is provided under written license and may be
 used, copied, transmitted, or stored only in accord with that
 written license.
  
 The following legend is applicable only to US Government
 contracts under FAR:
  
                    RESTRICTED RIGHTS LEGEND
  
 Use, reproduction and disclosure by the US Government is
 subject to restrictions as set forth in subparagraphs (a)
 and (c) of the Commercial Computer Software - Restricted
 Rights clause in FAR 52.227-19.
  
 Gaussian, Inc.
 340 Quinnipiac St., Bldg. 40, Wallingford CT 06492
  
  
 ---------------------------------------------------------------
 Warning -- This program may not be used in any manner that
 competes with the business of Gaussian, Inc. or will provide
 assistance to any competitor of Gaussian, Inc.  The licensee
 of this program is prohibited from giving any competitor of
 Gaussian, Inc. access to this program.  By using this program,
 the user acknowledges that Gaussian, Inc. is engaged in the
 business of creating and licensing software in the field of
 computational chemistry and represents and warrants to the
 licensee that it is not a competitor of Gaussian, Inc. and that
 it will not use this program in any manner prohibited above.
 ---------------------------------------------------------------
  

 Cite this work as:
 Gaussian 16, Revision A.03,
 M. J. Frisch, G. W. Trucks, H. B. Schlegel, G. E. Scuseria, 
 M. A. Robb, J. R. Cheeseman, G. Scalmani, V. Barone, 
 G. A. Petersson, H. Nakatsuji, X. Li, M. Caricato, A. V. Marenich, 
 J. Bloino, B. G. Janesko, R. Gomperts, B. Mennucci, H. P. Hratchian, 
 J. V. Ortiz, A. F. Izmaylov, J. L. Sonnenberg, D. Williams-Young, 
 F. Ding, F. Lipparini, F. Egidi, J. Goings, B. Peng, A. Petrone, 
 T. Henderson, D. Ranasinghe, V. G. Zakrzewski, J. Gao, N. Rega, 
 G. Zheng, W. Liang, M. Hada, M. Ehara, K. Toyota, R. Fukuda, 
 J. Hasegawa, M. Ishida, T. Nakajima, Y. Honda, O. Kitao, H. Nakai, 
 T. Vreven, K. Throssell, J. A. Montgomery, Jr., J. E. Peralta, 
 F. Ogliaro, M. J. Bearpark, J. J. Heyd, E. N. Brothers, K. N. Kudin, 
 V. N. Staroverov, T. A. Keith, R. Kobayashi, J. Normand, 
 K. Raghavachari, A. P. Rendell, J. C. Burant, S. S. Iyengar, 
 J. Tomasi, M. Cossi, J. M. Millam, M. Klene, C. Adamo, R. Cammi, 
 J. W. Ochterski, R. L. Martin, K. Morokuma, O. Farkas, 
 J. B. Foresman, and D. J. Fox, Gaussian, Inc., Wallingford CT, 2016.
 
 ******************************************
 Gaussian 16:  AS64L-G16RevA.03 25-Dec-2016
                 5-Jun-2019 
 ******************************************
 %nprocshared=32
 Will use up to   32 processors via shared memory.
 %mem=48GB
 ----------------------------------------------------------------------
 #p opt=(ts,calcfc,noeigentest,maxstep=5) freq=noraman pop=none 6-31g* 
 scrf=(pcm,solvent=tetrahydrofuran) n12sx
 ----------------------------------------------------------------------
 1/5=1,8=5,10=4,11=1,18=20,26=3,38=1/1,3;
 2/9=110,12=2,17=6,18=5,40=1/2;
 3/5=1,6=6,7=1,11=2,25=1,30=1,70=2201,71=2,72=20,74=-69,140=1/1,2,3;
 4//1;
 5/5=2,38=5,53=20/2;
 8/6=4,10=90,11=11/1;
 11/6=1,8=1,9=11,15=111,16=1/1,2,10;
 10/6=1,13=1/2;
 7/10=1,18=20,25=1/1,2,3,16;
 1/5=1,8=5,10=4,11=1,18=20,26=3/3(2);
 2/9=110/2;
 99//99;
 2/9=110/2;
 3/5=1,6=6,7=1,11=2,25=1,30=1,70=2205,71=1,72=20,74=-69/1,2,3;
 4/5=5,16=3,69=1/1;
 5/5=2,38=5,53=20/2;
 7//1,2,3,16;
 1/5=1,8=5,11=1,18=20,26=3/3(-5);
 2/9=110/2;
 99/9=1/99;
 Leave Link    1 at Wed Jun  5 13:30:21 2019, MaxMem=  6442450944 cpu:               4.6 elap:               0.2
 (Enter /home/ekwan/sw/g16/l101.exe)
 -----
 title
 -----
 Symbolic Z-matrix:
 Charge =  0 Multiplicity = 1
 6                    -1.84185   1.53518   2.25714 
 6                    -2.14189   2.31636   0.98547 
 6                    -1.27022   3.56737   0.93403 
 6                     0.48335   2.53175   2.20065 
 6                    -0.34698   1.26208   2.3809 
 1                    -1.38871   4.06989  -0.03111 
 1                    -1.86556   1.70848   0.11859 
 1                    -2.15725   2.14398   3.1084 
 1                     0.28568   3.183     3.0573 
 1                    -0.07003   0.54327   1.60572 
 8                     0.09018   3.20942   1.00065 
 8                    -1.64224   4.41664   1.96583 
 8                    -3.49182   2.69789   0.90873 
 8                    -2.56413   0.32001   2.24325 
 8                    -0.06941   0.72591   3.65781 
 6                     1.99223   2.2734    2.10608 
 1                     2.2478    1.71904   3.02815 
 1                     2.46867   3.26848   2.22736 
 8                     2.39889   1.65836   0.95685 
 6                    -4.29453   1.874     0.09916 
 1                    -3.95172   1.87611  -0.94078 
 1                    -4.30714   0.84507   0.46122 
 1                    -5.30473   2.27848   0.13039 
 6                    -3.23128   0.0171    3.4444 
 1                    -2.53694  -0.04386   4.28525 
 1                    -3.99669   0.76535   3.67373 
 1                    -3.71046  -0.94871   3.30564 
 6                     0.33123  -0.62296   3.6687 
 1                    -0.42548  -1.26644   3.21341 
 1                     1.2807   -0.77085   3.14632 
 1                     0.45703  -0.90869   4.71229 
 6                     3.86393  -1.47774  -1.31823 
 6                     3.20625  -0.16425  -0.9055 
 6                     1.88934  -0.39859  -0.23969 
 6                     2.37833  -2.66575   0.3289 
 6                     3.81302  -2.42729  -0.12247 
 1                     1.16038   0.37778  -0.16966 
 1                     3.80296   0.29291  -0.10525 
 1                     3.31617  -1.90623  -2.16104 
 1                     1.83894  -3.18788  -0.46179 
 1                     4.3729   -1.97372   0.6978 
 8                     1.6676   -1.416     0.51298 
 8                    -0.40418  -0.0898   -3.88234 
 8                     3.01175   0.78028  -1.91962 
 8                     5.20191  -1.22907  -1.66202 
 8                     4.3593   -3.67421  -0.46403 
 6                     2.23949  -3.44306   1.61164 
 1                     2.58056  -4.46761   1.42654 
 1                     1.17826  -3.48605   1.88476 
 8                     2.99451  -2.82733   2.61411 
 16                   -0.2486   -0.15477  -2.43007 
 8                    -0.1782    1.16564  -1.75546 
 8                     0.85627  -1.06357  -1.98007 
 6                    -1.72737  -0.92076  -1.78503 
 6                    -2.94335  -0.69655  -2.4125 
 6                    -1.65292  -1.68406  -0.62869 
 6                    -4.09933  -1.23285  -1.85826 
 1                    -2.98325  -0.11906  -3.32443 
 6                    -2.81307  -2.22682  -0.09683 
 1                    -0.70098  -1.85456  -0.14968 
 6                    -4.04168  -2.00163  -0.7036 
 1                    -4.94405  -2.42008  -0.28331 
 6                     4.17864   1.4284   -2.39465 
 1                     4.85763   1.66368  -1.57301 
 1                     4.70468   0.81459  -3.12389 
 1                     3.85135   2.3535   -2.86264 
 6                     5.6749   -1.95112  -2.77733 
 1                     5.58917  -3.02692  -2.62157 
 1                     5.12943  -1.67708  -3.68579 
 1                     6.72263  -1.68718  -2.9037 
 6                     5.4619   -4.07253   0.32217 
 1                     6.3062   -3.3923    0.18875 
 1                     5.19956  -4.11088   1.38252 
 1                     5.74761  -5.06696  -0.01257 
 6                     2.86319  -3.44961   3.8672 
 1                     3.49079  -2.90461   4.56777 
 1                     1.82659  -3.42085   4.21839 
 1                     3.18999  -4.49383   3.83023 
 6                    -1.04926   5.69357   1.90994 
 1                    -1.47938   6.28252   2.71618 
 1                     0.03319   5.63975   2.0413 
 1                    -1.26534   6.18332   0.95509 
 11                    1.46739   2.61412  -0.88806 
 8                     2.98335   4.33982  -1.19341 
 6                     3.08222   5.45045  -2.04916 
 1                     4.01669   5.42528  -2.61823 
 1                     2.24302   5.41356  -2.74008 
 1                     3.04152   6.38715  -1.48512 
 6                     4.0223    4.27201  -0.23925 
 1                     4.01186   5.15383   0.40836 
 1                     3.84619   3.37186   0.34889 
 1                     4.99696   4.21191  -0.73404 
 6                    -5.42811  -0.91145  -2.4699 
 9                    -5.92575   0.23549  -1.97191 
 9                    -6.33426  -1.8662   -2.22799 
 9                    -5.34153  -0.75467  -3.79568 
 6                    -2.73805  -3.11647   1.10525 
 9                    -1.62315  -2.90669   1.82146 
 9                    -2.73814  -4.41234   0.75714 
 9                    -3.78653  -2.93762   1.92227 
 
 Add virtual bond connecting atoms H37        and H10        Dist= 4.09D+00.
 Add virtual bond connecting atoms H37        and O19        Dist= 3.98D+00.
 Add virtual bond connecting atoms H38        and O19        Dist= 4.21D+00.
 Add virtual bond connecting atoms O52        and H37        Dist= 4.19D+00.
 Add virtual bond connecting atoms O53        and C34        Dist= 4.03D+00.
 Add virtual bond connecting atoms O84        and Na83       Dist= 4.38D+00.
 Add virtual bond connecting atoms H91        and H18        Dist= 4.41D+00.
 Add virtual bond connecting atoms H91        and O19        Dist= 4.39D+00.
 ITRead=  0  0  0  0  0  0  0  0  0  0  0  0  0  0  0  0  0  0  0  0
 ITRead=  0  0  0  0  0  0  0  0  0  0  0  0  0  0  0  0  0  0  0  0
 ITRead=  0  0  0  0  0  0  0  0  0  0  0  0  0  0  0  0  0  0  0  0
 ITRead=  0  0  0  0  0  0  0  0  0  0  0  0  0  0  0  0  0  0  0  0
 ITRead=  0  0  0  0  0  0  0  0  0  0  0  0  0  0  0  0  0  0  0  0
 MicOpt= -1 -1 -1 -1 -1 -1 -1 -1 -1 -1 -1 -1 -1 -1 -1 -1 -1 -1 -1 -1
 MicOpt= -1 -1 -1 -1 -1 -1 -1 -1 -1 -1 -1 -1 -1 -1 -1 -1 -1 -1 -1 -1
 MicOpt= -1 -1 -1 -1 -1 -1 -1 -1 -1 -1 -1 -1 -1 -1 -1 -1 -1 -1 -1 -1
 MicOpt= -1 -1 -1 -1 -1 -1 -1 -1 -1 -1 -1 -1 -1 -1 -1 -1 -1 -1 -1 -1
 MicOpt= -1 -1 -1 -1 -1 -1 -1 -1 -1 -1 -1 -1 -1 -1 -1 -1 -1 -1 -1 -1
 NAtoms=    100 NQM=      100 NQMF=       0 NMMI=      0 NMMIF=      0
                NMic=       0 NMicF=      0.
                    Isotopes and Nuclear Properties:
 (Nuclear quadrupole moments (NQMom) in fm**2, nuclear magnetic moments (NMagM)
  in nuclear magnetons)

  Atom         1           2           3           4           5           6           7           8           9          10
 IAtWgt=          12          12          12          12          12           1           1           1           1           1
 AtmWgt=  12.0000000  12.0000000  12.0000000  12.0000000  12.0000000   1.0078250   1.0078250   1.0078250   1.0078250   1.0078250
 NucSpn=           0           0           0           0           0           1           1           1           1           1
 AtZEff=   0.0000000   0.0000000   0.0000000   0.0000000   0.0000000   0.0000000   0.0000000   0.0000000   0.0000000   0.0000000
 NQMom=    0.0000000   0.0000000   0.0000000   0.0000000   0.0000000   0.0000000   0.0000000   0.0000000   0.0000000   0.0000000
 NMagM=    0.0000000   0.0000000   0.0000000   0.0000000   0.0000000   2.7928460   2.7928460   2.7928460   2.7928460   2.7928460
 AtZNuc=   6.0000000   6.0000000   6.0000000   6.0000000   6.0000000   1.0000000   1.0000000   1.0000000   1.0000000   1.0000000

  Atom        11          12          13          14          15          16          17          18          19          20
 IAtWgt=          16          16          16          16          16          12           1           1          16          12
 AtmWgt=  15.9949146  15.9949146  15.9949146  15.9949146  15.9949146  12.0000000   1.0078250   1.0078250  15.9949146  12.0000000
 NucSpn=           0           0           0           0           0           0           1           1           0           0
 AtZEff=   0.0000000   0.0000000   0.0000000   0.0000000   0.0000000   0.0000000   0.0000000   0.0000000   0.0000000   0.0000000
 NQMom=    0.0000000   0.0000000   0.0000000   0.0000000   0.0000000   0.0000000   0.0000000   0.0000000   0.0000000   0.0000000
 NMagM=    0.0000000   0.0000000   0.0000000   0.0000000   0.0000000   0.0000000   2.7928460   2.7928460   0.0000000   0.0000000
 AtZNuc=   8.0000000   8.0000000   8.0000000   8.0000000   8.0000000   6.0000000   1.0000000   1.0000000   8.0000000   6.0000000

  Atom        21          22          23          24          25          26          27          28          29          30
 IAtWgt=           1           1           1          12           1           1           1          12           1           1
 AtmWgt=   1.0078250   1.0078250   1.0078250  12.0000000   1.0078250   1.0078250   1.0078250  12.0000000   1.0078250   1.0078250
 NucSpn=           1           1           1           0           1           1           1           0           1           1
 AtZEff=   0.0000000   0.0000000   0.0000000   0.0000000   0.0000000   0.0000000   0.0000000   0.0000000   0.0000000   0.0000000
 NQMom=    0.0000000   0.0000000   0.0000000   0.0000000   0.0000000   0.0000000   0.0000000   0.0000000   0.0000000   0.0000000
 NMagM=    2.7928460   2.7928460   2.7928460   0.0000000   2.7928460   2.7928460   2.7928460   0.0000000   2.7928460   2.7928460
 AtZNuc=   1.0000000   1.0000000   1.0000000   6.0000000   1.0000000   1.0000000   1.0000000   6.0000000   1.0000000   1.0000000

  Atom        31          32          33          34          35          36          37          38          39          40
 IAtWgt=           1          12          12          12          12          12           1           1           1           1
 AtmWgt=   1.0078250  12.0000000  12.0000000  12.0000000  12.0000000  12.0000000   1.0078250   1.0078250   1.0078250   1.0078250
 NucSpn=           1           0           0           0           0           0           1           1           1           1
 AtZEff=   0.0000000   0.0000000   0.0000000   0.0000000   0.0000000   0.0000000   0.0000000   0.0000000   0.0000000   0.0000000
 NQMom=    0.0000000   0.0000000   0.0000000   0.0000000   0.0000000   0.0000000   0.0000000   0.0000000   0.0000000   0.0000000
 NMagM=    2.7928460   0.0000000   0.0000000   0.0000000   0.0000000   0.0000000   2.7928460   2.7928460   2.7928460   2.7928460
 AtZNuc=   1.0000000   6.0000000   6.0000000   6.0000000   6.0000000   6.0000000   1.0000000   1.0000000   1.0000000   1.0000000

  Atom        41          42          43          44          45          46          47          48          49          50
 IAtWgt=           1          16          16          16          16          16          12           1           1          16
 AtmWgt=   1.0078250  15.9949146  15.9949146  15.9949146  15.9949146  15.9949146  12.0000000   1.0078250   1.0078250  15.9949146
 NucSpn=           1           0           0           0           0           0           0           1           1           0
 AtZEff=   0.0000000   0.0000000   0.0000000   0.0000000   0.0000000   0.0000000   0.0000000   0.0000000   0.0000000   0.0000000
 NQMom=    0.0000000   0.0000000   0.0000000   0.0000000   0.0000000   0.0000000   0.0000000   0.0000000   0.0000000   0.0000000
 NMagM=    2.7928460   0.0000000   0.0000000   0.0000000   0.0000000   0.0000000   0.0000000   2.7928460   2.7928460   0.0000000
 AtZNuc=   1.0000000   8.0000000   8.0000000   8.0000000   8.0000000   8.0000000   6.0000000   1.0000000   1.0000000   8.0000000

  Atom        51          52          53          54          55          56          57          58          59          60
 IAtWgt=          32          16          16          12          12          12          12           1          12           1
 AtmWgt=  31.9720718  15.9949146  15.9949146  12.0000000  12.0000000  12.0000000  12.0000000   1.0078250  12.0000000   1.0078250
 NucSpn=           0           0           0           0           0           0           0           1           0           1
 AtZEff=   0.0000000   0.0000000   0.0000000   0.0000000   0.0000000   0.0000000   0.0000000   0.0000000   0.0000000   0.0000000
 NQMom=    0.0000000   0.0000000   0.0000000   0.0000000   0.0000000   0.0000000   0.0000000   0.0000000   0.0000000   0.0000000
 NMagM=    0.0000000   0.0000000   0.0000000   0.0000000   0.0000000   0.0000000   0.0000000   2.7928460   0.0000000   2.7928460
 AtZNuc=  16.0000000   8.0000000   8.0000000   6.0000000   6.0000000   6.0000000   6.0000000   1.0000000   6.0000000   1.0000000

  Atom        61          62          63          64          65          66          67          68          69          70
 IAtWgt=          12           1          12           1           1           1          12           1           1           1
 AtmWgt=  12.0000000   1.0078250  12.0000000   1.0078250   1.0078250   1.0078250  12.0000000   1.0078250   1.0078250   1.0078250
 NucSpn=           0           1           0           1           1           1           0           1           1           1
 AtZEff=   0.0000000   0.0000000   0.0000000   0.0000000   0.0000000   0.0000000   0.0000000   0.0000000   0.0000000   0.0000000
 NQMom=    0.0000000   0.0000000   0.0000000   0.0000000   0.0000000   0.0000000   0.0000000   0.0000000   0.0000000   0.0000000
 NMagM=    0.0000000   2.7928460   0.0000000   2.7928460   2.7928460   2.7928460   0.0000000   2.7928460   2.7928460   2.7928460
 AtZNuc=   6.0000000   1.0000000   6.0000000   1.0000000   1.0000000   1.0000000   6.0000000   1.0000000   1.0000000   1.0000000

  Atom        71          72          73          74          75          76          77          78          79          80
 IAtWgt=          12           1           1           1          12           1           1           1          12           1
 AtmWgt=  12.0000000   1.0078250   1.0078250   1.0078250  12.0000000   1.0078250   1.0078250   1.0078250  12.0000000   1.0078250
 NucSpn=           0           1           1           1           0           1           1           1           0           1
 AtZEff=   0.0000000   0.0000000   0.0000000   0.0000000   0.0000000   0.0000000   0.0000000   0.0000000   0.0000000   0.0000000
 NQMom=    0.0000000   0.0000000   0.0000000   0.0000000   0.0000000   0.0000000   0.0000000   0.0000000   0.0000000   0.0000000
 NMagM=    0.0000000   2.7928460   2.7928460   2.7928460   0.0000000   2.7928460   2.7928460   2.7928460   0.0000000   2.7928460
 AtZNuc=   6.0000000   1.0000000   1.0000000   1.0000000   6.0000000   1.0000000   1.0000000   1.0000000   6.0000000   1.0000000

  Atom        81          82          83          84          85          86          87          88          89          90
 IAtWgt=           1           1          23          16          12           1           1           1          12           1
 AtmWgt=   1.0078250   1.0078250  22.9897697  15.9949146  12.0000000   1.0078250   1.0078250   1.0078250  12.0000000   1.0078250
 NucSpn=           1           1           3           0           0           1           1           1           0           1
 AtZEff=   0.0000000   0.0000000   0.0000000   0.0000000   0.0000000   0.0000000   0.0000000   0.0000000   0.0000000   0.0000000
 NQMom=    0.0000000   0.0000000  10.4000000   0.0000000   0.0000000   0.0000000   0.0000000   0.0000000   0.0000000   0.0000000
 NMagM=    2.7928460   2.7928460   2.2175200   0.0000000   0.0000000   2.7928460   2.7928460   2.7928460   0.0000000   2.7928460
 AtZNuc=   1.0000000   1.0000000  11.0000000   8.0000000   6.0000000   1.0000000   1.0000000   1.0000000   6.0000000   1.0000000

  Atom        91          92          93          94          95          96          97          98          99         100
 IAtWgt=           1           1          12          19          19          19          12          19          19          19
 AtmWgt=   1.0078250   1.0078250  12.0000000  18.9984033  18.9984033  18.9984033  12.0000000  18.9984033  18.9984033  18.9984033
 NucSpn=           1           1           0           1           1           1           0           1           1           1
 AtZEff=   0.0000000   0.0000000   0.0000000   0.0000000   0.0000000   0.0000000   0.0000000   0.0000000   0.0000000   0.0000000
 NQMom=    0.0000000   0.0000000   0.0000000   0.0000000   0.0000000   0.0000000   0.0000000   0.0000000   0.0000000   0.0000000
 NMagM=    2.7928460   2.7928460   0.0000000   2.6288670   2.6288670   2.6288670   0.0000000   2.6288670   2.6288670   2.6288670
 AtZNuc=   1.0000000   1.0000000   6.0000000   9.0000000   9.0000000   9.0000000   6.0000000   9.0000000   9.0000000   9.0000000
 Leave Link  101 at Wed Jun  5 13:30:21 2019, MaxMem=  6442450944 cpu:              16.7 elap:               0.6
 (Enter /home/ekwan/sw/g16/l103.exe)

 GradGradGradGradGradGradGradGradGradGradGradGradGradGradGradGradGradGrad
 Berny optimization.
 Initialization pass.
                           ----------------------------
                           !    Initial Parameters    !
                           ! (Angstroms and Degrees)  !
 --------------------------                            --------------------------
 ! Name  Definition              Value          Derivative Info.                !
 --------------------------------------------------------------------------------
 ! R1    R(1,2)                  1.5223         calculate D2E/DX2 analytically  !
 ! R2    R(1,5)                  1.5246         calculate D2E/DX2 analytically  !
 ! R3    R(1,8)                  1.093          calculate D2E/DX2 analytically  !
 ! R4    R(1,14)                 1.4137         calculate D2E/DX2 analytically  !
 ! R5    R(2,3)                  1.5256         calculate D2E/DX2 analytically  !
 ! R6    R(2,7)                  1.0942         calculate D2E/DX2 analytically  !
 ! R7    R(2,13)                 1.4049         calculate D2E/DX2 analytically  !
 ! R8    R(3,6)                  1.0946         calculate D2E/DX2 analytically  !
 ! R9    R(3,11)                 1.4083         calculate D2E/DX2 analytically  !
 ! R10   R(3,12)                 1.3872         calculate D2E/DX2 analytically  !
 ! R11   R(4,5)                  1.5277         calculate D2E/DX2 analytically  !
 ! R12   R(4,9)                  1.0941         calculate D2E/DX2 analytically  !
 ! R13   R(4,11)                 1.4331         calculate D2E/DX2 analytically  !
 ! R14   R(4,16)                 1.5338         calculate D2E/DX2 analytically  !
 ! R15   R(5,10)                 1.0928         calculate D2E/DX2 analytically  !
 ! R16   R(5,15)                 1.4125         calculate D2E/DX2 analytically  !
 ! R17   R(10,37)                2.1664         calculate D2E/DX2 analytically  !
 ! R18   R(12,79)                1.409          calculate D2E/DX2 analytically  !
 ! R19   R(13,20)                1.4066         calculate D2E/DX2 analytically  !
 ! R20   R(14,24)                1.407          calculate D2E/DX2 analytically  !
 ! R21   R(15,28)                1.4072         calculate D2E/DX2 analytically  !
 ! R22   R(16,17)                1.1058         calculate D2E/DX2 analytically  !
 ! R23   R(16,18)                1.1099         calculate D2E/DX2 analytically  !
 ! R24   R(16,19)                1.3654         calculate D2E/DX2 analytically  !
 ! R25   R(18,91)                2.3317         calculate D2E/DX2 analytically  !
 ! R26   R(19,37)                2.1078         calculate D2E/DX2 analytically  !
 ! R27   R(19,38)                2.228          calculate D2E/DX2 analytically  !
 ! R28   R(19,83)                2.277          calculate D2E/DX2 analytically  !
 ! R29   R(19,91)                2.3239         calculate D2E/DX2 analytically  !
 ! R30   R(20,21)                1.095          calculate D2E/DX2 analytically  !
 ! R31   R(20,22)                1.0909         calculate D2E/DX2 analytically  !
 ! R32   R(20,23)                1.0886         calculate D2E/DX2 analytically  !
 ! R33   R(24,25)                1.0922         calculate D2E/DX2 analytically  !
 ! R34   R(24,26)                1.0947         calculate D2E/DX2 analytically  !
 ! R35   R(24,27)                1.087          calculate D2E/DX2 analytically  !
 ! R36   R(28,29)                1.0927         calculate D2E/DX2 analytically  !
 ! R37   R(28,30)                1.0937         calculate D2E/DX2 analytically  !
 ! R38   R(28,31)                1.0893         calculate D2E/DX2 analytically  !
 ! R39   R(32,33)                1.5258         calculate D2E/DX2 analytically  !
 ! R40   R(32,36)                1.5278         calculate D2E/DX2 analytically  !
 ! R41   R(32,39)                1.0927         calculate D2E/DX2 analytically  !
 ! R42   R(32,45)                1.4037         calculate D2E/DX2 analytically  !
 ! R43   R(33,34)                1.4941         calculate D2E/DX2 analytically  !
 ! R44   R(33,38)                1.0979         calculate D2E/DX2 analytically  !
 ! R45   R(33,44)                1.3994         calculate D2E/DX2 analytically  !
 ! R46   R(34,37)                1.0673         calculate D2E/DX2 analytically  !
 ! R47   R(34,42)                1.2848         calculate D2E/DX2 analytically  !
 ! R48   R(34,53)                2.1303         calculate D2E/DX2 analytically  !
 ! R49   R(35,36)                1.5228         calculate D2E/DX2 analytically  !
 ! R50   R(35,40)                1.0903         calculate D2E/DX2 analytically  !
 ! R51   R(35,42)                1.4495         calculate D2E/DX2 analytically  !
 ! R52   R(35,47)                1.5063         calculate D2E/DX2 analytically  !
 ! R53   R(36,41)                1.0918         calculate D2E/DX2 analytically  !
 ! R54   R(36,46)                1.4035         calculate D2E/DX2 analytically  !
 ! R55   R(37,52)                2.2197         calculate D2E/DX2 analytically  !
 ! R56   R(43,51)                1.462          calculate D2E/DX2 analytically  !
 ! R57   R(44,63)                1.4168         calculate D2E/DX2 analytically  !
 ! R58   R(45,67)                1.4103         calculate D2E/DX2 analytically  !
 ! R59   R(46,71)                1.4116         calculate D2E/DX2 analytically  !
 ! R60   R(47,48)                1.0956         calculate D2E/DX2 analytically  !
 ! R61   R(47,49)                1.0967         calculate D2E/DX2 analytically  !
 ! R62   R(47,50)                1.3979         calculate D2E/DX2 analytically  !
 ! R63   R(50,75)                1.4052         calculate D2E/DX2 analytically  !
 ! R64   R(51,52)                1.4844         calculate D2E/DX2 analytically  !
 ! R65   R(51,53)                1.4997         calculate D2E/DX2 analytically  !
 ! R66   R(51,54)                1.7859         calculate D2E/DX2 analytically  !
 ! R67   R(54,55)                1.3866         calculate D2E/DX2 analytically  !
 ! R68   R(54,56)                1.3875         calculate D2E/DX2 analytically  !
 ! R69   R(55,57)                1.3896         calculate D2E/DX2 analytically  !
 ! R70   R(55,58)                1.0801         calculate D2E/DX2 analytically  !
 ! R71   R(56,59)                1.3869         calculate D2E/DX2 analytically  !
 ! R72   R(56,60)                1.0792         calculate D2E/DX2 analytically  !
 ! R73   R(57,61)                1.3884         calculate D2E/DX2 analytically  !
 ! R74   R(57,93)                1.4977         calculate D2E/DX2 analytically  !
 ! R75   R(59,61)                1.3887         calculate D2E/DX2 analytically  !
 ! R76   R(59,97)                1.4974         calculate D2E/DX2 analytically  !
 ! R77   R(61,62)                1.0798         calculate D2E/DX2 analytically  !
 ! R78   R(63,64)                1.0915         calculate D2E/DX2 analytically  !
 ! R79   R(63,65)                1.0887         calculate D2E/DX2 analytically  !
 ! R80   R(63,66)                1.0872         calculate D2E/DX2 analytically  !
 ! R81   R(67,68)                1.0904         calculate D2E/DX2 analytically  !
 ! R82   R(67,69)                1.0945         calculate D2E/DX2 analytically  !
 ! R83   R(67,70)                1.0878         calculate D2E/DX2 analytically  !
 ! R84   R(71,72)                1.0924         calculate D2E/DX2 analytically  !
 ! R85   R(71,73)                1.093          calculate D2E/DX2 analytically  !
 ! R86   R(71,74)                1.0875         calculate D2E/DX2 analytically  !
 ! R87   R(75,76)                1.0871         calculate D2E/DX2 analytically  !
 ! R88   R(75,77)                1.0949         calculate D2E/DX2 analytically  !
 ! R89   R(75,78)                1.0948         calculate D2E/DX2 analytically  !
 ! R90   R(79,80)                1.0871         calculate D2E/DX2 analytically  !
 ! R91   R(79,81)                1.0917         calculate D2E/DX2 analytically  !
 ! R92   R(79,82)                1.0947         calculate D2E/DX2 analytically  !
 ! R93   R(83,84)                2.3172         calculate D2E/DX2 analytically  !
 ! R94   R(84,85)                1.4056         calculate D2E/DX2 analytically  !
 ! R95   R(84,89)                1.4122         calculate D2E/DX2 analytically  !
 ! R96   R(85,86)                1.0944         calculate D2E/DX2 analytically  !
 ! R97   R(85,87)                1.0877         calculate D2E/DX2 analytically  !
 ! R98   R(85,88)                1.0942         calculate D2E/DX2 analytically  !
 ! R99   R(89,90)                1.0941         calculate D2E/DX2 analytically  !
 ! R100  R(89,91)                1.0896         calculate D2E/DX2 analytically  !
 ! R101  R(89,92)                1.0947         calculate D2E/DX2 analytically  !
 ! R102  R(93,94)                1.3458         calculate D2E/DX2 analytically  !
 ! R103  R(93,95)                1.3384         calculate D2E/DX2 analytically  !
 ! R104  R(93,96)                1.3378         calculate D2E/DX2 analytically  !
 ! R105  R(97,98)                1.3416         calculate D2E/DX2 analytically  !
 ! R106  R(97,99)                1.3418         calculate D2E/DX2 analytically  !
 ! R107  R(97,100)               1.3412         calculate D2E/DX2 analytically  !
 ! A1    A(2,1,5)              110.6692         calculate D2E/DX2 analytically  !
 ! A2    A(2,1,8)              107.9322         calculate D2E/DX2 analytically  !
 ! A3    A(2,1,14)             109.4015         calculate D2E/DX2 analytically  !
 ! A4    A(5,1,8)              108.6306         calculate D2E/DX2 analytically  !
 ! A5    A(5,1,14)             110.3506         calculate D2E/DX2 analytically  !
 ! A6    A(8,1,14)             109.8153         calculate D2E/DX2 analytically  !
 ! A7    A(1,2,3)              109.6545         calculate D2E/DX2 analytically  !
 ! A8    A(1,2,7)              109.0834         calculate D2E/DX2 analytically  !
 ! A9    A(1,2,13)             111.9854         calculate D2E/DX2 analytically  !
 ! A10   A(3,2,7)              106.5312         calculate D2E/DX2 analytically  !
 ! A11   A(3,2,13)             108.9334         calculate D2E/DX2 analytically  !
 ! A12   A(7,2,13)             110.5021         calculate D2E/DX2 analytically  !
 ! A13   A(2,3,6)              110.1424         calculate D2E/DX2 analytically  !
 ! A14   A(2,3,11)             109.9937         calculate D2E/DX2 analytically  !
 ! A15   A(2,3,12)             108.8882         calculate D2E/DX2 analytically  !
 ! A16   A(6,3,11)             105.247          calculate D2E/DX2 analytically  !
 ! A17   A(6,3,12)             110.2277         calculate D2E/DX2 analytically  !
 ! A18   A(11,3,12)            112.3016         calculate D2E/DX2 analytically  !
 ! A19   A(5,4,9)              107.7055         calculate D2E/DX2 analytically  !
 ! A20   A(5,4,11)             110.0399         calculate D2E/DX2 analytically  !
 ! A21   A(5,4,16)             113.7016         calculate D2E/DX2 analytically  !
 ! A22   A(9,4,11)             108.9397         calculate D2E/DX2 analytically  !
 ! A23   A(9,4,16)             109.0428         calculate D2E/DX2 analytically  !
 ! A24   A(11,4,16)            107.3325         calculate D2E/DX2 analytically  !
 ! A25   A(1,5,4)              111.9898         calculate D2E/DX2 analytically  !
 ! A26   A(1,5,10)             107.9821         calculate D2E/DX2 analytically  !
 ! A27   A(1,5,15)             109.5153         calculate D2E/DX2 analytically  !
 ! A28   A(4,5,10)             108.9784         calculate D2E/DX2 analytically  !
 ! A29   A(4,5,15)             108.3807         calculate D2E/DX2 analytically  !
 ! A30   A(10,5,15)            109.9852         calculate D2E/DX2 analytically  !
 ! A31   A(5,10,37)            140.8484         calculate D2E/DX2 analytically  !
 ! A32   A(3,11,4)             115.1394         calculate D2E/DX2 analytically  !
 ! A33   A(3,12,79)            114.3603         calculate D2E/DX2 analytically  !
 ! A34   A(2,13,20)            114.8796         calculate D2E/DX2 analytically  !
 ! A35   A(1,14,24)            114.7666         calculate D2E/DX2 analytically  !
 ! A36   A(5,15,28)            115.2665         calculate D2E/DX2 analytically  !
 ! A37   A(4,16,17)            105.0937         calculate D2E/DX2 analytically  !
 ! A38   A(4,16,18)            105.3402         calculate D2E/DX2 analytically  !
 ! A39   A(4,16,19)            114.8827         calculate D2E/DX2 analytically  !
 ! A40   A(17,16,18)           105.0184         calculate D2E/DX2 analytically  !
 ! A41   A(17,16,19)           114.0264         calculate D2E/DX2 analytically  !
 ! A42   A(18,16,19)           111.5904         calculate D2E/DX2 analytically  !
 ! A43   A(16,18,91)           101.8479         calculate D2E/DX2 analytically  !
 ! A44   A(16,19,37)           123.2638         calculate D2E/DX2 analytically  !
 ! A45   A(16,19,38)           149.8802         calculate D2E/DX2 analytically  !
 ! A46   A(16,19,83)           111.7795         calculate D2E/DX2 analytically  !
 ! A47   A(16,19,91)            94.2176         calculate D2E/DX2 analytically  !
 ! A48   A(37,19,38)            75.1183         calculate D2E/DX2 analytically  !
 ! A49   A(37,19,83)            65.2672         calculate D2E/DX2 analytically  !
 ! A50   A(37,19,91)           132.3839         calculate D2E/DX2 analytically  !
 ! A51   A(38,19,83)            97.4005         calculate D2E/DX2 analytically  !
 ! A52   A(38,19,91)            86.2556         calculate D2E/DX2 analytically  !
 ! A53   A(83,19,91)            74.5328         calculate D2E/DX2 analytically  !
 ! A54   A(13,20,21)           111.52           calculate D2E/DX2 analytically  !
 ! A55   A(13,20,22)           111.5952         calculate D2E/DX2 analytically  !
 ! A56   A(13,20,23)           107.1829         calculate D2E/DX2 analytically  !
 ! A57   A(21,20,22)           108.7029         calculate D2E/DX2 analytically  !
 ! A58   A(21,20,23)           108.4849         calculate D2E/DX2 analytically  !
 ! A59   A(22,20,23)           109.2817         calculate D2E/DX2 analytically  !
 ! A60   A(14,24,25)           111.5815         calculate D2E/DX2 analytically  !
 ! A61   A(14,24,26)           111.2989         calculate D2E/DX2 analytically  !
 ! A62   A(14,24,27)           106.9369         calculate D2E/DX2 analytically  !
 ! A63   A(25,24,26)           108.747          calculate D2E/DX2 analytically  !
 ! A64   A(25,24,27)           109.2037         calculate D2E/DX2 analytically  !
 ! A65   A(26,24,27)           109.015          calculate D2E/DX2 analytically  !
 ! A66   A(15,28,29)           111.3524         calculate D2E/DX2 analytically  !
 ! A67   A(15,28,30)           111.9057         calculate D2E/DX2 analytically  !
 ! A68   A(15,28,31)           106.9627         calculate D2E/DX2 analytically  !
 ! A69   A(29,28,30)           108.8168         calculate D2E/DX2 analytically  !
 ! A70   A(29,28,31)           108.9472         calculate D2E/DX2 analytically  !
 ! A71   A(30,28,31)           108.7751         calculate D2E/DX2 analytically  !
 ! A72   A(33,32,36)           107.9964         calculate D2E/DX2 analytically  !
 ! A73   A(33,32,39)           109.277          calculate D2E/DX2 analytically  !
 ! A74   A(33,32,45)           108.9419         calculate D2E/DX2 analytically  !
 ! A75   A(36,32,39)           110.0766         calculate D2E/DX2 analytically  !
 ! A76   A(36,32,45)           109.4859         calculate D2E/DX2 analytically  !
 ! A77   A(39,32,45)           111.0016         calculate D2E/DX2 analytically  !
 ! A78   A(32,33,34)           111.4337         calculate D2E/DX2 analytically  !
 ! A79   A(32,33,38)           108.7438         calculate D2E/DX2 analytically  !
 ! A80   A(32,33,44)           116.417          calculate D2E/DX2 analytically  !
 ! A81   A(34,33,38)           102.6813         calculate D2E/DX2 analytically  !
 ! A82   A(34,33,44)           107.835          calculate D2E/DX2 analytically  !
 ! A83   A(38,33,44)           108.8258         calculate D2E/DX2 analytically  !
 ! A84   A(33,34,37)           121.1411         calculate D2E/DX2 analytically  !
 ! A85   A(33,34,42)           122.5033         calculate D2E/DX2 analytically  !
 ! A86   A(33,34,53)            96.4492         calculate D2E/DX2 analytically  !
 ! A87   A(37,34,42)           114.8168         calculate D2E/DX2 analytically  !
 ! A88   A(37,34,53)            87.103          calculate D2E/DX2 analytically  !
 ! A89   A(42,34,53)            98.4944         calculate D2E/DX2 analytically  !
 ! A90   A(36,35,40)           109.034          calculate D2E/DX2 analytically  !
 ! A91   A(36,35,42)           111.3826         calculate D2E/DX2 analytically  !
 ! A92   A(36,35,47)           114.8387         calculate D2E/DX2 analytically  !
 ! A93   A(40,35,42)           105.2141         calculate D2E/DX2 analytically  !
 ! A94   A(40,35,47)           108.9568         calculate D2E/DX2 analytically  !
 ! A95   A(42,35,47)           106.9534         calculate D2E/DX2 analytically  !
 ! A96   A(32,36,35)           111.1439         calculate D2E/DX2 analytically  !
 ! A97   A(32,36,41)           108.2247         calculate D2E/DX2 analytically  !
 ! A98   A(32,36,46)           110.4096         calculate D2E/DX2 analytically  !
 ! A99   A(35,36,41)           108.9959         calculate D2E/DX2 analytically  !
 ! A100  A(35,36,46)           107.44           calculate D2E/DX2 analytically  !
 ! A101  A(41,36,46)           110.6291         calculate D2E/DX2 analytically  !
 ! A102  A(10,37,19)            81.3339         calculate D2E/DX2 analytically  !
 ! A103  A(10,37,34)           119.8192         calculate D2E/DX2 analytically  !
 ! A104  A(10,37,52)           102.4658         calculate D2E/DX2 analytically  !
 ! A105  A(19,37,34)            94.341          calculate D2E/DX2 analytically  !
 ! A106  A(19,37,52)           121.3666         calculate D2E/DX2 analytically  !
 ! A107  A(34,37,52)           128.5501         calculate D2E/DX2 analytically  !
 ! A108  A(19,38,33)           105.0785         calculate D2E/DX2 analytically  !
 ! A109  A(34,42,35)           121.5832         calculate D2E/DX2 analytically  !
 ! A110  A(33,44,63)           115.9285         calculate D2E/DX2 analytically  !
 ! A111  A(32,45,67)           115.0039         calculate D2E/DX2 analytically  !
 ! A112  A(36,46,71)           114.7827         calculate D2E/DX2 analytically  !
 ! A113  A(35,47,48)           108.0599         calculate D2E/DX2 analytically  !
 ! A114  A(35,47,49)           108.7544         calculate D2E/DX2 analytically  !
 ! A115  A(35,47,50)           109.4882         calculate D2E/DX2 analytically  !
 ! A116  A(48,47,49)           107.8585         calculate D2E/DX2 analytically  !
 ! A117  A(48,47,50)           111.4033         calculate D2E/DX2 analytically  !
 ! A118  A(49,47,50)           111.1824         calculate D2E/DX2 analytically  !
 ! A119  A(47,50,75)           113.2006         calculate D2E/DX2 analytically  !
 ! A120  A(43,51,52)           114.6415         calculate D2E/DX2 analytically  !
 ! A121  A(43,51,53)           113.7895         calculate D2E/DX2 analytically  !
 ! A122  A(43,51,54)           106.841          calculate D2E/DX2 analytically  !
 ! A123  A(52,51,53)           111.5752         calculate D2E/DX2 analytically  !
 ! A124  A(52,51,54)           104.8709         calculate D2E/DX2 analytically  !
 ! A125  A(53,51,54)           103.9889         calculate D2E/DX2 analytically  !
 ! A126  A(37,52,51)            92.152          calculate D2E/DX2 analytically  !
 ! A127  A(34,53,51)           114.408          calculate D2E/DX2 analytically  !
 ! A128  A(51,54,55)           119.5603         calculate D2E/DX2 analytically  !
 ! A129  A(51,54,56)           119.5053         calculate D2E/DX2 analytically  !
 ! A130  A(55,54,56)           120.8728         calculate D2E/DX2 analytically  !
 ! A131  A(54,55,57)           119.1188         calculate D2E/DX2 analytically  !
 ! A132  A(54,55,58)           120.0596         calculate D2E/DX2 analytically  !
 ! A133  A(57,55,58)           120.8195         calculate D2E/DX2 analytically  !
 ! A134  A(54,56,59)           119.3401         calculate D2E/DX2 analytically  !
 ! A135  A(54,56,60)           120.2735         calculate D2E/DX2 analytically  !
 ! A136  A(59,56,60)           120.3863         calculate D2E/DX2 analytically  !
 ! A137  A(55,57,61)           120.7209         calculate D2E/DX2 analytically  !
 ! A138  A(55,57,93)           119.4948         calculate D2E/DX2 analytically  !
 ! A139  A(61,57,93)           119.6901         calculate D2E/DX2 analytically  !
 ! A140  A(56,59,61)           120.603          calculate D2E/DX2 analytically  !
 ! A141  A(56,59,97)           119.8995         calculate D2E/DX2 analytically  !
 ! A142  A(61,59,97)           119.436          calculate D2E/DX2 analytically  !
 ! A143  A(57,61,59)           119.3354         calculate D2E/DX2 analytically  !
 ! A144  A(57,61,62)           120.2373         calculate D2E/DX2 analytically  !
 ! A145  A(59,61,62)           120.4273         calculate D2E/DX2 analytically  !
 ! A146  A(44,63,64)           111.0108         calculate D2E/DX2 analytically  !
 ! A147  A(44,63,65)           111.3838         calculate D2E/DX2 analytically  !
 ! A148  A(44,63,66)           106.5969         calculate D2E/DX2 analytically  !
 ! A149  A(64,63,65)           108.976          calculate D2E/DX2 analytically  !
 ! A150  A(64,63,66)           109.1396         calculate D2E/DX2 analytically  !
 ! A151  A(65,63,66)           109.6866         calculate D2E/DX2 analytically  !
 ! A152  A(45,67,68)           111.4565         calculate D2E/DX2 analytically  !
 ! A153  A(45,67,69)           111.1654         calculate D2E/DX2 analytically  !
 ! A154  A(45,67,70)           106.8977         calculate D2E/DX2 analytically  !
 ! A155  A(68,67,69)           109.0508         calculate D2E/DX2 analytically  !
 ! A156  A(68,67,70)           109.3722         calculate D2E/DX2 analytically  !
 ! A157  A(69,67,70)           108.8344         calculate D2E/DX2 analytically  !
 ! A158  A(46,71,72)           111.099          calculate D2E/DX2 analytically  !
 ! A159  A(46,71,73)           111.2694         calculate D2E/DX2 analytically  !
 ! A160  A(46,71,74)           106.9672         calculate D2E/DX2 analytically  !
 ! A161  A(72,71,73)           109.0165         calculate D2E/DX2 analytically  !
 ! A162  A(72,71,74)           109.1937         calculate D2E/DX2 analytically  !
 ! A163  A(73,71,74)           109.2442         calculate D2E/DX2 analytically  !
 ! A164  A(50,75,76)           107.3803         calculate D2E/DX2 analytically  !
 ! A165  A(50,75,77)           111.2772         calculate D2E/DX2 analytically  !
 ! A166  A(50,75,78)           111.3685         calculate D2E/DX2 analytically  !
 ! A167  A(76,75,77)           109.0705         calculate D2E/DX2 analytically  !
 ! A168  A(76,75,78)           109.1244         calculate D2E/DX2 analytically  !
 ! A169  A(77,75,78)           108.5728         calculate D2E/DX2 analytically  !
 ! A170  A(12,79,80)           107.1596         calculate D2E/DX2 analytically  !
 ! A171  A(12,79,81)           111.5816         calculate D2E/DX2 analytically  !
 ! A172  A(12,79,82)           110.9156         calculate D2E/DX2 analytically  !
 ! A173  A(80,79,81)           109.254          calculate D2E/DX2 analytically  !
 ! A174  A(80,79,82)           109.0514         calculate D2E/DX2 analytically  !
 ! A175  A(81,79,82)           108.8281         calculate D2E/DX2 analytically  !
 ! A176  A(19,83,84)            98.7274         calculate D2E/DX2 analytically  !
 ! A177  A(83,84,85)           135.6204         calculate D2E/DX2 analytically  !
 ! A178  A(83,84,89)           110.8853         calculate D2E/DX2 analytically  !
 ! A179  A(85,84,89)           113.4244         calculate D2E/DX2 analytically  !
 ! A180  A(84,85,86)           111.0064         calculate D2E/DX2 analytically  !
 ! A181  A(84,85,87)           107.7988         calculate D2E/DX2 analytically  !
 ! A182  A(84,85,88)           111.0992         calculate D2E/DX2 analytically  !
 ! A183  A(86,85,87)           109.1306         calculate D2E/DX2 analytically  !
 ! A184  A(86,85,88)           108.6333         calculate D2E/DX2 analytically  !
 ! A185  A(87,85,88)           109.1351         calculate D2E/DX2 analytically  !
 ! A186  A(84,89,90)           110.7434         calculate D2E/DX2 analytically  !
 ! A187  A(84,89,91)           106.5863         calculate D2E/DX2 analytically  !
 ! A188  A(84,89,92)           110.6254         calculate D2E/DX2 analytically  !
 ! A189  A(90,89,91)           110.1692         calculate D2E/DX2 analytically  !
 ! A190  A(90,89,92)           108.6793         calculate D2E/DX2 analytically  !
 ! A191  A(91,89,92)           110.0307         calculate D2E/DX2 analytically  !
 ! A192  A(18,91,19)            52.3102         calculate D2E/DX2 analytically  !
 ! A193  A(18,91,89)           124.5396         calculate D2E/DX2 analytically  !
 ! A194  A(19,91,89)           148.3241         calculate D2E/DX2 analytically  !
 ! A195  A(57,93,94)           111.0913         calculate D2E/DX2 analytically  !
 ! A196  A(57,93,95)           111.9501         calculate D2E/DX2 analytically  !
 ! A197  A(57,93,96)           111.8663         calculate D2E/DX2 analytically  !
 ! A198  A(94,93,95)           106.9016         calculate D2E/DX2 analytically  !
 ! A199  A(94,93,96)           106.9037         calculate D2E/DX2 analytically  !
 ! A200  A(95,93,96)           107.851          calculate D2E/DX2 analytically  !
 ! A201  A(59,97,98)           112.1661         calculate D2E/DX2 analytically  !
 ! A202  A(59,97,99)           111.4398         calculate D2E/DX2 analytically  !
 ! A203  A(59,97,100)          111.7558         calculate D2E/DX2 analytically  !
 ! A204  A(98,97,99)           106.8316         calculate D2E/DX2 analytically  !
 ! A205  A(98,97,100)          107.6731         calculate D2E/DX2 analytically  !
 ! A206  A(99,97,100)          106.6647         calculate D2E/DX2 analytically  !
 ! D1    D(5,1,2,3)            -53.0791         calculate D2E/DX2 analytically  !
 ! D2    D(5,1,2,7)             63.2337         calculate D2E/DX2 analytically  !
 ! D3    D(5,1,2,13)          -174.1272         calculate D2E/DX2 analytically  !
 ! D4    D(8,1,2,3)             65.6691         calculate D2E/DX2 analytically  !
 ! D5    D(8,1,2,7)           -178.0181         calculate D2E/DX2 analytically  !
 ! D6    D(8,1,2,13)           -55.379          calculate D2E/DX2 analytically  !
 ! D7    D(14,1,2,3)          -174.8773         calculate D2E/DX2 analytically  !
 ! D8    D(14,1,2,7)           -58.5645         calculate D2E/DX2 analytically  !
 ! D9    D(14,1,2,13)           64.0746         calculate D2E/DX2 analytically  !
 ! D10   D(2,1,5,4)             50.651          calculate D2E/DX2 analytically  !
 ! D11   D(2,1,5,10)           -69.3363         calculate D2E/DX2 analytically  !
 ! D12   D(2,1,5,15)           170.9105         calculate D2E/DX2 analytically  !
 ! D13   D(8,1,5,4)            -67.6729         calculate D2E/DX2 analytically  !
 ! D14   D(8,1,5,10)           172.3398         calculate D2E/DX2 analytically  !
 ! D15   D(8,1,5,15)            52.5866         calculate D2E/DX2 analytically  !
 ! D16   D(14,1,5,4)           171.8897         calculate D2E/DX2 analytically  !
 ! D17   D(14,1,5,10)           51.9023         calculate D2E/DX2 analytically  !
 ! D18   D(14,1,5,15)          -67.8508         calculate D2E/DX2 analytically  !
 ! D19   D(2,1,14,24)         -133.6353         calculate D2E/DX2 analytically  !
 ! D20   D(5,1,14,24)          104.375          calculate D2E/DX2 analytically  !
 ! D21   D(8,1,14,24)          -15.3493         calculate D2E/DX2 analytically  !
 ! D22   D(1,2,3,6)            173.0765         calculate D2E/DX2 analytically  !
 ! D23   D(1,2,3,11)            57.5116         calculate D2E/DX2 analytically  !
 ! D24   D(1,2,3,12)           -65.944          calculate D2E/DX2 analytically  !
 ! D25   D(7,2,3,6)             55.1625         calculate D2E/DX2 analytically  !
 ! D26   D(7,2,3,11)           -60.4024         calculate D2E/DX2 analytically  !
 ! D27   D(7,2,3,12)           176.1419         calculate D2E/DX2 analytically  !
 ! D28   D(13,2,3,6)           -64.0502         calculate D2E/DX2 analytically  !
 ! D29   D(13,2,3,11)         -179.615          calculate D2E/DX2 analytically  !
 ! D30   D(13,2,3,12)           56.9293         calculate D2E/DX2 analytically  !
 ! D31   D(1,2,13,20)          -99.2484         calculate D2E/DX2 analytically  !
 ! D32   D(3,2,13,20)          139.2876         calculate D2E/DX2 analytically  !
 ! D33   D(7,2,13,20)           22.581          calculate D2E/DX2 analytically  !
 ! D34   D(2,3,11,4)           -61.6097         calculate D2E/DX2 analytically  !
 ! D35   D(6,3,11,4)           179.7712         calculate D2E/DX2 analytically  !
 ! D36   D(12,3,11,4)           59.8281         calculate D2E/DX2 analytically  !
 ! D37   D(2,3,12,79)         -171.0444         calculate D2E/DX2 analytically  !
 ! D38   D(6,3,12,79)          -50.1172         calculate D2E/DX2 analytically  !
 ! D39   D(11,3,12,79)          66.8873         calculate D2E/DX2 analytically  !
 ! D40   D(9,4,5,1)             67.777          calculate D2E/DX2 analytically  !
 ! D41   D(9,4,5,10)          -172.8196         calculate D2E/DX2 analytically  !
 ! D42   D(9,4,5,15)           -53.1414         calculate D2E/DX2 analytically  !
 ! D43   D(11,4,5,1)           -50.8508         calculate D2E/DX2 analytically  !
 ! D44   D(11,4,5,10)           68.5526         calculate D2E/DX2 analytically  !
 ! D45   D(11,4,5,15)         -171.7692         calculate D2E/DX2 analytically  !
 ! D46   D(16,4,5,1)          -171.2791         calculate D2E/DX2 analytically  !
 ! D47   D(16,4,5,10)          -51.8757         calculate D2E/DX2 analytically  !
 ! D48   D(16,4,5,15)           67.8025         calculate D2E/DX2 analytically  !
 ! D49   D(5,4,11,3)            57.7533         calculate D2E/DX2 analytically  !
 ! D50   D(9,4,11,3)           -60.1137         calculate D2E/DX2 analytically  !
 ! D51   D(16,4,11,3)         -178.0475         calculate D2E/DX2 analytically  !
 ! D52   D(5,4,16,17)          -56.0228         calculate D2E/DX2 analytically  !
 ! D53   D(5,4,16,18)         -166.6501         calculate D2E/DX2 analytically  !
 ! D54   D(5,4,16,19)           70.1307         calculate D2E/DX2 analytically  !
 ! D55   D(9,4,16,17)           64.169          calculate D2E/DX2 analytically  !
 ! D56   D(9,4,16,18)          -46.4583         calculate D2E/DX2 analytically  !
 ! D57   D(9,4,16,19)         -169.6775         calculate D2E/DX2 analytically  !
 ! D58   D(11,4,16,17)        -177.9641         calculate D2E/DX2 analytically  !
 ! D59   D(11,4,16,18)          71.4085         calculate D2E/DX2 analytically  !
 ! D60   D(11,4,16,19)         -51.8107         calculate D2E/DX2 analytically  !
 ! D61   D(1,5,10,37)          116.1449         calculate D2E/DX2 analytically  !
 ! D62   D(4,5,10,37)           -5.7203         calculate D2E/DX2 analytically  !
 ! D63   D(15,5,10,37)        -124.3989         calculate D2E/DX2 analytically  !
 ! D64   D(1,5,15,28)          111.2478         calculate D2E/DX2 analytically  !
 ! D65   D(4,5,15,28)         -126.3142         calculate D2E/DX2 analytically  !
 ! D66   D(10,5,15,28)          -7.269          calculate D2E/DX2 analytically  !
 ! D67   D(5,10,37,19)          34.7321         calculate D2E/DX2 analytically  !
 ! D68   D(5,10,37,34)         124.7833         calculate D2E/DX2 analytically  !
 ! D69   D(5,10,37,52)         -85.6352         calculate D2E/DX2 analytically  !
 ! D70   D(3,12,79,80)         175.4662         calculate D2E/DX2 analytically  !
 ! D71   D(3,12,79,81)         -64.9776         calculate D2E/DX2 analytically  !
 ! D72   D(3,12,79,82)          56.537          calculate D2E/DX2 analytically  !
 ! D73   D(2,13,20,21)         -61.4962         calculate D2E/DX2 analytically  !
 ! D74   D(2,13,20,22)          60.2928         calculate D2E/DX2 analytically  !
 ! D75   D(2,13,20,23)         179.9054         calculate D2E/DX2 analytically  !
 ! D76   D(1,14,24,25)         -58.7139         calculate D2E/DX2 analytically  !
 ! D77   D(1,14,24,26)          62.9657         calculate D2E/DX2 analytically  !
 ! D78   D(1,14,24,27)        -178.069          calculate D2E/DX2 analytically  !
 ! D79   D(5,15,28,29)         -58.1349         calculate D2E/DX2 analytically  !
 ! D80   D(5,15,28,30)          63.902          calculate D2E/DX2 analytically  !
 ! D81   D(5,15,28,31)        -177.0639         calculate D2E/DX2 analytically  !
 ! D82   D(4,16,18,91)        -127.0816         calculate D2E/DX2 analytically  !
 ! D83   D(17,16,18,91)        122.2373         calculate D2E/DX2 analytically  !
 ! D84   D(19,16,18,91)         -1.7865         calculate D2E/DX2 analytically  !
 ! D85   D(4,16,19,37)         -27.3811         calculate D2E/DX2 analytically  !
 ! D86   D(4,16,19,38)        -148.6215         calculate D2E/DX2 analytically  !
 ! D87   D(4,16,19,83)          46.5535         calculate D2E/DX2 analytically  !
 ! D88   D(4,16,19,91)         121.5723         calculate D2E/DX2 analytically  !
 ! D89   D(17,16,19,37)         94.0205         calculate D2E/DX2 analytically  !
 ! D90   D(17,16,19,38)        -27.2199         calculate D2E/DX2 analytically  !
 ! D91   D(17,16,19,83)        167.9551         calculate D2E/DX2 analytically  !
 ! D92   D(17,16,19,91)       -117.0261         calculate D2E/DX2 analytically  !
 ! D93   D(18,16,19,37)       -147.1943         calculate D2E/DX2 analytically  !
 ! D94   D(18,16,19,38)         91.5653         calculate D2E/DX2 analytically  !
 ! D95   D(18,16,19,83)        -73.2597         calculate D2E/DX2 analytically  !
 ! D96   D(18,16,19,91)          1.7591         calculate D2E/DX2 analytically  !
 ! D97   D(16,18,91,19)          1.2333         calculate D2E/DX2 analytically  !
 ! D98   D(16,18,91,89)        141.9284         calculate D2E/DX2 analytically  !
 ! D99   D(16,19,37,10)        -11.2707         calculate D2E/DX2 analytically  !
 ! D100  D(16,19,37,34)       -130.801          calculate D2E/DX2 analytically  !
 ! D101  D(16,19,37,52)         88.0992         calculate D2E/DX2 analytically  !
 ! D102  D(38,19,37,10)        142.374          calculate D2E/DX2 analytically  !
 ! D103  D(38,19,37,34)         22.8436         calculate D2E/DX2 analytically  !
 ! D104  D(38,19,37,52)       -118.2561         calculate D2E/DX2 analytically  !
 ! D105  D(83,19,37,10)       -112.0127         calculate D2E/DX2 analytically  !
 ! D106  D(83,19,37,34)        128.457          calculate D2E/DX2 analytically  !
 ! D107  D(83,19,37,52)        -12.6428         calculate D2E/DX2 analytically  !
 ! D108  D(91,19,37,10)       -147.1376         calculate D2E/DX2 analytically  !
 ! D109  D(91,19,37,34)         93.3321         calculate D2E/DX2 analytically  !
 ! D110  D(91,19,37,52)        -47.7677         calculate D2E/DX2 analytically  !
 ! D111  D(16,19,38,33)        148.7291         calculate D2E/DX2 analytically  !
 ! D112  D(37,19,38,33)         16.4368         calculate D2E/DX2 analytically  !
 ! D113  D(83,19,38,33)        -45.4601         calculate D2E/DX2 analytically  !
 ! D114  D(91,19,38,33)       -119.319          calculate D2E/DX2 analytically  !
 ! D115  D(16,19,83,84)         84.6234         calculate D2E/DX2 analytically  !
 ! D116  D(37,19,83,84)       -157.585          calculate D2E/DX2 analytically  !
 ! D117  D(38,19,83,84)        -87.7648         calculate D2E/DX2 analytically  !
 ! D118  D(91,19,83,84)         -3.7499         calculate D2E/DX2 analytically  !
 ! D119  D(16,19,91,18)         -0.9838         calculate D2E/DX2 analytically  !
 ! D120  D(16,19,91,89)        -97.4319         calculate D2E/DX2 analytically  !
 ! D121  D(37,19,91,18)        143.2967         calculate D2E/DX2 analytically  !
 ! D122  D(37,19,91,89)         46.8486         calculate D2E/DX2 analytically  !
 ! D123  D(38,19,91,18)       -150.793          calculate D2E/DX2 analytically  !
 ! D124  D(38,19,91,89)        112.7589         calculate D2E/DX2 analytically  !
 ! D125  D(83,19,91,18)        110.4618         calculate D2E/DX2 analytically  !
 ! D126  D(83,19,91,89)         14.0137         calculate D2E/DX2 analytically  !
 ! D127  D(36,32,33,34)        -48.3354         calculate D2E/DX2 analytically  !
 ! D128  D(36,32,33,38)         64.1383         calculate D2E/DX2 analytically  !
 ! D129  D(36,32,33,44)       -172.5585         calculate D2E/DX2 analytically  !
 ! D130  D(39,32,33,34)         71.3994         calculate D2E/DX2 analytically  !
 ! D131  D(39,32,33,38)       -176.1268         calculate D2E/DX2 analytically  !
 ! D132  D(39,32,33,44)        -52.8237         calculate D2E/DX2 analytically  !
 ! D133  D(45,32,33,34)       -167.1711         calculate D2E/DX2 analytically  !
 ! D134  D(45,32,33,38)        -54.6974         calculate D2E/DX2 analytically  !
 ! D135  D(45,32,33,44)         68.6058         calculate D2E/DX2 analytically  !
 ! D136  D(33,32,36,35)         58.5436         calculate D2E/DX2 analytically  !
 ! D137  D(33,32,36,41)        -61.1109         calculate D2E/DX2 analytically  !
 ! D138  D(33,32,36,46)        177.672          calculate D2E/DX2 analytically  !
 ! D139  D(39,32,36,35)        -60.6855         calculate D2E/DX2 analytically  !
 ! D140  D(39,32,36,41)        179.66           calculate D2E/DX2 analytically  !
 ! D141  D(39,32,36,46)         58.4429         calculate D2E/DX2 analytically  !
 ! D142  D(45,32,36,35)        177.0325         calculate D2E/DX2 analytically  !
 ! D143  D(45,32,36,41)         57.378          calculate D2E/DX2 analytically  !
 ! D144  D(45,32,36,46)        -63.8391         calculate D2E/DX2 analytically  !
 ! D145  D(33,32,45,67)       -140.5589         calculate D2E/DX2 analytically  !
 ! D146  D(36,32,45,67)        101.5412         calculate D2E/DX2 analytically  !
 ! D147  D(39,32,45,67)        -20.1863         calculate D2E/DX2 analytically  !
 ! D148  D(32,33,34,37)       -160.1544         calculate D2E/DX2 analytically  !
 ! D149  D(32,33,34,42)         34.7302         calculate D2E/DX2 analytically  !
 ! D150  D(32,33,34,53)        -69.6459         calculate D2E/DX2 analytically  !
 ! D151  D(38,33,34,37)         83.6027         calculate D2E/DX2 analytically  !
 ! D152  D(38,33,34,42)        -81.5128         calculate D2E/DX2 analytically  !
 ! D153  D(38,33,34,53)        174.1111         calculate D2E/DX2 analytically  !
 ! D154  D(44,33,34,37)        -31.2228         calculate D2E/DX2 analytically  !
 ! D155  D(44,33,34,42)        163.6618         calculate D2E/DX2 analytically  !
 ! D156  D(44,33,34,53)         59.2857         calculate D2E/DX2 analytically  !
 ! D157  D(32,33,38,19)       -157.4681         calculate D2E/DX2 analytically  !
 ! D158  D(34,33,38,19)        -39.3107         calculate D2E/DX2 analytically  !
 ! D159  D(44,33,38,19)         74.7932         calculate D2E/DX2 analytically  !
 ! D160  D(32,33,44,63)        -72.184          calculate D2E/DX2 analytically  !
 ! D161  D(34,33,44,63)        161.768          calculate D2E/DX2 analytically  !
 ! D162  D(38,33,44,63)         51.0766         calculate D2E/DX2 analytically  !
 ! D163  D(33,34,37,10)       -143.4613         calculate D2E/DX2 analytically  !
 ! D164  D(33,34,37,19)        -60.9692         calculate D2E/DX2 analytically  !
 ! D165  D(33,34,37,52)         75.7471         calculate D2E/DX2 analytically  !
 ! D166  D(42,34,37,10)         22.7302         calculate D2E/DX2 analytically  !
 ! D167  D(42,34,37,19)        105.2224         calculate D2E/DX2 analytically  !
 ! D168  D(42,34,37,52)       -118.0614         calculate D2E/DX2 analytically  !
 ! D169  D(53,34,37,10)        120.752          calculate D2E/DX2 analytically  !
 ! D170  D(53,34,37,19)       -156.7559         calculate D2E/DX2 analytically  !
 ! D171  D(53,34,37,52)        -20.0396         calculate D2E/DX2 analytically  !
 ! D172  D(33,34,42,35)        -27.8935         calculate D2E/DX2 analytically  !
 ! D173  D(37,34,42,35)        166.1244         calculate D2E/DX2 analytically  !
 ! D174  D(53,34,42,35)         75.3931         calculate D2E/DX2 analytically  !
 ! D175  D(33,34,53,51)       -114.4254         calculate D2E/DX2 analytically  !
 ! D176  D(37,34,53,51)          6.598          calculate D2E/DX2 analytically  !
 ! D177  D(42,34,53,51)        121.2659         calculate D2E/DX2 analytically  !
 ! D178  D(40,35,36,32)         65.1067         calculate D2E/DX2 analytically  !
 ! D179  D(40,35,36,41)       -175.6992         calculate D2E/DX2 analytically  !
 ! D180  D(40,35,36,46)        -55.7847         calculate D2E/DX2 analytically  !
 ! D181  D(42,35,36,32)        -50.5644         calculate D2E/DX2 analytically  !
 ! D182  D(42,35,36,41)         68.6297         calculate D2E/DX2 analytically  !
 ! D183  D(42,35,36,46)       -171.4558         calculate D2E/DX2 analytically  !
 ! D184  D(47,35,36,32)       -172.3209         calculate D2E/DX2 analytically  !
 ! D185  D(47,35,36,41)        -53.1268         calculate D2E/DX2 analytically  !
 ! D186  D(47,35,36,46)         66.7877         calculate D2E/DX2 analytically  !
 ! D187  D(36,35,42,34)         34.8233         calculate D2E/DX2 analytically  !
 ! D188  D(40,35,42,34)        -83.1747         calculate D2E/DX2 analytically  !
 ! D189  D(47,35,42,34)        161.0493         calculate D2E/DX2 analytically  !
 ! D190  D(36,35,47,48)        -67.7167         calculate D2E/DX2 analytically  !
 ! D191  D(36,35,47,49)        175.4522         calculate D2E/DX2 analytically  !
 ! D192  D(36,35,47,50)         53.7875         calculate D2E/DX2 analytically  !
 ! D193  D(40,35,47,48)         54.8972         calculate D2E/DX2 analytically  !
 ! D194  D(40,35,47,49)        -61.9338         calculate D2E/DX2 analytically  !
 ! D195  D(40,35,47,50)        176.4014         calculate D2E/DX2 analytically  !
 ! D196  D(42,35,47,48)        168.1501         calculate D2E/DX2 analytically  !
 ! D197  D(42,35,47,49)         51.3191         calculate D2E/DX2 analytically  !
 ! D198  D(42,35,47,50)        -70.3457         calculate D2E/DX2 analytically  !
 ! D199  D(32,36,46,71)        121.0678         calculate D2E/DX2 analytically  !
 ! D200  D(35,36,46,71)       -117.5794         calculate D2E/DX2 analytically  !
 ! D201  D(41,36,46,71)          1.2906         calculate D2E/DX2 analytically  !
 ! D202  D(10,37,52,51)       -114.5454         calculate D2E/DX2 analytically  !
 ! D203  D(19,37,52,51)        158.089          calculate D2E/DX2 analytically  !
 ! D204  D(34,37,52,51)         31.282          calculate D2E/DX2 analytically  !
 ! D205  D(33,44,63,64)        -39.9902         calculate D2E/DX2 analytically  !
 ! D206  D(33,44,63,65)         81.6429         calculate D2E/DX2 analytically  !
 ! D207  D(33,44,63,66)       -158.7389         calculate D2E/DX2 analytically  !
 ! D208  D(32,45,67,68)        -58.6093         calculate D2E/DX2 analytically  !
 ! D209  D(32,45,67,69)         63.2785         calculate D2E/DX2 analytically  !
 ! D210  D(32,45,67,70)       -178.0736         calculate D2E/DX2 analytically  !
 ! D211  D(36,46,71,72)        -63.8314         calculate D2E/DX2 analytically  !
 ! D212  D(36,46,71,73)         57.8356         calculate D2E/DX2 analytically  !
 ! D213  D(36,46,71,74)        177.0809         calculate D2E/DX2 analytically  !
 ! D214  D(35,47,50,75)        176.7566         calculate D2E/DX2 analytically  !
 ! D215  D(48,47,50,75)        -63.7765         calculate D2E/DX2 analytically  !
 ! D216  D(49,47,50,75)         56.5644         calculate D2E/DX2 analytically  !
 ! D217  D(47,50,75,76)        179.5151         calculate D2E/DX2 analytically  !
 ! D218  D(47,50,75,77)        -61.1904         calculate D2E/DX2 analytically  !
 ! D219  D(47,50,75,78)         60.1021         calculate D2E/DX2 analytically  !
 ! D220  D(43,51,52,37)       -148.4372         calculate D2E/DX2 analytically  !
 ! D221  D(53,51,52,37)        -17.2428         calculate D2E/DX2 analytically  !
 ! D222  D(54,51,52,37)         94.7169         calculate D2E/DX2 analytically  !
 ! D223  D(43,51,53,34)        144.9977         calculate D2E/DX2 analytically  !
 ! D224  D(52,51,53,34)         13.3689         calculate D2E/DX2 analytically  !
 ! D225  D(54,51,53,34)        -99.1459         calculate D2E/DX2 analytically  !
 ! D226  D(43,51,54,55)        -33.661          calculate D2E/DX2 analytically  !
 ! D227  D(43,51,54,56)        149.1705         calculate D2E/DX2 analytically  !
 ! D228  D(52,51,54,55)         88.4185         calculate D2E/DX2 analytically  !
 ! D229  D(52,51,54,56)        -88.7501         calculate D2E/DX2 analytically  !
 ! D230  D(53,51,54,55)       -154.3077         calculate D2E/DX2 analytically  !
 ! D231  D(53,51,54,56)         28.5238         calculate D2E/DX2 analytically  !
 ! D232  D(51,54,55,57)       -176.2699         calculate D2E/DX2 analytically  !
 ! D233  D(51,54,55,58)          4.2595         calculate D2E/DX2 analytically  !
 ! D234  D(56,54,55,57)          0.859          calculate D2E/DX2 analytically  !
 ! D235  D(56,54,55,58)       -178.6116         calculate D2E/DX2 analytically  !
 ! D236  D(51,54,56,59)        177.0792         calculate D2E/DX2 analytically  !
 ! D237  D(51,54,56,60)         -3.0299         calculate D2E/DX2 analytically  !
 ! D238  D(55,54,56,59)         -0.0513         calculate D2E/DX2 analytically  !
 ! D239  D(55,54,56,60)        179.8397         calculate D2E/DX2 analytically  !
 ! D240  D(54,55,57,61)         -1.0182         calculate D2E/DX2 analytically  !
 ! D241  D(54,55,57,93)        175.4424         calculate D2E/DX2 analytically  !
 ! D242  D(58,55,57,61)        178.4483         calculate D2E/DX2 analytically  !
 ! D243  D(58,55,57,93)         -5.0911         calculate D2E/DX2 analytically  !
 ! D244  D(54,56,59,61)         -0.6151         calculate D2E/DX2 analytically  !
 ! D245  D(54,56,59,97)        176.5173         calculate D2E/DX2 analytically  !
 ! D246  D(60,56,59,61)        179.4941         calculate D2E/DX2 analytically  !
 ! D247  D(60,56,59,97)         -3.3736         calculate D2E/DX2 analytically  !
 ! D248  D(55,57,61,59)          0.368          calculate D2E/DX2 analytically  !
 ! D249  D(55,57,61,62)       -179.5895         calculate D2E/DX2 analytically  !
 ! D250  D(93,57,61,59)       -176.0857         calculate D2E/DX2 analytically  !
 ! D251  D(93,57,61,62)          3.9568         calculate D2E/DX2 analytically  !
 ! D252  D(55,57,93,94)        -86.4068         calculate D2E/DX2 analytically  !
 ! D253  D(55,57,93,95)        154.1607         calculate D2E/DX2 analytically  !
 ! D254  D(55,57,93,96)         32.9721         calculate D2E/DX2 analytically  !
 ! D255  D(61,57,93,94)         90.0907         calculate D2E/DX2 analytically  !
 ! D256  D(61,57,93,95)        -29.3417         calculate D2E/DX2 analytically  !
 ! D257  D(61,57,93,96)       -150.5303         calculate D2E/DX2 analytically  !
 ! D258  D(56,59,61,57)          0.4579         calculate D2E/DX2 analytically  !
 ! D259  D(56,59,61,62)       -179.5847         calculate D2E/DX2 analytically  !
 ! D260  D(97,59,61,57)       -176.6876         calculate D2E/DX2 analytically  !
 ! D261  D(97,59,61,62)          3.2698         calculate D2E/DX2 analytically  !
 ! D262  D(56,59,97,98)         22.8732         calculate D2E/DX2 analytically  !
 ! D263  D(56,59,97,99)        -96.8558         calculate D2E/DX2 analytically  !
 ! D264  D(56,59,97,100)       143.9067         calculate D2E/DX2 analytically  !
 ! D265  D(61,59,97,98)       -159.9609         calculate D2E/DX2 analytically  !
 ! D266  D(61,59,97,99)         80.3102         calculate D2E/DX2 analytically  !
 ! D267  D(61,59,97,100)       -38.9274         calculate D2E/DX2 analytically  !
 ! D268  D(19,83,84,85)       -174.1708         calculate D2E/DX2 analytically  !
 ! D269  D(19,83,84,89)          2.4757         calculate D2E/DX2 analytically  !
 ! D270  D(83,84,85,86)       -122.8107         calculate D2E/DX2 analytically  !
 ! D271  D(83,84,85,87)         -3.3399         calculate D2E/DX2 analytically  !
 ! D272  D(83,84,85,88)        116.1908         calculate D2E/DX2 analytically  !
 ! D273  D(89,84,85,86)         60.604          calculate D2E/DX2 analytically  !
 ! D274  D(89,84,85,87)       -179.9253         calculate D2E/DX2 analytically  !
 ! D275  D(89,84,85,88)        -60.3945         calculate D2E/DX2 analytically  !
 ! D276  D(83,84,89,90)       -116.4899         calculate D2E/DX2 analytically  !
 ! D277  D(83,84,89,91)          3.3455         calculate D2E/DX2 analytically  !
 ! D278  D(83,84,89,92)        122.9479         calculate D2E/DX2 analytically  !
 ! D279  D(85,84,89,90)         60.9546         calculate D2E/DX2 analytically  !
 ! D280  D(85,84,89,91)       -179.2101         calculate D2E/DX2 analytically  !
 ! D281  D(85,84,89,92)        -59.6077         calculate D2E/DX2 analytically  !
 ! D282  D(84,89,91,18)        -86.3663         calculate D2E/DX2 analytically  !
 ! D283  D(84,89,91,19)        -13.6997         calculate D2E/DX2 analytically  !
 ! D284  D(90,89,91,18)         33.8397         calculate D2E/DX2 analytically  !
 ! D285  D(90,89,91,19)        106.5063         calculate D2E/DX2 analytically  !
 ! D286  D(92,89,91,18)        153.6465         calculate D2E/DX2 analytically  !
 ! D287  D(92,89,91,19)       -133.6869         calculate D2E/DX2 analytically  !
 --------------------------------------------------------------------------------
 Trust Radius=5.00D-02 FncErr=1.00D-07 GrdErr=1.00D-06 EigMax=2.50D+02 EigMin=1.00D-04
 Number of steps in this run=    600 maximum allowed number of steps=    600.
 Search for a saddle point of order  1.
 GradGradGradGradGradGradGradGradGradGradGradGradGradGradGradGradGradGrad

 Leave Link  103 at Wed Jun  5 13:30:22 2019, MaxMem=  6442450944 cpu:               4.2 elap:               0.2
 (Enter /home/ekwan/sw/g16/l202.exe)
 Stoichiometry    C30H47F6NaO15S
 Framework group  C1[X(C30H47F6NaO15S)]
 Deg. of freedom   294
 Full point group                 C1      NOp   1
 Largest Abelian subgroup         C1      NOp   1
 Largest concise Abelian subgroup C1      NOp   1
                         Standard orientation:                         
 ---------------------------------------------------------------------
 Center     Atomic      Atomic             Coordinates (Angstroms)
 Number     Number       Type             X           Y           Z
 ---------------------------------------------------------------------
      1          6           0       -1.841852    1.535183    2.257141
      2          6           0       -2.141890    2.316359    0.985471
      3          6           0       -1.270220    3.567365    0.934026
      4          6           0        0.483348    2.531747    2.200649
      5          6           0       -0.346979    1.262077    2.380896
      6          1           0       -1.388708    4.069885   -0.031108
      7          1           0       -1.865561    1.708478    0.118594
      8          1           0       -2.157247    2.143980    3.108403
      9          1           0        0.285681    3.183003    3.057298
     10          1           0       -0.070029    0.543271    1.605718
     11          8           0        0.090181    3.209420    1.000653
     12          8           0       -1.642235    4.416642    1.965832
     13          8           0       -3.491819    2.697891    0.908730
     14          8           0       -2.564133    0.320006    2.243249
     15          8           0       -0.069406    0.725909    3.657808
     16          6           0        1.992229    2.273403    2.106082
     17          1           0        2.247803    1.719037    3.028147
     18          1           0        2.468666    3.268477    2.227363
     19          8           0        2.398887    1.658356    0.956851
     20          6           0       -4.294532    1.874004    0.099157
     21          1           0       -3.951723    1.876112   -0.940780
     22          1           0       -4.307144    0.845069    0.461224
     23          1           0       -5.304732    2.278484    0.130392
     24          6           0       -3.231277    0.017104    3.444403
     25          1           0       -2.536935   -0.043856    4.285250
     26          1           0       -3.996691    0.765346    3.673725
     27          1           0       -3.710462   -0.948711    3.305642
     28          6           0        0.331230   -0.622960    3.668703
     29          1           0       -0.425484   -1.266435    3.213412
     30          1           0        1.280699   -0.770852    3.146316
     31          1           0        0.457032   -0.908693    4.712285
     32          6           0        3.863927   -1.477744   -1.318228
     33          6           0        3.206251   -0.164252   -0.905499
     34          6           0        1.889338   -0.398591   -0.239690
     35          6           0        2.378330   -2.665753    0.328901
     36          6           0        3.813023   -2.427287   -0.122466
     37          1           0        1.160381    0.377782   -0.169661
     38          1           0        3.802957    0.292906   -0.105251
     39          1           0        3.316168   -1.906231   -2.161044
     40          1           0        1.838938   -3.187881   -0.461794
     41          1           0        4.372903   -1.973723    0.697797
     42          8           0        1.667599   -1.415996    0.512983
     43          8           0       -0.404175   -0.089803   -3.882340
     44          8           0        3.011751    0.780276   -1.919618
     45          8           0        5.201914   -1.229069   -1.662024
     46          8           0        4.359305   -3.674212   -0.464031
     47          6           0        2.239490   -3.443058    1.611640
     48          1           0        2.580555   -4.467613    1.426537
     49          1           0        1.178258   -3.486052    1.884757
     50          8           0        2.994514   -2.827329    2.614108
     51         16           0       -0.248598   -0.154774   -2.430065
     52          8           0       -0.178196    1.165637   -1.755462
     53          8           0        0.856274   -1.063571   -1.980068
     54          6           0       -1.727368   -0.920760   -1.785028
     55          6           0       -2.943353   -0.696545   -2.412495
     56          6           0       -1.652916   -1.684055   -0.628685
     57          6           0       -4.099331   -1.232850   -1.858264
     58          1           0       -2.983247   -0.119056   -3.324432
     59          6           0       -2.813068   -2.226824   -0.096834
     60          1           0       -0.700977   -1.854563   -0.149682
     61          6           0       -4.041684   -2.001635   -0.703602
     62          1           0       -4.944054   -2.420084   -0.283311
     63          6           0        4.178644    1.428399   -2.394648
     64          1           0        4.857627    1.663684   -1.573012
     65          1           0        4.704678    0.814587   -3.123887
     66          1           0        3.851352    2.353495   -2.862637
     67          6           0        5.674902   -1.951120   -2.777327
     68          1           0        5.589170   -3.026920   -2.621570
     69          1           0        5.129425   -1.677079   -3.685788
     70          1           0        6.722630   -1.687180   -2.903699
     71          6           0        5.461900   -4.072528    0.322165
     72          1           0        6.306203   -3.392304    0.188745
     73          1           0        5.199558   -4.110876    1.382522
     74          1           0        5.747607   -5.066963   -0.012569
     75          6           0        2.863192   -3.449610    3.867201
     76          1           0        3.490791   -2.904606    4.567766
     77          1           0        1.826586   -3.420853    4.218392
     78          1           0        3.189994   -4.493829    3.830233
     79          6           0       -1.049257    5.693569    1.909942
     80          1           0       -1.479378    6.282517    2.716178
     81          1           0        0.033185    5.639749    2.041303
     82          1           0       -1.265336    6.183325    0.955091
     83         11           0        1.467391    2.614121   -0.888063
     84          8           0        2.983349    4.339821   -1.193411
     85          6           0        3.082224    5.450453   -2.049156
     86          1           0        4.016694    5.425278   -2.618226
     87          1           0        2.243020    5.413562   -2.740079
     88          1           0        3.041518    6.387147   -1.485115
     89          6           0        4.022298    4.272006   -0.239250
     90          1           0        4.011857    5.153830    0.408364
     91          1           0        3.846187    3.371856    0.348891
     92          1           0        4.996962    4.211906   -0.734041
     93          6           0       -5.428106   -0.911446   -2.469896
     94          9           0       -5.925747    0.235488   -1.971910
     95          9           0       -6.334259   -1.866204   -2.227986
     96          9           0       -5.341526   -0.754667   -3.795675
[...]
 201,-0.00013089,0.00006174,0.00007341,-0.00010755,0.00015609,0.0000052
 8,0.00016297,-0.00002429,-0.00005513,-0.00011045,0.00004414,-0.0000040
 2,0.00012680,-0.00017224,0.00003268,-0.00005153,0.00014625,-0.00005604
 ,0.00362017,0.00119822,-0.00117029,-0.00089328,-0.00101731,-0.00003396
 ,-0.00164181,0.00017566,-0.00015534,-0.00044406,0.00086684,0.00236822,
 0.00008430,-0.00087287,0.00050410,0.00373916,-0.00091893,0.00083856,-0
 .00010949,0.00070065,0.00222346,0.00008270,-0.00018335,-0.00016572,-0.
 00026492,-0.04647326,0.00002400,0.00028169,-0.00078581,-0.00090065,-0.
 00345114,-0.00033335,0.00000926,0.00038577,-0.00085412,-0.00084762,0.0
 0010826,0.00006407,-0.00005976,-0.00002027,-0.00000761,-0.00000466,-0.
 00002254,-0.00000068,0.00001687,0.00000050,-0.00001061,0.00000487,0.00
 002870,-0.00005664,-0.00006767,-0.00000386,0.00001586,0.00000317,0.000
 00047,0.00000045,0.00000752,-0.00000886,0.00000440,0.00000977,0.000048
 01,-0.00002823,0.00003972,-0.00000236,0.00000528,-0.00000743,-0.000000
 98,-0.00000990,-0.00001038,-0.00002076,0.00001352,0.00000271,0.0000438
 8,-0.00007947,0.00007507,0.00000470,0.00000744,-0.00000551,0.00000005,
 -0.00002013,0.00000561,-0.00003424,0.00003311,-0.00000166,0.00005290,0
 .00013324,-0.00001005,0.00000082,-0.00002313,-0.00001122,-0.00001918,-
 0.00000918,0.00000332,-0.00000651,-0.00001657,0.00001490,0.00016965,0.
 00018034,0.00000957,-0.00004560,-0.00004194,0.00000609,0.00001433,0.00
 003302,-0.00002402,-0.00000961,-0.00000257,0.00000582,0.00000142,0.000
 00406,-0.00000434,-0.00000018,-0.00000719,-0.00000136,0.00002422,0.000
 00187,0.00001253,-0.00000147,-0.00000756,-0.00000183,0.00002885,0.0000
 1949,-0.00000635,-0.00001158,-0.00000390,0.00000832,-0.00278512,0.0002
 8433,-0.00101706,0.00078089,-0.00050510,0.00007939,0.00090341,0.000292
 60,0.00019856,0.00067681,-0.00020196,0.00088711,0.00229861,-0.27779936
 ,-0.02975237,-0.03299674,-0.03036855,-0.03144440,-0.00001391,0.3864721
 4,0.00018847,0.00026799,-0.00004764,-0.00007313,-0.00000804,-0.0001361
 8,-0.00000037,0.00000151,-0.00000188,-0.00001944,0.00008175,-0.0000565
 2,-0.00001738,0.00005669,-0.00017661,-0.00000527,-0.00002602,0.0000103
 3,0.00000470,-0.00001245,0.00000585,-0.00002330,-0.00003822,0.00000266
 ,-0.00000740,-0.00000285,0.00000923,0.00000324,0.00000827,-0.00001436,
 0.00001531,-0.00004141,0.00008556,0.00000171,-0.00001165,0.00002952,0.
 00011235,0.00006417,0.00015637,-0.00007665,-0.00048610,0.00013858,-0.0
 0003663,-0.00038662,0.00010686,0.00007166,-0.00002739,-0.00011013,0.00
 001069,-0.00000250,0.00003155,-0.00002094,0.00001030,0.00002717,-0.000
 03686,0.00006995,0.00014829,-0.00005001,-0.00008125,-0.00013602,-0.000
 01628,-0.00004973,0.00006925,0.00000552,-0.00000518,-0.00008615,-0.000
 00516,0.00002015,0.00001413,0.00024461,0.00040137,-0.00010007,-0.00003
 983,-0.00005696,0.00001210,-0.00002509,-0.00015102,-0.00001286,-0.0002
 4662,0.00011047,0.00036216,0.00027343,0.00045646,0.00011251,-0.0000390
 5,0.00001973,0.00012932,-0.00007089,-0.00005051,-0.00003365,-0.0000475
 2,-0.00004291,-0.00004441,-0.00004169,0.00000860,-0.00002139,0.0000061
 2,0.00001427,0.00000810,-0.00024872,-0.00008969,-0.00045045,-0.0000766
 1,0.00005325,-0.00009768,0.00000736,-0.00000920,0.00000451,-0.00000021
 ,-0.00000270,-0.00001392,0.00001344,-0.00000346,-0.00001404,-0.0000062
 1,0.00000791,0.00001412,-0.00000865,0.00000352,0.00000639,0.00001193,0
 .00000292,-0.00000033,0.00007953,-0.00010562,0.00020030,0.00037154,0.0
 0020857,-0.00031615,0.00004863,0.00001139,0.00001593,0.00002206,-0.000
 00429,0.00001972,0.00002258,-0.00001894,0.00002711,0.00019190,0.000028
 75,-0.00008261,-0.00003688,0.00000885,0.00001651,0.00005555,-0.0000665
 6,0.00003844,-0.00009092,-0.00000446,0.00005605,-0.00140617,-0.0006113
 7,0.00024995,0.00033497,0.00044640,0.00010198,0.00069712,0.00000662,0.
 00019767,-0.00011719,-0.00075211,-0.00107415,0.00014077,0.00051956,-0.
 00044417,-0.00174845,0.00027496,0.00027707,0.00043649,-0.00069492,-0.0
 0049431,-0.00001930,0.00005571,0.00009743,0.00006845,0.02435212,0.0079
 8156,0.00012479,0.00048617,0.00011807,0.00116933,0.00037827,0.00028646
 ,-0.00016705,0.00026088,0.00003449,-0.00002520,-0.00002135,0.00001101,
 0.00000822,0.00000312,0.00000364,0.00000221,0.00000156,-0.00000233,-0.
 00000154,0.00000027,-0.00000202,-0.00000601,-0.00000038,-0.00000711,-0
 .00000167,0.00000016,-0.00000234,0.00000096,-0.00000379,0.00000477,0.0
 0000383,0.00000119,-0.00000013,-0.00001496,0.00000609,-0.00002461,0.00
 000201,0.00000061,0.00000216,0.00000521,-0.00000238,0.00000823,-0.0000
 0004,0.00000065,0.00000095,0.00007465,-0.00000558,-0.00003538,-0.00000
 942,-0.00000369,0.00000237,-0.00002141,0.00000429,0.00002175,-0.000009
 43,0.00000721,0.00000449,0.00000217,0.00001563,-0.00000440,-0.00000081
 ,0.00000123,0.00000016,-0.00000017,-0.00000005,-0.00000158,0.00000092,
 -0.00000431,0.00000495,-0.00004510,-0.00006372,-0.00006370,0.00001240,
 0.00000789,0.00001670,-0.00000313,-0.00000379,-0.00000337,-0.00000017,
 -0.00000037,-0.00000035,0.00000178,-0.00000284,0.00000177,0.00000031,0
 .00000244,0.00000204,-0.00001021,0.00000023,-0.00001304,0.00000155,0.0
 0000457,0.00000177,-0.00000262,-0.00000373,-0.00000095,0.00000162,-0.0
 0000006,0.00000098,0.00106042,-0.00034187,0.00031313,-0.00030272,0.000
 25067,-0.00000002,-0.00033342,-0.00003693,-0.00005637,-0.00025305,0.00
 010831,-0.00024592,-0.00038164,-0.02862203,-0.07978427,-0.02247689,-0.
 04138570,-0.01044953,-0.00057494,0.09098398,0.09794896,-0.00024458,-0.
 00028511,0.00001787,-0.00002359,0.00007853,0.00008304,-0.00013516,0.00
 006692,-0.00000080,0.00006174,0.00000836,-0.00002744,-0.00011204,0.000
 24471,-0.00005080,0.00001651,0.00001441,-0.00000211,-0.00000938,0.0000
 1058,-0.00001576,0.00001926,-0.00000358,-0.00001029,-0.00000203,-0.000
 02531,-0.00000871,0.00003647,0.00000403,-0.00003458,0.00008105,-0.0000
 8460,0.00001481,0.00004399,-0.00003990,-0.00004315,0.00011811,-0.00000
 877,-0.00007265,0.00072769,0.00027631,-0.00043627,0.00013926,-0.000530
 62,-0.00001967,-0.00007996,0.00006634,0.00014020,0.00001781,0.00000460
 ,-0.00002334,0.00000761,-0.00005792,-0.00003689,0.00000309,-0.00019118
 ,-0.00016687,-0.00004173,-0.00009681,0.00008945,0.00002864,0.00007359,
 -0.00007674,-0.00001378,0.00003667,0.00010286,0.00001845,-0.00002297,-
 0.00000152,-0.00071585,-0.00100411,0.00068940,0.00013847,0.00029357,0.
 00007943,0.00007856,0.00019628,-0.00001077,0.00012463,-0.00067329,-0.0
 0119934,0.00027526,0.00064102,0.00015998,-0.00009193,0.00013741,0.0002
 5186,-0.00001385,-0.00002639,-0.00002953,-0.00008457,-0.00007496,-0.00
 008879,0.00007168,0.00001765,-0.00005156,-0.00002060,0.00004536,-0.000
 03770,0.00033108,0.00052623,0.00007676,0.00007263,0.00000433,-0.000056
 35,0.00012000,-0.00007478,-0.00000670,-0.00000889,0.00001836,-0.000003
 12,-0.00000283,0.00000841,0.00002959,0.00000150,-0.00000632,-0.0000094
 9,0.00005470,0.00000038,-0.00005451,-0.00001716,0.00000223,0.00000105,
 -0.00023390,-0.00028236,0.00015508,-0.00030044,-0.00019966,0.00051062,
 -0.00009943,-0.00009747,0.00006441,-0.00013114,-0.00000891,0.00007905,
 -0.00013518,0.00006363,-0.00000169,0.00059073,0.00014714,0.00001790,-0
 .00009319,0.00000797,0.00001973,0.00016335,-0.00019223,0.00020198,-0.0
 0029860,-0.00004606,-0.00026857,0.00128036,0.00073746,-0.00048026,-0.0
 0030840,-0.00057246,-0.00009776,-0.00055027,-0.00013939,0.00004306,-0.
 00038510,-0.00065117,-0.00025934,0.00035507,0.00003323,0.00020711,0.00
 154487,-0.00074460,0.00225047,0.00085601,-0.00108117,0.00062194,0.0001
 3344,0.00011978,0.00002818,-0.00946806,0.00176473,0.01647805,0.0005315
 3,0.00066063,-0.00037332,-0.00291951,-0.00030960,-0.00268917,0.0019406
 4,0.00076392,0.00087272,0.00007933,0.00005604,-0.00003096,-0.00001382,
 -0.00000242,-0.00000532,-0.00001282,-0.00000065,0.00000623,-0.00000199
 ,-0.00001103,0.00000733,0.00002727,-0.00003103,-0.00005371,0.00000554,
 0.00000491,0.00000151,0.00000213,0.00000556,0.00000758,-0.00001362,0.0
 0000033,0.00000751,0.00009347,-0.00002824,0.00004709,-0.00001754,-0.00
 000766,-0.00000301,0.00000956,-0.00000291,-0.00000280,-0.00000640,0.00
 000999,-0.00000159,0.00005968,-0.00010345,0.00015045,-0.00002495,-0.00
 000476,-0.00002512,0.00000169,0.00002427,0.00001896,-0.00000377,0.0000
 3088,-0.00000771,-0.00000625,0.00000905,0.00000009,0.00000082,-0.00000
 504,-0.00000332,0.00000356,0.00000182,0.00000255,-0.00000152,0.0000003
 0,0.00000062,0.00003651,0.00013097,0.00001845,-0.00000831,-0.00003317,
 0.00000183,0.00000181,0.00002350,-0.00001221,-0.00000153,-0.00000198,0
 .00000240,0.00000013,0.00000261,0.00000114,-0.00000139,-0.00000685,-0.
 00000215,0.00000342,0.00000620,0.00000462,-0.00000055,-0.00000816,-0.0
 0000087,0.00001592,0.00001530,-0.00000260,-0.00000211,-0.00000120,0.00
 000227,-0.00121468,0.00004231,0.00004340,0.00037128,-0.00024511,-0.000
 06365,0.00039851,0.00014461,-0.00004457,0.00026338,-0.00006684,0.00015
 995,-0.18512879,0.00876728,0.10571629,-0.08272750,-0.00059824,0.012548
 71,-0.00831313,0.02996854,0.02338793,0.28268362,0.00031888,0.00041802,
 -0.00005065,-0.00008282,0.00001397,-0.00001351,0.00009004,0.00012329,0
 .00005806,-0.00002742,0.00008365,-0.00000117,0.00006736,-0.00007258,0.
 00008853,-0.00001560,-0.00003407,0.00000437,0.00001152,0.00001261,-0.0
 0000061,-0.00004184,-0.00004723,0.00000179,-0.00000002,-0.00001299,-0.
 00000651,0.00000987,0.00000962,0.00000111,-0.00005397,-0.00005210,-0.0
 0001925,-0.00003344,-0.00013513,-0.00002850,-0.00001674,-0.00012639,-0
 .00001754,-0.00015261,-0.00041425,-0.00015924,-0.00014944,0.00010413,-
 0.00006517,0.00003187,-0.00003183,0.00003070,0.00000107,0.00000699,-0.
 00001537,-0.00002683,-0.00002447,-0.00000607,-0.00006847,-0.00002490,-
 0.00002688,0.00001350,0.00013986,0.00000070,0.00000156,0.00001663,-0.0
 0000454,-0.00003981,-0.00006893,0.00001038,0.00002394,-0.00003547,-0.0
 0000102,0.00109639,0.00089199,-0.00056451,-0.00018480,-0.00038282,-0.0
 0011322,-0.00022174,-0.00050383,-0.00010601,-0.00111710,-0.00255907,-0
 .00073772,0.00005731,-0.00011541,0.00003175,0.00002759,-0.00003487,-0.
 00000873,-0.00001670,0.00000180,0.00000194,-0.00000776,0.00000643,-0.0
 0002255,0.00003847,-0.00002590,-0.00000483,0.00000150,-0.00000577,-0.0
 0002467,0.00019935,0.00003314,0.00027461,0.00008105,-0.00016433,0.0000
 1946,0.00001663,-0.00001278,0.00000278,0.00001489,-0.00000101,-0.00000
 454,-0.00000699,-0.00000273,0.00001170,0.00000443,-0.00000698,-0.00000
 626,-0.00000424,-0.00000849,0.00001382,0.00000087,0.00000129,0.0000014
 4,-0.00011374,0.00015379,-0.00010889,-0.00030054,-0.00008928,0.0003873
 9,-0.00006179,-0.00000851,0.00001530,-0.00003793,0.00002351,0.00001502
 ,-0.00002928,0.00005110,-0.00000399,-0.00003631,-0.00002636,-0.0000077
 0,-0.00001655,0.00001182,-0.00000717,0.00002245,-0.00002391,0.00000472
 ,0.00002824,0.00005588,-0.00001012,0.00145939,0.00024188,-0.00045206,-
 0.00041596,-0.00038717,-0.00003037,-0.00059713,0.00008097,-0.00008799,
 0.00002312,-0.00146637,0.00037293,-0.00060858,-0.00029710,0.00040382,0
 .00152567,0.00047925,0.00148615,-0.00015260,-0.00001171,-0.00036639,-0
 .00001519,0.00004966,0.00001557,-0.01422781,0.00833645,0.01613824,-0.0
 0002533,0.00043678,0.00007911,-0.00010164,-0.00039899,0.00092545,-0.00
 015618,-0.00029536,0.00048044,0.00003574,0.00002149,-0.00002070,-0.000
 00704,-0.00000310,-0.00000174,-0.00000730,-0.00000027,0.00000597,0.000
 00080,-0.00000306,0.00000110,0.00000873,-0.00001664,-0.00001784,-0.000
 00139,0.00000500,0.00000149,-0.00000015,0.00000039,0.00000112,-0.00000
 268,0.00000117,0.00000276,0.00001155,-0.00000842,0.00001462,0.00000030
 ,0.00000214,-0.00000279,-0.00000235,-0.00000250,-0.00000493,-0.0000062
 0,0.00000362,0.00000080,-0.00001097,-0.00001727,0.00002397,0.00000694,
 0.00000325,-0.00000024,0.00000556,-0.00001064,-0.00000555,-0.00000803,
 0.00000693,-0.00000084,0.00002973,0.00007005,-0.00000371,0.00000003,-0
 .00001161,-0.00000558,-0.00001099,-0.00000587,0.00000138,-0.00000381,-
 0.00000981,0.00000786,0.00007457,0.00006304,-0.00000179,-0.00001947,-0
 .00001424,0.00000141,0.00000592,0.00001164,-0.00000867,-0.00000383,-0.
 00000079,0.00000232,0.00000049,0.00000167,-0.00000204,0.00000018,-0.00
 000237,-0.00000049,0.00001073,0.00000019,0.00000597,-0.00000053,-0.000
 00243,-0.00000087,0.00001051,0.00000627,-0.00000227,-0.00000483,-0.000
 00150,0.00000334,-0.00089340,0.00011451,-0.00046709,0.00025491,-0.0001
 4255,0.00005144,0.00030354,0.00008354,0.00008273,0.00018513,-0.0000501
 6,0.00026268,0.00968034,-0.07503022,-0.00560297,-0.00173278,0.01193748
 ,0.00166875,0.04371677,-0.02915773,-0.04575094,-0.03762879,0.08828335,
 0.00041334,0.00059947,-0.00001878,-0.00013013,-0.00006723,-0.00024255,
 0.00010649,-0.00005017,0.00000794,-0.00008191,0.00010385,-0.00005745,0
 .00007405,-0.00013754,-0.00015221,-0.00002140,-0.00004781,0.00001497,0
 .00001952,-0.00002516,0.00002156,-0.00003877,-0.00002058,0.00002172,-0
 .00000745,0.00001434,0.00001881,-0.00002359,0.00001157,0.00001002,-0.0
 0003503,0.00001581,0.00009859,-0.00002771,0.00001263,0.00006891,0.0001
 0058,0.00010682,0.00025919,-0.00064536,-0.00073861,0.00060464,-0.00017
 308,0.00000268,0.00015124,0.00014831,-0.00008763,-0.00023887,-0.000000
 92,-0.00000664,0.00005664,-0.00003310,0.00005627,0.00006090,-0.0000411
 5,0.00022620,0.00031132,-0.00005778,-0.00008367,-0.00021748,-0.0000339
 1,-0.00010227,0.00012339,0.00000258,-0.00002774,-0.00015923,-0.0000139
 4,0.00003768,0.00001859,0.00185260,0.00144359,-0.00097032,-0.00022398,
 -0.00037619,-0.00004338,-0.00028247,-0.00065303,-0.00005446,-0.0013340
 4,-0.00115021,0.00031327,0.00005390,-0.00004324,0.00000353,0.00005287,
 -0.00006032,-0.00008129,-0.00005906,-0.00002916,-0.00000884,0.00002823
 ,0.00001980,0.00002800,-0.00010501,0.00001059,0.00001232,0.00002171,-0
 .00000400,0.00004324,-0.00058640,-0.00046526,-0.00071556,-0.00016330,0
 .00013861,-0.00007851,-0.00007151,0.00003931,0.00000500,0.00000087,-0.
 00001544,-0.00002149,0.00002223,-0.00001024,-0.00004081,-0.00001050,0.
 00001728,0.00002463,-0.00004016,0.00000950,0.00003292,0.00002211,0.000
 00096,-0.00000147,0.00029043,-0.00000980,0.00018427,0.00080808,0.00038
 298,-0.00103341,0.00014635,0.00007664,-0.00002548,0.00011994,-0.000009
 91,-0.00003423,0.00011623,-0.00007864,0.00002992,-0.00008849,-0.000035
 65,-0.00012192,0.00001428,0.00000105,0.00001300,0.00000554,0.00001930,
 -0.00001951,0.00006145,0.00000681,0.00021275,-0.00345118,-0.00117457,0
 .00074814,0.00088137,0.00121853,0.00028176,0.00149299,0.00001893,0.000
 26425,0.00181322,0.00196004,-0.00044775,0.00027664,0.00040653,-0.00063
 817,-0.00436273,0.00178616,-0.00596223,0.00019275,0.00045988,-0.000065
 06,-0.00003550,-0.00007180,-0.00002741,0.03904878,0.00109746,-0.026232
 03,-0.00010688,-0.00051552,0.00002442,0.00173765,0.00012951,0.00007903
 ,0.00003448,0.00000512,-0.00146612,-0.00009250,-0.00006853,0.00004195,
 0.00002155,0.00000655,0.00000763,0.00001425,0.00000243,-0.00000913,-0.
 00000085,0.00000846,-0.00000754,-0.00002664,0.00002587,0.00003391,-0.0
 0000409,-0.00000510,-0.00000389,-0.00000033,-0.00000705,-0.00000041,0.
 00001331,0.00000025,-0.00000604,-0.00007490,0.00002523,-0.00005873,0.0
 0001250,0.00000473,0.00000465,0.00000095,-0.00000052,0.00001169,0.0000
 0604,-0.00000668,0.00000234,0.00004623,0.00005499,-0.00012507,0.000004
 85,-0.00000089,0.00001659,-0.00002336,-0.00000900,0.00001184,-0.000008
 06,-0.00001076,0.00000966,0.00000624,0.00001261,-0.00000499,-0.0000019
 9,0.00000483,0.00000213,-0.00000216,-0.00000165,-0.00000377,0.00000183
 ,-0.00000591,0.00000590,-0.00010004,-0.00018756,-0.00010194,0.00002436
 ,0.00003465,0.00001880,-0.00000609,-0.00002249,0.00000616,0.00000172,0
 .00000113,-0.00000244,0.00000189,-0.00000556,0.00000184,0.00000142,0.0
 0000801,0.00000379,-0.00001706,-0.00000348,-0.00002012,0.00000256,0.00
 001148,0.00000285,-0.00001575,-0.00001603,0.00000081,0.00000433,0.0000
 0100,-0.00000081,0.00224388,-0.00057353,0.00069865,-0.00070311,0.00055
 195,0.00001371,-0.00073939,-0.00012580,-0.00011835,-0.00047647,0.00018
 305,-0.00054864,0.09780493,-0.00314088,-0.17449596,-0.00300551,0.00123
 936,0.02223025,0.02583074,-0.03429084,-0.01489007,-0.15841836,0.031967
 80,0.20229992\\-0.00000028,0.00000056,-0.00000076,0.00000003,0.0000003
 2,-0.00000093,0.00000018,0.00000032,-0.00000093,-0.00000021,0.00000028
 ,-0.00000038,-0.00000037,0.00000041,-0.00000039,0.00000044,0.00000013,
 -0.00000105,0.00000017,0.00000021,-0.00000079,-0.00000045,0.00000069,-
 0.00000093,-0.00000035,0.00000044,-0.00000051,-0.00000027,0.00000025,-
 0.00000021,0.00000014,0.00000017,-0.00000056,0.,0.00000048,-0.00000117
 ,0.00000011,0.00000048,-0.00000129,-0.00000043,0.00000059,-0.00000072,
 -0.00000070,0.00000057,-0.00000023,-0.00000023,0.00000018,0.00000003,-
 0.00000047,0.00000025,0.00000013,-0.00000014,0.00000012,-0.00000004,-0
 .00000001,-0.00000010,0.00000022,0.00000020,0.00000043,-0.00000138,0.0
 0000045,0.00000024,-0.00000128,0.00000003,0.00000049,-0.00000122,0.000
 00023,0.00000053,-0.00000166,-0.00000075,0.00000084,-0.00000081,-0.000
 00094,0.00000090,-0.00000069,-0.00000070,0.00000094,-0.00000115,-0.000
 00079,0.00000086,-0.00000081,-0.00000085,0.00000053,0.00000006,-0.0000
 0081,0.00000057,-0.00000001,-0.00000075,0.00000035,0.00000031,-0.00000
 110,0.00000069,0.00000014,0.00000021,-0.00000053,0.00000099,0.00000022
 ,-0.00000046,0.00000068,0.00000006,-0.00000035,0.00000041,-0.00000031,
 -0.00000010,0.00000082,-0.00000012,-0.00000035,0.00000110,0.00000015,-
 0.00000009,0.00000014,0.00000012,-0.00000037,0.00000071,0.00000038,-0.
 00000064,0.00000096,-0.00000013,-0.00000023,0.00000079,-0.00000031,-0.
 00000030,0.00000120,-0.00000019,0.00000005,0.00000044,0.00000093,-0.00
 000054,-0.00000004,0.00000060,-0.00000057,0.00000045,0.00000028,-0.000
 00076,0.00000126,-0.00000017,-0.00000049,0.00000146,-0.00000064,0.0000
 0001,0.00000096,-0.00000069,0.,0.00000115,-0.00000071,0.00000018,0.000
 00070,-0.00000080,0.00000013,0.00000100,0.00000060,-0.00000044,-0.0000
 0037,0.00000056,-0.00000025,-0.00000028,0.00000037,-0.00000032,0.00000
 030,0.00000037,-0.00000007,-0.00000033,0.00000055,-0.00000010,-0.00000
 067,0.00000004,0.00000007,-0.00000025,0.00000040,0.00000010,-0.0000008
 4,0.00000079,-0.00000023,-0.00000076,-0.00000017,0.00000029,-0.0000004
 4,-0.00000013,0.00000005,0.00000002,0.00000001,0.00000030,-0.00000073,
 -0.00000011,0.00000042,-0.00000086,0.00000073,-0.00000076,0.00000062,0
 .00000057,-0.00000067,0.00000076,0.00000083,-0.00000090,0.00000085,0.0
 0000092,-0.00000081,0.00000045,0.00000049,-0.00000093,0.00000151,0.000
 00037,-0.00000093,0.00000163,0.00000074,-0.00000104,0.00000132,0.00000
 055,-0.00000107,0.00000168,-0.00000043,-0.00000045,0.00000174,-0.00000
 031,-0.00000057,0.00000186,-0.00000068,-0.00000027,0.00000173,-0.00000
 043,-0.00000054,0.00000198,-0.00000117,0.00000032,0.00000106,-0.000001
 27,0.00000038,0.00000114,-0.00000123,0.00000048,0.00000084,-0.00000125
 ,0.00000029,0.00000131,0.00000013,0.00000038,-0.00000121,0.00000003,0.
 00000057,-0.00000140,0.00000012,0.00000032,-0.00000095,0.00000042,0.00
 000028,-0.00000133,0.00000041,-0.00000020,-0.00000029,0.00000079,-0.00
 000046,-0.00000001,0.00000102,-0.00000059,-0.00000024,0.00000116,-0.00
 000077,-0.00000001,0.00000119,-0.00000062,-0.00000041,0.00000099,-0.00
 000051,-0.00000038,0.00000053,-0.00000039,0.00000016,0.00000044,-0.000
 00031,0.00000003,0.00000027,-0.00000030,0.00000026,0.00000061,-0.00000
 058,0.00000039,0.00000054,0.00000019,-0.00000121,0.00000050,0.00000029
 ,-0.00000148,0.00000036,0.00000025,-0.00000125,0.00000085,-0.00000005,
 -0.00000122,-0.00000045,0.00000046,-0.00000025,-0.00000062,0.00000043,
 -0.00000004,-0.00000055,0.00000035,-0.00000006,-0.00000070,0.00000066,
 -0.00000050\\\@


 WHEN HAVING A MEETING OF THE MINDS,
 MAKE SURE YOU HAVE THE EQUIPMENT FOR IT.
 Job cpu time:       4 days  1 hours 34 minutes 57.9 seconds.
 Elapsed time:       0 days  3 hours 25 minutes 42.2 seconds.
 File lengths (MBytes):  RWF=   9743 Int=      0 D2E=      0 Chk=    108 Scr=      1
 Normal termination of Gaussian 16 at Wed Jun  5 20:25:21 2019.
