 Entering Gaussian System, Link 0=g16
 Input=clay_new-glu_gluC6-BCDR-Na2_1Me2O-bisCF3-ts-b98-631gd-pcm_thf.gjf
 Output=clay_new-glu_gluC6-BCDR-Na2_1Me2O-bisCF3-ts-b98-631gd-pcm_thf.out
 Initial command:
 /home/ekwan/sw/g16/l1.exe "/scratch/users/ekwan/clay_new-glu_gluC6-BCDR-Na2_1Me2O-bisCF3-ts-b98-631gd-pcm_thf/Gau-65207.inp" -scrdir="/scratch/users/ekwan/clay_new-glu_gluC6-BCDR-Na2_1Me2O-bisCF3-ts-b98-631gd-pcm_thf/"
 Entering Link 1 = /home/ekwan/sw/g16/l1.exe PID=     65208.
  
 Copyright (c) 1988,1990,1992,1993,1995,1998,2003,2009,2016,
            Gaussian, Inc.  All Rights Reserved.
  
 This is part of the Gaussian(R) 16 program.  It is based on
 the Gaussian(R) 09 system (copyright 2009, Gaussian, Inc.),
 the Gaussian(R) 03 system (copyright 2003, Gaussian, Inc.),
 the Gaussian(R) 98 system (copyright 1998, Gaussian, Inc.),
 the Gaussian(R) 94 system (copyright 1995, Gaussian, Inc.),
 the Gaussian 92(TM) system (copyright 1992, Gaussian, Inc.),
 the Gaussian 90(TM) system (copyright 1990, Gaussian, Inc.),
 the Gaussian 88(TM) system (copyright 1988, Gaussian, Inc.),
 the Gaussian 86(TM) system (copyright 1986, Carnegie Mellon
 University), and the Gaussian 82(TM) system (copyright 1983,
 Carnegie Mellon University). Gaussian is a federally registered
 trademark of Gaussian, Inc.
  
 This software contains proprietary and confidential information,
 including trade secrets, belonging to Gaussian, Inc.
  
 This software is provided under written license and may be
 used, copied, transmitted, or stored only in accord with that
 written license.
  
 The following legend is applicable only to US Government
 contracts under FAR:
  
                    RESTRICTED RIGHTS LEGEND
  
 Use, reproduction and disclosure by the US Government is
 subject to restrictions as set forth in subparagraphs (a)
 and (c) of the Commercial Computer Software - Restricted
 Rights clause in FAR 52.227-19.
  
 Gaussian, Inc.
 340 Quinnipiac St., Bldg. 40, Wallingford CT 06492
  
  
 ---------------------------------------------------------------
 Warning -- This program may not be used in any manner that
 competes with the business of Gaussian, Inc. or will provide
 assistance to any competitor of Gaussian, Inc.  The licensee
 of this program is prohibited from giving any competitor of
 Gaussian, Inc. access to this program.  By using this program,
 the user acknowledges that Gaussian, Inc. is engaged in the
 business of creating and licensing software in the field of
 computational chemistry and represents and warrants to the
 licensee that it is not a competitor of Gaussian, Inc. and that
 it will not use this program in any manner prohibited above.
 ---------------------------------------------------------------
  

 Cite this work as:
 Gaussian 16, Revision A.03,
 M. J. Frisch, G. W. Trucks, H. B. Schlegel, G. E. Scuseria, 
 M. A. Robb, J. R. Cheeseman, G. Scalmani, V. Barone, 
 G. A. Petersson, H. Nakatsuji, X. Li, M. Caricato, A. V. Marenich, 
 J. Bloino, B. G. Janesko, R. Gomperts, B. Mennucci, H. P. Hratchian, 
 J. V. Ortiz, A. F. Izmaylov, J. L. Sonnenberg, D. Williams-Young, 
 F. Ding, F. Lipparini, F. Egidi, J. Goings, B. Peng, A. Petrone, 
 T. Henderson, D. Ranasinghe, V. G. Zakrzewski, J. Gao, N. Rega, 
 G. Zheng, W. Liang, M. Hada, M. Ehara, K. Toyota, R. Fukuda, 
 J. Hasegawa, M. Ishida, T. Nakajima, Y. Honda, O. Kitao, H. Nakai, 
 T. Vreven, K. Throssell, J. A. Montgomery, Jr., J. E. Peralta, 
 F. Ogliaro, M. J. Bearpark, J. J. Heyd, E. N. Brothers, K. N. Kudin, 
 V. N. Staroverov, T. A. Keith, R. Kobayashi, J. Normand, 
 K. Raghavachari, A. P. Rendell, J. C. Burant, S. S. Iyengar, 
 J. Tomasi, M. Cossi, J. M. Millam, M. Klene, C. Adamo, R. Cammi, 
 J. W. Ochterski, R. L. Martin, K. Morokuma, O. Farkas, 
 J. B. Foresman, and D. J. Fox, Gaussian, Inc., Wallingford CT, 2016.
 
 ******************************************
 Gaussian 16:  AS64L-G16RevA.03 25-Dec-2016
                 5-Jun-2019 
 ******************************************
 %nprocshared=32
 Will use up to   32 processors via shared memory.
 %mem=48GB
 ----------------------------------------------------------------------
 #p opt=(ts,calcfc,noeigentest,maxstep=5) freq=noraman pop=none 6-31g* 
 scrf=(pcm,solvent=tetrahydrofuran) b98
 ----------------------------------------------------------------------
 1/5=1,8=5,10=4,11=1,18=20,26=3,38=1/1,3;
 2/9=110,12=2,17=6,18=5,40=1/2;
 3/5=1,6=6,7=1,11=2,25=1,30=1,70=2201,71=2,72=20,74=-18,140=1/1,2,3;
 4//1;
 5/5=2,38=5,53=20/2;
 8/6=4,10=90,11=11/1;
 11/6=1,8=1,9=11,15=111,16=1/1,2,10;
 10/6=1,13=1/2;
 7/10=1,18=20,25=1/1,2,3,16;
 1/5=1,8=5,10=4,11=1,18=20,26=3/3(2);
 2/9=110/2;
 99//99;
 2/9=110/2;
 3/5=1,6=6,7=1,11=2,25=1,30=1,70=2205,71=1,72=20,74=-18/1,2,3;
 4/5=5,16=3,69=1/1;
 5/5=2,38=5,53=20/2;
 7//1,2,3,16;
 1/5=1,8=5,11=1,18=20,26=3/3(-5);
 2/9=110/2;
 99/9=1/99;
 Leave Link    1 at Wed Jun  5 11:01:38 2019, MaxMem=  6442450944 cpu:               4.7 elap:               0.2
 (Enter /home/ekwan/sw/g16/l101.exe)
 -----
 title
 -----
 Symbolic Z-matrix:
 Charge =  0 Multiplicity = 1
 6                    -2.0235    1.58292   2.25288 
 6                    -2.35919   2.36355   0.97297 
 6                    -1.53531   3.66303   0.92401 
 6                     0.28176   2.68819   2.18841 
 6                    -0.50417   1.37584   2.3785 
 1                    -1.67383   4.16644  -0.04542 
 1                    -2.05641   1.76629   0.09994 
 1                    -2.37328   2.16768   3.11492 
 1                     0.07137   3.33649   3.05229 
 1                    -0.19286   0.65756   1.60726 
 8                    -0.14961   3.36077   0.98167 
 8                    -1.94832   4.49712   1.96673 
 8                    -3.73671   2.68873   0.89462 
 8                    -2.68419   0.31972   2.22018 
 8                    -0.2111    0.86394   3.67672 
 6                     1.81399   2.4877    2.06603 
 1                     2.11174   1.95991   3.00007 
 1                     2.24891   3.51229   2.16367 
 8                     2.22768   1.86262   0.91659 
 6                    -4.49005   1.83368   0.0483 
 1                    -4.12384   1.8689   -0.98991 
 1                    -4.46661   0.79394   0.39641 
 1                    -5.52134   2.2006    0.06898 
 6                    -3.41629   0.00971   3.39469 
 1                    -2.77309   0.01527   4.28531 
 1                    -4.24657   0.71586   3.54948 
 1                    -3.82297  -0.99558   3.25088 
 6                     0.30901  -0.45558   3.69192 
 1                    -0.38504  -1.16653   3.22249 
 1                     1.28267  -0.51946   3.18483 
 1                     0.44026  -0.72759   4.74495 
 6                     4.09668  -1.33799  -1.25231 
 6                     3.33747  -0.05426  -0.86498 
 6                     2.02323  -0.37352  -0.20116 
 6                     2.68629  -2.60698   0.43042 
 6                     4.11475  -2.26949  -0.02491 
 1                     1.24693   0.36741  -0.13483 
 1                     3.89356   0.46322  -0.06227 
 1                     3.57616  -1.82485  -2.08841 
 1                     2.19395  -3.20879  -0.34194 
 1                     4.64522  -1.76183   0.79107 
 8                     1.85096  -1.40228   0.55043 
 8                    -0.3639   -0.26034  -3.92346 
 8                     3.0883    0.85296  -1.91259 
 8                     5.42313  -0.9983   -1.6083 
 8                     4.74026  -3.4989   -0.34219 
 6                     2.58911  -3.33235   1.76199 
 1                     3.03245  -4.33326   1.63584 
 1                     1.52509  -3.46211   2.02136 
 8                     3.26748  -2.5867    2.74599 
 16                   -0.19456  -0.30524  -2.46361 
 8                    -0.22744   1.02987  -1.79751 
 8                     0.976    -1.13326  -2.01238 
 6                    -1.64068  -1.1694   -1.79911 
 6                    -2.88144  -1.00273  -2.41542 
 6                    -1.51448  -1.93286  -0.63667 
 6                    -4.01169  -1.59936  -1.84538 
 1                    -2.96048  -0.42311  -3.33011 
 6                    -2.64995  -2.52812  -0.08264 
 1                    -0.54352  -2.05797  -0.17032 
 6                    -3.9035   -2.36282  -0.67986 
 1                    -4.78432  -2.8234   -0.24413 
 6                     4.20167   1.66797  -2.28833 
 1                     4.74752   2.02045  -1.40309 
 1                     4.89048   1.12538  -2.94298 
 1                     3.78417   2.5279   -2.81886 
 6                     5.91658  -1.68077  -2.75613 
 1                     5.90305  -2.76813  -2.61398 
 1                     5.33098  -1.42583  -3.65197 
 1                     6.94794  -1.34443  -2.89627 
 6                     5.9382   -3.7514    0.38609 
 1                     6.7029   -2.99509   0.16541 
 1                     5.74974  -3.77045   1.46889 
 1                     6.29524  -4.73353   0.06404 
 6                     3.18968  -3.18433   4.02897 
 1                     3.74392  -2.53891   4.71536 
 1                     2.14587  -3.26462   4.36996 
 1                     3.6402   -4.18905   4.0309 
 6                    -1.40737   5.81027   1.89837 
 1                    -1.86264   6.38057   2.71234 
 1                    -0.31667   5.80553   2.02228 
 1                    -1.65656   6.28752   0.9381 
 11                    1.21694   2.67235  -0.94529 
 8                     2.44162   4.60742  -1.45159 
 6                     2.28656   5.6706   -2.37666 
 1                     3.21536   5.83932  -2.94222 
 1                     1.48897   5.38685  -3.06895 
 1                     2.00875   6.60386  -1.86393 
 6                     3.46084   4.85574  -0.49017 
 1                     3.23144   5.75569   0.09998 
 1                     3.49211   3.97944   0.16449 
 1                     4.436     4.99107  -0.9824 
 6                    -5.37096  -1.3533   -2.45883 
 9                    -5.92084  -0.20975  -1.9902 
 9                    -6.23605  -2.34605  -2.18102 
 9                    -5.30121  -1.23312  -3.79704 
 6                    -2.523    -3.40792   1.13925 
 9                    -1.40043  -3.14585   1.84055 
 9                    -2.48025  -4.71418   0.80592 
 9                    -3.56957  -3.25506   1.97576 
 
 Add virtual bond connecting atoms H37        and O19        Dist= 3.92D+00.
 Add virtual bond connecting atoms O52        and H37        Dist= 4.38D+00.
 Add virtual bond connecting atoms O52        and Na83       Dist= 4.44D+00.
 Add virtual bond connecting atoms O53        and C34        Dist= 4.21D+00.
 Add virtual bond connecting atoms O84        and Na83       Dist= 4.43D+00.
 Add virtual bond connecting atoms H91        and H18        Dist= 4.54D+00.
 ITRead=  0  0  0  0  0  0  0  0  0  0  0  0  0  0  0  0  0  0  0  0
 ITRead=  0  0  0  0  0  0  0  0  0  0  0  0  0  0  0  0  0  0  0  0
 ITRead=  0  0  0  0  0  0  0  0  0  0  0  0  0  0  0  0  0  0  0  0
 ITRead=  0  0  0  0  0  0  0  0  0  0  0  0  0  0  0  0  0  0  0  0
 ITRead=  0  0  0  0  0  0  0  0  0  0  0  0  0  0  0  0  0  0  0  0
 MicOpt= -1 -1 -1 -1 -1 -1 -1 -1 -1 -1 -1 -1 -1 -1 -1 -1 -1 -1 -1 -1
 MicOpt= -1 -1 -1 -1 -1 -1 -1 -1 -1 -1 -1 -1 -1 -1 -1 -1 -1 -1 -1 -1
 MicOpt= -1 -1 -1 -1 -1 -1 -1 -1 -1 -1 -1 -1 -1 -1 -1 -1 -1 -1 -1 -1
 MicOpt= -1 -1 -1 -1 -1 -1 -1 -1 -1 -1 -1 -1 -1 -1 -1 -1 -1 -1 -1 -1
 MicOpt= -1 -1 -1 -1 -1 -1 -1 -1 -1 -1 -1 -1 -1 -1 -1 -1 -1 -1 -1 -1
 NAtoms=    100 NQM=      100 NQMF=       0 NMMI=      0 NMMIF=      0
                NMic=       0 NMicF=      0.
                    Isotopes and Nuclear Properties:
 (Nuclear quadrupole moments (NQMom) in fm**2, nuclear magnetic moments (NMagM)
  in nuclear magnetons)

  Atom         1           2           3           4           5           6           7           8           9          10
 IAtWgt=          12          12          12          12          12           1           1           1           1           1
 AtmWgt=  12.0000000  12.0000000  12.0000000  12.0000000  12.0000000   1.0078250   1.0078250   1.0078250   1.0078250   1.0078250
 NucSpn=           0           0           0           0           0           1           1           1           1           1
 AtZEff=   0.0000000   0.0000000   0.0000000   0.0000000   0.0000000   0.0000000   0.0000000   0.0000000   0.0000000   0.0000000
 NQMom=    0.0000000   0.0000000   0.0000000   0.0000000   0.0000000   0.0000000   0.0000000   0.0000000   0.0000000   0.0000000
 NMagM=    0.0000000   0.0000000   0.0000000   0.0000000   0.0000000   2.7928460   2.7928460   2.7928460   2.7928460   2.7928460
 AtZNuc=   6.0000000   6.0000000   6.0000000   6.0000000   6.0000000   1.0000000   1.0000000   1.0000000   1.0000000   1.0000000

  Atom        11          12          13          14          15          16          17          18          19          20
 IAtWgt=          16          16          16          16          16          12           1           1          16          12
 AtmWgt=  15.9949146  15.9949146  15.9949146  15.9949146  15.9949146  12.0000000   1.0078250   1.0078250  15.9949146  12.0000000
 NucSpn=           0           0           0           0           0           0           1           1           0           0
 AtZEff=   0.0000000   0.0000000   0.0000000   0.0000000   0.0000000   0.0000000   0.0000000   0.0000000   0.0000000   0.0000000
 NQMom=    0.0000000   0.0000000   0.0000000   0.0000000   0.0000000   0.0000000   0.0000000   0.0000000   0.0000000   0.0000000
 NMagM=    0.0000000   0.0000000   0.0000000   0.0000000   0.0000000   0.0000000   2.7928460   2.7928460   0.0000000   0.0000000
 AtZNuc=   8.0000000   8.0000000   8.0000000   8.0000000   8.0000000   6.0000000   1.0000000   1.0000000   8.0000000   6.0000000

  Atom        21          22          23          24          25          26          27          28          29          30
 IAtWgt=           1           1           1          12           1           1           1          12           1           1
 AtmWgt=   1.0078250   1.0078250   1.0078250  12.0000000   1.0078250   1.0078250   1.0078250  12.0000000   1.0078250   1.0078250
 NucSpn=           1           1           1           0           1           1           1           0           1           1
 AtZEff=   0.0000000   0.0000000   0.0000000   0.0000000   0.0000000   0.0000000   0.0000000   0.0000000   0.0000000   0.0000000
 NQMom=    0.0000000   0.0000000   0.0000000   0.0000000   0.0000000   0.0000000   0.0000000   0.0000000   0.0000000   0.0000000
 NMagM=    2.7928460   2.7928460   2.7928460   0.0000000   2.7928460   2.7928460   2.7928460   0.0000000   2.7928460   2.7928460
 AtZNuc=   1.0000000   1.0000000   1.0000000   6.0000000   1.0000000   1.0000000   1.0000000   6.0000000   1.0000000   1.0000000

  Atom        31          32          33          34          35          36          37          38          39          40
 IAtWgt=           1          12          12          12          12          12           1           1           1           1
 AtmWgt=   1.0078250  12.0000000  12.0000000  12.0000000  12.0000000  12.0000000   1.0078250   1.0078250   1.0078250   1.0078250
 NucSpn=           1           0           0           0           0           0           1           1           1           1
 AtZEff=   0.0000000   0.0000000   0.0000000   0.0000000   0.0000000   0.0000000   0.0000000   0.0000000   0.0000000   0.0000000
 NQMom=    0.0000000   0.0000000   0.0000000   0.0000000   0.0000000   0.0000000   0.0000000   0.0000000   0.0000000   0.0000000
 NMagM=    2.7928460   0.0000000   0.0000000   0.0000000   0.0000000   0.0000000   2.7928460   2.7928460   2.7928460   2.7928460
 AtZNuc=   1.0000000   6.0000000   6.0000000   6.0000000   6.0000000   6.0000000   1.0000000   1.0000000   1.0000000   1.0000000

  Atom        41          42          43          44          45          46          47          48          49          50
 IAtWgt=           1          16          16          16          16          16          12           1           1          16
 AtmWgt=   1.0078250  15.9949146  15.9949146  15.9949146  15.9949146  15.9949146  12.0000000   1.0078250   1.0078250  15.9949146
 NucSpn=           1           0           0           0           0           0           0           1           1           0
 AtZEff=   0.0000000   0.0000000   0.0000000   0.0000000   0.0000000   0.0000000   0.0000000   0.0000000   0.0000000   0.0000000
 NQMom=    0.0000000   0.0000000   0.0000000   0.0000000   0.0000000   0.0000000   0.0000000   0.0000000   0.0000000   0.0000000
 NMagM=    2.7928460   0.0000000   0.0000000   0.0000000   0.0000000   0.0000000   0.0000000   2.7928460   2.7928460   0.0000000
 AtZNuc=   1.0000000   8.0000000   8.0000000   8.0000000   8.0000000   8.0000000   6.0000000   1.0000000   1.0000000   8.0000000

  Atom        51          52          53          54          55          56          57          58          59          60
 IAtWgt=          32          16          16          12          12          12          12           1          12           1
 AtmWgt=  31.9720718  15.9949146  15.9949146  12.0000000  12.0000000  12.0000000  12.0000000   1.0078250  12.0000000   1.0078250
 NucSpn=           0           0           0           0           0           0           0           1           0           1
 AtZEff=   0.0000000   0.0000000   0.0000000   0.0000000   0.0000000   0.0000000   0.0000000   0.0000000   0.0000000   0.0000000
 NQMom=    0.0000000   0.0000000   0.0000000   0.0000000   0.0000000   0.0000000   0.0000000   0.0000000   0.0000000   0.0000000
 NMagM=    0.0000000   0.0000000   0.0000000   0.0000000   0.0000000   0.0000000   0.0000000   2.7928460   0.0000000   2.7928460
 AtZNuc=  16.0000000   8.0000000   8.0000000   6.0000000   6.0000000   6.0000000   6.0000000   1.0000000   6.0000000   1.0000000

  Atom        61          62          63          64          65          66          67          68          69          70
 IAtWgt=          12           1          12           1           1           1          12           1           1           1
 AtmWgt=  12.0000000   1.0078250  12.0000000   1.0078250   1.0078250   1.0078250  12.0000000   1.0078250   1.0078250   1.0078250
 NucSpn=           0           1           0           1           1           1           0           1           1           1
 AtZEff=   0.0000000   0.0000000   0.0000000   0.0000000   0.0000000   0.0000000   0.0000000   0.0000000   0.0000000   0.0000000
 NQMom=    0.0000000   0.0000000   0.0000000   0.0000000   0.0000000   0.0000000   0.0000000   0.0000000   0.0000000   0.0000000
 NMagM=    0.0000000   2.7928460   0.0000000   2.7928460   2.7928460   2.7928460   0.0000000   2.7928460   2.7928460   2.7928460
 AtZNuc=   6.0000000   1.0000000   6.0000000   1.0000000   1.0000000   1.0000000   6.0000000   1.0000000   1.0000000   1.0000000

  Atom        71          72          73          74          75          76          77          78          79          80
 IAtWgt=          12           1           1           1          12           1           1           1          12           1
 AtmWgt=  12.0000000   1.0078250   1.0078250   1.0078250  12.0000000   1.0078250   1.0078250   1.0078250  12.0000000   1.0078250
 NucSpn=           0           1           1           1           0           1           1           1           0           1
 AtZEff=   0.0000000   0.0000000   0.0000000   0.0000000   0.0000000   0.0000000   0.0000000   0.0000000   0.0000000   0.0000000
 NQMom=    0.0000000   0.0000000   0.0000000   0.0000000   0.0000000   0.0000000   0.0000000   0.0000000   0.0000000   0.0000000
 NMagM=    0.0000000   2.7928460   2.7928460   2.7928460   0.0000000   2.7928460   2.7928460   2.7928460   0.0000000   2.7928460
 AtZNuc=   6.0000000   1.0000000   1.0000000   1.0000000   6.0000000   1.0000000   1.0000000   1.0000000   6.0000000   1.0000000

  Atom        81          82          83          84          85          86          87          88          89          90
 IAtWgt=           1           1          23          16          12           1           1           1          12           1
 AtmWgt=   1.0078250   1.0078250  22.9897697  15.9949146  12.0000000   1.0078250   1.0078250   1.0078250  12.0000000   1.0078250
 NucSpn=           1           1           3           0           0           1           1           1           0           1
 AtZEff=   0.0000000   0.0000000   0.0000000   0.0000000   0.0000000   0.0000000   0.0000000   0.0000000   0.0000000   0.0000000
 NQMom=    0.0000000   0.0000000  10.4000000   0.0000000   0.0000000   0.0000000   0.0000000   0.0000000   0.0000000   0.0000000
 NMagM=    2.7928460   2.7928460   2.2175200   0.0000000   0.0000000   2.7928460   2.7928460   2.7928460   0.0000000   2.7928460
 AtZNuc=   1.0000000   1.0000000  11.0000000   8.0000000   6.0000000   1.0000000   1.0000000   1.0000000   6.0000000   1.0000000

  Atom        91          92          93          94          95          96          97          98          99         100
 IAtWgt=           1           1          12          19          19          19          12          19          19          19
 AtmWgt=   1.0078250   1.0078250  12.0000000  18.9984033  18.9984033  18.9984033  12.0000000  18.9984033  18.9984033  18.9984033
 NucSpn=           1           1           0           1           1           1           0           1           1           1
 AtZEff=   0.0000000   0.0000000   0.0000000   0.0000000   0.0000000   0.0000000   0.0000000   0.0000000   0.0000000   0.0000000
 NQMom=    0.0000000   0.0000000   0.0000000   0.0000000   0.0000000   0.0000000   0.0000000   0.0000000   0.0000000   0.0000000
 NMagM=    2.7928460   2.7928460   0.0000000   2.6288670   2.6288670   2.6288670   0.0000000   2.6288670   2.6288670   2.6288670
 AtZNuc=   1.0000000   1.0000000   6.0000000   9.0000000   9.0000000   9.0000000   6.0000000   9.0000000   9.0000000   9.0000000
 Leave Link  101 at Wed Jun  5 11:01:38 2019, MaxMem=  6442450944 cpu:              19.0 elap:               0.7
 (Enter /home/ekwan/sw/g16/l103.exe)

 GradGradGradGradGradGradGradGradGradGradGradGradGradGradGradGradGradGrad
 Berny optimization.
 Initialization pass.
                           ----------------------------
                           !    Initial Parameters    !
                           ! (Angstroms and Degrees)  !
 --------------------------                            --------------------------
 ! Name  Definition              Value          Derivative Info.                !
 --------------------------------------------------------------------------------
 ! R1    R(1,2)                  1.5363         calculate D2E/DX2 analytically  !
 ! R2    R(1,5)                  1.5385         calculate D2E/DX2 analytically  !
 ! R3    R(1,8)                  1.0988         calculate D2E/DX2 analytically  !
 ! R4    R(1,14)                 1.4259         calculate D2E/DX2 analytically  !
 ! R5    R(2,3)                  1.5394         calculate D2E/DX2 analytically  !
 ! R6    R(2,7)                  1.1003         calculate D2E/DX2 analytically  !
 ! R7    R(2,13)                 1.4175         calculate D2E/DX2 analytically  !
 ! R8    R(3,6)                  1.1011         calculate D2E/DX2 analytically  !
 ! R9    R(3,11)                 1.4195         calculate D2E/DX2 analytically  !
 ! R10   R(3,12)                 1.3977         calculate D2E/DX2 analytically  !
 ! R11   R(4,5)                  1.5415         calculate D2E/DX2 analytically  !
 ! R12   R(4,9)                  1.1004         calculate D2E/DX2 analytically  !
 ! R13   R(4,11)                 1.4473         calculate D2E/DX2 analytically  !
 ! R14   R(4,16)                 1.5501         calculate D2E/DX2 analytically  !
 ! R15   R(5,10)                 1.0989         calculate D2E/DX2 analytically  !
 ! R16   R(5,15)                 1.4259         calculate D2E/DX2 analytically  !
 ! R17   R(12,79)                1.4219         calculate D2E/DX2 analytically  !
 ! R18   R(13,20)                1.4195         calculate D2E/DX2 analytically  !
 ! R19   R(14,24)                1.4183         calculate D2E/DX2 analytically  !
 ! R20   R(15,28)                1.4184         calculate D2E/DX2 analytically  !
 ! R21   R(16,17)                1.1134         calculate D2E/DX2 analytically  !
 ! R22   R(16,18)                1.1174         calculate D2E/DX2 analytically  !
 ! R23   R(16,19)                1.3723         calculate D2E/DX2 analytically  !
 ! R24   R(18,91)                2.4001         calculate D2E/DX2 analytically  !
 ! R25   R(19,37)                2.0744         calculate D2E/DX2 analytically  !
 ! R26   R(19,83)                2.268          calculate D2E/DX2 analytically  !
 ! R27   R(20,21)                1.1015         calculate D2E/DX2 analytically  !
 ! R28   R(20,22)                1.0967         calculate D2E/DX2 analytically  !
 ! R29   R(20,23)                1.0948         calculate D2E/DX2 analytically  !
 ! R30   R(24,25)                1.0986         calculate D2E/DX2 analytically  !
 ! R31   R(24,26)                1.1009         calculate D2E/DX2 analytically  !
 ! R32   R(24,27)                1.0939         calculate D2E/DX2 analytically  !
 ! R33   R(28,29)                1.0989         calculate D2E/DX2 analytically  !
 ! R34   R(28,30)                1.0996         calculate D2E/DX2 analytically  !
 ! R35   R(28,31)                1.0955         calculate D2E/DX2 analytically  !
 ! R36   R(32,33)                1.5409         calculate D2E/DX2 analytically  !
 ! R37   R(32,36)                1.5409         calculate D2E/DX2 analytically  !
 ! R38   R(32,39)                1.0986         calculate D2E/DX2 analytically  !
 ! R39   R(32,45)                1.4148         calculate D2E/DX2 analytically  !
 ! R40   R(33,34)                1.5066         calculate D2E/DX2 analytically  !
 ! R41   R(33,38)                1.1051         calculate D2E/DX2 analytically  !
 ! R42   R(33,44)                1.4081         calculate D2E/DX2 analytically  !
 ! R43   R(34,37)                1.0752         calculate D2E/DX2 analytically  !
 ! R44   R(34,42)                1.2857         calculate D2E/DX2 analytically  !
 ! R45   R(34,53)                2.2259         calculate D2E/DX2 analytically  !
 ! R46   R(35,36)                1.5368         calculate D2E/DX2 analytically  !
 ! R47   R(35,40)                1.096          calculate D2E/DX2 analytically  !
 ! R48   R(35,42)                1.4709         calculate D2E/DX2 analytically  !
 ! R49   R(35,47)                1.5194         calculate D2E/DX2 analytically  !
 ! R50   R(36,41)                1.0977         calculate D2E/DX2 analytically  !
 ! R51   R(36,46)                1.4154         calculate D2E/DX2 analytically  !
 ! R52   R(37,52)                2.3189         calculate D2E/DX2 analytically  !
 ! R53   R(43,51)                1.4703         calculate D2E/DX2 analytically  !
 ! R54   R(44,63)                1.43           calculate D2E/DX2 analytically  !
 ! R55   R(45,67)                1.4236         calculate D2E/DX2 analytically  !
 ! R56   R(46,71)                1.4245         calculate D2E/DX2 analytically  !
 ! R57   R(47,48)                1.1019         calculate D2E/DX2 analytically  !
 ! R58   R(47,49)                1.1028         calculate D2E/DX2 analytically  !
 ! R59   R(47,50)                1.4087         calculate D2E/DX2 analytically  !
 ! R60   R(50,75)                1.4175         calculate D2E/DX2 analytically  !
 ! R61   R(51,52)                1.4924         calculate D2E/DX2 analytically  !
 ! R62   R(51,53)                1.5031         calculate D2E/DX2 analytically  !
 ! R63   R(51,54)                1.811          calculate D2E/DX2 analytically  !
 ! R64   R(52,83)                2.3474         calculate D2E/DX2 analytically  !
 ! R65   R(54,55)                1.3954         calculate D2E/DX2 analytically  !
 ! R66   R(54,56)                1.3964         calculate D2E/DX2 analytically  !
 ! R67   R(55,57)                1.3994         calculate D2E/DX2 analytically  !
 ! R68   R(55,58)                1.0858         calculate D2E/DX2 analytically  !
 ! R69   R(56,59)                1.3966         calculate D2E/DX2 analytically  !
 ! R70   R(56,60)                1.0844         calculate D2E/DX2 analytically  !
 ! R71   R(57,61)                1.3975         calculate D2E/DX2 analytically  !
 ! R72   R(57,93)                1.5114         calculate D2E/DX2 analytically  !
 ! R73   R(59,61)                1.3984         calculate D2E/DX2 analytically  !
 ! R74   R(59,97)                1.511          calculate D2E/DX2 analytically  !
 ! R75   R(61,62)                1.0853         calculate D2E/DX2 analytically  !
 ! R76   R(63,64)                1.0981         calculate D2E/DX2 analytically  !
 ! R77   R(63,65)                1.0943         calculate D2E/DX2 analytically  !
 ! R78   R(63,66)                1.0933         calculate D2E/DX2 analytically  !
 ! R79   R(67,68)                1.0967         calculate D2E/DX2 analytically  !
 ! R80   R(67,69)                1.1002         calculate D2E/DX2 analytically  !
 ! R81   R(67,70)                1.0938         calculate D2E/DX2 analytically  !
 ! R82   R(71,72)                1.0979         calculate D2E/DX2 analytically  !
 ! R83   R(71,73)                1.0992         calculate D2E/DX2 analytically  !
 ! R84   R(71,74)                1.0935         calculate D2E/DX2 analytically  !
 ! R85   R(75,76)                1.0931         calculate D2E/DX2 analytically  !
 ! R86   R(75,77)                1.101          calculate D2E/DX2 analytically  !
 ! R87   R(75,78)                1.1011         calculate D2E/DX2 analytically  !
 ! R88   R(79,80)                1.0932         calculate D2E/DX2 analytically  !
 ! R89   R(79,81)                1.0977         calculate D2E/DX2 analytically  !
 ! R90   R(79,82)                1.1009         calculate D2E/DX2 analytically  !
 ! R91   R(83,84)                2.3454         calculate D2E/DX2 analytically  !
 ! R92   R(84,85)                1.4178         calculate D2E/DX2 analytically  !
 ! R93   R(84,89)                1.423          calculate D2E/DX2 analytically  !
 ! R94   R(85,86)                1.1005         calculate D2E/DX2 analytically  !
 ! R95   R(85,87)                1.0936         calculate D2E/DX2 analytically  !
 ! R96   R(85,88)                1.1005         calculate D2E/DX2 analytically  !
 ! R97   R(89,90)                1.1004         calculate D2E/DX2 analytically  !
 ! R98   R(89,91)                1.0943         calculate D2E/DX2 analytically  !
 ! R99   R(89,92)                1.1007         calculate D2E/DX2 analytically  !
 ! R100  R(93,94)                1.3527         calculate D2E/DX2 analytically  !
 ! R101  R(93,95)                1.3458         calculate D2E/DX2 analytically  !
 ! R102  R(93,96)                1.3454         calculate D2E/DX2 analytically  !
 ! R103  R(97,98)                1.3493         calculate D2E/DX2 analytically  !
 ! R104  R(97,99)                1.3488         calculate D2E/DX2 analytically  !
 ! R105  R(97,100)               1.3485         calculate D2E/DX2 analytically  !
 ! A1    A(2,1,5)              110.6215         calculate D2E/DX2 analytically  !
 ! A2    A(2,1,8)              108.2779         calculate D2E/DX2 analytically  !
 ! A3    A(2,1,14)             109.256          calculate D2E/DX2 analytically  !
 ! A4    A(5,1,8)              108.7795         calculate D2E/DX2 analytically  !
 ! A5    A(5,1,14)             109.8891         calculate D2E/DX2 analytically  !
 ! A6    A(8,1,14)             109.995          calculate D2E/DX2 analytically  !
 ! A7    A(1,2,3)              109.7843         calculate D2E/DX2 analytically  !
 ! A8    A(1,2,7)              108.9712         calculate D2E/DX2 analytically  !
 ! A9    A(1,2,13)             112.0204         calculate D2E/DX2 analytically  !
 ! A10   A(3,2,7)              106.6016         calculate D2E/DX2 analytically  !
 ! A11   A(3,2,13)             108.946          calculate D2E/DX2 analytically  !
 ! A12   A(7,2,13)             110.3703         calculate D2E/DX2 analytically  !
 ! A13   A(2,3,6)              110.2797         calculate D2E/DX2 analytically  !
 ! A14   A(2,3,11)             109.9634         calculate D2E/DX2 analytically  !
 ! A15   A(2,3,12)             108.7763         calculate D2E/DX2 analytically  !
 ! A16   A(6,3,11)             104.8286         calculate D2E/DX2 analytically  !
 ! A17   A(6,3,12)             110.2927         calculate D2E/DX2 analytically  !
 ! A18   A(11,3,12)            112.6587         calculate D2E/DX2 analytically  !
 ! A19   A(5,4,9)              107.896          calculate D2E/DX2 analytically  !
 ! A20   A(5,4,11)             110.2738         calculate D2E/DX2 analytically  !
 ! A21   A(5,4,16)             113.8028         calculate D2E/DX2 analytically  !
 ! A22   A(9,4,11)             108.8937         calculate D2E/DX2 analytically  !
 ! A23   A(9,4,16)             109.097          calculate D2E/DX2 analytically  !
 ! A24   A(11,4,16)            106.7915         calculate D2E/DX2 analytically  !
 ! A25   A(1,5,4)              112.2616         calculate D2E/DX2 analytically  !
 ! A26   A(1,5,10)             108.0846         calculate D2E/DX2 analytically  !
 ! A27   A(1,5,15)             109.003          calculate D2E/DX2 analytically  !
 ! A28   A(4,5,10)             108.9952         calculate D2E/DX2 analytically  !
 ! A29   A(4,5,15)             108.2477         calculate D2E/DX2 analytically  !
 ! A30   A(10,5,15)            110.2481         calculate D2E/DX2 analytically  !
 ! A31   A(3,11,4)             115.0739         calculate D2E/DX2 analytically  !
 ! A32   A(3,12,79)            113.7564         calculate D2E/DX2 analytically  !
 ! A33   A(2,13,20)            114.2365         calculate D2E/DX2 analytically  !
 ! A34   A(1,14,24)            114.4448         calculate D2E/DX2 analytically  !
 ! A35   A(5,15,28)            114.7768         calculate D2E/DX2 analytically  !
 ! A36   A(4,16,17)            105.036          calculate D2E/DX2 analytically  !
 ! A37   A(4,16,18)            105.0257         calculate D2E/DX2 analytically  !
 ! A38   A(4,16,19)            115.0261         calculate D2E/DX2 analytically  !
 ! A39   A(17,16,18)           104.9083         calculate D2E/DX2 analytically  !
 ! A40   A(17,16,19)           113.9631         calculate D2E/DX2 analytically  !
 ! A41   A(18,16,19)           111.9345         calculate D2E/DX2 analytically  !
 ! A42   A(16,18,91)           107.8972         calculate D2E/DX2 analytically  !
 ! A43   A(16,19,37)           127.6161         calculate D2E/DX2 analytically  !
 ! A44   A(16,19,83)           112.9955         calculate D2E/DX2 analytically  !
 ! A45   A(37,19,83)            68.3178         calculate D2E/DX2 analytically  !
 ! A46   A(13,20,21)           111.486          calculate D2E/DX2 analytically  !
 ! A47   A(13,20,22)           111.7461         calculate D2E/DX2 analytically  !
 ! A48   A(13,20,23)           106.6658         calculate D2E/DX2 analytically  !
 ! A49   A(21,20,22)           108.8073         calculate D2E/DX2 analytically  !
 ! A50   A(21,20,23)           108.6791         calculate D2E/DX2 analytically  !
 ! A51   A(22,20,23)           109.3818         calculate D2E/DX2 analytically  !
 ! A52   A(14,24,25)           111.5938         calculate D2E/DX2 analytically  !
 ! A53   A(14,24,26)           111.4402         calculate D2E/DX2 analytically  !
 ! A54   A(14,24,27)           106.4929         calculate D2E/DX2 analytically  !
 ! A55   A(25,24,26)           108.925          calculate D2E/DX2 analytically  !
 ! A56   A(25,24,27)           109.2005         calculate D2E/DX2 analytically  !
 ! A57   A(26,24,27)           109.1208         calculate D2E/DX2 analytically  !
 ! A58   A(15,28,29)           111.4505         calculate D2E/DX2 analytically  !
 ! A59   A(15,28,30)           111.9487         calculate D2E/DX2 analytically  !
 ! A60   A(15,28,31)           106.572          calculate D2E/DX2 analytically  !
 ! A61   A(29,28,30)           108.9449         calculate D2E/DX2 analytically  !
 ! A62   A(29,28,31)           109.0057         calculate D2E/DX2 analytically  !
 ! A63   A(30,28,31)           108.8299         calculate D2E/DX2 analytically  !
 ! A64   A(33,32,36)           108.009          calculate D2E/DX2 analytically  !
 ! A65   A(33,32,39)           109.0898         calculate D2E/DX2 analytically  !
 ! A66   A(33,32,45)           108.9754         calculate D2E/DX2 analytically  !
 ! A67   A(36,32,39)           110.1113         calculate D2E/DX2 analytically  !
 ! A68   A(36,32,45)           109.5461         calculate D2E/DX2 analytically  !
 ! A69   A(39,32,45)           111.0458         calculate D2E/DX2 analytically  !
 ! A70   A(32,33,34)           111.3463         calculate D2E/DX2 analytically  !
 ! A71   A(32,33,38)           108.9505         calculate D2E/DX2 analytically  !
 ! A72   A(32,33,44)           115.9087         calculate D2E/DX2 analytically  !
 ! A73   A(34,33,38)           102.5992         calculate D2E/DX2 analytically  !
 ! A74   A(34,33,44)           108.0587         calculate D2E/DX2 analytically  !
 ! A75   A(38,33,44)           109.133          calculate D2E/DX2 analytically  !
 ! A76   A(33,34,37)           120.7293         calculate D2E/DX2 analytically  !
 ! A77   A(33,34,42)           122.9592         calculate D2E/DX2 analytically  !
 ! A78   A(33,34,53)            97.1353         calculate D2E/DX2 analytically  !
 ! A79   A(37,34,42)           114.7467         calculate D2E/DX2 analytically  !
 ! A80   A(37,34,53)            86.888          calculate D2E/DX2 analytically  !
 ! A81   A(42,34,53)            98.0209         calculate D2E/DX2 analytically  !
 ! A82   A(36,35,40)           109.2296         calculate D2E/DX2 analytically  !
 ! A83   A(36,35,42)           111.8507         calculate D2E/DX2 analytically  !
 ! A84   A(36,35,47)           115.0842         calculate D2E/DX2 analytically  !
 ! A85   A(40,35,42)           104.6029         calculate D2E/DX2 analytically  !
 ! A86   A(40,35,47)           109.07           calculate D2E/DX2 analytically  !
 ! A87   A(42,35,47)           106.4496         calculate D2E/DX2 analytically  !
 ! A88   A(32,36,35)           110.9686         calculate D2E/DX2 analytically  !
 ! A89   A(32,36,41)           108.5541         calculate D2E/DX2 analytically  !
 ! A90   A(32,36,46)           110.5911         calculate D2E/DX2 analytically  !
 ! A91   A(35,36,41)           109.2999         calculate D2E/DX2 analytically  !
 ! A92   A(35,36,46)           106.645          calculate D2E/DX2 analytically  !
 ! A93   A(41,36,46)           110.7787         calculate D2E/DX2 analytically  !
 ! A94   A(19,37,34)           100.7559         calculate D2E/DX2 analytically  !
 ! A95   A(19,37,52)           117.2661         calculate D2E/DX2 analytically  !
 ! A96   A(34,37,52)           127.7129         calculate D2E/DX2 analytically  !
 ! A97   A(34,42,35)           122.1119         calculate D2E/DX2 analytically  !
 ! A98   A(33,44,63)           115.1457         calculate D2E/DX2 analytically  !
 ! A99   A(32,45,67)           114.3772         calculate D2E/DX2 analytically  !
 ! A100  A(36,46,71)           114.268          calculate D2E/DX2 analytically  !
 ! A101  A(35,47,48)           107.9123         calculate D2E/DX2 analytically  !
 ! A102  A(35,47,49)           108.904          calculate D2E/DX2 analytically  !
 ! A103  A(35,47,50)           109.1871         calculate D2E/DX2 analytically  !
 ! A104  A(48,47,49)           107.952          calculate D2E/DX2 analytically  !
 ! A105  A(48,47,50)           111.5311         calculate D2E/DX2 analytically  !
 ! A106  A(49,47,50)           111.2608         calculate D2E/DX2 analytically  !
 ! A107  A(47,50,75)           112.497          calculate D2E/DX2 analytically  !
 ! A108  A(43,51,52)           114.4117         calculate D2E/DX2 analytically  !
 ! A109  A(43,51,53)           113.864          calculate D2E/DX2 analytically  !
 ! A110  A(43,51,54)           106.6735         calculate D2E/DX2 analytically  !
 ! A111  A(52,51,53)           112.0843         calculate D2E/DX2 analytically  !
 ! A112  A(52,51,54)           104.2127         calculate D2E/DX2 analytically  !
 ! A113  A(53,51,54)           104.4091         calculate D2E/DX2 analytically  !
 ! A114  A(37,52,51)            92.8918         calculate D2E/DX2 analytically  !
 ! A115  A(37,52,83)            63.1506         calculate D2E/DX2 analytically  !
 ! A116  A(51,52,83)           140.7543         calculate D2E/DX2 analytically  !
 ! A117  A(34,53,51)           115.0013         calculate D2E/DX2 analytically  !
 ! A118  A(51,54,55)           119.4054         calculate D2E/DX2 analytically  !
 ! A119  A(51,54,56)           119.6144         calculate D2E/DX2 analytically  !
 ! A120  A(55,54,56)           120.8855         calculate D2E/DX2 analytically  !
 ! A121  A(54,55,57)           119.1648         calculate D2E/DX2 analytically  !
 ! A122  A(54,55,58)           120.0384         calculate D2E/DX2 analytically  !
 ! A123  A(57,55,58)           120.7948         calculate D2E/DX2 analytically  !
 ! A124  A(54,56,59)           119.3248         calculate D2E/DX2 analytically  !
 ! A125  A(54,56,60)           120.1319         calculate D2E/DX2 analytically  !
 ! A126  A(59,56,60)           120.5432         calculate D2E/DX2 analytically  !
 ! A127  A(55,57,61)           120.6707         calculate D2E/DX2 analytically  !
 ! A128  A(55,57,93)           119.4459         calculate D2E/DX2 analytically  !
 ! A129  A(61,57,93)           119.8056         calculate D2E/DX2 analytically  !
 ! A130  A(56,59,61)           120.5978         calculate D2E/DX2 analytically  !
 ! A131  A(56,59,97)           120.043          calculate D2E/DX2 analytically  !
 ! A132  A(61,59,97)           119.3085         calculate D2E/DX2 analytically  !
 ! A133  A(57,61,59)           119.3523         calculate D2E/DX2 analytically  !
 ! A134  A(57,61,62)           120.2552         calculate D2E/DX2 analytically  !
 ! A135  A(59,61,62)           120.3925         calculate D2E/DX2 analytically  !
 ! A136  A(44,63,64)           110.9853         calculate D2E/DX2 analytically  !
 ! A137  A(44,63,65)           111.3878         calculate D2E/DX2 analytically  !
 ! A138  A(44,63,66)           106.1692         calculate D2E/DX2 analytically  !
 ! A139  A(64,63,65)           109.1799         calculate D2E/DX2 analytically  !
 ! A140  A(64,63,66)           109.1804         calculate D2E/DX2 analytically  !
 ! A141  A(65,63,66)           109.8822         calculate D2E/DX2 analytically  !
 ! A142  A(45,67,68)           111.5012         calculate D2E/DX2 analytically  !
 ! A143  A(45,67,69)           111.1571         calculate D2E/DX2 analytically  !
 ! A144  A(45,67,70)           106.4218         calculate D2E/DX2 analytically  !
 ! A145  A(68,67,69)           109.1909         calculate D2E/DX2 analytically  !
 ! A146  A(68,67,70)           109.458          calculate D2E/DX2 analytically  !
 ! A147  A(69,67,70)           109.0437         calculate D2E/DX2 analytically  !
 ! A148  A(46,71,72)           111.1527         calculate D2E/DX2 analytically  !
 ! A149  A(46,71,73)           111.2538         calculate D2E/DX2 analytically  !
 ! A150  A(46,71,74)           106.4519         calculate D2E/DX2 analytically  !
 ! A151  A(72,71,73)           109.228          calculate D2E/DX2 analytically  !
 ! A152  A(72,71,74)           109.3949         calculate D2E/DX2 analytically  !
 ! A153  A(73,71,74)           109.3005         calculate D2E/DX2 analytically  !
 ! A154  A(50,75,76)           106.9523         calculate D2E/DX2 analytically  !
 ! A155  A(50,75,77)           111.2903         calculate D2E/DX2 analytically  !
 ! A156  A(50,75,78)           111.3364         calculate D2E/DX2 analytically  !
 ! A157  A(76,75,77)           109.2246         calculate D2E/DX2 analytically  !
 ! A158  A(76,75,78)           109.2813         calculate D2E/DX2 analytically  !
 ! A159  A(77,75,78)           108.7115         calculate D2E/DX2 analytically  !
 ! A160  A(12,79,80)           106.712          calculate D2E/DX2 analytically  !
 ! A161  A(12,79,81)           111.6299         calculate D2E/DX2 analytically  !
 ! A162  A(12,79,82)           110.8656         calculate D2E/DX2 analytically  !
 ! A163  A(80,79,81)           109.3903         calculate D2E/DX2 analytically  !
 ! A164  A(80,79,82)           109.2109         calculate D2E/DX2 analytically  !
 ! A165  A(81,79,82)           108.9799         calculate D2E/DX2 analytically  !
 ! A166  A(19,83,52)           108.8106         calculate D2E/DX2 analytically  !
 ! A167  A(19,83,84)           103.8322         calculate D2E/DX2 analytically  !
 ! A168  A(52,83,84)           145.1076         calculate D2E/DX2 analytically  !
 ! A169  A(83,84,85)           134.6236         calculate D2E/DX2 analytically  !
 ! A170  A(83,84,89)           111.8477         calculate D2E/DX2 analytically  !
 ! A171  A(85,84,89)           112.8498         calculate D2E/DX2 analytically  !
 ! A172  A(84,85,86)           110.977          calculate D2E/DX2 analytically  !
 ! A173  A(84,85,87)           107.3518         calculate D2E/DX2 analytically  !
 ! A174  A(84,85,88)           111.0726         calculate D2E/DX2 analytically  !
 ! A175  A(86,85,87)           109.2691         calculate D2E/DX2 analytically  !
 ! A176  A(86,85,88)           108.8141         calculate D2E/DX2 analytically  !
 ! A177  A(87,85,88)           109.3216         calculate D2E/DX2 analytically  !
 ! A178  A(84,89,90)           110.8398         calculate D2E/DX2 analytically  !
 ! A179  A(84,89,91)           106.5548         calculate D2E/DX2 analytically  !
 ! A180  A(84,89,92)           110.7249         calculate D2E/DX2 analytically  !
 ! A181  A(90,89,91)           109.8796         calculate D2E/DX2 analytically  !
 ! A182  A(90,89,92)           108.9045         calculate D2E/DX2 analytically  !
 ! A183  A(91,89,92)           109.9181         calculate D2E/DX2 analytically  !
 ! A184  A(18,91,89)           129.7456         calculate D2E/DX2 analytically  !
 ! A185  A(57,93,94)           111.2609         calculate D2E/DX2 analytically  !
 ! A186  A(57,93,95)           111.976          calculate D2E/DX2 analytically  !
 ! A187  A(57,93,96)           111.8154         calculate D2E/DX2 analytically  !
 ! A188  A(94,93,95)           106.9055         calculate D2E/DX2 analytically  !
 ! A189  A(94,93,96)           106.8675         calculate D2E/DX2 analytically  !
 ! A190  A(95,93,96)           107.7308         calculate D2E/DX2 analytically  !
 ! A191  A(59,97,98)           112.1538         calculate D2E/DX2 analytically  !
 ! A192  A(59,97,99)           111.5131         calculate D2E/DX2 analytically  !
 ! A193  A(59,97,100)          111.742          calculate D2E/DX2 analytically  !
 ! A194  A(98,97,99)           106.8684         calculate D2E/DX2 analytically  !
 ! A195  A(98,97,100)          107.5328         calculate D2E/DX2 analytically  !
 ! A196  A(99,97,100)          106.7197         calculate D2E/DX2 analytically  !
 ! D1    D(5,1,2,3)            -52.8778         calculate D2E/DX2 analytically  !
 ! D2    D(5,1,2,7)             63.5286         calculate D2E/DX2 analytically  !
 ! D3    D(5,1,2,13)          -174.0544         calculate D2E/DX2 analytically  !
 ! D4    D(8,1,2,3)             66.235          calculate D2E/DX2 analytically  !
 ! D5    D(8,1,2,7)           -177.3586         calculate D2E/DX2 analytically  !
 ! D6    D(8,1,2,13)           -54.9416         calculate D2E/DX2 analytically  !
 ! D7    D(14,1,2,3)          -173.9747         calculate D2E/DX2 analytically  !
 ! D8    D(14,1,2,7)           -57.5682         calculate D2E/DX2 analytically  !
 ! D9    D(14,1,2,13)           64.8488         calculate D2E/DX2 analytically  !
 ! D10   D(2,1,5,4)             49.9483         calculate D2E/DX2 analytically  !
 ! D11   D(2,1,5,10)           -70.2938         calculate D2E/DX2 analytically  !
 ! D12   D(2,1,5,15)           169.8703         calculate D2E/DX2 analytically  !
 ! D13   D(8,1,5,4)            -68.8608         calculate D2E/DX2 analytically  !
 ! D14   D(8,1,5,10)           170.8971         calculate D2E/DX2 analytically  !
 ! D15   D(8,1,5,15)            51.0612         calculate D2E/DX2 analytically  !
 ! D16   D(14,1,5,4)           170.6692         calculate D2E/DX2 analytically  !
 ! D17   D(14,1,5,10)           50.427          calculate D2E/DX2 analytically  !
 ! D18   D(14,1,5,15)          -69.4088         calculate D2E/DX2 analytically  !
 ! D19   D(2,1,14,24)         -129.9381         calculate D2E/DX2 analytically  !
 ! D20   D(5,1,14,24)          108.5209         calculate D2E/DX2 analytically  !
 ! D21   D(8,1,14,24)          -11.2113         calculate D2E/DX2 analytically  !
 ! D22   D(1,2,3,6)            172.9488         calculate D2E/DX2 analytically  !
 ! D23   D(1,2,3,11)            57.8295         calculate D2E/DX2 analytically  !
 ! D24   D(1,2,3,12)           -65.9777         calculate D2E/DX2 analytically  !
 ! D25   D(7,2,3,6)             55.0598         calculate D2E/DX2 analytically  !
 ! D26   D(7,2,3,11)           -60.0595         calculate D2E/DX2 analytically  !
 ! D27   D(7,2,3,12)           176.1333         calculate D2E/DX2 analytically  !
 ! D28   D(13,2,3,6)           -64.043          calculate D2E/DX2 analytically  !
 ! D29   D(13,2,3,11)         -179.1624         calculate D2E/DX2 analytically  !
 ! D30   D(13,2,3,12)           57.0305         calculate D2E/DX2 analytically  !
 ! D31   D(1,2,13,20)         -100.4062         calculate D2E/DX2 analytically  !
 ! D32   D(3,2,13,20)          137.9349         calculate D2E/DX2 analytically  !
 ! D33   D(7,2,13,20)           21.2109         calculate D2E/DX2 analytically  !
 ! D34   D(2,3,11,4)           -61.6719         calculate D2E/DX2 analytically  !
 ! D35   D(6,3,11,4)           179.7972         calculate D2E/DX2 analytically  !
 ! D36   D(12,3,11,4)           59.844          calculate D2E/DX2 analytically  !
 ! D37   D(2,3,12,79)         -170.6629         calculate D2E/DX2 analytically  !
 ! D38   D(6,3,12,79)          -49.5974         calculate D2E/DX2 analytically  !
 ! D39   D(11,3,12,79)          67.1494         calculate D2E/DX2 analytically  !
 ! D40   D(9,4,5,1)             68.6642         calculate D2E/DX2 analytically  !
 ! D41   D(9,4,5,10)          -171.6231         calculate D2E/DX2 analytically  !
 ! D42   D(9,4,5,15)           -51.6962         calculate D2E/DX2 analytically  !
 ! D43   D(11,4,5,1)           -50.154          calculate D2E/DX2 analytically  !
 ! D44   D(11,4,5,10)           69.5587         calculate D2E/DX2 analytically  !
 ! D45   D(11,4,5,15)         -170.5144         calculate D2E/DX2 analytically  !
 ! D46   D(16,4,5,1)          -170.1238         calculate D2E/DX2 analytically  !
 ! D47   D(16,4,5,10)          -50.4111         calculate D2E/DX2 analytically  !
 ! D48   D(16,4,5,15)           69.5158         calculate D2E/DX2 analytically  !
 ! D49   D(5,4,11,3)            57.3589         calculate D2E/DX2 analytically  !
 ! D50   D(9,4,11,3)           -60.8485         calculate D2E/DX2 analytically  !
 ! D51   D(16,4,11,3)         -178.5249         calculate D2E/DX2 analytically  !
 ! D52   D(5,4,16,17)          -57.4524         calculate D2E/DX2 analytically  !
 ! D53   D(5,4,16,18)         -167.8132         calculate D2E/DX2 analytically  !
 ! D54   D(5,4,16,19)           68.6712         calculate D2E/DX2 analytically  !
 ! D55   D(9,4,16,17)           63.0876         calculate D2E/DX2 analytically  !
 ! D56   D(9,4,16,18)          -47.2731         calculate D2E/DX2 analytically  !
 ! D57   D(9,4,16,19)         -170.7888         calculate D2E/DX2 analytically  !
 ! D58   D(11,4,16,17)        -179.3698         calculate D2E/DX2 analytically  !
 ! D59   D(11,4,16,18)          70.2694         calculate D2E/DX2 analytically  !
 ! D60   D(11,4,16,19)         -53.2462         calculate D2E/DX2 analytically  !
 ! D61   D(1,5,15,28)          114.1883         calculate D2E/DX2 analytically  !
 ! D62   D(4,5,15,28)         -123.4383         calculate D2E/DX2 analytically  !
 ! D63   D(10,5,15,28)          -4.2999         calculate D2E/DX2 analytically  !
 ! D64   D(3,12,79,80)         175.5971         calculate D2E/DX2 analytically  !
 ! D65   D(3,12,79,81)         -64.9336         calculate D2E/DX2 analytically  !
 ! D66   D(3,12,79,82)          56.7735         calculate D2E/DX2 analytically  !
 ! D67   D(2,13,20,21)         -60.7948         calculate D2E/DX2 analytically  !
 ! D68   D(2,13,20,22)          61.2119         calculate D2E/DX2 analytically  !
 ! D69   D(2,13,20,23)        -179.292          calculate D2E/DX2 analytically  !
 ! D70   D(1,14,24,25)         -58.1535         calculate D2E/DX2 analytically  !
 ! D71   D(1,14,24,26)          63.8639         calculate D2E/DX2 analytically  !
 ! D72   D(1,14,24,27)        -177.2358         calculate D2E/DX2 analytically  !
 ! D73   D(5,15,28,29)         -58.6437         calculate D2E/DX2 analytically  !
 ! D74   D(5,15,28,30)          63.6607         calculate D2E/DX2 analytically  !
 ! D75   D(5,15,28,31)        -177.4589         calculate D2E/DX2 analytically  !
 ! D76   D(4,16,18,91)        -120.9673         calculate D2E/DX2 analytically  !
 ! D77   D(17,16,18,91)        128.5801         calculate D2E/DX2 analytically  !
 ! D78   D(19,16,18,91)          4.5031         calculate D2E/DX2 analytically  !
 ! D79   D(4,16,19,37)         -34.3904         calculate D2E/DX2 analytically  !
 ! D80   D(4,16,19,83)          45.259          calculate D2E/DX2 analytically  !
 ! D81   D(17,16,19,37)         86.9963         calculate D2E/DX2 analytically  !
 ! D82   D(17,16,19,83)        166.6456         calculate D2E/DX2 analytically  !
 ! D83   D(18,16,19,37)       -154.1554         calculate D2E/DX2 analytically  !
 ! D84   D(18,16,19,83)        -74.5061         calculate D2E/DX2 analytically  !
 ! D85   D(16,18,91,89)        130.4213         calculate D2E/DX2 analytically  !
 ! D86   D(16,19,37,34)       -127.0921         calculate D2E/DX2 analytically  !
 ! D87   D(16,19,37,52)         89.9324         calculate D2E/DX2 analytically  !
 ! D88   D(83,19,37,34)        129.942          calculate D2E/DX2 analytically  !
 ! D89   D(83,19,37,52)        -13.0335         calculate D2E/DX2 analytically  !
 ! D90   D(16,19,83,52)       -110.9364         calculate D2E/DX2 analytically  !
 ! D91   D(16,19,83,84)         81.5734         calculate D2E/DX2 analytically  !
 ! D92   D(37,19,83,52)         12.0755         calculate D2E/DX2 analytically  !
 ! D93   D(37,19,83,84)       -155.4147         calculate D2E/DX2 analytically  !
 ! D94   D(36,32,33,34)        -48.9784         calculate D2E/DX2 analytically  !
 ! D95   D(36,32,33,38)         63.4673         calculate D2E/DX2 analytically  !
 ! D96   D(36,32,33,44)       -173.0243         calculate D2E/DX2 analytically  !
 ! D97   D(39,32,33,34)         70.6985         calculate D2E/DX2 analytically  !
 ! D98   D(39,32,33,38)       -176.8558         calculate D2E/DX2 analytically  !
 ! D99   D(39,32,33,44)        -53.3474         calculate D2E/DX2 analytically  !
 ! D100  D(45,32,33,34)       -167.9123         calculate D2E/DX2 analytically  !
 ! D101  D(45,32,33,38)        -55.4666         calculate D2E/DX2 analytically  !
 ! D102  D(45,32,33,44)         68.0418         calculate D2E/DX2 analytically  !
 ! D103  D(33,32,36,35)         58.7925         calculate D2E/DX2 analytically  !
 ! D104  D(33,32,36,41)        -61.3393         calculate D2E/DX2 analytically  !
 ! D105  D(33,32,36,46)        176.9353         calculate D2E/DX2 analytically  !
 ! D106  D(39,32,36,35)        -60.2376         calculate D2E/DX2 analytically  !
 ! D107  D(39,32,36,41)        179.6306         calculate D2E/DX2 analytically  !
 ! D108  D(39,32,36,46)         57.9052         calculate D2E/DX2 analytically  !
 ! D109  D(45,32,36,35)        177.3629         calculate D2E/DX2 analytically  !
 ! D110  D(45,32,36,41)         57.2311         calculate D2E/DX2 analytically  !
 ! D111  D(45,32,36,46)        -64.4943         calculate D2E/DX2 analytically  !
 ! D112  D(33,32,45,67)       -137.8509         calculate D2E/DX2 analytically  !
 ! D113  D(36,32,45,67)        104.1797         calculate D2E/DX2 analytically  !
 ! D114  D(39,32,45,67)        -17.6609         calculate D2E/DX2 analytically  !
 ! D115  D(32,33,34,37)       -161.5237         calculate D2E/DX2 analytically  !
 ! D116  D(32,33,34,42)         33.4975         calculate D2E/DX2 analytically  !
 ! D117  D(32,33,34,53)        -70.9068         calculate D2E/DX2 analytically  !
 ! D118  D(38,33,34,37)         82.0769         calculate D2E/DX2 analytically  !
 ! D119  D(38,33,34,42)        -82.9019         calculate D2E/DX2 analytically  !
 ! D120  D(38,33,34,53)        172.6938         calculate D2E/DX2 analytically  !
 ! D121  D(44,33,34,37)        -33.1451         calculate D2E/DX2 analytically  !
 ! D122  D(44,33,34,42)        161.8761         calculate D2E/DX2 analytically  !
 ! D123  D(44,33,34,53)         57.4718         calculate D2E/DX2 analytically  !
 ! D124  D(32,33,44,63)        -78.6319         calculate D2E/DX2 analytically  !
 ! D125  D(34,33,44,63)        155.6336         calculate D2E/DX2 analytically  !
 ! D126  D(38,33,44,63)         44.7812         calculate D2E/DX2 analytically  !
 ! D127  D(33,34,37,19)        -58.8206         calculate D2E/DX2 analytically  !
 ! D128  D(33,34,37,52)         78.6008         calculate D2E/DX2 analytically  !
 ! D129  D(42,34,37,19)        107.325          calculate D2E/DX2 analytically  !
 ! D130  D(42,34,37,52)       -115.2536         calculate D2E/DX2 analytically  !
 ! D131  D(53,34,37,19)       -155.2741         calculate D2E/DX2 analytically  !
 ! D132  D(53,34,37,52)        -17.8527         calculate D2E/DX2 analytically  !
 ! D133  D(33,34,42,35)        -24.4432         calculate D2E/DX2 analytically  !
 ! D134  D(37,34,42,35)        169.7572         calculate D2E/DX2 analytically  !
 ! D135  D(53,34,42,35)         79.4945         calculate D2E/DX2 analytically  !
 ! D136  D(33,34,53,51)       -114.8431         calculate D2E/DX2 analytically  !
 ! D137  D(37,34,53,51)          5.7491         calculate D2E/DX2 analytically  !
 ! D138  D(42,34,53,51)        120.3129         calculate D2E/DX2 analytically  !
 ! D139  D(40,35,36,32)         66.432          calculate D2E/DX2 analytically  !
 ! D140  D(40,35,36,41)       -173.8809         calculate D2E/DX2 analytically  !
 ! D141  D(40,35,36,46)        -54.0778         calculate D2E/DX2 analytically  !
 ! D142  D(42,35,36,32)        -48.8808         calculate D2E/DX2 analytically  !
 ! D143  D(42,35,36,41)         70.8063         calculate D2E/DX2 analytically  !
 ! D144  D(42,35,36,46)       -169.3906         calculate D2E/DX2 analytically  !
 ! D145  D(47,35,36,32)       -170.5199         calculate D2E/DX2 analytically  !
 ! D146  D(47,35,36,41)        -50.8328         calculate D2E/DX2 analytically  !
 ! D147  D(47,35,36,46)         68.9703         calculate D2E/DX2 analytically  !
 ! D148  D(36,35,42,34)         31.3564         calculate D2E/DX2 analytically  !
 ! D149  D(40,35,42,34)        -86.7537         calculate D2E/DX2 analytically  !
 ! D150  D(47,35,42,34)        157.8444         calculate D2E/DX2 analytically  !
 ! D151  D(36,35,47,48)        -66.85           calculate D2E/DX2 analytically  !
 ! D152  D(36,35,47,49)        176.2085         calculate D2E/DX2 analytically  !
 ! D153  D(36,35,47,50)         54.5403         calculate D2E/DX2 analytically  !
 ! D154  D(40,35,47,48)         56.2831         calculate D2E/DX2 analytically  !
 ! D155  D(40,35,47,49)        -60.6583         calculate D2E/DX2 analytically  !
 ! D156  D(40,35,47,50)        177.6735         calculate D2E/DX2 analytically  !
 ! D157  D(42,35,47,48)        168.63           calculate D2E/DX2 analytically  !
 ! D158  D(42,35,47,49)         51.6885         calculate D2E/DX2 analytically  !
 ! D159  D(42,35,47,50)        -69.9797         calculate D2E/DX2 analytically  !
 ! D160  D(32,36,46,71)        116.4177         calculate D2E/DX2 analytically  !
 ! D161  D(35,36,46,71)       -122.8305         calculate D2E/DX2 analytically  !
 ! D162  D(41,36,46,71)         -3.9878         calculate D2E/DX2 analytically  !
 ! D163  D(19,37,52,51)        160.6341         calculate D2E/DX2 analytically  !
 ! D164  D(19,37,52,83)         13.1172         calculate D2E/DX2 analytically  !
 ! D165  D(34,37,52,51)         29.0346         calculate D2E/DX2 analytically  !
 ! D166  D(34,37,52,83)       -118.4824         calculate D2E/DX2 analytically  !
 ! D167  D(33,44,63,64)        -41.4892         calculate D2E/DX2 analytically  !
 ! D168  D(33,44,63,65)         80.3896         calculate D2E/DX2 analytically  !
 ! D169  D(33,44,63,66)       -160.0172         calculate D2E/DX2 analytically  !
 ! D170  D(32,45,67,68)        -59.233          calculate D2E/DX2 analytically  !
 ! D171  D(32,45,67,69)         62.8602         calculate D2E/DX2 analytically  !
 ! D172  D(32,45,67,70)       -178.5317         calculate D2E/DX2 analytically  !
 ! D173  D(36,46,71,72)        -62.4086         calculate D2E/DX2 analytically  !
 ! D174  D(36,46,71,73)         59.5555         calculate D2E/DX2 analytically  !
 ! D175  D(36,46,71,74)        178.5444         calculate D2E/DX2 analytically  !
 ! D176  D(35,47,50,75)        178.3954         calculate D2E/DX2 analytically  !
 ! D177  D(48,47,50,75)        -62.4366         calculate D2E/DX2 analytically  !
 ! D178  D(49,47,50,75)         58.1642         calculate D2E/DX2 analytically  !
 ! D179  D(47,50,75,76)        179.8057         calculate D2E/DX2 analytically  !
 ! D180  D(47,50,75,77)        -60.9702         calculate D2E/DX2 analytically  !
 ! D181  D(47,50,75,78)         60.4865         calculate D2E/DX2 analytically  !
 ! D182  D(43,51,52,37)       -148.2114         calculate D2E/DX2 analytically  !
 ! D183  D(43,51,52,83)        -98.9777         calculate D2E/DX2 analytically  !
 ! D184  D(53,51,52,37)        -16.6352         calculate D2E/DX2 analytically  !
 ! D185  D(53,51,52,83)         32.5986         calculate D2E/DX2 analytically  !
 ! D186  D(54,51,52,37)         95.6854         calculate D2E/DX2 analytically  !
 ! D187  D(54,51,52,83)        144.9192         calculate D2E/DX2 analytically  !
 ! D188  D(43,51,53,34)        145.2147         calculate D2E/DX2 analytically  !
 ! D189  D(52,51,53,34)         13.3632         calculate D2E/DX2 analytically  !
 ! D190  D(54,51,53,34)        -98.835          calculate D2E/DX2 analytically  !
 ! D191  D(43,51,54,55)        -34.7781         calculate D2E/DX2 analytically  !
 ! D192  D(43,51,54,56)        148.7277         calculate D2E/DX2 analytically  !
 ! D193  D(52,51,54,55)         86.6153         calculate D2E/DX2 analytically  !
 ! D194  D(52,51,54,56)        -89.8789         calculate D2E/DX2 analytically  !
 ! D195  D(53,51,54,55)       -155.6414         calculate D2E/DX2 analytically  !
 ! D196  D(53,51,54,56)         27.8644         calculate D2E/DX2 analytically  !
 ! D197  D(37,52,83,19)        -11.2397         calculate D2E/DX2 analytically  !
 ! D198  D(37,52,83,84)        147.1878         calculate D2E/DX2 analytically  !
 ! D199  D(51,52,83,19)        -69.2142         calculate D2E/DX2 analytically  !
 ! D200  D(51,52,83,84)         89.2133         calculate D2E/DX2 analytically  !
 ! D201  D(51,54,55,57)       -175.7            calculate D2E/DX2 analytically  !
 ! D202  D(51,54,55,58)          4.8067         calculate D2E/DX2 analytically  !
 ! D203  D(56,54,55,57)          0.7485         calculate D2E/DX2 analytically  !
 ! D204  D(56,54,55,58)       -178.7449         calculate D2E/DX2 analytically  !
 ! D205  D(51,54,56,59)        176.0141         calculate D2E/DX2 analytically  !
 ! D206  D(51,54,56,60)         -3.8334         calculate D2E/DX2 analytically  !
 ! D207  D(55,54,56,59)         -0.4271         calculate D2E/DX2 analytically  !
 ! D208  D(55,54,56,60)        179.7255         calculate D2E/DX2 analytically  !
 ! D209  D(54,55,57,61)         -0.5289         calculate D2E/DX2 analytically  !
 ! D210  D(54,55,57,93)        176.2588         calculate D2E/DX2 analytically  !
 ! D211  D(58,55,57,61)        178.9605         calculate D2E/DX2 analytically  !
 ! D212  D(58,55,57,93)         -4.2518         calculate D2E/DX2 analytically  !
 ! D213  D(54,56,59,61)         -0.1217         calculate D2E/DX2 analytically  !
 ! D214  D(54,56,59,97)        177.271          calculate D2E/DX2 analytically  !
 ! D215  D(60,56,59,61)        179.7252         calculate D2E/DX2 analytically  !
 ! D216  D(60,56,59,97)         -2.8821         calculate D2E/DX2 analytically  !
 ! D217  D(55,57,61,59)         -0.0064         calculate D2E/DX2 analytically  !
 ! D218  D(55,57,61,62)       -179.933          calculate D2E/DX2 analytically  !
 ! D219  D(93,57,61,59)       -176.7826         calculate D2E/DX2 analytically  !
 ! D220  D(93,57,61,62)          3.2908         calculate D2E/DX2 analytically  !
 ! D221  D(55,57,93,94)        -85.1058         calculate D2E/DX2 analytically  !
 ! D222  D(55,57,93,95)        155.3236         calculate D2E/DX2 analytically  !
 ! D223  D(55,57,93,96)         34.3082         calculate D2E/DX2 analytically  !
 ! D224  D(61,57,93,94)         91.7101         calculate D2E/DX2 analytically  !
 ! D225  D(61,57,93,95)        -27.8605         calculate D2E/DX2 analytically  !
 ! D226  D(61,57,93,96)       -148.8759         calculate D2E/DX2 analytically  !
 ! D227  D(56,59,61,57)          0.3352         calculate D2E/DX2 analytically  !
 ! D228  D(56,59,61,62)       -179.7383         calculate D2E/DX2 analytically  !
 ! D229  D(97,59,61,57)       -177.0765         calculate D2E/DX2 analytically  !
 ! D230  D(97,59,61,62)          2.85           calculate D2E/DX2 analytically  !
 ! D231  D(56,59,97,98)         22.3001         calculate D2E/DX2 analytically  !
 ! D232  D(56,59,97,99)        -97.5184         calculate D2E/DX2 analytically  !
 ! D233  D(56,59,97,100)       143.1337         calculate D2E/DX2 analytically  !
 ! D234  D(61,59,97,98)       -160.2736         calculate D2E/DX2 analytically  !
 ! D235  D(61,59,97,99)         79.908          calculate D2E/DX2 analytically  !
 ! D236  D(61,59,97,100)       -39.4399         calculate D2E/DX2 analytically  !
 ! D237  D(19,83,84,85)       -171.8734         calculate D2E/DX2 analytically  !
 ! D238  D(19,83,84,89)         -2.2919         calculate D2E/DX2 analytically  !
 ! D239  D(52,83,84,85)         29.1307         calculate D2E/DX2 analytically  !
 ! D240  D(52,83,84,89)       -161.2878         calculate D2E/DX2 analytically  !
 ! D241  D(83,84,85,86)       -129.9462         calculate D2E/DX2 analytically  !
 ! D242  D(83,84,85,87)        -10.6005         calculate D2E/DX2 analytically  !
 ! D243  D(83,84,85,88)        108.864          calculate D2E/DX2 analytically  !
 ! D244  D(89,84,85,86)         60.5484         calculate D2E/DX2 analytically  !
 ! D245  D(89,84,85,87)        179.8941         calculate D2E/DX2 analytically  !
 ! D246  D(89,84,85,88)        -60.6415         calculate D2E/DX2 analytically  !
 ! D247  D(83,84,89,90)       -111.4881         calculate D2E/DX2 analytically  !
 ! D248  D(83,84,89,91)          8.0325         calculate D2E/DX2 analytically  !
 ! D249  D(83,84,89,92)        127.5356         calculate D2E/DX2 analytically  !
 ! D250  D(85,84,89,90)         60.4833         calculate D2E/DX2 analytically  !
 ! D251  D(85,84,89,91)       -179.9961         calculate D2E/DX2 analytically  !
 ! D252  D(85,84,89,92)        -60.4931         calculate D2E/DX2 analytically  !
 ! D253  D(84,89,91,18)        -88.1051         calculate D2E/DX2 analytically  !
 ! D254  D(90,89,91,18)         32.0369         calculate D2E/DX2 analytically  !
 ! D255  D(92,89,91,18)        151.8694         calculate D2E/DX2 analytically  !
 --------------------------------------------------------------------------------
 Trust Radius=5.00D-02 FncErr=1.00D-07 GrdErr=1.00D-06 EigMax=2.50D+02 EigMin=1.00D-04
 Number of steps in this run=    566 maximum allowed number of steps=    600.
 Search for a saddle point of order  1.
 GradGradGradGradGradGradGradGradGradGradGradGradGradGradGradGradGradGrad

 Leave Link  103 at Wed Jun  5 11:01:39 2019, MaxMem=  6442450944 cpu:               4.4 elap:               0.2
 (Enter /home/ekwan/sw/g16/l202.exe)
 Stoichiometry    C30H47F6NaO15S
 Framework group  C1[X(C30H47F6NaO15S)]
 Deg. of freedom   294
 Full point group                 C1      NOp   1
 Largest Abelian subgroup         C1      NOp   1
 Largest concise Abelian subgroup C1      NOp   1
                         Standard orientation:                         
 ---------------------------------------------------------------------
 Center     Atomic      Atomic             Coordinates (Angstroms)
 Number     Number       Type             X           Y           Z
 ---------------------------------------------------------------------
      1          6           0       -2.023501    1.582921    2.252882
      2          6           0       -2.359186    2.363553    0.972967
      3          6           0       -1.535308    3.663030    0.924008
      4          6           0        0.281757    2.688190    2.188409
      5          6           0       -0.504165    1.375837    2.378503
      6          1           0       -1.673828    4.166437   -0.045420
      7          1           0       -2.056408    1.766291    0.099941
      8          1           0       -2.373280    2.167682    3.114925
      9          1           0        0.071367    3.336485    3.052293
     10          1           0       -0.192858    0.657558    1.607259
     11          8           0       -0.149611    3.360772    0.981665
     12          8           0       -1.948322    4.497120    1.966728
     13          8           0       -3.736707    2.688732    0.894620
     14          8           0       -2.684194    0.319724    2.220184
     15          8           0       -0.211103    0.863936    3.676715
     16          6           0        1.813987    2.487697    2.066032
     17          1           0        2.111745    1.959909    3.000074
     18          1           0        2.248914    3.512289    2.163673
     19          8           0        2.227677    1.862619    0.916591
     20          6           0       -4.490047    1.833681    0.048299
     21          1           0       -4.123840    1.868899   -0.989911
     22          1           0       -4.466612    0.793936    0.396406
     23          1           0       -5.521342    2.200596    0.068976
     24          6           0       -3.416290    0.009714    3.394694
     25          1           0       -2.773090    0.015265    4.285310
     26          1           0       -4.246567    0.715855    3.549481
     27          1           0       -3.822972   -0.995580    3.250879
     28          6           0        0.309010   -0.455582    3.691915
     29          1           0       -0.385037   -1.166530    3.222487
     30          1           0        1.282669   -0.519463    3.184828
     31          1           0        0.440257   -0.727590    4.744949
     32          6           0        4.096676   -1.337990   -1.252312
     33          6           0        3.337473   -0.054255   -0.864980
     34          6           0        2.023234   -0.373521   -0.201159
     35          6           0        2.686292   -2.606982    0.430420
     36          6           0        4.114745   -2.269487   -0.024914
     37          1           0        1.246933    0.367411   -0.134831
     38          1           0        3.893560    0.463215   -0.062272
     39          1           0        3.576157   -1.824851   -2.088406
     40          1           0        2.193948   -3.208792   -0.341942
     41          1           0        4.645224   -1.761828    0.791066
     42          8           0        1.850955   -1.402283    0.550434
     43          8           0       -0.363903   -0.260339   -3.923457
     44          8           0        3.088304    0.852957   -1.912592
     45          8           0        5.423134   -0.998303   -1.608299
     46          8           0        4.740260   -3.498902   -0.342189
     47          6           0        2.589108   -3.332352    1.761989
     48          1           0        3.032450   -4.333257    1.635836
     49          1           0        1.525086   -3.462111    2.021357
     50          8           0        3.267484   -2.586702    2.745985
     51         16           0       -0.194556   -0.305238   -2.463613
     52          8           0       -0.227435    1.029866   -1.797513
     53          8           0        0.976003   -1.133255   -2.012383
     54          6           0       -1.640680   -1.169401   -1.799107
     55          6           0       -2.881443   -1.002732   -2.415417
     56          6           0       -1.514477   -1.932857   -0.636666
     57          6           0       -4.011692   -1.599364   -1.845382
     58          1           0       -2.960482   -0.423108   -3.330114
     59          6           0       -2.649945   -2.528124   -0.082636
     60          1           0       -0.543521   -2.057969   -0.170317
     61          6           0       -3.903499   -2.362818   -0.679861
     62          1           0       -4.784322   -2.823399   -0.244131
     63          6           0        4.201665    1.667970   -2.288333
     64          1           0        4.747517    2.020450   -1.403088
     65          1           0        4.890483    1.125384   -2.942979
     66          1           0        3.784170    2.527898   -2.818857
     67          6           0        5.916580   -1.680770   -2.756128
     68          1           0        5.903045   -2.768127   -2.613983
     69          1           0        5.330979   -1.425829   -3.651969
     70          1           0        6.947941   -1.344427   -2.896273
     71          6           0        5.938201   -3.751403    0.386090
     72          1           0        6.702901   -2.995092    0.165414
     73          1           0        5.749744   -3.770449    1.468887
     74          1           0        6.295242   -4.733528    0.064039
     75          6           0        3.189684   -3.184333    4.028968
     76          1           0        3.743924   -2.538912    4.715359
     77          1           0        2.145865   -3.264624    4.369959
     78          1           0        3.640201   -4.189055    4.030903
     79          6           0       -1.407365    5.810272    1.898373
     80          1           0       -1.862637    6.380574    2.712341
     81          1           0       -0.316668    5.805534    2.022282
     82          1           0       -1.656561    6.287522    0.938095
     83         11           0        1.216936    2.672352   -0.945289
     84          8           0        2.441616    4.607422   -1.451591
     85          6           0        2.286560    5.670601   -2.376657
     86          1           0        3.215362    5.839323   -2.942220
     87          1           0        1.488965    5.386851   -3.068953
     88          1           0        2.008749    6.603856   -1.863927
     89          6           0        3.460843    4.855737   -0.490167
     90          1           0        3.231436    5.755685    0.099984
     91          1           0        3.492114    3.979441    0.164485
     92          1           0        4.435998    4.991066   -0.982398
     93          6           0       -5.370955   -1.353295   -2.458827
     94          9           0       -5.920844   -0.209753   -1.990195
     95          9           0       -6.236052   -2.346049   -2.181016
     96          9           0       -5.301207   -1.233116   -3.797043
     97          6           0       -2.523002   -3.407920    1.139250
     98          9           0       -1.400431   -3.145845    1.840547
     99          9           0       -2.480247   -4.714177    0.805922
    100          9           0       -3.569568   -3.255056    1.975760
 ---------------------------------------------------------------------
 Rotational constants (GHZ):           0.0552973           0.0420355           0.0354489
 Leave Link  202 at Wed Jun  5 11:01:39 2019, MaxMem=  6442450944 cpu:               5.5 elap:               0.2
 (Enter /home/ekwan/sw/g16/l301.exe)
 Standard basis: 6-31G(d) (6D, 7F)
 Ernie: Thresh=  0.10000D-02 Tol=  0.10000D-05 Strict=F.
 There are   897 symmetry adapted cartesian basis functions of A   symmetry.
 There are   897 symmetry adapted basis functions of A   symmetry.
   897 basis functions,  1720 primitive gaussians,   897 cartesian basis functions
   214 alpha electrons      214 beta electrons
       nuclear repulsion energy      9555.4474446371 Hartrees.
 IExCor= 1412 DFT=T Ex+Corr=B98 ExCW=0 ScaHFX=  0.219800
 ScaDFX=  1.000000  1.000000  1.000000  1.000000 ScalE2=  1.000000  1.000000
 IRadAn=      5 IRanWt=     -1 IRanGd=            0 ICorTp=0 IEmpDi=  4
 NAtoms=  100 NActive=  100 NUniq=  100 SFac= 1.00D+00 NAtFMM=   60 NAOKFM=T Big=T
 Integral buffers will be    131072 words long.
 Raffenetti 2 integral format.
 Two-electron integral symmetry is turned on.
 Force inversion solution in PCM.
 ------------------------------------------------------------------------------
 Polarizable Continuum Model (PCM)
 =================================
 Model                : PCM.
 Atomic radii         : UFF (Universal Force Field).
 Polarization charges : Total charges.
 Charge compensation  : None.
 Solution method      : Matrix inversion.
 Cavity type          : Scaled VdW (van der Waals Surface) (Alpha=1.100).
 Cavity algorithm     : GePol (No added spheres)
                        Default sphere list used, NSphG=  100.
                        Lebedev-Laikov grids with approx.  5.0 points / Ang**2.
                        Smoothing algorithm: York/Karplus (Gamma=1.0000).
                        Polarization charges: spherical gaussians, with
                                              point-specific exponents (IZeta= 3).
                        Self-potential: point-specific (ISelfS= 7).
                        Self-field    : sphere-specific E.n sum rule (ISelfD= 2).
 1st derivatives      : Analytical E(r).r(x)/FMM algorithm (CHGder, D1EAlg=3).
                        Cavity 1st derivative terms included.
 2nd derivatives      : Analytical E(r).r(xy)/FMM algorithm (CHGder, D2EAlg=3).
                        Cavity 2nd derivative terms included.
 Solvent              : TetraHydroFuran, Eps=   7.425700 Eps(inf)=   1.974025
 ------------------------------------------------------------------------------
 GePol: Number of generator spheres                  =     100
 GePol: Total number of spheres                      =     100
 GePol: Number of exposed spheres                    =     100 (100.00%)
 GePol: Number of points                             =    6490
 GePol: Average weight of points                     =       0.12
 GePol: Minimum weight of points                     =   0.42D-10
 GePol: Maximum weight of points                     =    0.21593
 GePol: Number of points with low weight             =     514
 GePol: Fraction of low-weight points (<1% of avg)   =       7.92%
 GePol: Cavity surface area                          =    797.028 Ang**2
 GePol: Cavity volume                                =    994.409 Ang**3
 Leave Link  301 at Wed Jun  5 11:01:39 2019, MaxMem=  6442450944 cpu:               6.5 elap:               0.3
 (Enter /home/ekwan/sw/g16/l302.exe)
[...]
 0.00000485,-0.00004418,-0.00010466,0.00003659,-0.00000744,0.00007768,-
 0.00012551,0.00006757,-0.00007171,0.00010804,-0.00006473,0.00346192,0.
 00139387,-0.00120259,-0.00081296,-0.00113001,-0.00002797,-0.00162357,0
 .00009343,-0.00010282,-0.00050539,0.00088553,0.00225216,0.00013963,-0.
 00084062,0.00047817,0.00375987,-0.00102369,0.00093300,0.00000158,0.000
 68319,0.00217173,0.00009991,-0.00018404,-0.00014486,0.00164698,-0.0438
 6315,0.00049498,0.00028169,-0.00072445,-0.00088041,-0.00335784,-0.0009
 1633,0.00013902,0.00045356,-0.00082402,-0.00081137,0.00009901,0.000074
 69,-0.00004677,-0.00001828,-0.00000887,-0.00000579,-0.00002489,-0.0000
 0430,0.00001455,0.00000345,-0.00000581,0.00000649,0.00002976,-0.000053
 85,-0.00006581,-0.00000474,0.00001610,0.00000325,0.00000054,0.00000054
 ,0.00000660,-0.00000884,0.00000403,0.00000974,0.00005043,-0.00002086,0
 .00003795,-0.00000335,0.00000385,-0.00000606,-0.00000230,-0.00000747,-
 0.00000861,-0.00002056,0.00001246,0.00000186,0.00004624,-0.00007048,0.
 00006912,0.00000151,0.00000685,-0.00000592,-0.00000479,-0.00000865,0.0
 0000167,-0.00003078,0.00002801,-0.00000290,0.00003722,0.00011208,-0.00
 001030,0.00000136,-0.00001991,-0.00000957,-0.00001475,-0.00000998,0.00
 000412,-0.00000503,-0.00001437,0.00001235,0.00015040,0.00018486,0.0000
 2368,-0.00004686,-0.00004183,-0.00000692,0.00000644,0.00002872,-0.0000
 2060,-0.00000999,-0.00000398,0.00000512,0.00000371,0.00000583,-0.00000
 529,0.00000110,-0.00000612,-0.00000126,0.00002784,0.00001107,0.0000141
 8,-0.00000047,-0.00000619,-0.00000260,0.00001723,0.00001187,-0.0000029
 1,-0.00001030,-0.00000661,0.00000695,-0.00280214,0.00015283,-0.0009692
 9,0.00080377,-0.00048018,0.00008633,0.00088360,0.00033179,0.00017842,0
 .00069521,-0.00015358,0.00089683,0.00888880,-0.26037156,-0.02306756,-0
 .03252141,-0.03336653,-0.03099677,-0.00940346,0.36718292,0.00010183,0.
 00017645,-0.00001949,-0.00004270,-0.00001394,-0.00011172,-0.00000253,-
 0.00000089,-0.00000516,-0.00001462,0.00006344,-0.00004455,-0.00002102,
 0.00005220,-0.00015258,-0.00000209,-0.00002049,0.00000898,-0.00000008,
 -0.00000339,0.00000984,-0.00001144,-0.00001835,0.00000630,-0.00000692,
 -0.00000253,0.00000868,0.00000137,0.00001820,-0.00000490,0.00001379,-0
 .00003610,0.00006994,0.00000210,-0.00000340,0.00002512,0.00006684,0.00
 004261,0.00011475,-0.00008763,-0.00033138,0.00010799,0.00000249,-0.000
 32003,0.00009138,0.00006351,-0.00001871,-0.00010497,0.00000779,-0.0000
 0311,0.00003160,-0.00001785,0.00001107,0.00002534,-0.00003776,0.000058
 33,0.00012946,-0.00002624,-0.00006278,-0.00009622,-0.00000903,-0.00004
 211,0.00004521,0.00001951,-0.00000438,-0.00005407,-0.00000500,0.000016
 63,0.00001003,0.00023933,0.00034735,-0.00010620,-0.00002672,-0.0000417
 1,0.00001585,-0.00001479,-0.00011456,-0.00000424,-0.00024426,0.0000868
 1,0.00023064,0.00022263,0.00040067,0.00012094,-0.00005728,0.00001054,0
 .00007277,-0.00005494,-0.00004383,-0.00002434,-0.00002738,-0.00003461,
 -0.00003104,-0.00003961,0.00000634,-0.00002171,-0.00000048,0.00000965,
 0.00000198,-0.00021119,-0.00006995,-0.00040129,-0.00007268,0.00004505,
 -0.00009244,0.00000756,-0.00000669,0.00000335,0.00000675,-0.00001161,-
 0.00001308,0.00001261,-0.00000094,-0.00000886,-0.00000919,0.00000867,0
 .00001385,0.00000110,0.00000431,0.00000450,0.00000996,0.00000312,-0.00
 000016,0.00006457,-0.00009648,0.00018927,0.00035970,0.00022927,-0.0003
 4684,0.00004542,0.00000886,0.00001856,0.00002057,-0.00000292,0.0000193
 0,0.00002167,-0.00001600,0.00002555,0.00018159,0.00004297,-0.00007472,
 -0.00003356,0.00000531,0.00001626,0.00002213,-0.00004675,0.00004815,-0
 .00008162,-0.00001907,0.00004694,-0.00137585,-0.00070388,0.00027923,0.
 00031170,0.00049817,0.00009386,0.00069859,0.00003478,0.00016332,-0.000
 07138,-0.00074259,-0.00106956,0.00010226,0.00051423,-0.00044298,-0.001
 80857,0.00028082,0.00024570,0.00041267,-0.00062090,-0.00051043,-0.0000
 2446,0.00005518,0.00008839,-0.00084503,0.02404158,0.00767779,0.0001147
 8,0.00044984,0.00012944,0.00120710,0.00052908,0.00023521,-0.00017772,0
 .00021593,0.00005740,-0.00002432,-0.00002356,0.00000992,0.00000798,0.0
 0000449,0.00000433,0.00000360,0.00000163,-0.00000277,-0.00000212,-0.00
 000140,-0.00000210,-0.00000655,-0.00000108,-0.00000689,-0.00000172,0.0
 0000006,-0.00000297,0.00000108,-0.00000307,0.00000474,0.00000367,0.000
 00144,-0.00000006,-0.00001435,0.00000321,-0.00002100,0.00000152,0.0000
 0056,0.00000163,0.00000425,-0.00000076,0.00000783,0.00000049,0.0000007
 0,0.00000054,0.00007159,0.00000396,-0.00003265,-0.00000900,-0.00000442
 ,0.00000226,-0.00002832,0.00000546,0.00001288,-0.00001047,0.00000524,0
 .00000380,-0.00000017,0.00001002,-0.00000487,-0.00000091,0.00000166,0.
 00000066,0.00000040,-0.00000007,-0.00000125,0.00000133,-0.00000314,0.0
 0000422,-0.00004489,-0.00006846,-0.00006237,0.00001560,0.00001041,0.00
 001860,-0.00000304,-0.00000470,-0.00000360,0.00000083,-0.00000040,-0.0
 0000024,0.00000145,-0.00000269,0.00000248,-0.00000029,0.00000249,0.000
 00205,-0.00001170,-0.00000313,-0.00001427,0.00000089,0.00000451,0.0000
 0201,-0.00000124,-0.00000322,-0.00000045,0.00000217,0.00000094,0.00000
 082,0.00111404,-0.00029293,0.00031879,-0.00032356,0.00024803,-0.000005
 28,-0.00034174,-0.00005858,-0.00005420,-0.00026939,0.00009405,-0.00026
 268,0.00035761,-0.02216441,-0.07675373,-0.02006550,-0.04031038,-0.0085
 1400,-0.00336759,0.08201023,0.09274509,-0.00024261,-0.00032100,0.00001
 163,-0.00001709,0.00007171,0.00008155,-0.00013451,0.00003555,-0.000007
 58,0.00005571,-0.00000236,-0.00002365,-0.00011392,0.00021089,-0.000038
 02,0.00001656,0.00001833,-0.00000307,-0.00000823,0.00000154,-0.0000210
 2,0.00002363,0.00000581,-0.00001028,0.00000132,-0.00002141,-0.00000819
 ,0.00003555,-0.00002344,-0.00004128,0.00008348,-0.00005719,0.00001441,
 0.00004280,-0.00001806,-0.00003363,0.00010939,0.00001846,-0.00005618,0
 .00053469,0.00045094,-0.00025291,0.00015902,-0.00042124,-0.00001660,-0
 .00009276,0.00006385,0.00014787,0.00001580,0.00000414,-0.00002474,0.00
 001654,-0.00005612,-0.00003907,0.00003340,-0.00017565,-0.00016020,-0.0
 0003682,-0.00009528,0.00006402,0.00001878,0.00006175,-0.00005443,-0.00
 003139,0.00002359,0.00005078,0.00001327,-0.00001276,-0.00000146,-0.000
 83317,-0.00102296,0.00049400,0.00010342,0.00023694,0.00006139,0.000084
 63,0.00023788,0.00000415,0.00052540,-0.00024365,-0.00074967,0.00020876
 ,0.00053968,0.00016674,-0.00010863,0.00006289,0.00015609,0.00000396,-0
 .00001471,-0.00001995,-0.00005784,-0.00006396,-0.00007422,0.00006407,0
 .00001860,-0.00004871,-0.00001866,0.00004504,-0.00002712,0.00025746,0.
 00051362,0.00002516,0.00007402,0.00000048,-0.00003265,0.00011761,-0.00
 005639,-0.00000473,-0.00002222,0.00003367,-0.00000568,-0.00000257,0.00
 000326,0.00002141,0.00000738,-0.00000733,-0.00000907,0.00002877,-0.000
 00971,-0.00005258,-0.00001919,-0.00000070,-0.00000036,-0.00020792,-0.0
 0025516,0.00016089,-0.00026217,-0.00020693,0.00050100,-0.00008529,-0.0
 0009354,0.00005194,-0.00011880,-0.00001619,0.00007282,-0.00013206,0.00
 004471,-0.00000498,0.00055345,0.00019491,0.00003218,-0.00008995,-0.000
 00258,0.00001621,0.00007665,-0.00014272,0.00021797,-0.00025965,-0.0000
 8502,-0.00024880,0.00114213,0.00078141,-0.00046951,-0.00025194,-0.0005
 9005,-0.00009001,-0.00050290,-0.00015841,0.00006066,-0.00035630,-0.000
 57678,-0.00028629,0.00033727,0.00006631,0.00016839,0.00154506,-0.00062
 017,0.00209747,0.00096746,-0.00104444,0.00059167,0.00013352,0.00012683
 ,0.00003699,-0.00784022,0.00114348,0.01489356,0.00052117,0.00063067,-0
 .00037799,-0.00279991,-0.00048325,-0.00236226,0.00177008,0.00082910,0.
 00053956,0.00007256,0.00006333,-0.00002217,-0.00001290,-0.00000407,-0.
 00000669,-0.00001408,-0.00000199,0.00000565,-0.00000060,-0.00000840,0.
 00000802,0.00002685,-0.00002614,-0.00005136,0.00000530,0.00000459,0.00
 000492,0.00000204,0.00000488,0.00000695,-0.00001318,-0.00000058,0.0000
 0751,0.00009258,-0.00001682,0.00004583,-0.00001721,-0.00000827,-0.0000
 0158,0.00000355,-0.00000153,-0.00000548,-0.00000741,0.00000802,-0.0000
 0241,0.00006085,-0.00008108,0.00014449,-0.00002308,-0.00000800,-0.0000
 2515,-0.00001066,0.00003019,0.00000597,-0.00000728,0.00002717,-0.00000
 944,-0.00000888,0.00000074,0.00000131,0.00000127,-0.00000328,-0.000002
 56,0.00000447,0.00000229,0.00000223,-0.00000098,0.00000123,-0.00000042
 ,0.00002410,0.00012380,0.00002137,-0.00000795,-0.00002898,-0.00000395,
 -0.00000293,0.00001915,-0.00000992,-0.00000139,-0.00000175,0.00000203,
 0.00000016,0.00000333,0.00000037,0.00000023,-0.00000666,-0.00000206,0.
 00000521,0.00001005,0.00000517,0.00000054,-0.00000716,-0.00000118,0.00
 000846,0.00000920,-0.00000015,-0.00000164,-0.00000226,0.00000176,-0.00
 114183,-0.00001265,0.00006747,0.00036232,-0.00022643,-0.00006203,0.000
 36971,0.00015272,-0.00005088,0.00025238,-0.00004979,0.00014546,-0.1705
 9941,0.00468933,0.09705327,-0.08087356,-0.00413545,0.01365433,-0.00974
 217,0.03024880,0.02405804,0.26615904,0.00019079,0.00029717,-0.00001598
 ,-0.00006264,0.00001409,0.00000240,0.00005600,0.00009944,0.00004201,-0
 .00001752,0.00006140,-0.00000028,0.00004003,-0.00003079,0.00007982,-0.
 00000942,-0.00002510,0.00000344,0.00000934,0.00000663,-0.00000522,-0.0
 0002292,-0.00003537,-0.00000338,-0.00000134,-0.00001362,-0.00000729,0.
 00001483,-0.00000893,-0.00001440,-0.00003500,-0.00004012,-0.00001414,-
 0.00001739,-0.00010508,-0.00002696,-0.00000256,-0.00009315,-0.00001066
 ,-0.00012384,-0.00040689,-0.00015060,-0.00009685,0.00004435,-0.0000597
 3,0.00002006,-0.00001801,0.00003730,0.00000015,0.00000548,-0.00001542,
 -0.00001852,-0.00002535,-0.00000839,-0.00004877,-0.00003279,-0.0000349
 8,0.00000161,0.00010936,0.00000047,-0.00000043,0.00001439,-0.00000047,
 -0.00002910,-0.00001734,0.00003632,0.00002024,-0.00002837,-0.00000081,
 0.00067737,0.00064712,-0.00016242,-0.00010021,-0.00022025,-0.00007145,
 -0.00012121,-0.00033489,-0.00008371,-0.00048592,-0.00208333,-0.0005531
 4,0.00005507,-0.00004661,0.00003352,0.00001210,-0.00003356,-0.00000780
 ,-0.00001468,-0.00000084,0.00000207,-0.00000896,0.00000017,-0.00002210
 ,0.00003705,-0.00002172,-0.00000584,0.00000301,-0.00000367,-0.00001935
 ,0.00017662,0.00005350,0.00024208,0.00007832,-0.00014013,0.00002230,0.
 00001957,-0.00001058,0.00000374,0.00000530,0.00001024,-0.00000527,-0.0
 0000664,-0.00000265,0.00001019,0.00000628,-0.00000686,-0.00000598,-0.0
 0000293,-0.00000528,0.00001006,-0.00000016,0.00000146,0.00000056,-0.00
 010568,0.00012002,-0.00009520,-0.00028725,-0.00010880,0.00039984,-0.00
 005688,-0.00001028,0.00000938,-0.00003736,0.00001802,0.00001472,-0.000
 03271,0.00004353,-0.00000455,-0.00001428,-0.00002289,-0.00000500,-0.00
 001734,0.00001053,-0.00000719,0.00002359,-0.00001835,0.00001363,0.0000
 1194,0.00004534,-0.00001571,0.00141206,0.00033765,-0.00046351,-0.00038
 539,-0.00044954,-0.00003439,-0.00059379,0.00004500,-0.00006718,0.00009
 901,-0.00140008,0.00033055,-0.00057036,-0.00031483,0.00039228,0.001526
 87,0.00058128,0.00149558,-0.00008257,-0.00005546,-0.00034221,-0.000008
 42,0.00005013,0.00002285,-0.01363491,0.00787256,0.01579853,-0.00004187
 ,0.00043336,0.00006005,-0.00020132,-0.00037150,0.00090833,-0.00010736,
 -0.00031682,0.00054330,0.00003259,0.00002487,-0.00001635,-0.00000643,-
 0.00000351,-0.00000215,-0.00000810,-0.00000149,0.00000510,0.00000182,-
 0.00000127,0.00000181,0.00000922,-0.00001558,-0.00001714,-0.00000152,0
 .00000495,0.00000137,-0.00000013,0.00000042,0.00000084,-0.00000274,0.0
 0000102,0.00000271,0.00001308,-0.00000629,0.00001350,-0.00000021,0.000
 00159,-0.00000223,-0.00000194,-0.00000213,-0.00000399,-0.00000607,0.00
 000336,0.00000062,-0.00000771,-0.00001904,0.00002218,0.00000494,0.0000
 0355,-0.00000059,0.00000644,-0.00000632,-0.00000311,-0.00000643,0.0000
 0631,-0.00000111,0.00001969,0.00005426,-0.00000382,0.00000034,-0.00000
 951,-0.00000447,-0.00000797,-0.00000560,0.00000171,-0.00000275,-0.0000
 0769,0.00000583,0.00006588,0.00006736,0.00000731,-0.00001933,-0.000014
 55,-0.00000399,0.00000290,0.00001003,-0.00000698,-0.00000384,-0.000001
 28,0.00000197,0.00000131,0.00000234,-0.00000227,0.00000052,-0.00000195
 ,-0.00000051,0.00001166,0.00000371,0.00000674,-0.00000023,-0.00000206,
 -0.00000115,0.00000612,0.00000384,-0.00000113,-0.00000416,-0.00000244,
 0.00000259,-0.00090647,0.00006047,-0.00043833,0.00026607,-0.00013750,0
 .00004797,0.00029887,0.00009952,0.00007091,0.00018852,-0.00003630,0.00
 025608,0.00532404,-0.07322465,-0.00199463,-0.00491460,0.01171513,0.002
 30979,0.04289833,-0.02655126,-0.04427605,-0.03034443,0.08392525,0.0002
 8213,0.00045522,-0.00000929,-0.00006623,-0.00007120,-0.00020185,0.0000
 9318,-0.00004034,0.00000122,-0.00006419,0.00007614,-0.00004225,0.00005
 872,-0.00010276,-0.00014524,-0.00001497,-0.00003825,0.00001289,0.00000
 892,-0.00000734,0.00003030,-0.00002889,-0.00001627,0.00001959,-0.00000
 932,0.00001326,0.00001792,-0.00002467,0.00004017,0.00002395,-0.0000362
 7,0.00000530,0.00007765,-0.00002496,0.00002020,0.00005818,0.00003252,0
 .00006384,0.00018912,-0.00050529,-0.00065114,0.00036915,-0.00011580,-0
 .00002726,0.00013420,0.00014335,-0.00007063,-0.00024001,-0.00000292,-0
 .00000758,0.00005884,-0.00003261,0.00005815,0.00006049,-0.00005938,0.0
 0020299,0.00028320,-0.00002258,-0.00005532,-0.00015409,-0.00002088,-0.
 00008434,0.00008426,0.00003510,-0.00001475,-0.00010780,-0.00001386,0.0
 0002942,0.00001342,0.00128704,0.00121822,-0.00046944,-0.00012638,-0.00
 021879,-0.00000624,-0.00015236,-0.00044237,-0.00002536,-0.00094056,-0.
 00064164,0.00022222,0.00003560,0.00000071,-0.00000446,0.00005086,-0.00
 004018,-0.00007639,-0.00005649,-0.00003507,-0.00000813,0.00002692,0.00
 001831,0.00003354,-0.00010052,0.00000738,0.00001055,0.00001034,-0.0000
 1168,0.00002811,-0.00049434,-0.00043716,-0.00061720,-0.00016404,0.0001
 2694,-0.00009200,-0.00007189,0.00002991,0.00000237,0.00001956,-0.00003
 962,-0.00001641,0.00002082,-0.00000317,-0.00002912,-0.00001817,0.00001
 862,0.00002420,-0.00001554,0.00001353,0.00003070,0.00002191,0.00000298
 ,-0.00000017,0.00025694,-0.00000912,0.00016667,0.00077925,0.00043087,-
 0.00109098,0.00013558,0.00007347,-0.00001388,0.00011336,-0.00000257,-0
 .00003159,0.00011776,-0.00006365,0.00003157,-0.00008430,-0.00004977,-0
 .00012143,0.00001668,0.00000345,0.00001454,0.00001857,0.00002210,-0.00
 002393,0.00005387,0.00001398,0.00019835,-0.00338386,-0.00138199,0.0007
 9604,0.00081179,0.00134897,0.00026914,0.00148884,0.00008103,0.00020392
 ,0.00174441,0.00202097,-0.00043564,0.00030658,0.00041992,-0.00062634,-
 0.00469991,0.00146495,-0.00600854,0.00008307,0.00050101,-0.00003797,-0
 .00004318,-0.00007459,-0.00004455,0.03780391,0.00202190,-0.02575653,-0
 .00007513,-0.00052486,0.00004720,0.00166772,0.00023786,-0.00010946,-0.
 00012055,0.00002515,-0.00159588,-0.00008800,-0.00007898,0.00003416,0.0
 0002073,0.00000964,0.00000968,0.00001730,0.00000419,-0.00000909,-0.000
 00295,0.00000455,-0.00000832,-0.00002781,0.00002251,0.00003340,-0.0000
 0395,-0.00000521,-0.00000660,-0.00000015,-0.00000612,0.00000011,0.0000
 1322,0.00000115,-0.00000610,-0.00007610,0.00001517,-0.00005532,0.00001
 210,0.00000528,0.00000327,0.00000341,0.00000046,0.00001297,0.00000746,
 -0.00000554,0.00000238,0.00004355,0.00005400,-0.00012321,0.00000413,0.
 00000013,0.00001713,-0.00002429,-0.00001161,0.00001075,-0.00000718,-0.
 00001099,0.00001035,0.00000318,0.00000491,-0.00000598,-0.00000229,0.00
 000518,0.00000280,-0.00000132,-0.00000122,-0.00000333,0.00000238,-0.00
 000400,0.00000483,-0.00009280,-0.00019514,-0.00010138,0.00002908,0.000
 03634,0.00002540,-0.00000227,-0.00002138,0.00000501,0.00000304,0.00000
 125,-0.00000223,0.00000120,-0.00000620,0.00000333,-0.00000051,0.000008
 09,0.00000374,-0.00002094,-0.00001127,-0.00002237,0.00000094,0.0000108
 3,0.00000348,-0.00000888,-0.00001124,-0.00000029,0.00000494,0.00000330
 ,-0.00000080,0.00228234,-0.00044337,0.00067681,-0.00073279,0.00052823,
 0.00000609,-0.00073740,-0.00016919,-0.00010455,-0.00049137,0.00014789,
 -0.00054879,0.08963297,0.00010707,-0.16933111,-0.00117345,0.00133401,0
 .02195582,0.02554555,-0.03307257,-0.01413860,-0.15006833,0.02584632,0.
 19627522\\0.00000110,-0.00000058,0.00000183,0.00000044,-0.00000017,0.0
 0000222,0.00000055,0.00000006,0.00000233,0.00000119,-0.00000064,0.0000
 0097,0.00000107,-0.00000066,0.00000091,0.00000007,0.00000027,0.0000025
 7,-0.00000003,0.00000025,0.00000184,0.00000150,-0.00000086,0.00000219,
 0.00000157,-0.00000101,0.00000140,0.00000063,-0.00000046,0.00000055,0.
 00000047,-0.00000016,0.00000161,0.00000121,-0.00000051,0.00000273,0.00
 000032,0.00000006,0.00000309,0.00000075,-0.00000050,0.00000176,0.00000
 170,-0.00000122,0.00000055,0.00000087,-0.00000067,0.00000031,0.0000014
 6,-0.00000114,-0.00000016,0.00000115,-0.00000080,0.00000035,0.00000035
 ,-0.00000050,-0.00000023,-0.00000002,0.00000043,0.00000310,-0.00000053
 ,0.00000080,0.00000292,0.00000008,0.00000033,0.00000264,0.00000001,0.0
 0000049,0.00000375,0.00000154,-0.00000091,0.00000187,0.00000197,-0.000
 00127,0.00000156,0.00000165,-0.00000093,0.00000254,0.00000137,-0.00000
 083,0.00000169,0.00000163,-0.00000125,-0.00000017,0.00000137,-0.000001
 03,-0.00000009,0.00000137,-0.00000117,-0.00000062,0.00000213,-0.000001
 67,-0.00000032,-0.00000095,0.00000044,-0.00000239,-0.00000057,0.000000
 31,-0.00000145,-0.00000026,0.00000001,-0.00000104,-0.00000021,-0.00000
 027,-0.00000217,-0.00000030,-0.00000009,-0.00000267,-0.00000004,0.0000
 0012,-0.00000031,-0.00000013,-0.00000006,-0.00000157,-0.00000133,0.000
 00068,-0.00000224,-0.00000050,0.00000016,-0.00000209,0.00000006,-0.000
 00041,-0.00000278,0.,-0.00000003,-0.00000131,-0.00000217,0.00000172,0.
 00000026,-0.00000098,0.00000055,-0.00000107,-0.00000106,0.00000040,-0.
 00000292,-0.00000051,-0.00000008,-0.00000344,0.00000051,-0.00000067,-0
 .00000226,0.00000037,-0.00000066,-0.00000298,0.00000059,-0.00000077,-0
 .00000186,0.00000106,-0.00000109,-0.00000239,-0.00000108,0.00000083,0.
 00000080,-0.00000099,0.00000068,0.00000047,-0.00000173,0.00000114,-0.0
 0000092,-0.00000103,0.00000087,0.00000060,-0.00000113,0.00000129,0.000
 00118,-0.00000048,0.00000065,0.00000004,-0.00000125,0.00000120,0.00000
 146,-0.00000183,0.00000158,0.00000150,-0.00000006,0.00000034,0.0000005
 1,-0.00000048,0.00000037,-0.00000037,-0.00000070,0.00000046,0.00000145
 ,-0.00000049,0.00000054,0.00000149,-0.00000123,0.00000069,-0.00000127,
 -0.00000075,0.00000037,-0.00000147,-0.00000148,0.00000088,-0.00000179,
 -0.00000139,0.00000100,-0.00000075,-0.00000167,0.00000082,-0.00000333,
 -0.00000164,0.00000077,-0.00000379,-0.00000205,0.00000118,-0.00000300,
 -0.00000168,0.00000079,-0.00000377,-0.00000031,-0.00000036,-0.00000419
 ,-0.00000025,-0.00000034,-0.00000425,0.00000035,-0.00000077,-0.0000041
 0,-0.00000043,-0.00000028,-0.00000471,0.00000162,-0.00000154,-0.000002
 70,0.00000201,-0.00000185,-0.00000261,0.00000179,-0.00000165,-0.000002
 09,0.00000155,-0.00000161,-0.00000317,0.00000110,-0.00000058,0.0000030
 6,0.00000159,-0.00000074,0.00000349,0.00000122,-0.00000058,0.00000251,
 0.00000071,-0.00000008,0.00000335,-0.00000020,0.00000029,0.00000071,-0
 .00000090,0.00000063,0.00000056,-0.00000097,0.00000089,0.00000121,-0.0
 0000126,0.00000106,0.00000077,-0.00000135,0.00000120,0.00000146,-0.000
 00067,0.00000072,0.00000165,-0.00000007,0.00000019,0.00000019,0.000000
 25,-0.00000011,0.00000074,0.00000021,-0.00000016,-0.00000001,-0.000000
 33,0.00000023,-0.00000015,-0.00000164,0.00000137,0.00000227,-0.0000011
 6,0.00000127,0.00000303,-0.00000141,0.00000134,0.00000240,-0.00000212,
 0.00000191,0.00000231,0.00000030,-0.00000013,0.00000019,0.00000051,-0.
 00000044,-0.00000039,-0.00000009,0.00000002,-0.00000035,0.00000058,-0.
 00000036,0.00000076\\\@


 WAR ES EIN GOTT DER DIESE ZEICHEN SCHRIEB?
          - LUDWIG BOLTZMANN, QUOTING GOETHE, ABOUT MAXWELL'S EQUATIONS.
 Job cpu time:       4 days 10 hours  9 minutes 35.3 seconds.
 Elapsed time:       0 days  3 hours 34 minutes 16.5 seconds.
 File lengths (MBytes):  RWF=   9829 Int=      0 D2E=      0 Chk=    110 Scr=      1
 Normal termination of Gaussian 16 at Wed Jun  5 18:17:09 2019.
