 Entering Gaussian System, Link 0=g16
 Input=clay_new-glu_gluC6-BCDR-Na2_1Me2O-bisCF3-ts-mpw1lyp-631gd-pcm_thf.gjf
 Output=clay_new-glu_gluC6-BCDR-Na2_1Me2O-bisCF3-ts-mpw1lyp-631gd-pcm_thf.out
 Initial command:
 /home/ekwan/sw/g16/l1.exe "/scratch/users/ekwan/clay_new-glu_gluC6-BCDR-Na2_1Me2O-bisCF3-ts-mpw1lyp-631gd-pcm_thf/Gau-40938.inp" -scrdir="/scratch/users/ekwan/clay_new-glu_gluC6-BCDR-Na2_1Me2O-bisCF3-ts-mpw1lyp-631gd-pcm_thf/"
 Entering Link 1 = /home/ekwan/sw/g16/l1.exe PID=     40939.
  
 Copyright (c) 1988,1990,1992,1993,1995,1998,2003,2009,2016,
            Gaussian, Inc.  All Rights Reserved.
  
 This is part of the Gaussian(R) 16 program.  It is based on
 the Gaussian(R) 09 system (copyright 2009, Gaussian, Inc.),
 the Gaussian(R) 03 system (copyright 2003, Gaussian, Inc.),
 the Gaussian(R) 98 system (copyright 1998, Gaussian, Inc.),
 the Gaussian(R) 94 system (copyright 1995, Gaussian, Inc.),
 the Gaussian 92(TM) system (copyright 1992, Gaussian, Inc.),
 the Gaussian 90(TM) system (copyright 1990, Gaussian, Inc.),
 the Gaussian 88(TM) system (copyright 1988, Gaussian, Inc.),
 the Gaussian 86(TM) system (copyright 1986, Carnegie Mellon
 University), and the Gaussian 82(TM) system (copyright 1983,
 Carnegie Mellon University). Gaussian is a federally registered
 trademark of Gaussian, Inc.
  
 This software contains proprietary and confidential information,
 including trade secrets, belonging to Gaussian, Inc.
  
 This software is provided under written license and may be
 used, copied, transmitted, or stored only in accord with that
 written license.
  
 The following legend is applicable only to US Government
 contracts under FAR:
  
                    RESTRICTED RIGHTS LEGEND
  
 Use, reproduction and disclosure by the US Government is
 subject to restrictions as set forth in subparagraphs (a)
 and (c) of the Commercial Computer Software - Restricted
 Rights clause in FAR 52.227-19.
  
 Gaussian, Inc.
 340 Quinnipiac St., Bldg. 40, Wallingford CT 06492
  
  
 ---------------------------------------------------------------
 Warning -- This program may not be used in any manner that
 competes with the business of Gaussian, Inc. or will provide
 assistance to any competitor of Gaussian, Inc.  The licensee
 of this program is prohibited from giving any competitor of
 Gaussian, Inc. access to this program.  By using this program,
 the user acknowledges that Gaussian, Inc. is engaged in the
 business of creating and licensing software in the field of
 computational chemistry and represents and warrants to the
 licensee that it is not a competitor of Gaussian, Inc. and that
 it will not use this program in any manner prohibited above.
 ---------------------------------------------------------------
  

 Cite this work as:
 Gaussian 16, Revision A.03,
 M. J. Frisch, G. W. Trucks, H. B. Schlegel, G. E. Scuseria, 
 M. A. Robb, J. R. Cheeseman, G. Scalmani, V. Barone, 
 G. A. Petersson, H. Nakatsuji, X. Li, M. Caricato, A. V. Marenich, 
 J. Bloino, B. G. Janesko, R. Gomperts, B. Mennucci, H. P. Hratchian, 
 J. V. Ortiz, A. F. Izmaylov, J. L. Sonnenberg, D. Williams-Young, 
 F. Ding, F. Lipparini, F. Egidi, J. Goings, B. Peng, A. Petrone, 
 T. Henderson, D. Ranasinghe, V. G. Zakrzewski, J. Gao, N. Rega, 
 G. Zheng, W. Liang, M. Hada, M. Ehara, K. Toyota, R. Fukuda, 
 J. Hasegawa, M. Ishida, T. Nakajima, Y. Honda, O. Kitao, H. Nakai, 
 T. Vreven, K. Throssell, J. A. Montgomery, Jr., J. E. Peralta, 
 F. Ogliaro, M. J. Bearpark, J. J. Heyd, E. N. Brothers, K. N. Kudin, 
 V. N. Staroverov, T. A. Keith, R. Kobayashi, J. Normand, 
 K. Raghavachari, A. P. Rendell, J. C. Burant, S. S. Iyengar, 
 J. Tomasi, M. Cossi, J. M. Millam, M. Klene, C. Adamo, R. Cammi, 
 J. W. Ochterski, R. L. Martin, K. Morokuma, O. Farkas, 
 J. B. Foresman, and D. J. Fox, Gaussian, Inc., Wallingford CT, 2016.
 
 ******************************************
 Gaussian 16:  AS64L-G16RevA.03 25-Dec-2016
                 6-Jun-2019 
 ******************************************
 %nprocshared=32
 Will use up to   32 processors via shared memory.
 %mem=48GB
 ----------------------------------------------------------------------
 #p opt=(ts,calcfc,noeigentest,maxstep=5) freq=noraman pop=none 6-31g* 
 scrf=(pcm,solvent=tetrahydrofuran) mpw1lyp
 ----------------------------------------------------------------------
 1/5=1,8=5,10=4,11=1,18=20,26=3,38=1/1,3;
 2/9=110,12=2,17=6,18=5,40=1/2;
 3/5=1,6=6,7=1,11=2,25=1,30=1,70=2201,71=2,72=20,74=-10,140=1/1,2,3;
 4//1;
 5/5=2,38=5,53=20/2;
 8/6=4,10=90,11=11/1;
 11/6=1,8=1,9=11,15=111,16=1/1,2,10;
 10/6=1,13=1/2;
 7/10=1,18=20,25=1/1,2,3,16;
 1/5=1,8=5,10=4,11=1,18=20,26=3/3(2);
 2/9=110/2;
 99//99;
 2/9=110/2;
 3/5=1,6=6,7=1,11=2,25=1,30=1,70=2205,71=1,72=20,74=-10/1,2,3;
 4/5=5,16=3,69=1/1;
 5/5=2,38=5,53=20/2;
 7//1,2,3,16;
 1/5=1,8=5,11=1,18=20,26=3/3(-5);
 2/9=110/2;
 99/9=1/99;
 Leave Link    1 at Thu Jun  6 05:36:56 2019, MaxMem=  6442450944 cpu:               5.1 elap:               0.2
 (Enter /home/ekwan/sw/g16/l101.exe)
 -----
 title
 -----
 Symbolic Z-matrix:
 Charge =  0 Multiplicity = 1
 6                    -2.04779   1.52813   2.21539 
 6                    -2.37769   2.3185    0.94581 
 6                    -1.5639    3.6181    0.9098 
 6                     0.2406    2.64695   2.2 
 6                    -0.53409   1.33023   2.35736 
 1                    -1.69281   4.12311  -0.05637 
 1                    -2.07277   1.73262   0.07009 
 1                    -2.41265   2.09654   3.07821 
 1                     0.00168   3.28544   3.05945 
 1                    -0.20742   0.628     1.58287 
 8                    -0.17541   3.324     0.98613 
 8                    -1.99259   4.44757   1.9508 
 8                    -3.75729   2.64219   0.86637 
 8                    -2.69968   0.25875   2.15995 
 8                    -0.25474   0.79731   3.65208 
 6                     1.77048   2.46902   2.1128 
 1                     2.05469   1.93927   3.04571 
 1                     2.19142   3.49416   2.22426 
 8                     2.2162    1.85416   0.96661 
 6                    -4.51516   1.78444   0.02489 
 1                    -4.1497    1.81095  -1.01074 
 1                    -4.49607   0.75003   0.37924 
 1                    -5.54259   2.15515   0.04248 
 6                    -3.42635  -0.08238   3.33167 
 1                    -2.7832   -0.07724   4.21862 
 1                    -4.26614   0.60585   3.49611 
 1                    -3.81351  -1.09025   3.17346 
 6                     0.28702  -0.51568   3.65442 
 1                    -0.38935  -1.22816   3.16872 
 1                     1.26416  -0.55726   3.15801 
 1                     0.41109  -0.79955   4.70256 
 6                     4.09231  -1.2759   -1.24881 
 6                     3.32326  -0.01191  -0.83925 
 6                     2.00682  -0.3533   -0.20301 
 6                     2.67264  -2.60325   0.36903 
 6                     4.09911  -2.23923  -0.05236 
 1                     1.22881   0.37868  -0.12743 
 1                     3.86418   0.48789  -0.02023 
 1                     3.59139  -1.74079  -2.10533 
 1                     2.19452  -3.17711  -0.42864 
 1                     4.61018  -1.7522    0.78396 
 8                     1.83015  -1.40219   0.51739 
 8                    -0.37413  -0.16405  -3.92754 
 8                     3.08189   0.92466  -1.86607 
 8                     5.4228   -0.91616  -1.575 
 8                     4.74559  -3.45283  -0.39448 
 6                     2.55564  -3.36739   1.671 
 1                     3.00534  -4.35941   1.52483 
 1                     1.49096  -3.50861   1.90825 
 8                     3.2141   -2.64686   2.68881 
 16                   -0.19288  -0.24245  -2.46903 
 8                    -0.22832   1.07984  -1.76988 
 8                     0.99281  -1.06819  -2.04364 
 6                    -1.61691  -1.13218  -1.81223 
 6                    -2.86237  -0.97383  -2.41207 
 6                    -1.47049  -1.9068   -0.66396 
 6                    -3.97672  -1.58743  -1.83741 
 1                    -2.95898  -0.38599  -3.3167 
 6                    -2.58943  -2.51928  -0.10583 
 1                    -0.49693  -2.02453  -0.20807 
 6                    -3.84801  -2.36112  -0.68539 
 1                    -4.71751  -2.83353  -0.24579 
 6                     4.20297   1.74004  -2.22656 
 1                     4.76225   2.05104  -1.33787 
 1                     4.87403   1.21247  -2.90677 
 1                     3.79024   2.62187  -2.71796 
 6                     5.95006  -1.57806  -2.72186 
 1                     5.94295  -2.66435  -2.59456 
 1                     5.38328  -1.31624  -3.62445 
 1                     6.97851  -1.23033  -2.83317 
 6                     5.92559  -3.72341   0.35957 
 1                     6.68863  -2.95725   0.18529 
 1                     5.70666  -3.77784   1.43251 
 1                     6.29685  -4.69025   0.01659 
 6                     3.11927  -3.27821   3.95601 
 1                     3.658    -2.64926   4.6657 
 1                     2.07311  -3.37211   4.2766 
 1                     3.57409  -4.27777   3.93854 
 6                    -1.46317   5.76715   1.89263 
 1                    -1.93278   6.32959   2.70058 
 1                    -0.37679   5.77205   2.02939 
 1                    -1.70504   6.2426    0.93269 
 11                    1.23081   2.66556  -0.89533 
 8                     2.4375    4.58734  -1.32991 
 6                     2.28369   5.67996  -2.22284 
 1                     3.21673   5.87587  -2.76675 
 1                     1.5008    5.41124  -2.93388 
 1                     1.98947   6.58994  -1.68409 
 6                     3.44014   4.81126  -0.34176 
 1                     3.19342   5.6887    0.26961 
 1                     3.46397   3.91567   0.28173 
 1                     4.41882   4.96913  -0.81354 
 6                    -5.33923  -1.34462  -2.42684 
 9                    -5.89106  -0.20713  -1.93978 
 9                    -6.19693  -2.34457  -2.14632 
 9                    -5.28998  -1.20955  -3.76577 
 6                    -2.43844  -3.40395   1.10091 
 9                    -1.30365  -3.14135   1.7875 
 9                    -2.39373  -4.70912   0.76 
 9                    -3.47232  -3.26375   1.9577 
 
 Add virtual bond connecting atoms H37        and O19        Dist= 3.94D+00.
 Add virtual bond connecting atoms O52        and H37        Dist= 4.36D+00.
 Add virtual bond connecting atoms O52        and Na83       Dist= 4.39D+00.
 Add virtual bond connecting atoms O53        and C34        Dist= 4.19D+00.
 Add virtual bond connecting atoms O84        and Na83       Dist= 4.37D+00.
 Add virtual bond connecting atoms H91        and H18        Dist= 4.46D+00.
 ITRead=  0  0  0  0  0  0  0  0  0  0  0  0  0  0  0  0  0  0  0  0
 ITRead=  0  0  0  0  0  0  0  0  0  0  0  0  0  0  0  0  0  0  0  0
 ITRead=  0  0  0  0  0  0  0  0  0  0  0  0  0  0  0  0  0  0  0  0
 ITRead=  0  0  0  0  0  0  0  0  0  0  0  0  0  0  0  0  0  0  0  0
 ITRead=  0  0  0  0  0  0  0  0  0  0  0  0  0  0  0  0  0  0  0  0
 MicOpt= -1 -1 -1 -1 -1 -1 -1 -1 -1 -1 -1 -1 -1 -1 -1 -1 -1 -1 -1 -1
 MicOpt= -1 -1 -1 -1 -1 -1 -1 -1 -1 -1 -1 -1 -1 -1 -1 -1 -1 -1 -1 -1
 MicOpt= -1 -1 -1 -1 -1 -1 -1 -1 -1 -1 -1 -1 -1 -1 -1 -1 -1 -1 -1 -1
 MicOpt= -1 -1 -1 -1 -1 -1 -1 -1 -1 -1 -1 -1 -1 -1 -1 -1 -1 -1 -1 -1
 MicOpt= -1 -1 -1 -1 -1 -1 -1 -1 -1 -1 -1 -1 -1 -1 -1 -1 -1 -1 -1 -1
 NAtoms=    100 NQM=      100 NQMF=       0 NMMI=      0 NMMIF=      0
                NMic=       0 NMicF=      0.
                    Isotopes and Nuclear Properties:
 (Nuclear quadrupole moments (NQMom) in fm**2, nuclear magnetic moments (NMagM)
  in nuclear magnetons)

  Atom         1           2           3           4           5           6           7           8           9          10
 IAtWgt=          12          12          12          12          12           1           1           1           1           1
 AtmWgt=  12.0000000  12.0000000  12.0000000  12.0000000  12.0000000   1.0078250   1.0078250   1.0078250   1.0078250   1.0078250
 NucSpn=           0           0           0           0           0           1           1           1           1           1
 AtZEff=   0.0000000   0.0000000   0.0000000   0.0000000   0.0000000   0.0000000   0.0000000   0.0000000   0.0000000   0.0000000
 NQMom=    0.0000000   0.0000000   0.0000000   0.0000000   0.0000000   0.0000000   0.0000000   0.0000000   0.0000000   0.0000000
 NMagM=    0.0000000   0.0000000   0.0000000   0.0000000   0.0000000   2.7928460   2.7928460   2.7928460   2.7928460   2.7928460
 AtZNuc=   6.0000000   6.0000000   6.0000000   6.0000000   6.0000000   1.0000000   1.0000000   1.0000000   1.0000000   1.0000000

  Atom        11          12          13          14          15          16          17          18          19          20
 IAtWgt=          16          16          16          16          16          12           1           1          16          12
 AtmWgt=  15.9949146  15.9949146  15.9949146  15.9949146  15.9949146  12.0000000   1.0078250   1.0078250  15.9949146  12.0000000
 NucSpn=           0           0           0           0           0           0           1           1           0           0
 AtZEff=   0.0000000   0.0000000   0.0000000   0.0000000   0.0000000   0.0000000   0.0000000   0.0000000   0.0000000   0.0000000
 NQMom=    0.0000000   0.0000000   0.0000000   0.0000000   0.0000000   0.0000000   0.0000000   0.0000000   0.0000000   0.0000000
 NMagM=    0.0000000   0.0000000   0.0000000   0.0000000   0.0000000   0.0000000   2.7928460   2.7928460   0.0000000   0.0000000
 AtZNuc=   8.0000000   8.0000000   8.0000000   8.0000000   8.0000000   6.0000000   1.0000000   1.0000000   8.0000000   6.0000000

  Atom        21          22          23          24          25          26          27          28          29          30
 IAtWgt=           1           1           1          12           1           1           1          12           1           1
 AtmWgt=   1.0078250   1.0078250   1.0078250  12.0000000   1.0078250   1.0078250   1.0078250  12.0000000   1.0078250   1.0078250
 NucSpn=           1           1           1           0           1           1           1           0           1           1
 AtZEff=   0.0000000   0.0000000   0.0000000   0.0000000   0.0000000   0.0000000   0.0000000   0.0000000   0.0000000   0.0000000
 NQMom=    0.0000000   0.0000000   0.0000000   0.0000000   0.0000000   0.0000000   0.0000000   0.0000000   0.0000000   0.0000000
 NMagM=    2.7928460   2.7928460   2.7928460   0.0000000   2.7928460   2.7928460   2.7928460   0.0000000   2.7928460   2.7928460
 AtZNuc=   1.0000000   1.0000000   1.0000000   6.0000000   1.0000000   1.0000000   1.0000000   6.0000000   1.0000000   1.0000000

  Atom        31          32          33          34          35          36          37          38          39          40
 IAtWgt=           1          12          12          12          12          12           1           1           1           1
 AtmWgt=   1.0078250  12.0000000  12.0000000  12.0000000  12.0000000  12.0000000   1.0078250   1.0078250   1.0078250   1.0078250
 NucSpn=           1           0           0           0           0           0           1           1           1           1
 AtZEff=   0.0000000   0.0000000   0.0000000   0.0000000   0.0000000   0.0000000   0.0000000   0.0000000   0.0000000   0.0000000
 NQMom=    0.0000000   0.0000000   0.0000000   0.0000000   0.0000000   0.0000000   0.0000000   0.0000000   0.0000000   0.0000000
 NMagM=    2.7928460   0.0000000   0.0000000   0.0000000   0.0000000   0.0000000   2.7928460   2.7928460   2.7928460   2.7928460
 AtZNuc=   1.0000000   6.0000000   6.0000000   6.0000000   6.0000000   6.0000000   1.0000000   1.0000000   1.0000000   1.0000000

  Atom        41          42          43          44          45          46          47          48          49          50
 IAtWgt=           1          16          16          16          16          16          12           1           1          16
 AtmWgt=   1.0078250  15.9949146  15.9949146  15.9949146  15.9949146  15.9949146  12.0000000   1.0078250   1.0078250  15.9949146
 NucSpn=           1           0           0           0           0           0           0           1           1           0
 AtZEff=   0.0000000   0.0000000   0.0000000   0.0000000   0.0000000   0.0000000   0.0000000   0.0000000   0.0000000   0.0000000
 NQMom=    0.0000000   0.0000000   0.0000000   0.0000000   0.0000000   0.0000000   0.0000000   0.0000000   0.0000000   0.0000000
 NMagM=    2.7928460   0.0000000   0.0000000   0.0000000   0.0000000   0.0000000   0.0000000   2.7928460   2.7928460   0.0000000
 AtZNuc=   1.0000000   8.0000000   8.0000000   8.0000000   8.0000000   8.0000000   6.0000000   1.0000000   1.0000000   8.0000000

  Atom        51          52          53          54          55          56          57          58          59          60
 IAtWgt=          32          16          16          12          12          12          12           1          12           1
 AtmWgt=  31.9720718  15.9949146  15.9949146  12.0000000  12.0000000  12.0000000  12.0000000   1.0078250  12.0000000   1.0078250
 NucSpn=           0           0           0           0           0           0           0           1           0           1
 AtZEff=   0.0000000   0.0000000   0.0000000   0.0000000   0.0000000   0.0000000   0.0000000   0.0000000   0.0000000   0.0000000
 NQMom=    0.0000000   0.0000000   0.0000000   0.0000000   0.0000000   0.0000000   0.0000000   0.0000000   0.0000000   0.0000000
 NMagM=    0.0000000   0.0000000   0.0000000   0.0000000   0.0000000   0.0000000   0.0000000   2.7928460   0.0000000   2.7928460
 AtZNuc=  16.0000000   8.0000000   8.0000000   6.0000000   6.0000000   6.0000000   6.0000000   1.0000000   6.0000000   1.0000000

  Atom        61          62          63          64          65          66          67          68          69          70
 IAtWgt=          12           1          12           1           1           1          12           1           1           1
 AtmWgt=  12.0000000   1.0078250  12.0000000   1.0078250   1.0078250   1.0078250  12.0000000   1.0078250   1.0078250   1.0078250
 NucSpn=           0           1           0           1           1           1           0           1           1           1
 AtZEff=   0.0000000   0.0000000   0.0000000   0.0000000   0.0000000   0.0000000   0.0000000   0.0000000   0.0000000   0.0000000
 NQMom=    0.0000000   0.0000000   0.0000000   0.0000000   0.0000000   0.0000000   0.0000000   0.0000000   0.0000000   0.0000000
 NMagM=    0.0000000   2.7928460   0.0000000   2.7928460   2.7928460   2.7928460   0.0000000   2.7928460   2.7928460   2.7928460
 AtZNuc=   6.0000000   1.0000000   6.0000000   1.0000000   1.0000000   1.0000000   6.0000000   1.0000000   1.0000000   1.0000000

  Atom        71          72          73          74          75          76          77          78          79          80
 IAtWgt=          12           1           1           1          12           1           1           1          12           1
 AtmWgt=  12.0000000   1.0078250   1.0078250   1.0078250  12.0000000   1.0078250   1.0078250   1.0078250  12.0000000   1.0078250
 NucSpn=           0           1           1           1           0           1           1           1           0           1
 AtZEff=   0.0000000   0.0000000   0.0000000   0.0000000   0.0000000   0.0000000   0.0000000   0.0000000   0.0000000   0.0000000
 NQMom=    0.0000000   0.0000000   0.0000000   0.0000000   0.0000000   0.0000000   0.0000000   0.0000000   0.0000000   0.0000000
 NMagM=    0.0000000   2.7928460   2.7928460   2.7928460   0.0000000   2.7928460   2.7928460   2.7928460   0.0000000   2.7928460
 AtZNuc=   6.0000000   1.0000000   1.0000000   1.0000000   6.0000000   1.0000000   1.0000000   1.0000000   6.0000000   1.0000000

  Atom        81          82          83          84          85          86          87          88          89          90
 IAtWgt=           1           1          23          16          12           1           1           1          12           1
 AtmWgt=   1.0078250   1.0078250  22.9897697  15.9949146  12.0000000   1.0078250   1.0078250   1.0078250  12.0000000   1.0078250
 NucSpn=           1           1           3           0           0           1           1           1           0           1
 AtZEff=   0.0000000   0.0000000   0.0000000   0.0000000   0.0000000   0.0000000   0.0000000   0.0000000   0.0000000   0.0000000
 NQMom=    0.0000000   0.0000000  10.4000000   0.0000000   0.0000000   0.0000000   0.0000000   0.0000000   0.0000000   0.0000000
 NMagM=    2.7928460   2.7928460   2.2175200   0.0000000   0.0000000   2.7928460   2.7928460   2.7928460   0.0000000   2.7928460
 AtZNuc=   1.0000000   1.0000000  11.0000000   8.0000000   6.0000000   1.0000000   1.0000000   1.0000000   6.0000000   1.0000000

  Atom        91          92          93          94          95          96          97          98          99         100
 IAtWgt=           1           1          12          19          19          19          12          19          19          19
 AtmWgt=   1.0078250   1.0078250  12.0000000  18.9984033  18.9984033  18.9984033  12.0000000  18.9984033  18.9984033  18.9984033
 NucSpn=           1           1           0           1           1           1           0           1           1           1
 AtZEff=   0.0000000   0.0000000   0.0000000   0.0000000   0.0000000   0.0000000   0.0000000   0.0000000   0.0000000   0.0000000
 NQMom=    0.0000000   0.0000000   0.0000000   0.0000000   0.0000000   0.0000000   0.0000000   0.0000000   0.0000000   0.0000000
 NMagM=    2.7928460   2.7928460   0.0000000   2.6288670   2.6288670   2.6288670   0.0000000   2.6288670   2.6288670   2.6288670
 AtZNuc=   1.0000000   1.0000000   6.0000000   9.0000000   9.0000000   9.0000000   6.0000000   9.0000000   9.0000000   9.0000000
 Leave Link  101 at Thu Jun  6 05:36:57 2019, MaxMem=  6442450944 cpu:              18.2 elap:               0.7
 (Enter /home/ekwan/sw/g16/l103.exe)

 GradGradGradGradGradGradGradGradGradGradGradGradGradGradGradGradGradGrad
 Berny optimization.
 Initialization pass.
                           ----------------------------
                           !    Initial Parameters    !
                           ! (Angstroms and Degrees)  !
 --------------------------                            --------------------------
 ! Name  Definition              Value          Derivative Info.                !
 --------------------------------------------------------------------------------
 ! R1    R(1,2)                  1.5315         calculate D2E/DX2 analytically  !
 ! R2    R(1,5)                  1.5332         calculate D2E/DX2 analytically  !
 ! R3    R(1,8)                  1.0957         calculate D2E/DX2 analytically  !
 ! R4    R(1,14)                 1.4281         calculate D2E/DX2 analytically  !
 ! R5    R(2,3)                  1.5338         calculate D2E/DX2 analytically  !
 ! R6    R(2,7)                  1.0969         calculate D2E/DX2 analytically  !
 ! R7    R(2,13)                 1.4193         calculate D2E/DX2 analytically  !
 ! R8    R(3,6)                  1.0978         calculate D2E/DX2 analytically  !
 ! R9    R(3,11)                 1.4213         calculate D2E/DX2 analytically  !
 ! R10   R(3,12)                 1.3984         calculate D2E/DX2 analytically  !
 ! R11   R(4,5)                  1.5358         calculate D2E/DX2 analytically  !
 ! R12   R(4,9)                  1.097          calculate D2E/DX2 analytically  !
 ! R13   R(4,11)                 1.4508         calculate D2E/DX2 analytically  !
 ! R14   R(4,16)                 1.5427         calculate D2E/DX2 analytically  !
 ! R15   R(5,10)                 1.0953         calculate D2E/DX2 analytically  !
 ! R16   R(5,15)                 1.4277         calculate D2E/DX2 analytically  !
 ! R17   R(12,79)                1.423          calculate D2E/DX2 analytically  !
 ! R18   R(13,20)                1.4206         calculate D2E/DX2 analytically  !
 ! R19   R(14,24)                1.4203         calculate D2E/DX2 analytically  !
 ! R20   R(15,28)                1.4204         calculate D2E/DX2 analytically  !
 ! R21   R(16,17)                1.1098         calculate D2E/DX2 analytically  !
 ! R22   R(16,18)                1.1138         calculate D2E/DX2 analytically  !
 ! R23   R(16,19)                1.3749         calculate D2E/DX2 analytically  !
 ! R24   R(18,91)                2.3602         calculate D2E/DX2 analytically  !
 ! R25   R(19,37)                2.0854         calculate D2E/DX2 analytically  !
 ! R26   R(19,83)                2.2575         calculate D2E/DX2 analytically  !
 ! R27   R(20,21)                1.0985         calculate D2E/DX2 analytically  !
 ! R28   R(20,22)                1.0936         calculate D2E/DX2 analytically  !
 ! R29   R(20,23)                1.0924         calculate D2E/DX2 analytically  !
 ! R30   R(24,25)                1.0956         calculate D2E/DX2 analytically  !
 ! R31   R(24,26)                1.0982         calculate D2E/DX2 analytically  !
 ! R32   R(24,27)                1.0912         calculate D2E/DX2 analytically  !
 ! R33   R(28,29)                1.0959         calculate D2E/DX2 analytically  !
 ! R34   R(28,30)                1.0968         calculate D2E/DX2 analytically  !
 ! R35   R(28,31)                1.093          calculate D2E/DX2 analytically  !
 ! R36   R(32,33)                1.5352         calculate D2E/DX2 analytically  !
 ! R37   R(32,36)                1.5361         calculate D2E/DX2 analytically  !
 ! R38   R(32,39)                1.0957         calculate D2E/DX2 analytically  !
 ! R39   R(32,45)                1.4163         calculate D2E/DX2 analytically  !
 ! R40   R(33,34)                1.5014         calculate D2E/DX2 analytically  !
 ! R41   R(33,38)                1.1014         calculate D2E/DX2 analytically  !
 ! R42   R(33,44)                1.4106         calculate D2E/DX2 analytically  !
 ! R43   R(34,37)                1.0709         calculate D2E/DX2 analytically  !
 ! R44   R(34,42)                1.2847         calculate D2E/DX2 analytically  !
 ! R45   R(34,53)                2.2197         calculate D2E/DX2 analytically  !
 ! R46   R(35,36)                1.5313         calculate D2E/DX2 analytically  !
 ! R47   R(35,40)                1.0928         calculate D2E/DX2 analytically  !
 ! R48   R(35,42)                1.4746         calculate D2E/DX2 analytically  !
 ! R49   R(35,47)                1.5142         calculate D2E/DX2 analytically  !
 ! R50   R(36,41)                1.0944         calculate D2E/DX2 analytically  !
 ! R51   R(36,46)                1.417          calculate D2E/DX2 analytically  !
 ! R52   R(37,52)                2.3049         calculate D2E/DX2 analytically  !
 ! R53   R(43,51)                1.4718         calculate D2E/DX2 analytically  !
 ! R54   R(44,63)                1.4323         calculate D2E/DX2 analytically  !
 ! R55   R(45,67)                1.4253         calculate D2E/DX2 analytically  !
 ! R56   R(46,71)                1.4263         calculate D2E/DX2 analytically  !
 ! R57   R(47,48)                1.099          calculate D2E/DX2 analytically  !
 ! R58   R(47,49)                1.0999         calculate D2E/DX2 analytically  !
 ! R59   R(47,50)                1.4102         calculate D2E/DX2 analytically  !
 ! R60   R(50,75)                1.4189         calculate D2E/DX2 analytically  !
 ! R61   R(51,52)                1.4962         calculate D2E/DX2 analytically  !
 ! R62   R(51,53)                1.5062         calculate D2E/DX2 analytically  !
 ! R63   R(51,54)                1.803          calculate D2E/DX2 analytically  !
 ! R64   R(52,83)                2.3256         calculate D2E/DX2 analytically  !
 ! R65   R(54,55)                1.3914         calculate D2E/DX2 analytically  !
 ! R66   R(54,56)                1.3928         calculate D2E/DX2 analytically  !
 ! R67   R(55,57)                1.3959         calculate D2E/DX2 analytically  !
 ! R68   R(55,58)                1.0832         calculate D2E/DX2 analytically  !
 ! R69   R(56,59)                1.3924         calculate D2E/DX2 analytically  !
 ! R70   R(56,60)                1.0814         calculate D2E/DX2 analytically  !
 ! R71   R(57,61)                1.3937         calculate D2E/DX2 analytically  !
 ! R72   R(57,93)                1.5043         calculate D2E/DX2 analytically  !
 ! R73   R(59,61)                1.3946         calculate D2E/DX2 analytically  !
 ! R74   R(59,97)                1.5039         calculate D2E/DX2 analytically  !
 ! R75   R(61,62)                1.0828         calculate D2E/DX2 analytically  !
 ! R76   R(63,64)                1.0951         calculate D2E/DX2 analytically  !
 ! R77   R(63,65)                1.0915         calculate D2E/DX2 analytically  !
 ! R78   R(63,66)                1.0906         calculate D2E/DX2 analytically  !
 ! R79   R(67,68)                1.0937         calculate D2E/DX2 analytically  !
 ! R80   R(67,69)                1.0975         calculate D2E/DX2 analytically  !
 ! R81   R(67,70)                1.0913         calculate D2E/DX2 analytically  !
 ! R82   R(71,72)                1.0953         calculate D2E/DX2 analytically  !
 ! R83   R(71,73)                1.0964         calculate D2E/DX2 analytically  !
 ! R84   R(71,74)                1.091          calculate D2E/DX2 analytically  !
 ! R85   R(75,76)                1.0906         calculate D2E/DX2 analytically  !
 ! R86   R(75,77)                1.0982         calculate D2E/DX2 analytically  !
 ! R87   R(75,78)                1.0983         calculate D2E/DX2 analytically  !
 ! R88   R(79,80)                1.0907         calculate D2E/DX2 analytically  !
 ! R89   R(79,81)                1.095          calculate D2E/DX2 analytically  !
 ! R90   R(79,82)                1.0982         calculate D2E/DX2 analytically  !
 ! R91   R(83,84)                2.3105         calculate D2E/DX2 analytically  !
 ! R92   R(84,85)                1.4194         calculate D2E/DX2 analytically  !
 ! R93   R(84,89)                1.4254         calculate D2E/DX2 analytically  !
 ! R94   R(85,86)                1.0976         calculate D2E/DX2 analytically  !
 ! R95   R(85,87)                1.0912         calculate D2E/DX2 analytically  !
 ! R96   R(85,88)                1.0977         calculate D2E/DX2 analytically  !
 ! R97   R(89,90)                1.0975         calculate D2E/DX2 analytically  !
 ! R98   R(89,91)                1.0915         calculate D2E/DX2 analytically  !
 ! R99   R(89,92)                1.0979         calculate D2E/DX2 analytically  !
 ! R100  R(93,94)                1.3549         calculate D2E/DX2 analytically  !
 ! R101  R(93,95)                1.3469         calculate D2E/DX2 analytically  !
 ! R102  R(93,96)                1.3466         calculate D2E/DX2 analytically  !
 ! R103  R(97,98)                1.3521         calculate D2E/DX2 analytically  !
 ! R104  R(97,99)                1.3497         calculate D2E/DX2 analytically  !
 ! R105  R(97,100)               1.3501         calculate D2E/DX2 analytically  !
 ! A1    A(2,1,5)              110.8584         calculate D2E/DX2 analytically  !
 ! A2    A(2,1,8)              108.2604         calculate D2E/DX2 analytically  !
 ! A3    A(2,1,14)             109.161          calculate D2E/DX2 analytically  !
 ! A4    A(5,1,8)              108.832          calculate D2E/DX2 analytically  !
 ! A5    A(5,1,14)             109.8491         calculate D2E/DX2 analytically  !
 ! A6    A(8,1,14)             109.8569         calculate D2E/DX2 analytically  !
 ! A7    A(1,2,3)              110.0269         calculate D2E/DX2 analytically  !
 ! A8    A(1,2,7)              109.045          calculate D2E/DX2 analytically  !
 ! A9    A(1,2,13)             111.9312         calculate D2E/DX2 analytically  !
 ! A10   A(3,2,7)              106.639          calculate D2E/DX2 analytically  !
 ! A11   A(3,2,13)             108.7346         calculate D2E/DX2 analytically  !
 ! A12   A(7,2,13)             110.3253         calculate D2E/DX2 analytically  !
 ! A13   A(2,3,6)              110.3744         calculate D2E/DX2 analytically  !
 ! A14   A(2,3,11)             109.9822         calculate D2E/DX2 analytically  !
 ! A15   A(2,3,12)             108.8115         calculate D2E/DX2 analytically  !
 ! A16   A(6,3,11)             104.9018         calculate D2E/DX2 analytically  !
 ! A17   A(6,3,12)             110.2617         calculate D2E/DX2 analytically  !
 ! A18   A(11,3,12)            112.472          calculate D2E/DX2 analytically  !
 ! A19   A(5,4,9)              107.9914         calculate D2E/DX2 analytically  !
 ! A20   A(5,4,11)             109.9487         calculate D2E/DX2 analytically  !
 ! A21   A(5,4,16)             114.0258         calculate D2E/DX2 analytically  !
 ! A22   A(9,4,11)             108.7497         calculate D2E/DX2 analytically  !
 ! A23   A(9,4,16)             109.1116         calculate D2E/DX2 analytically  !
 ! A24   A(11,4,16)            106.9115         calculate D2E/DX2 analytically  !
 ! A25   A(1,5,4)              112.2014         calculate D2E/DX2 analytically  !
 ! A26   A(1,5,10)             108.1643         calculate D2E/DX2 analytically  !
 ! A27   A(1,5,15)             108.9857         calculate D2E/DX2 analytically  !
 ! A28   A(4,5,10)             109.074          calculate D2E/DX2 analytically  !
 ! A29   A(4,5,15)             108.3152         calculate D2E/DX2 analytically  !
 ! A30   A(10,5,15)            110.0943         calculate D2E/DX2 analytically  !
 ! A31   A(3,11,4)             114.9357         calculate D2E/DX2 analytically  !
 ! A32   A(3,12,79)            113.9262         calculate D2E/DX2 analytically  !
 ! A33   A(2,13,20)            114.457          calculate D2E/DX2 analytically  !
 ! A34   A(1,14,24)            114.5195         calculate D2E/DX2 analytically  !
 ! A35   A(5,15,28)            114.9086         calculate D2E/DX2 analytically  !
 ! A36   A(4,16,17)            105.1592         calculate D2E/DX2 analytically  !
 ! A37   A(4,16,18)            105.247          calculate D2E/DX2 analytically  !
 ! A38   A(4,16,19)            114.8464         calculate D2E/DX2 analytically  !
 ! A39   A(17,16,18)           104.9769         calculate D2E/DX2 analytically  !
 ! A40   A(17,16,19)           113.8454         calculate D2E/DX2 analytically  !
 ! A41   A(18,16,19)           111.8702         calculate D2E/DX2 analytically  !
 ! A42   A(16,18,91)           106.606          calculate D2E/DX2 analytically  !
 ! A43   A(16,19,37)           126.8875         calculate D2E/DX2 analytically  !
 ! A44   A(16,19,83)           112.6646         calculate D2E/DX2 analytically  !
 ! A45   A(37,19,83)            67.3522         calculate D2E/DX2 analytically  !
 ! A46   A(13,20,21)           111.4911         calculate D2E/DX2 analytically  !
 ! A47   A(13,20,22)           111.7071         calculate D2E/DX2 analytically  !
 ! A48   A(13,20,23)           106.697          calculate D2E/DX2 analytically  !
 ! A49   A(21,20,22)           108.8139         calculate D2E/DX2 analytically  !
 ! A50   A(21,20,23)           108.6559         calculate D2E/DX2 analytically  !
 ! A51   A(22,20,23)           109.4018         calculate D2E/DX2 analytically  !
 ! A52   A(14,24,25)           111.4933         calculate D2E/DX2 analytically  !
 ! A53   A(14,24,26)           111.362          calculate D2E/DX2 analytically  !
 ! A54   A(14,24,27)           106.484          calculate D2E/DX2 analytically  !
 ! A55   A(25,24,26)           108.951          calculate D2E/DX2 analytically  !
 ! A56   A(25,24,27)           109.2675         calculate D2E/DX2 analytically  !
 ! A57   A(26,24,27)           109.2221         calculate D2E/DX2 analytically  !
 ! A58   A(15,28,29)           111.3982         calculate D2E/DX2 analytically  !
 ! A59   A(15,28,30)           111.9692         calculate D2E/DX2 analytically  !
 ! A60   A(15,28,31)           106.5567         calculate D2E/DX2 analytically  !
 ! A61   A(29,28,30)           108.9424         calculate D2E/DX2 analytically  !
 ! A62   A(29,28,31)           109.0398         calculate D2E/DX2 analytically  !
 ! A63   A(30,28,31)           108.8477         calculate D2E/DX2 analytically  !
 ! A64   A(33,32,36)           108.1053         calculate D2E/DX2 analytically  !
 ! A65   A(33,32,39)           109.1987         calculate D2E/DX2 analytically  !
 ! A66   A(33,32,45)           108.8383         calculate D2E/DX2 analytically  !
 ! A67   A(36,32,39)           110.1697         calculate D2E/DX2 analytically  !
 ! A68   A(36,32,45)           109.543          calculate D2E/DX2 analytically  !
 ! A69   A(39,32,45)           110.9266         calculate D2E/DX2 analytically  !
 ! A70   A(32,33,34)           111.4109         calculate D2E/DX2 analytically  !
 ! A71   A(32,33,38)           109.0237         calculate D2E/DX2 analytically  !
 ! A72   A(32,33,44)           115.9873         calculate D2E/DX2 analytically  !
 ! A73   A(34,33,38)           102.6308         calculate D2E/DX2 analytically  !
 ! A74   A(34,33,44)           108.0233         calculate D2E/DX2 analytically  !
 ! A75   A(38,33,44)           108.9074         calculate D2E/DX2 analytically  !
 ! A76   A(33,34,37)           120.7623         calculate D2E/DX2 analytically  !
 ! A77   A(33,34,42)           122.9459         calculate D2E/DX2 analytically  !
 ! A78   A(33,34,53)            97.0295         calculate D2E/DX2 analytically  !
 ! A79   A(37,34,42)           114.7453         calculate D2E/DX2 analytically  !
 ! A80   A(37,34,53)            86.9493         calculate D2E/DX2 analytically  !
 ! A81   A(42,34,53)            98.0028         calculate D2E/DX2 analytically  !
 ! A82   A(36,35,40)           109.3619         calculate D2E/DX2 analytically  !
 ! A83   A(36,35,42)           111.4868         calculate D2E/DX2 analytically  !
 ! A84   A(36,35,47)           115.3768         calculate D2E/DX2 analytically  !
 ! A85   A(40,35,42)           104.5483         calculate D2E/DX2 analytically  !
 ! A86   A(40,35,47)           109.1974         calculate D2E/DX2 analytically  !
 ! A87   A(42,35,47)           106.2835         calculate D2E/DX2 analytically  !
 ! A88   A(32,36,35)           111.0574         calculate D2E/DX2 analytically  !
 ! A89   A(32,36,41)           108.5536         calculate D2E/DX2 analytically  !
 ! A90   A(32,36,46)           110.5537         calculate D2E/DX2 analytically  !
 ! A91   A(35,36,41)           109.2991         calculate D2E/DX2 analytically  !
 ! A92   A(35,36,46)           106.7289         calculate D2E/DX2 analytically  !
 ! A93   A(41,36,46)           110.6447         calculate D2E/DX2 analytically  !
 ! A94   A(19,37,34)           100.1751         calculate D2E/DX2 analytically  !
 ! A95   A(19,37,52)           117.2536         calculate D2E/DX2 analytically  !
 ! A96   A(34,37,52)           128.0921         calculate D2E/DX2 analytically  !
 ! A97   A(34,42,35)           122.008          calculate D2E/DX2 analytically  !
 ! A98   A(33,44,63)           115.2925         calculate D2E/DX2 analytically  !
 ! A99   A(32,45,67)           114.5118         calculate D2E/DX2 analytically  !
 ! A100  A(36,46,71)           114.3498         calculate D2E/DX2 analytically  !
 ! A101  A(35,47,48)           108.0331         calculate D2E/DX2 analytically  !
 ! A102  A(35,47,49)           108.9698         calculate D2E/DX2 analytically  !
 ! A103  A(35,47,50)           109.0669         calculate D2E/DX2 analytically  !
 ! A104  A(48,47,49)           107.9922         calculate D2E/DX2 analytically  !
 ! A105  A(48,47,50)           111.4783         calculate D2E/DX2 analytically  !
 ! A106  A(49,47,50)           111.2166         calculate D2E/DX2 analytically  !
 ! A107  A(47,50,75)           112.707          calculate D2E/DX2 analytically  !
 ! A108  A(43,51,52)           114.3978         calculate D2E/DX2 analytically  !
 ! A109  A(43,51,53)           113.9549         calculate D2E/DX2 analytically  !
 ! A110  A(43,51,54)           106.8584         calculate D2E/DX2 analytically  !
 ! A111  A(52,51,53)           111.7886         calculate D2E/DX2 analytically  !
 ! A112  A(52,51,54)           104.3114         calculate D2E/DX2 analytically  !
 ! A113  A(53,51,54)           104.3782         calculate D2E/DX2 analytically  !
 ! A114  A(37,52,51)            92.818          calculate D2E/DX2 analytically  !
 ! A115  A(37,52,83)            62.7934         calculate D2E/DX2 analytically  !
 ! A116  A(51,52,83)           139.7721         calculate D2E/DX2 analytically  !
 ! A117  A(34,53,51)           114.6602         calculate D2E/DX2 analytically  !
 ! A118  A(51,54,55)           119.5875         calculate D2E/DX2 analytically  !
 ! A119  A(51,54,56)           119.4541         calculate D2E/DX2 analytically  !
 ! A120  A(55,54,56)           120.8501         calculate D2E/DX2 analytically  !
 ! A121  A(54,55,57)           119.1476         calculate D2E/DX2 analytically  !
 ! A122  A(54,55,58)           120.1088         calculate D2E/DX2 analytically  !
 ! A123  A(57,55,58)           120.7425         calculate D2E/DX2 analytically  !
 ! A124  A(54,56,59)           119.3814         calculate D2E/DX2 analytically  !
 ! A125  A(54,56,60)           120.1805         calculate D2E/DX2 analytically  !
 ! A126  A(59,56,60)           120.4368         calculate D2E/DX2 analytically  !
 ! A127  A(55,57,61)           120.7037         calculate D2E/DX2 analytically  !
 ! A128  A(55,57,93)           119.3937         calculate D2E/DX2 analytically  !
 ! A129  A(61,57,93)           119.8124         calculate D2E/DX2 analytically  !
 ! A130  A(56,59,61)           120.5822         calculate D2E/DX2 analytically  !
 ! A131  A(56,59,97)           119.9818         calculate D2E/DX2 analytically  !
 ! A132  A(61,59,97)           119.3925         calculate D2E/DX2 analytically  !
 ! A133  A(57,61,59)           119.3291         calculate D2E/DX2 analytically  !
 ! A134  A(57,61,62)           120.2406         calculate D2E/DX2 analytically  !
 ! A135  A(59,61,62)           120.4303         calculate D2E/DX2 analytically  !
 ! A136  A(44,63,64)           110.9248         calculate D2E/DX2 analytically  !
 ! A137  A(44,63,65)           111.2784         calculate D2E/DX2 analytically  !
 ! A138  A(44,63,66)           106.1098         calculate D2E/DX2 analytically  !
 ! A139  A(64,63,65)           109.2084         calculate D2E/DX2 analytically  !
 ! A140  A(64,63,66)           109.2258         calculate D2E/DX2 analytically  !
 ! A141  A(65,63,66)           110.0412         calculate D2E/DX2 analytically  !
 ! A142  A(45,67,68)           111.4188         calculate D2E/DX2 analytically  !
 ! A143  A(45,67,69)           111.0962         calculate D2E/DX2 analytically  !
 ! A144  A(45,67,70)           106.4232         calculate D2E/DX2 analytically  !
 ! A145  A(68,67,69)           109.2257         calculate D2E/DX2 analytically  !
 ! A146  A(68,67,70)           109.5389         calculate D2E/DX2 analytically  !
 ! A147  A(69,67,70)           109.0736         calculate D2E/DX2 analytically  !
 ! A148  A(46,71,72)           111.0733         calculate D2E/DX2 analytically  !
 ! A149  A(46,71,73)           111.198          calculate D2E/DX2 analytically  !
 ! A150  A(46,71,74)           106.4669         calculate D2E/DX2 analytically  !
 ! A151  A(72,71,73)           109.2415         calculate D2E/DX2 analytically  !
 ! A152  A(72,71,74)           109.44           calculate D2E/DX2 analytically  !
 ! A153  A(73,71,74)           109.3659         calculate D2E/DX2 analytically  !
 ! A154  A(50,75,76)           106.9493         calculate D2E/DX2 analytically  !
 ! A155  A(50,75,77)           111.2486         calculate D2E/DX2 analytically  !
 ! A156  A(50,75,78)           111.2885         calculate D2E/DX2 analytically  !
 ! A157  A(76,75,77)           109.2622         calculate D2E/DX2 analytically  !
 ! A158  A(76,75,78)           109.3072         calculate D2E/DX2 analytically  !
 ! A159  A(77,75,78)           108.7425         calculate D2E/DX2 analytically  !
 ! A160  A(12,79,80)           106.7218         calculate D2E/DX2 analytically  !
 ! A161  A(12,79,81)           111.6029         calculate D2E/DX2 analytically  !
 ! A162  A(12,79,82)           110.81           calculate D2E/DX2 analytically  !
 ! A163  A(80,79,81)           109.4109         calculate D2E/DX2 analytically  !
 ! A164  A(80,79,82)           109.2333         calculate D2E/DX2 analytically  !
 ! A165  A(81,79,82)           109.011          calculate D2E/DX2 analytically  !
 ! A166  A(19,83,52)           109.8136         calculate D2E/DX2 analytically  !
 ! A167  A(19,83,84)           103.0691         calculate D2E/DX2 analytically  !
 ! A168  A(52,83,84)           145.4975         calculate D2E/DX2 analytically  !
 ! A169  A(83,84,85)           134.587          calculate D2E/DX2 analytically  !
 ! A170  A(83,84,89)           111.5697         calculate D2E/DX2 analytically  !
 ! A171  A(85,84,89)           113.0415         calculate D2E/DX2 analytically  !
 ! A172  A(84,85,86)           110.9166         calculate D2E/DX2 analytically  !
 ! A173  A(84,85,87)           107.3438         calculate D2E/DX2 analytically  !
 ! A174  A(84,85,88)           111.0031         calculate D2E/DX2 analytically  !
 ! A175  A(86,85,87)           109.3257         calculate D2E/DX2 analytically  !
 ! A176  A(86,85,88)           108.8498         calculate D2E/DX2 analytically  !
 ! A177  A(87,85,88)           109.37           calculate D2E/DX2 analytically  !
 ! A178  A(84,89,90)           110.709          calculate D2E/DX2 analytically  !
 ! A179  A(84,89,91)           106.4065         calculate D2E/DX2 analytically  !
 ! A180  A(84,89,92)           110.5928         calculate D2E/DX2 analytically  !
 ! A181  A(90,89,91)           110.0405         calculate D2E/DX2 analytically  !
 ! A182  A(90,89,92)           108.9539         calculate D2E/DX2 analytically  !
 ! A183  A(91,89,92)           110.1206         calculate D2E/DX2 analytically  !
 ! A184  A(18,91,89)           127.2221         calculate D2E/DX2 analytically  !
 ! A185  A(57,93,94)           111.3198         calculate D2E/DX2 analytically  !
 ! A186  A(57,93,95)           112.0445         calculate D2E/DX2 analytically  !
 ! A187  A(57,93,96)           111.8801         calculate D2E/DX2 analytically  !
 ! A188  A(94,93,95)           106.8015         calculate D2E/DX2 analytically  !
 ! A189  A(94,93,96)           106.7459         calculate D2E/DX2 analytically  !
 ! A190  A(95,93,96)           107.7475         calculate D2E/DX2 analytically  !
 ! A191  A(59,97,98)           112.1784         calculate D2E/DX2 analytically  !
 ! A192  A(59,97,99)           111.6845         calculate D2E/DX2 analytically  !
 ! A193  A(59,97,100)          111.7932         calculate D2E/DX2 analytically  !
 ! A194  A(98,97,99)           106.7547         calculate D2E/DX2 analytically  !
 ! A195  A(98,97,100)          107.4759         calculate D2E/DX2 analytically  !
 ! A196  A(99,97,100)          106.6235         calculate D2E/DX2 analytically  !
 ! D1    D(5,1,2,3)            -52.5195         calculate D2E/DX2 analytically  !
 ! D2    D(5,1,2,7)             64.1118         calculate D2E/DX2 analytically  !
 ! D3    D(5,1,2,13)          -173.5361         calculate D2E/DX2 analytically  !
 ! D4    D(8,1,2,3)             66.7863         calculate D2E/DX2 analytically  !
 ! D5    D(8,1,2,7)           -176.5823         calculate D2E/DX2 analytically  !
 ! D6    D(8,1,2,13)           -54.2302         calculate D2E/DX2 analytically  !
 ! D7    D(14,1,2,3)          -173.6552         calculate D2E/DX2 analytically  !
 ! D8    D(14,1,2,7)           -57.0239         calculate D2E/DX2 analytically  !
 ! D9    D(14,1,2,13)           65.3282         calculate D2E/DX2 analytically  !
 ! D10   D(2,1,5,4)             50.2448         calculate D2E/DX2 analytically  !
 ! D11   D(2,1,5,10)           -70.1111         calculate D2E/DX2 analytically  !
 ! D12   D(2,1,5,15)           170.2016         calculate D2E/DX2 analytically  !
 ! D13   D(8,1,5,4)            -68.717          calculate D2E/DX2 analytically  !
 ! D14   D(8,1,5,10)           170.9271         calculate D2E/DX2 analytically  !
 ! D15   D(8,1,5,15)            51.2398         calculate D2E/DX2 analytically  !
 ! D16   D(14,1,5,4)           170.9737         calculate D2E/DX2 analytically  !
 ! D17   D(14,1,5,10)           50.6179         calculate D2E/DX2 analytically  !
 ! D18   D(14,1,5,15)          -69.0695         calculate D2E/DX2 analytically  !
 ! D19   D(2,1,14,24)         -130.788          calculate D2E/DX2 analytically  !
 ! D20   D(5,1,14,24)          107.4639         calculate D2E/DX2 analytically  !
 ! D21   D(8,1,14,24)          -12.2221         calculate D2E/DX2 analytically  !
 ! D22   D(1,2,3,6)            172.4381         calculate D2E/DX2 analytically  !
 ! D23   D(1,2,3,11)            57.1644         calculate D2E/DX2 analytically  !
 ! D24   D(1,2,3,12)           -66.4454         calculate D2E/DX2 analytically  !
 ! D25   D(7,2,3,6)             54.3113         calculate D2E/DX2 analytically  !
 ! D26   D(7,2,3,11)           -60.9624         calculate D2E/DX2 analytically  !
 ! D27   D(7,2,3,12)           175.4278         calculate D2E/DX2 analytically  !
 ! D28   D(13,2,3,6)           -64.6468         calculate D2E/DX2 analytically  !
 ! D29   D(13,2,3,11)         -179.9205         calculate D2E/DX2 analytically  !
 ! D30   D(13,2,3,12)           56.4697         calculate D2E/DX2 analytically  !
 ! D31   D(1,2,13,20)          -99.5248         calculate D2E/DX2 analytically  !
 ! D32   D(3,2,13,20)          138.7135         calculate D2E/DX2 analytically  !
 ! D33   D(7,2,13,20)           22.0939         calculate D2E/DX2 analytically  !
 ! D34   D(2,3,11,4)           -61.4725         calculate D2E/DX2 analytically  !
 ! D35   D(6,3,11,4)           179.8348         calculate D2E/DX2 analytically  !
 ! D36   D(12,3,11,4)           59.9747         calculate D2E/DX2 analytically  !
 ! D37   D(2,3,12,79)         -170.472          calculate D2E/DX2 analytically  !
 ! D38   D(6,3,12,79)          -49.2864         calculate D2E/DX2 analytically  !
 ! D39   D(11,3,12,79)          67.4155         calculate D2E/DX2 analytically  !
 ! D40   D(9,4,5,1)             67.6874         calculate D2E/DX2 analytically  !
 ! D41   D(9,4,5,10)          -172.4857         calculate D2E/DX2 analytically  !
 ! D42   D(9,4,5,15)           -52.659          calculate D2E/DX2 analytically  !
 ! D43   D(11,4,5,1)           -50.8286         calculate D2E/DX2 analytically  !
 ! D44   D(11,4,5,10)           68.9984         calculate D2E/DX2 analytically  !
 ! D45   D(11,4,5,15)         -171.1749         calculate D2E/DX2 analytically  !
 ! D46   D(16,4,5,1)          -170.869          calculate D2E/DX2 analytically  !
 ! D47   D(16,4,5,10)          -51.042          calculate D2E/DX2 analytically  !
 ! D48   D(16,4,5,15)           68.7846         calculate D2E/DX2 analytically  !
 ! D49   D(5,4,11,3)            57.8402         calculate D2E/DX2 analytically  !
 ! D50   D(9,4,11,3)           -60.2077         calculate D2E/DX2 analytically  !
 ! D51   D(16,4,11,3)         -177.8915         calculate D2E/DX2 analytically  !
 ! D52   D(5,4,16,17)          -57.5784         calculate D2E/DX2 analytically  !
 ! D53   D(5,4,16,18)         -168.1492         calculate D2E/DX2 analytically  !
 ! D54   D(5,4,16,19)           68.3675         calculate D2E/DX2 analytically  !
 ! D55   D(9,4,16,17)           63.2428         calculate D2E/DX2 analytically  !
 ! D56   D(9,4,16,18)          -47.328          calculate D2E/DX2 analytically  !
 ! D57   D(9,4,16,19)         -170.8113         calculate D2E/DX2 analytically  !
 ! D58   D(11,4,16,17)        -179.3112         calculate D2E/DX2 analytically  !
 ! D59   D(11,4,16,18)          70.1181         calculate D2E/DX2 analytically  !
 ! D60   D(11,4,16,19)         -53.3652         calculate D2E/DX2 analytically  !
 ! D61   D(1,5,15,28)          114.7479         calculate D2E/DX2 analytically  !
 ! D62   D(4,5,15,28)         -122.9211         calculate D2E/DX2 analytically  !
 ! D63   D(10,5,15,28)          -3.7359         calculate D2E/DX2 analytically  !
 ! D64   D(3,12,79,80)         175.4161         calculate D2E/DX2 analytically  !
 ! D65   D(3,12,79,81)         -65.0988         calculate D2E/DX2 analytically  !
 ! D66   D(3,12,79,82)          56.5904         calculate D2E/DX2 analytically  !
 ! D67   D(2,13,20,21)         -60.5225         calculate D2E/DX2 analytically  !
 ! D68   D(2,13,20,22)          61.4686         calculate D2E/DX2 analytically  !
 ! D69   D(2,13,20,23)        -179.0136         calculate D2E/DX2 analytically  !
 ! D70   D(1,14,24,25)         -57.4384         calculate D2E/DX2 analytically  !
 ! D71   D(1,14,24,26)          64.4859         calculate D2E/DX2 analytically  !
 ! D72   D(1,14,24,27)        -176.5403         calculate D2E/DX2 analytically  !
 ! D73   D(5,15,28,29)         -59.1002         calculate D2E/DX2 analytically  !
 ! D74   D(5,15,28,30)          63.1777         calculate D2E/DX2 analytically  !
 ! D75   D(5,15,28,31)        -177.9183         calculate D2E/DX2 analytically  !
 ! D76   D(4,16,18,91)        -121.6742         calculate D2E/DX2 analytically  !
 ! D77   D(17,16,18,91)        127.6247         calculate D2E/DX2 analytically  !
 ! D78   D(19,16,18,91)          3.6851         calculate D2E/DX2 analytically  !
 ! D79   D(4,16,19,37)         -32.7361         calculate D2E/DX2 analytically  !
 ! D80   D(4,16,19,83)          45.2386         calculate D2E/DX2 analytically  !
 ! D81   D(17,16,19,37)         88.5786         calculate D2E/DX2 analytically  !
 ! D82   D(17,16,19,83)        166.5532         calculate D2E/DX2 analytically  !
 ! D83   D(18,16,19,37)       -152.6135         calculate D2E/DX2 analytically  !
 ! D84   D(18,16,19,83)        -74.6388         calculate D2E/DX2 analytically  !
 ! D85   D(16,18,91,89)        132.6407         calculate D2E/DX2 analytically  !
 ! D86   D(16,19,37,34)       -128.8646         calculate D2E/DX2 analytically  !
 ! D87   D(16,19,37,52)         88.2427         calculate D2E/DX2 analytically  !
 ! D88   D(83,19,37,34)        129.0772         calculate D2E/DX2 analytically  !
 ! D89   D(83,19,37,52)        -13.8155         calculate D2E/DX2 analytically  !
 ! D90   D(16,19,83,52)       -109.1231         calculate D2E/DX2 analytically  !
 ! D91   D(16,19,83,84)         81.4919         calculate D2E/DX2 analytically  !
 ! D92   D(37,19,83,52)         12.9227         calculate D2E/DX2 analytically  !
 ! D93   D(37,19,83,84)       -156.4623         calculate D2E/DX2 analytically  !
 ! D94   D(36,32,33,34)        -48.856          calculate D2E/DX2 analytically  !
 ! D95   D(36,32,33,38)         63.7037         calculate D2E/DX2 analytically  !
 ! D96   D(36,32,33,44)       -172.9714         calculate D2E/DX2 analytically  !
 ! D97   D(39,32,33,34)         71.0102         calculate D2E/DX2 analytically  !
 ! D98   D(39,32,33,38)       -176.4302         calculate D2E/DX2 analytically  !
 ! D99   D(39,32,33,44)        -53.1053         calculate D2E/DX2 analytically  !
 ! D100  D(45,32,33,34)       -167.764          calculate D2E/DX2 analytically  !
 ! D101  D(45,32,33,38)        -55.2044         calculate D2E/DX2 analytically  !
 ! D102  D(45,32,33,44)         68.1205         calculate D2E/DX2 analytically  !
 ! D103  D(33,32,36,35)         59.0644         calculate D2E/DX2 analytically  !
 ! D104  D(33,32,36,41)        -61.1204         calculate D2E/DX2 analytically  !
 ! D105  D(33,32,36,46)        177.3438         calculate D2E/DX2 analytically  !
 ! D106  D(39,32,36,35)        -60.1893         calculate D2E/DX2 analytically  !
 ! D107  D(39,32,36,41)        179.626          calculate D2E/DX2 analytically  !
 ! D108  D(39,32,36,46)         58.0901         calculate D2E/DX2 analytically  !
 ! D109  D(45,32,36,35)        177.5241         calculate D2E/DX2 analytically  !
 ! D110  D(45,32,36,41)         57.3394         calculate D2E/DX2 analytically  !
 ! D111  D(45,32,36,46)        -64.1965         calculate D2E/DX2 analytically  !
 ! D112  D(33,32,45,67)       -138.8452         calculate D2E/DX2 analytically  !
 ! D113  D(36,32,45,67)        103.1511         calculate D2E/DX2 analytically  !
 ! D114  D(39,32,45,67)        -18.6825         calculate D2E/DX2 analytically  !
 ! D115  D(32,33,34,37)       -161.5382         calculate D2E/DX2 analytically  !
 ! D116  D(32,33,34,42)         33.3959         calculate D2E/DX2 analytically  !
 ! D117  D(32,33,34,53)        -70.9083         calculate D2E/DX2 analytically  !
 ! D118  D(38,33,34,37)         81.9313         calculate D2E/DX2 analytically  !
 ! D119  D(38,33,34,42)        -83.1347         calculate D2E/DX2 analytically  !
 ! D120  D(38,33,34,53)        172.5612         calculate D2E/DX2 analytically  !
 ! D121  D(44,33,34,37)        -33.0376         calculate D2E/DX2 analytically  !
 ! D122  D(44,33,34,42)        161.8965         calculate D2E/DX2 analytically  !
 ! D123  D(44,33,34,53)         57.5923         calculate D2E/DX2 analytically  !
 ! D124  D(32,33,44,63)        -77.3677         calculate D2E/DX2 analytically  !
 ! D125  D(34,33,44,63)        156.7815         calculate D2E/DX2 analytically  !
 ! D126  D(38,33,44,63)         46.0179         calculate D2E/DX2 analytically  !
 ! D127  D(33,34,37,19)        -58.3298         calculate D2E/DX2 analytically  !
 ! D128  D(33,34,37,52)         78.7111         calculate D2E/DX2 analytically  !
 ! D129  D(42,34,37,19)        107.894          calculate D2E/DX2 analytically  !
 ! D130  D(42,34,37,52)       -115.0651         calculate D2E/DX2 analytically  !
 ! D131  D(53,34,37,19)       -154.697          calculate D2E/DX2 analytically  !
 ! D132  D(53,34,37,52)        -17.6561         calculate D2E/DX2 analytically  !
 ! D133  D(33,34,42,35)        -24.6743         calculate D2E/DX2 analytically  !
 ! D134  D(37,34,42,35)        169.4388         calculate D2E/DX2 analytically  !
 ! D135  D(53,34,42,35)         79.1166         calculate D2E/DX2 analytically  !
 ! D136  D(33,34,53,51)       -115.9584         calculate D2E/DX2 analytically  !
 ! D137  D(37,34,53,51)          4.6729         calculate D2E/DX2 analytically  !
 ! D138  D(42,34,53,51)        119.2432         calculate D2E/DX2 analytically  !
 ! D139  D(40,35,36,32)         65.8452         calculate D2E/DX2 analytically  !
 ! D140  D(40,35,36,41)       -174.4135         calculate D2E/DX2 analytically  !
 ! D141  D(40,35,36,46)        -54.7224         calculate D2E/DX2 analytically  !
 ! D142  D(42,35,36,32)        -49.272          calculate D2E/DX2 analytically  !
 ! D143  D(42,35,36,41)         70.4693         calculate D2E/DX2 analytically  !
 ! D144  D(42,35,36,46)       -169.8396         calculate D2E/DX2 analytically  !
 ! D145  D(47,35,36,32)       -170.62           calculate D2E/DX2 analytically  !
 ! D146  D(47,35,36,41)        -50.8787         calculate D2E/DX2 analytically  !
 ! D147  D(47,35,36,46)         68.8124         calculate D2E/DX2 analytically  !
 ! D148  D(36,35,42,34)         31.7917         calculate D2E/DX2 analytically  !
 ! D149  D(40,35,42,34)        -86.2592         calculate D2E/DX2 analytically  !
 ! D150  D(47,35,42,34)        158.2909         calculate D2E/DX2 analytically  !
 ! D151  D(36,35,47,48)        -66.9869         calculate D2E/DX2 analytically  !
 ! D152  D(36,35,47,49)        175.922          calculate D2E/DX2 analytically  !
 ! D153  D(36,35,47,50)         54.3414         calculate D2E/DX2 analytically  !
 ! D154  D(40,35,47,48)         56.6347         calculate D2E/DX2 analytically  !
 ! D155  D(40,35,47,49)        -60.4564         calculate D2E/DX2 analytically  !
 ! D156  D(40,35,47,50)        177.9629         calculate D2E/DX2 analytically  !
 ! D157  D(42,35,47,48)        168.8947         calculate D2E/DX2 analytically  !
 ! D158  D(42,35,47,49)         51.8036         calculate D2E/DX2 analytically  !
 ! D159  D(42,35,47,50)        -69.777          calculate D2E/DX2 analytically  !
 ! D160  D(32,36,46,71)        117.1811         calculate D2E/DX2 analytically  !
 ! D161  D(35,36,46,71)       -121.9293         calculate D2E/DX2 analytically  !
 ! D162  D(41,36,46,71)         -3.1113         calculate D2E/DX2 analytically  !
 ! D163  D(19,37,52,51)        160.4503         calculate D2E/DX2 analytically  !
 ! D164  D(19,37,52,83)         13.9183         calculate D2E/DX2 analytically  !
 ! D165  D(34,37,52,51)         29.4337         calculate D2E/DX2 analytically  !
 ! D166  D(34,37,52,83)       -117.0983         calculate D2E/DX2 analytically  !
 ! D167  D(33,44,63,64)        -40.5029         calculate D2E/DX2 analytically  !
 ! D168  D(33,44,63,65)         81.2943         calculate D2E/DX2 analytically  !
 ! D169  D(33,44,63,66)       -159.0176         calculate D2E/DX2 analytically  !
 ! D170  D(32,45,67,68)        -58.9668         calculate D2E/DX2 analytically  !
 ! D171  D(32,45,67,69)         63.0702         calculate D2E/DX2 analytically  !
 ! D172  D(32,45,67,70)       -178.3181         calculate D2E/DX2 analytically  !
 ! D173  D(36,46,71,72)        -62.6094         calculate D2E/DX2 analytically  !
 ! D174  D(36,46,71,73)         59.2776         calculate D2E/DX2 analytically  !
 ! D175  D(36,46,71,74)        178.3239         calculate D2E/DX2 analytically  !
 ! D176  D(35,47,50,75)        178.3288         calculate D2E/DX2 analytically  !
 ! D177  D(48,47,50,75)        -62.4636         calculate D2E/DX2 analytically  !
 ! D178  D(49,47,50,75)         58.1219         calculate D2E/DX2 analytically  !
 ! D179  D(47,50,75,76)        179.8211         calculate D2E/DX2 analytically  !
 ! D180  D(47,50,75,77)        -60.9346         calculate D2E/DX2 analytically  !
 ! D181  D(47,50,75,78)         60.4995         calculate D2E/DX2 analytically  !
 ! D182  D(43,51,52,37)       -149.0276         calculate D2E/DX2 analytically  !
 ! D183  D(43,51,52,83)        -99.6141         calculate D2E/DX2 analytically  !
 ! D184  D(53,51,52,37)        -17.6176         calculate D2E/DX2 analytically  !
 ! D185  D(53,51,52,83)         31.7959         calculate D2E/DX2 analytically  !
 ! D186  D(54,51,52,37)         94.5903         calculate D2E/DX2 analytically  !
 ! D187  D(54,51,52,83)        144.0038         calculate D2E/DX2 analytically  !
 ! D188  D(43,51,53,34)        146.3567         calculate D2E/DX2 analytically  !
 ! D189  D(52,51,53,34)         14.7221         calculate D2E/DX2 analytically  !
 ! D190  D(54,51,53,34)        -97.4439         calculate D2E/DX2 analytically  !
 ! D191  D(43,51,54,55)        -34.4001         calculate D2E/DX2 analytically  !
 ! D192  D(43,51,54,56)        149.3518         calculate D2E/DX2 analytically  !
 ! D193  D(52,51,54,55)         87.1167         calculate D2E/DX2 analytically  !
 ! D194  D(52,51,54,56)        -89.1315         calculate D2E/DX2 analytically  !
 ! D195  D(53,51,54,55)       -155.441          calculate D2E/DX2 analytically  !
 ! D196  D(53,51,54,56)         28.3108         calculate D2E/DX2 analytically  !
 ! D197  D(37,52,83,19)        -12.1204         calculate D2E/DX2 analytically  !
 ! D198  D(37,52,83,84)        149.4113         calculate D2E/DX2 analytically  !
 ! D199  D(51,52,83,19)        -70.645          calculate D2E/DX2 analytically  !
 ! D200  D(51,52,83,84)         90.8867         calculate D2E/DX2 analytically  !
 ! D201  D(51,54,55,57)       -175.2741         calculate D2E/DX2 analytically  !
 ! D202  D(51,54,55,58)          5.1059         calculate D2E/DX2 analytically  !
 ! D203  D(56,54,55,57)          0.9205         calculate D2E/DX2 analytically  !
 ! D204  D(56,54,55,58)       -178.6995         calculate D2E/DX2 analytically  !
 ! D205  D(51,54,56,59)        175.6366         calculate D2E/DX2 analytically  !
 ! D206  D(51,54,56,60)         -3.9519         calculate D2E/DX2 analytically  !
 ! D207  D(55,54,56,59)         -0.563          calculate D2E/DX2 analytically  !
 ! D208  D(55,54,56,60)        179.8484         calculate D2E/DX2 analytically  !
 ! D209  D(54,55,57,61)         -0.6446         calculate D2E/DX2 analytically  !
 ! D210  D(54,55,57,93)        175.8956         calculate D2E/DX2 analytically  !
 ! D211  D(58,55,57,61)        178.9729         calculate D2E/DX2 analytically  !
 ! D212  D(58,55,57,93)         -4.4869         calculate D2E/DX2 analytically  !
 ! D213  D(54,56,59,61)         -0.0802         calculate D2E/DX2 analytically  !
 ! D214  D(54,56,59,97)        177.508          calculate D2E/DX2 analytically  !
 ! D215  D(60,56,59,61)        179.5072         calculate D2E/DX2 analytically  !
 ! D216  D(60,56,59,97)         -2.9045         calculate D2E/DX2 analytically  !
 ! D217  D(55,57,61,59)          0.0173         calculate D2E/DX2 analytically  !
 ! D218  D(55,57,61,62)        179.986          calculate D2E/DX2 analytically  !
 ! D219  D(93,57,61,59)       -176.5085         calculate D2E/DX2 analytically  !
 ! D220  D(93,57,61,62)          3.4602         calculate D2E/DX2 analytically  !
 ! D221  D(55,57,93,94)        -84.7439         calculate D2E/DX2 analytically  !
 ! D222  D(55,57,93,95)        155.7312         calculate D2E/DX2 analytically  !
 ! D223  D(55,57,93,96)         34.5992         calculate D2E/DX2 analytically  !
 ! D224  D(61,57,93,94)         91.8276         calculate D2E/DX2 analytically  !
 ! D225  D(61,57,93,95)        -27.6973         calculate D2E/DX2 analytically  !
 ! D226  D(61,57,93,96)       -148.8293         calculate D2E/DX2 analytically  !
 ! D227  D(56,59,61,57)          0.349          calculate D2E/DX2 analytically  !
 ! D228  D(56,59,61,62)       -179.6197         calculate D2E/DX2 analytically  !
 ! D229  D(97,59,61,57)       -177.2534         calculate D2E/DX2 analytically  !
 ! D230  D(97,59,61,62)          2.778          calculate D2E/DX2 analytically  !
 ! D231  D(56,59,97,98)         21.7486         calculate D2E/DX2 analytically  !
 ! D232  D(56,59,97,99)        -98.0605         calculate D2E/DX2 analytically  !
 ! D233  D(56,59,97,100)       142.5626         calculate D2E/DX2 analytically  !
 ! D234  D(61,59,97,98)       -160.6344         calculate D2E/DX2 analytically  !
 ! D235  D(61,59,97,99)         79.5565         calculate D2E/DX2 analytically  !
 ! D236  D(61,59,97,100)       -39.8204         calculate D2E/DX2 analytically  !
 ! D237  D(19,83,84,85)       -170.4323         calculate D2E/DX2 analytically  !
 ! D238  D(19,83,84,89)         -1.7323         calculate D2E/DX2 analytically  !
 ! D239  D(52,83,84,85)         27.3831         calculate D2E/DX2 analytically  !
 ! D240  D(52,83,84,89)       -163.917          calculate D2E/DX2 analytically  !
 ! D241  D(83,84,85,86)       -130.8369         calculate D2E/DX2 analytically  !
 ! D242  D(83,84,85,87)        -11.462          calculate D2E/DX2 analytically  !
 ! D243  D(83,84,85,88)        108.0163         calculate D2E/DX2 analytically  !
 ! D244  D(89,84,85,86)         60.5845         calculate D2E/DX2 analytically  !
 ! D245  D(89,84,85,87)        179.9594         calculate D2E/DX2 analytically  !
 ! D246  D(89,84,85,88)        -60.5623         calculate D2E/DX2 analytically  !
 ! D247  D(83,84,89,90)       -111.0747         calculate D2E/DX2 analytically  !
 ! D248  D(83,84,89,91)          8.4777         calculate D2E/DX2 analytically  !
 ! D249  D(83,84,89,92)        128.0621         calculate D2E/DX2 analytically  !
 ! D250  D(85,84,89,90)         60.2028         calculate D2E/DX2 analytically  !
 ! D251  D(85,84,89,91)        179.7552         calculate D2E/DX2 analytically  !
 ! D252  D(85,84,89,92)        -60.6604         calculate D2E/DX2 analytically  !
 ! D253  D(84,89,91,18)        -89.4291         calculate D2E/DX2 analytically  !
 ! D254  D(90,89,91,18)         30.5573         calculate D2E/DX2 analytically  !
 ! D255  D(92,89,91,18)        150.6798         calculate D2E/DX2 analytically  !
 --------------------------------------------------------------------------------
 Trust Radius=5.00D-02 FncErr=1.00D-07 GrdErr=1.00D-06 EigMax=2.50D+02 EigMin=1.00D-04
 Number of steps in this run=    566 maximum allowed number of steps=    600.
 Search for a saddle point of order  1.
 GradGradGradGradGradGradGradGradGradGradGradGradGradGradGradGradGradGrad

 Leave Link  103 at Thu Jun  6 05:36:57 2019, MaxMem=  6442450944 cpu:               4.6 elap:               0.2
 (Enter /home/ekwan/sw/g16/l202.exe)
 Stoichiometry    C30H47F6NaO15S
 Framework group  C1[X(C30H47F6NaO15S)]
 Deg. of freedom   294
 Full point group                 C1      NOp   1
 Largest Abelian subgroup         C1      NOp   1
 Largest concise Abelian subgroup C1      NOp   1
                         Standard orientation:                         
 ---------------------------------------------------------------------
 Center     Atomic      Atomic             Coordinates (Angstroms)
 Number     Number       Type             X           Y           Z
 ---------------------------------------------------------------------
      1          6           0       -2.047789    1.528134    2.215391
      2          6           0       -2.377688    2.318501    0.945812
      3          6           0       -1.563897    3.618099    0.909795
      4          6           0        0.240598    2.646954    2.200000
      5          6           0       -0.534093    1.330233    2.357355
      6          1           0       -1.692805    4.123114   -0.056372
      7          1           0       -2.072766    1.732616    0.070092
      8          1           0       -2.412647    2.096539    3.078212
      9          1           0        0.001679    3.285437    3.059449
     10          1           0       -0.207424    0.627999    1.582865
     11          8           0       -0.175414    3.324003    0.986128
     12          8           0       -1.992593    4.447567    1.950801
     13          8           0       -3.757292    2.642187    0.866371
     14          8           0       -2.699675    0.258752    2.159945
     15          8           0       -0.254741    0.797307    3.652084
     16          6           0        1.770483    2.469020    2.112798
     17          1           0        2.054694    1.939273    3.045709
     18          1           0        2.191415    3.494155    2.224256
     19          8           0        2.216198    1.854163    0.966607
     20          6           0       -4.515162    1.784437    0.024888
     21          1           0       -4.149695    1.810950   -1.010742
     22          1           0       -4.496073    0.750033    0.379243
     23          1           0       -5.542586    2.155147    0.042477
     24          6           0       -3.426347   -0.082378    3.331672
     25          1           0       -2.783204   -0.077243    4.218616
     26          1           0       -4.266143    0.605846    3.496107
     27          1           0       -3.813507   -1.090251    3.173463
     28          6           0        0.287017   -0.515681    3.654417
     29          1           0       -0.389352   -1.228162    3.168715
     30          1           0        1.264160   -0.557256    3.158013
     31          1           0        0.411089   -0.799553    4.702560
     32          6           0        4.092307   -1.275904   -1.248812
     33          6           0        3.323255   -0.011906   -0.839247
     34          6           0        2.006820   -0.353300   -0.203011
     35          6           0        2.672640   -2.603253    0.369030
     36          6           0        4.099106   -2.239227   -0.052363
     37          1           0        1.228810    0.378677   -0.127426
     38          1           0        3.864179    0.487888   -0.020225
     39          1           0        3.591392   -1.740788   -2.105330
     40          1           0        2.194520   -3.177114   -0.428643
     41          1           0        4.610178   -1.752204    0.783958
     42          8           0        1.830152   -1.402188    0.517391
     43          8           0       -0.374133   -0.164050   -3.927544
     44          8           0        3.081888    0.924663   -1.866073
     45          8           0        5.422801   -0.916164   -1.575004
     46          8           0        4.745588   -3.452829   -0.394477
     47          6           0        2.555639   -3.367387    1.670996
     48          1           0        3.005335   -4.359408    1.524829
     49          1           0        1.490959   -3.508611    1.908251
     50          8           0        3.214104   -2.646860    2.688810
     51         16           0       -0.192880   -0.242453   -2.469027
     52          8           0       -0.228315    1.079840   -1.769882
     53          8           0        0.992805   -1.068191   -2.043637
     54          6           0       -1.616907   -1.132183   -1.812228
     55          6           0       -2.862367   -0.973827   -2.412068
     56          6           0       -1.470485   -1.906796   -0.663960
     57          6           0       -3.976718   -1.587433   -1.837409
     58          1           0       -2.958979   -0.385985   -3.316695
     59          6           0       -2.589433   -2.519276   -0.105830
     60          1           0       -0.496933   -2.024532   -0.208068
     61          6           0       -3.848005   -2.361117   -0.685393
     62          1           0       -4.717513   -2.833529   -0.245786
     63          6           0        4.202972    1.740041   -2.226564
     64          1           0        4.762253    2.051038   -1.337865
     65          1           0        4.874028    1.212471   -2.906771
     66          1           0        3.790240    2.621871   -2.717964
     67          6           0        5.950062   -1.578055   -2.721855
     68          1           0        5.942952   -2.664347   -2.594563
     69          1           0        5.383283   -1.316242   -3.624450
     70          1           0        6.978511   -1.230333   -2.833169
     71          6           0        5.925589   -3.723408    0.359566
     72          1           0        6.688634   -2.957251    0.185294
     73          1           0        5.706661   -3.777842    1.432508
     74          1           0        6.296847   -4.690246    0.016588
     75          6           0        3.119273   -3.278212    3.956005
     76          1           0        3.657996   -2.649262    4.665699
     77          1           0        2.073111   -3.372106    4.276600
     78          1           0        3.574091   -4.277771    3.938539
     79          6           0       -1.463174    5.767145    1.892629
     80          1           0       -1.932778    6.329594    2.700579
     81          1           0       -0.376791    5.772048    2.029393
     82          1           0       -1.705039    6.242602    0.932692
     83         11           0        1.230808    2.665557   -0.895326
     84          8           0        2.437504    4.587343   -1.329909
     85          6           0        2.283689    5.679958   -2.222843
     86          1           0        3.216726    5.875874   -2.766754
     87          1           0        1.500797    5.411243   -2.933882
     88          1           0        1.989474    6.589937   -1.684091
     89          6           0        3.440144    4.811258   -0.341763
     90          1           0        3.193418    5.688704    0.269610
     91          1           0        3.463971    3.915673    0.281728
     92          1           0        4.418821    4.969132   -0.813542
     93          6           0       -5.339228   -1.344617   -2.426840
     94          9           0       -5.891058   -0.207132   -1.939776
     95          9           0       -6.196928   -2.344574   -2.146323
     96          9           0       -5.289980   -1.209549   -3.765770
     97          6           0       -2.438436   -3.403945    1.100913
     98          9           0       -1.303648   -3.141351    1.787502
     99          9           0       -2.393733   -4.709123    0.759997
    100          9           0       -3.472320   -3.263748    1.957695
 ---------------------------------------------------------------------
 Rotational constants (GHZ):           0.0561881           0.0426152           0.0357764
 Leave Link  202 at Thu Jun  6 05:36:57 2019, MaxMem=  6442450944 cpu:               4.9 elap:               0.3
 (Enter /home/ekwan/sw/g16/l301.exe)
 Standard basis: 6-31G(d) (6D, 7F)
 Ernie: Thresh=  0.10000D-02 Tol=  0.10000D-05 Strict=F.
 There are   897 symmetry adapted cartesian basis functions of A   symmetry.
 There are   897 symmetry adapted basis functions of A   symmetry.
   897 basis functions,  1720 primitive gaussians,   897 cartesian basis functions
   214 alpha electrons      214 beta electrons
       nuclear repulsion energy      9604.8071256843 Hartrees.
 IExCor=  902 DFT=T Ex+Corr=mPW1LYP ExCW=0 ScaHFX=  0.250000
 ScaDFX=  0.750000  0.750000  1.000000  1.000000 ScalE2=  1.000000  1.000000
 IRadAn=      5 IRanWt=     -1 IRanGd=            0 ICorTp=0 IEmpDi=  4
 NAtoms=  100 NActive=  100 NUniq=  100 SFac= 1.00D+00 NAtFMM=   60 NAOKFM=T Big=T
 Integral buffers will be    131072 words long.
 Raffenetti 2 integral format.
 Two-electron integral symmetry is turned on.
 Force inversion solution in PCM.
 ------------------------------------------------------------------------------
 Polarizable Continuum Model (PCM)
 =================================
 Model                : PCM.
 Atomic radii         : UFF (Universal Force Field).
 Polarization charges : Total charges.
 Charge compensation  : None.
 Solution method      : Matrix inversion.
 Cavity type          : Scaled VdW (van der Waals Surface) (Alpha=1.100).
 Cavity algorithm     : GePol (No added spheres)
                        Default sphere list used, NSphG=  100.
                        Lebedev-Laikov grids with approx.  5.0 points / Ang**2.
                        Smoothing algorithm: York/Karplus (Gamma=1.0000).
                        Polarization charges: spherical gaussians, with
                                              point-specific exponents (IZeta= 3).
                        Self-potential: point-specific (ISelfS= 7).
                        Self-field    : sphere-specific E.n sum rule (ISelfD= 2).
 1st derivatives      : Analytical E(r).r(x)/FMM algorithm (CHGder, D1EAlg=3).
                        Cavity 1st derivative terms included.
 2nd derivatives      : Analytical E(r).r(xy)/FMM algorithm (CHGder, D2EAlg=3).
                        Cavity 2nd derivative terms included.
 Solvent              : TetraHydroFuran, Eps=   7.425700 Eps(inf)=   1.974025
 ------------------------------------------------------------------------------
 GePol: Number of generator spheres                  =     100
 GePol: Total number of spheres                      =     100
 GePol: Number of exposed spheres                    =     100 (100.00%)
 GePol: Number of points                             =    6386
 GePol: Average weight of points                     =       0.12
 GePol: Minimum weight of points                     =   0.29D-11
 GePol: Maximum weight of points                     =    0.21593
 GePol: Number of points with low weight             =     521
 GePol: Fraction of low-weight points (<1% of avg)   =       8.16%
 GePol: Cavity surface area                          =    782.825 Ang**2
 GePol: Cavity volume                                =    987.876 Ang**3
 Leave Link  301 at Thu Jun  6 05:36:58 2019, MaxMem=  6442450944 cpu:               7.4 elap:               0.3
 (Enter /home/ekwan/sw/g16/l302.exe)
[...]
 .00004599,0.00007233,-0.00012241,0.00013524,0.00000348,0.00022689,0.00
 001036,-0.00004535,-0.00011503,0.00003655,-0.00000367,0.00010737,-0.00
 012573,0.00007632,-0.00008843,0.00010967,-0.00007824,0.00336783,0.0014
 7909,-0.00117910,-0.00078591,-0.00110380,-0.00003358,-0.00156419,0.000
 05850,-0.00007068,-0.00042669,0.00082589,0.00228791,0.00016732,-0.0008
 3596,0.00047224,0.00377323,-0.00090074,0.00082932,-0.00007070,0.000617
 32,0.00218633,0.00010107,-0.00017696,-0.00015218,0.00192032,-0.0445061
 0,0.00010405,0.00032095,-0.00069566,-0.00088333,-0.00338667,-0.0008653
 0,0.00007581,0.00044128,-0.00081753,-0.00082707,0.00010218,0.00007825,
 -0.00004745,-0.00001785,-0.00000949,-0.00000530,-0.00002491,-0.0000041
 1,0.00001478,0.00000034,-0.00000767,0.00000612,0.00003295,-0.00005375,
 -0.00006789,-0.00000471,0.00001541,0.00000373,0.00000009,0.00000063,0.
 00000657,-0.00000920,0.00000391,0.00000985,0.00005296,-0.00002354,0.00
 004028,-0.00000378,0.00000438,-0.00000644,-0.00000175,-0.00000765,-0.0
 0000884,-0.00002092,0.00001228,0.00000184,0.00005007,-0.00008232,0.000
 08264,0.00000183,0.00000816,-0.00000700,-0.00000444,-0.00000954,0.0000
 0141,-0.00003378,0.00003132,-0.00000420,0.00003724,0.00011797,-0.00000
 885,0.00000143,-0.00002035,-0.00000968,-0.00001438,-0.00001100,0.00000
 413,-0.00000528,-0.00001519,0.00001189,0.00015815,0.00019022,0.0000161
 1,-0.00004862,-0.00004688,0.00000245,0.00000658,0.00003280,-0.00002244
 ,-0.00001022,-0.00000481,0.00000531,0.00000241,0.00000382,-0.00000476,
 0.00000118,-0.00000629,-0.00000100,0.00002881,0.00001159,0.00001220,-0
 .00000048,-0.00000608,-0.00000259,0.00001822,0.00001301,-0.00000125,-0
 .00001073,-0.00000752,0.00000653,-0.00275100,0.00013165,-0.00092520,0.
 00078477,-0.00046095,0.00006814,0.00086657,0.00032530,0.00017570,0.000
 69526,-0.00014865,0.00085506,0.00970561,-0.26089783,-0.02386547,-0.032
 61270,-0.03305597,-0.03061958,-0.00968091,0.36691692,0.00011304,0.0001
 9665,-0.00001528,-0.00005140,-0.00001246,-0.00011936,-0.00000327,0.000
 00197,-0.00000439,-0.00001638,0.00007175,-0.00004794,-0.00001782,0.000
 05978,-0.00016713,-0.00000212,-0.00002206,0.00000936,0.00000711,-0.000
 00587,0.00000900,-0.00001352,-0.00002121,0.00000636,-0.00000700,-0.000
 00321,0.00000869,-0.00000034,0.00001428,-0.00000235,0.00001574,-0.0000
 4013,0.00007625,0.00000282,-0.00000773,0.00002543,0.00007507,0.0000448
 6,0.00012437,-0.00008736,-0.00037218,0.00013084,0.00000409,-0.00035970
 ,0.00008974,0.00006506,-0.00001803,-0.00010139,0.00000898,-0.00000244,
 0.00003182,-0.00001900,0.00000822,0.00002432,-0.00004169,0.00005509,0.
 00013129,-0.00002846,-0.00006608,-0.00011042,-0.00000983,-0.00003931,0
 .00005224,0.00001479,-0.00000668,-0.00005660,-0.00000477,0.00001603,0.
 00001218,0.00029269,0.00040781,-0.00011491,-0.00003222,-0.00005357,0.0
 0001181,-0.00001851,-0.00013842,-0.00001026,-0.00029765,0.00007644,0.0
 0025139,0.00024002,0.00044747,0.00014048,-0.00009068,0.00000220,0.0000
 7091,-0.00006206,-0.00004963,-0.00002909,-0.00003286,-0.00004199,-0.00
 003984,-0.00003946,0.00000597,-0.00002316,-0.00000115,0.00001027,0.000
 00183,-0.00020671,-0.00006145,-0.00040239,-0.00007831,0.00004989,-0.00
 010036,0.00000997,-0.00000957,0.00000488,0.00000594,-0.00001217,-0.000
 01339,0.00001347,-0.00000147,-0.00000933,-0.00000931,0.00000881,0.0000
 1554,-0.00000140,0.00000598,0.00000422,0.00001067,0.00000405,-0.000000
 23,0.00007158,-0.00010582,0.00019712,0.00034551,0.00023398,-0.00032780
 ,0.00004549,0.00001279,0.00001816,0.00001884,-0.00000328,0.00002089,0.
 00001998,-0.00001487,0.00002626,0.00020937,0.00005417,-0.00007635,-0.0
 0004152,0.00000544,0.00001793,0.00004588,-0.00005022,0.00005433,-0.000
 09336,-0.00002185,0.00004304,-0.00133106,-0.00072374,0.00026532,0.0002
 9913,0.00048296,0.00010230,0.00066975,0.00004488,0.00015801,-0.0001036
 6,-0.00071500,-0.00107081,0.00009067,0.00050680,-0.00044153,-0.0018073
 1,0.00017603,0.00029106,0.00043877,-0.00058243,-0.00049870,-0.00002363
 ,0.00005054,0.00008884,-0.00103109,0.02400898,0.00817968,0.00010902,0.
 00044624,0.00013618,0.00125413,0.00045633,0.00021857,-0.00018564,0.000
 20178,0.00005015,-0.00002346,-0.00002348,0.00000897,0.00000777,0.00000
 430,0.00000419,0.00000333,0.00000160,-0.00000249,-0.00000129,-0.000000
 85,-0.00000211,-0.00000612,-0.00000159,-0.00000812,-0.00000123,0.00000
 018,-0.00000239,0.00000116,-0.00000301,0.00000503,0.00000349,0.0000015
 0,0.00000019,-0.00001299,0.00000343,-0.00002209,0.00000144,0.00000058,
 0.00000182,0.00000439,-0.00000150,0.00000814,0.00000011,0.00000093,0.0
 0000092,0.00007893,0.00000248,-0.00002981,-0.00000975,-0.00000448,0.00
 000156,-0.00002958,0.00000293,0.00001618,-0.00001202,0.00000639,0.0000
 0405,0.00000025,0.00001238,-0.00000525,-0.00000094,0.00000127,0.000000
 51,0.00000031,-0.00000022,-0.00000119,0.00000122,-0.00000352,0.0000045
 3,-0.00004492,-0.00006822,-0.00006362,0.00001524,0.00001003,0.00001711
 ,-0.00000322,-0.00000478,-0.00000404,0.00000085,-0.00000036,-0.0000002
 1,0.00000196,-0.00000199,0.00000243,-0.00000034,0.00000236,0.00000208,
 -0.00001165,-0.00000268,-0.00001519,0.00000093,0.00000446,0.00000216,-
 0.00000083,-0.00000279,-0.00000070,0.00000210,0.00000087,0.00000129,0.
 00108521,-0.00028242,0.00029073,-0.00031232,0.00023616,0.00000278,-0.0
 0033026,-0.00005359,-0.00005090,-0.00026704,0.00009119,-0.00024471,0.0
 0050208,-0.02391814,-0.07692194,-0.01986762,-0.03938366,-0.00836676,-0
 .00364723,0.08335871,0.09353631,-0.00027608,-0.00037743,-0.00000302,0.
 00000592,0.00007326,0.00009174,-0.00014461,0.00003064,-0.00001389,0.00
 006182,-0.00000747,-0.00001848,-0.00012578,0.00022861,-0.00005850,0.00
 001846,0.00002208,-0.00000362,-0.00001349,0.00000499,-0.00002064,0.000
 02765,0.00000840,-0.00001170,0.00000137,-0.00002029,-0.00000811,0.0000
 3527,-0.00001720,-0.00003901,0.00008499,-0.00005902,0.00001432,0.00004
 484,-0.00000988,-0.00003320,0.00009657,0.00001719,-0.00006746,0.000602
 55,0.00051264,-0.00028547,0.00019391,-0.00047073,-0.00001762,-0.000096
 05,0.00006981,0.00014113,0.00001654,0.00000360,-0.00002206,0.00001872,
 -0.00005340,-0.00003710,0.00003861,-0.00018095,-0.00016035,-0.00003332
 ,-0.00008945,0.00007932,0.00001930,0.00005746,-0.00006004,-0.00002535,
 0.00001954,0.00004665,0.00001141,-0.00000979,-0.00000433,-0.00100625,-
 0.00121148,0.00056433,0.00011428,0.00029049,0.00008023,0.00009923,0.00
 031858,0.00002195,0.00069845,-0.00015903,-0.00078778,0.00021628,0.0006
 1460,0.00019189,-0.00014235,0.00007712,0.00015992,-0.00000250,-0.00002
 024,-0.00002556,-0.00006271,-0.00007366,-0.00008339,0.00006221,0.00002
 551,-0.00005193,-0.00001770,0.00004646,-0.00002871,0.00024540,0.000536
 60,-0.00000045,0.00004216,0.00001526,-0.00006135,0.00012916,-0.0000616
 0,-0.00000127,-0.00002045,0.00003225,0.00000005,-0.00000266,0.00000389
 ,0.00002272,0.00000692,-0.00000835,-0.00001140,0.00003829,-0.00001314,
 -0.00004135,-0.00001837,0.00000170,-0.00000158,-0.00021110,-0.00032315
 ,0.00018064,-0.00023362,-0.00020836,0.00046255,-0.00008677,-0.00010443
 ,0.00005606,-0.00012398,-0.00002084,0.00007651,-0.00013843,0.00004286,
 -0.00000067,0.00066261,0.00024485,0.00003837,-0.00011547,-0.00000429,0
 .00001933,0.00011175,-0.00016014,0.00025069,-0.00030186,-0.00009861,-0
 .00029057,0.00102158,0.00078668,-0.00043865,-0.00021960,-0.00055045,-0
 .00009151,-0.00044066,-0.00017142,0.00007822,-0.00027524,-0.00053964,-
 0.00029864,0.00036223,0.00007722,0.00015869,0.00141033,-0.00060448,0.0
 0193880,0.00094994,-0.00105082,0.00059326,0.00013095,0.00012401,0.0000
 3330,-0.00686926,0.00091334,0.01480210,0.00057947,0.00065567,-0.000345
 32,-0.00290990,-0.00049496,-0.00243352,0.00180420,0.00090975,0.0005654
 0,0.00007370,0.00006504,-0.00002136,-0.00001216,-0.00000409,-0.0000061
 8,-0.00001416,-0.00000198,0.00000545,-0.00000247,-0.00000943,0.0000078
 5,0.00002957,-0.00002634,-0.00005411,0.00000440,0.00000454,0.00000307,
 0.00000144,0.00000456,0.00000721,-0.00001336,-0.00000073,0.00000756,0.
 00009796,-0.00001867,0.00004708,-0.00001818,-0.00000834,-0.00000249,0.
 00000454,-0.00000231,-0.00000361,-0.00000817,0.00000839,-0.00000238,0.
 00007139,-0.00009751,0.00016506,-0.00002434,-0.00000672,-0.00002837,-0
 .00001379,0.00002970,0.00001091,-0.00000842,0.00003098,-0.00001030,-0.
 00001056,-0.00000312,0.00000167,0.00000153,-0.00000260,-0.00000225,0.0
 0000505,0.00000267,0.00000229,-0.00000074,0.00000195,-0.00000095,0.000
 02177,0.00012499,0.00002026,-0.00000735,-0.00003087,-0.00000041,-0.000
 00307,0.00002094,-0.00001046,-0.00000143,-0.00000211,0.00000215,-0.000
 00028,0.00000239,0.00000064,0.00000034,-0.00000672,-0.00000203,0.00000
 483,0.00001024,0.00000457,0.00000062,-0.00000722,-0.00000119,0.0000084
 5,0.00001001,0.00000083,-0.00000167,-0.00000256,0.00000145,-0.00107829
 ,-0.00003511,0.00010635,0.00034100,-0.00020375,-0.00006691,0.00034664,
 0.00014952,-0.00005875,0.00024240,-0.00004489,0.00012378,-0.16647162,0
 .00331413,0.09731070,-0.07981352,-0.00454385,0.01490385,-0.00936484,0.
 02945095,0.02416499,0.25956299,0.00022085,0.00034474,-0.00001170,-0.00
 007792,0.00001567,-0.00000668,0.00006028,0.00010796,0.00004940,-0.0000
 2211,0.00006964,-0.00000239,0.00004654,-0.00003638,0.00008188,-0.00001
 056,-0.00002855,0.00000366,0.00000462,0.00000971,-0.00000503,-0.000029
 95,-0.00004132,0.00000069,-0.00000149,-0.00001397,-0.00000757,0.000014
 60,-0.00000120,-0.00001424,-0.00003828,-0.00004629,-0.00001385,-0.0000
 1739,-0.00011577,-0.00002893,0.00000794,-0.00009499,-0.00000505,-0.000
 12222,-0.00037514,-0.00012206,-0.00011639,0.00004506,-0.00006180,0.000
 02402,-0.00001953,0.00003625,0.00000096,0.00000583,-0.00001484,-0.0000
 2036,-0.00002576,-0.00000811,-0.00005408,-0.00003518,-0.00003409,-0.00
 000431,0.00010199,0.00000052,0.00000092,0.00001494,-0.00000467,-0.0000
 3250,-0.00001337,0.00004072,0.00002271,-0.00002913,-0.00000042,0.00089
 411,0.00082464,-0.00019462,-0.00012045,-0.00025883,-0.00008631,-0.0001
 5837,-0.00043167,-0.00010916,-0.00052315,-0.00242434,-0.00062750,0.000
 06738,-0.00005360,0.00004084,0.00000893,-0.00003158,-0.00001700,-0.000
 01692,-0.00000108,-0.00000077,-0.00001027,0.00000081,-0.00002436,0.000
 03939,-0.00002075,-0.00000594,0.00000432,-0.00000279,-0.00002077,0.000
 17998,0.00005433,0.00024394,0.00008810,-0.00014876,0.00002008,0.000021
 59,-0.00001098,0.00000309,0.00000699,0.00000980,-0.00000367,-0.0000066
 1,-0.00000285,0.00001065,0.00000600,-0.00000712,-0.00000647,-0.0000012
 2,-0.00000664,0.00000891,-0.00000048,0.00000194,0.00000057,-0.00011814
 ,0.00011837,-0.00009632,-0.00028832,-0.00012330,0.00039908,-0.00006057
 ,-0.00001636,0.00001177,-0.00004031,0.00001798,0.00001580,-0.00003605,
 0.00004531,-0.00000456,-0.00000675,-0.00002123,-0.00000659,-0.00001844
 ,0.00001092,-0.00000663,0.00002689,-0.00001850,0.00002061,0.00000911,0
 .00004753,-0.00001970,0.00141965,0.00038767,-0.00046834,-0.00038295,-0
 .00044792,-0.00003533,-0.00058949,0.00003374,-0.00005861,0.00016096,-0
 .00145256,0.00034158,-0.00058359,-0.00033898,0.00040105,0.00158975,0.0
 0063484,0.00144748,-0.00009874,-0.00004752,-0.00034200,-0.00000717,0.0
 0004977,0.00002004,-0.01397621,0.00782059,0.01667203,-0.00003842,0.000
 45940,0.00006889,-0.00022374,-0.00045135,0.00084732,-0.00008660,-0.000
 31697,0.00055004,0.00003501,0.00002725,-0.00001716,-0.00000650,-0.0000
 0384,-0.00000208,-0.00000840,-0.00000143,0.00000537,0.00000075,-0.0000
 0207,0.00000175,0.00001058,-0.00001610,-0.00001844,-0.00000155,0.00000
 489,0.00000161,-0.00000024,0.00000051,0.00000085,-0.00000302,0.0000009
 9,0.00000283,0.00001457,-0.00000742,0.00001518,-0.00000045,0.00000171,
 -0.00000243,-0.00000188,-0.00000204,-0.00000438,-0.00000627,0.00000341
 ,0.00000052,-0.00000902,-0.00002281,0.00002690,0.00000528,0.00000388,-
 0.00000090,0.00000728,-0.00000574,-0.00000444,-0.00000696,0.00000716,-
 0.00000164,0.00002101,0.00006066,-0.00000331,0.00000034,-0.00001029,-0
 .00000479,-0.00000827,-0.00000644,0.00000174,-0.00000306,-0.00000867,0
 .00000601,0.00007194,0.00007171,0.00000322,-0.00002088,-0.00001714,-0.
 00000026,0.00000308,0.00001207,-0.00000810,-0.00000411,-0.00000166,0.0
 0000215,0.00000084,0.00000163,-0.00000214,0.00000056,-0.00000208,-0.00
 000041,0.00001257,0.00000408,0.00000619,-0.00000024,-0.00000205,-0.000
 00119,0.00000681,0.00000432,-0.00000056,-0.00000451,-0.00000289,0.0000
 0257,-0.00092326,0.00005641,-0.00042849,0.00026821,-0.00013592,0.00004
 208,0.00030295,0.00010116,0.00007119,0.00019682,-0.00003647,0.00025241
 ,0.00425421,-0.07292345,-0.00096635,-0.00537562,0.01136997,0.00242107,
 0.04194781,-0.02552305,-0.04459035,-0.02776244,0.08327884,0.00031433,0
 .00052358,0.00001412,-0.00009347,-0.00007248,-0.00022111,0.00010124,-0
 .00003658,0.00000541,-0.00007186,0.00008907,-0.00005120,0.00007261,-0.
 00010981,-0.00014720,-0.00001649,-0.00004291,0.00001389,0.00002276,-0.
 00001362,0.00002929,-0.00003351,-0.00001773,0.00002265,-0.00000949,0.0
 0001199,0.00001835,-0.00002700,0.00003326,0.00002791,-0.00003506,0.000
 00425,0.00008677,-0.00002616,0.00001170,0.00006001,0.00005125,0.000071
 11,0.00021240,-0.00055798,-0.00072704,0.00044208,-0.00014434,-0.000022
 33,0.00013866,0.00014850,-0.00007489,-0.00023346,-0.00000235,-0.000006
 51,0.00005778,-0.00003553,0.00005378,0.00005840,-0.00006712,0.00020605
 ,0.00028915,-0.00002889,-0.00006743,-0.00018212,-0.00002284,-0.0000800
 8,0.00009691,0.00002555,-0.00001907,-0.00011406,-0.00001306,0.00002818
 ,0.00001742,0.00159277,0.00147759,-0.00053243,-0.00015023,-0.00025619,
 -0.00001830,-0.00019006,-0.00056526,-0.00004629,-0.00113367,-0.0007945
 2,0.00021236,0.00003920,-0.00001625,-0.00000339,0.00006707,-0.00004305
 ,-0.00008589,-0.00005886,-0.00003762,-0.00000827,0.00002904,0.00002095
 ,0.00003549,-0.00010147,0.00000289,0.00001055,0.00000861,-0.00001166,0
 .00003009,-0.00048859,-0.00044640,-0.00061409,-0.00016061,0.00013412,-
 0.00008479,-0.00007708,0.00002977,0.00000252,0.00001720,-0.00004011,-0
 .00002047,0.00002246,-0.00000423,-0.00003118,-0.00001798,0.00001971,0.
 00002783,-0.00002490,0.00001817,0.00002472,0.00002249,0.00000246,0.000
 00036,0.00027877,0.00001805,0.00016737,0.00075402,0.00045568,-0.001054
 40,0.00013988,0.00008802,-0.00001733,0.00011654,-0.00000049,-0.0000322
 3,0.00012180,-0.00006314,0.00003016,-0.00010910,-0.00005955,-0.0001300
 4,0.00002186,0.00000414,0.00001521,0.00001578,0.00002123,-0.00002355,0
 .00006231,0.00001508,0.00021798,-0.00330706,-0.00146061,0.00078547,0.0
 0078509,0.00132191,0.00028498,0.00143995,0.00010954,0.00018137,0.00162
 044,0.00208063,-0.00044338,0.00028405,0.00044026,-0.00062587,-0.004711
 19,0.00140031,-0.00587943,0.00011835,0.00051102,-0.00005569,-0.0000420
 1,-0.00007496,-0.00004031,0.03775083,0.00242586,-0.02687297,-0.0001179
 2,-0.00056123,0.00002596,0.00166139,0.00023634,-0.00000191,-0.00007970
 ,0.00003615,-0.00159265,-0.00008969,-0.00008169,0.00003330,0.00002038,
 0.00000970,0.00000927,0.00001732,0.00000421,-0.00000885,-0.00000034,0.
 00000609,-0.00000834,-0.00002975,0.00002243,0.00003434,-0.00000289,-0.
 00000506,-0.00000511,0.00000037,-0.00000591,0.00000029,0.00001330,0.00
 000130,-0.00000596,-0.00007843,0.00001707,-0.00005839,0.00001266,0.000
 00523,0.00000416,0.00000312,0.00000010,0.00001251,0.00000768,-0.000005
 53,0.00000283,0.00004598,0.00006297,-0.00013288,0.00000410,-0.00000073
 ,0.00001812,-0.00002418,-0.00001391,0.00001082,-0.00000813,-0.00001226
 ,0.00001124,0.00000468,0.00000942,-0.00000688,-0.00000253,0.00000453,0
 .00000253,-0.00000179,-0.00000155,-0.00000339,0.00000220,-0.00000484,0
 .00000561,-0.00009449,-0.00019901,-0.00010372,0.00002914,0.00003832,0.
 00002087,-0.00000249,-0.00002350,0.00000509,0.00000317,0.00000167,-0.0
 0000230,0.00000227,-0.00000464,0.00000313,-0.00000065,0.00000813,0.000
 00380,-0.00002115,-0.00001104,-0.00002350,0.00000099,0.00001100,0.0000
 0375,-0.00000871,-0.00001153,-0.00000138,0.00000504,0.00000359,0.,0.00
 228032,-0.00043297,0.00063893,-0.00072606,0.00051527,0.00002128,-0.000
 73440,-0.00016636,-0.00010141,-0.00049977,0.00014740,-0.00053299,0.089
 06597,0.00167248,-0.17223620,0.00063744,0.00137023,0.02160743,0.025854
 67,-0.03344072,-0.01548725,-0.15143590,0.02433298,0.20178962\\-0.00000
 085,-0.00000042,0.00000091,0.00000049,-0.00000006,0.00000188,-0.000000
 44,0.00000060,0.00000215,-0.00000043,-0.00000112,0.00000312,-0.0000009
 0,-0.00000044,-0.00000246,-0.00000028,-0.00000030,0.00000342,-0.000000
 06,-0.00000063,0.00000143,0.00000074,-0.00000219,0.00000265,0.00000108
 ,-0.00000142,0.00000173,0.00000452,-0.00000211,0.00000961,-0.00000074,
 -0.00000018,0.00000045,0.00000093,-0.00000141,0.00000287,-0.00000039,-
 0.00000106,0.00000316,0.00000147,-0.00000386,-0.00000092,0.00000586,0.
 00000012,-0.00000096,-0.00000088,0.00000266,0.00000308,0.00000088,-0.0
 0000203,0.00000168,-0.00000242,-0.00000106,0.00000396,0.00000053,-0.00
 000465,-0.00000931,0.00000021,-0.00000003,0.00000291,-0.00000058,0.000
 00014,0.00000222,0.00000031,-0.00000083,0.00000300,-0.00000046,-0.0000
 0019,0.00000348,-0.00000037,-0.00000079,0.00000053,0.00000252,-0.00000
 189,0.00000179,0.00000142,-0.00000233,0.00000203,0.00000173,-0.0000024
 7,0.00000054,-0.00000358,-0.00000829,0.00000249,0.00000462,-0.00000117
 ,-0.00000107,0.00000328,0.00000262,-0.00000434,0.00000143,-0.00000233,
 -0.00000066,-0.00000106,0.00000079,-0.00000199,-0.00000005,0.00000084,
 -0.00000092,-0.00000211,-0.00000087,0.00000008,0.00000110,0.00000083,-
 0.00000203,-0.00000008,0.00000043,-0.00000213,0.00000109,0.00000025,-0
 .00000145,0.00000034,0.00000073,-0.00000080,-0.00000083,0.00000169,-0.
 00000241,0.00000039,-0.00000007,-0.00000213,0.00000100,0.00000002,-0.0
 0000271,-0.00000115,0.00000243,-0.00000223,-0.00000132,0.00000265,-0.0
 0000018,-0.00000144,0.00000189,-0.00000006,-0.00000136,0.00000193,-0.0
 0000255,0.00000004,0.00000113,-0.00000433,0.00000142,-0.00000080,-0.00
 000363,0.00000021,-0.00000070,-0.00000322,0.00000065,-0.00000051,-0.00
 000164,-0.00000015,-0.00000102,-0.00000169,-0.00000584,0.00000431,0.00
 000067,-0.00000168,0.00000065,-0.00000248,0.00000477,-0.00000095,-0.00
 000018,-0.00000161,0.00000147,-0.00000004,-0.00000117,0.00000230,0.000
 00234,-0.00000305,0.00000531,0.00000534,-0.00000005,0.00000088,0.00000
 027,-0.00000154,0.00000194,0.00000073,0.00000006,0.00000197,0.00000119
 ,0.00000201,-0.00000512,-0.00000738,-0.00000063,-0.00000259,-0.0000018
 7,0.,0.00000015,0.00000062,-0.00000080,0.00000081,-0.00000115,-0.00000
 102,0.00000100,-0.00000021,-0.00000128,0.00000245,-0.00000108,-0.00000
 190,0.00000238,0.00000019,-0.00000080,0.00000130,-0.00000299,-0.000000
 86,0.00000231,-0.00000383,-0.00000159,0.00000257,-0.00000315,-0.000001
 00,0.00000223,-0.00000342,-0.00000026,-0.00000108,-0.00000368,0.000000
 78,0.00000112,-0.00000411,0.00000162,0.00000020,-0.00000478,0.00000011
 ,0.00000097,-0.00000488,0.00000183,-0.00000326,-0.00000214,0.00000179,
 -0.00000195,-0.00000278,0.00000157,-0.00000127,-0.00000304,0.00000201,
 -0.00000181,-0.00000380,-0.00000012,-0.00000107,0.00000398,0.00000056,
 -0.00000146,0.00000413,0.00000055,-0.00000104,0.00000340,-0.00000032,-
 0.00000043,0.00000396,0.00000158,-0.00000220,0.00000272,-0.00000082,-0
 .00000016,0.00000550,-0.00000110,0.00000206,0.00000226,-0.00000194,0.0
 0000174,0.00000184,-0.00000180,0.00000165,0.00000277,-0.00000123,0.000
 00156,0.00000292,-0.00000082,-0.00000125,0.00000212,-0.00000009,0.,0.0
 0000172,-0.00000062,0.00000428,-0.00000292,-0.00000094,0.00000074,0.00
 000083,-0.00000148,0.00000157,0.00000094,0.00000023,0.00000130,0.00000
 204,-0.00000093,0.00000123,0.00000202,-0.00000160,0.00000065,0.0000019
 3,0.00000475,-0.00000049,-0.00000004,0.00000025,0.00000012,-0.00000115
 ,-0.00000152,-0.00000163,-0.00000134,-0.00000037,0.00000002,0.00000068
 \\\@


 YOU KNOW YOU'VE SPOKEN TOO LONG WHEN THE AUDIENCE STOPS LOOKING AT
 THEIR WATCHES AND STARTS SHAKING THEM.
 Job cpu time:       4 days 14 hours 47 minutes 38.0 seconds.
 Elapsed time:       0 days  3 hours 36 minutes 14.2 seconds.
 File lengths (MBytes):  RWF=   9822 Int=      0 D2E=      0 Chk=     87 Scr=      1
 Normal termination of Gaussian 16 at Thu Jun  6 12:50:39 2019.
