 Entering Gaussian System, Link 0=g16
 Input=clay_new-glu_gluC6-bisCF3-sm-bhandhlyp-631gd-pcm_thf.gjf
 Output=clay_new-glu_gluC6-bisCF3-sm-bhandhlyp-631gd-pcm_thf.out
 Initial command:
 /home/ekwan/sw/g16/l1.exe "/scratch/users/ekwan/clay_new-glu_gluC6-bisCF3-sm-bhandhlyp-631gd-pcm_thf/Gau-16745.inp" -scrdir="/scratch/users/ekwan/clay_new-glu_gluC6-bisCF3-sm-bhandhlyp-631gd-pcm_thf/"
 Entering Link 1 = /home/ekwan/sw/g16/l1.exe PID=     16746.
  
 Copyright (c) 1988,1990,1992,1993,1995,1998,2003,2009,2016,
            Gaussian, Inc.  All Rights Reserved.
  
 This is part of the Gaussian(R) 16 program.  It is based on
 the Gaussian(R) 09 system (copyright 2009, Gaussian, Inc.),
 the Gaussian(R) 03 system (copyright 2003, Gaussian, Inc.),
 the Gaussian(R) 98 system (copyright 1998, Gaussian, Inc.),
 the Gaussian(R) 94 system (copyright 1995, Gaussian, Inc.),
 the Gaussian 92(TM) system (copyright 1992, Gaussian, Inc.),
 the Gaussian 90(TM) system (copyright 1990, Gaussian, Inc.),
 the Gaussian 88(TM) system (copyright 1988, Gaussian, Inc.),
 the Gaussian 86(TM) system (copyright 1986, Carnegie Mellon
 University), and the Gaussian 82(TM) system (copyright 1983,
 Carnegie Mellon University). Gaussian is a federally registered
 trademark of Gaussian, Inc.
  
 This software contains proprietary and confidential information,
 including trade secrets, belonging to Gaussian, Inc.
  
 This software is provided under written license and may be
 used, copied, transmitted, or stored only in accord with that
 written license.
  
 The following legend is applicable only to US Government
 contracts under FAR:
  
                    RESTRICTED RIGHTS LEGEND
  
 Use, reproduction and disclosure by the US Government is
 subject to restrictions as set forth in subparagraphs (a)
 and (c) of the Commercial Computer Software - Restricted
 Rights clause in FAR 52.227-19.
  
 Gaussian, Inc.
 340 Quinnipiac St., Bldg. 40, Wallingford CT 06492
  
  
 ---------------------------------------------------------------
 Warning -- This program may not be used in any manner that
 competes with the business of Gaussian, Inc. or will provide
 assistance to any competitor of Gaussian, Inc.  The licensee
 of this program is prohibited from giving any competitor of
 Gaussian, Inc. access to this program.  By using this program,
 the user acknowledges that Gaussian, Inc. is engaged in the
 business of creating and licensing software in the field of
 computational chemistry and represents and warrants to the
 licensee that it is not a competitor of Gaussian, Inc. and that
 it will not use this program in any manner prohibited above.
 ---------------------------------------------------------------
  

 Cite this work as:
 Gaussian 16, Revision A.03,
 M. J. Frisch, G. W. Trucks, H. B. Schlegel, G. E. Scuseria, 
 M. A. Robb, J. R. Cheeseman, G. Scalmani, V. Barone, 
 G. A. Petersson, H. Nakatsuji, X. Li, M. Caricato, A. V. Marenich, 
 J. Bloino, B. G. Janesko, R. Gomperts, B. Mennucci, H. P. Hratchian, 
 J. V. Ortiz, A. F. Izmaylov, J. L. Sonnenberg, D. Williams-Young, 
 F. Ding, F. Lipparini, F. Egidi, J. Goings, B. Peng, A. Petrone, 
 T. Henderson, D. Ranasinghe, V. G. Zakrzewski, J. Gao, N. Rega, 
 G. Zheng, W. Liang, M. Hada, M. Ehara, K. Toyota, R. Fukuda, 
 J. Hasegawa, M. Ishida, T. Nakajima, Y. Honda, O. Kitao, H. Nakai, 
 T. Vreven, K. Throssell, J. A. Montgomery, Jr., J. E. Peralta, 
 F. Ogliaro, M. J. Bearpark, J. J. Heyd, E. N. Brothers, K. N. Kudin, 
 V. N. Staroverov, T. A. Keith, R. Kobayashi, J. Normand, 
 K. Raghavachari, A. P. Rendell, J. C. Burant, S. S. Iyengar, 
 J. Tomasi, M. Cossi, J. M. Millam, M. Klene, C. Adamo, R. Cammi, 
 J. W. Ochterski, R. L. Martin, K. Morokuma, O. Farkas, 
 J. B. Foresman, and D. J. Fox, Gaussian, Inc., Wallingford CT, 2016.
 
 ******************************************
 Gaussian 16:  AS64L-G16RevA.03 25-Dec-2016
                 5-Jun-2019 
 ******************************************
 %nprocshared=32
 Will use up to   32 processors via shared memory.
 %mem=48GB
 ----------------------------------------------------------------------
 #p opt freq=noraman pop=none 6-31g* scrf=(pcm,solvent=tetrahydrofuran)
  bhandhlyp
 ----------------------------------------------------------------------
 1/18=20,19=15,26=3,38=1/1,3;
 2/9=110,12=2,17=6,18=5,40=1/2;
 3/5=1,6=6,7=1,11=2,25=1,30=1,70=2201,71=1,72=20,74=-3/1,2,3;
 4//1;
 5/5=2,38=5,53=20/2;
 7//1,2,3,16;
 1/18=20,19=15,26=3/3(2);
 2/9=110/2;
 99//99;
 2/9=110/2;
 3/5=1,6=6,7=1,11=2,25=1,30=1,70=2205,71=1,72=20,74=-3/1,2,3;
 4/5=5,16=3,69=1/1;
 5/5=2,38=5,53=20/2;
 7//1,2,3,16;
 1/18=20,19=15,26=3/3(-5);
 2/9=110/2;
 99/9=1/99;
 Leave Link    1 at Wed Jun  5 16:39:50 2019, MaxMem=  6442450944 cpu:               6.0 elap:               0.2
 (Enter /home/ekwan/sw/g16/l101.exe)
 -----
 title
 -----
 Symbolic Z-matrix:
 Charge =  0 Multiplicity = 1
 6                     3.48172  -0.22247   0.72893 
 6                     3.33502  -0.47452  -0.76481 
 6                     1.87488  -0.36094  -1.20085 
 6                     1.33593   1.08233   0.61427 
 6                     2.77601   1.06965   1.11237 
 1                     1.77172  -0.40152  -2.27515 
 1                     3.86993   0.31853  -1.29194 
 1                     3.02512  -1.04472   1.27912 
 1                     0.77526   0.31244   1.14326 
 1                     3.30507   1.90614   0.66017 
 8                     1.28666   0.81113  -0.78865 
 8                     1.18831  -1.50388  -0.64373 
 8                     3.88213  -1.71903  -1.07369 
 8                     4.83602  -0.09744   1.07476 
 8                     2.73843   1.20518   2.50921 
 6                     0.64316   2.408     0.86384 
 1                     0.5417    2.5209    1.93799 
 1                    -0.35392   2.37997   0.42593 
 8                     1.35292   3.52681   0.4064 
 16                   -0.08808  -2.11732  -1.38202 
 8                    -0.18024  -3.46958  -0.90673 
 8                     0.01479  -1.8298   -2.79114 
 6                    -1.44628  -1.19782  -0.72141 
 6                    -2.10679  -1.68349   0.39332 
 6                    -1.82141  -0.01388  -1.33236 
 6                    -3.16707  -0.95599   0.90715 
 1                    -1.80288  -2.61216   0.84274 
 6                    -2.87579   0.7042   -0.79617 
 1                    -1.30524   0.33725  -2.20761 
 6                    -3.55147   0.23797   0.31999 
 1                    -4.37364   0.79991   0.72669 
 6                     4.23337  -1.90315  -2.42486 
 1                     3.35934  -1.94268  -3.07322 
 1                     4.8952   -1.10913  -2.76935 
 1                     4.75292  -2.85161  -2.48707 
 6                     5.4273   -1.2534    1.62028 
 1                     6.45555  -0.99912   1.85254 
 1                     4.92235  -1.55375   2.53826 
 1                     5.40975  -2.07977   0.91608 
 6                     3.63538   2.15379   3.03899 
 1                     3.49532   2.15214   4.11429 
 1                     4.66451   1.89274   2.80872 
 1                     3.42143   3.15029   2.65443 
 6                     1.13355   3.87505  -0.94023 
 1                     1.574     4.85502  -1.08805 
 1                     0.06705   3.9293   -1.15915 
 1                     1.59431   3.16769  -1.6241 
 6                    -3.93677  -1.49248   2.07657 
 9                    -3.16701  -2.23315   2.87036 
 9                    -4.95044  -2.26366   1.68209 
 9                    -4.45524  -0.51134   2.81219 
 6                    -3.24857   2.02416  -1.39945 
 9                    -2.52993   3.02073  -0.86855 
 9                    -4.52886   2.31813  -1.19374 
 9                    -3.02861   2.04484  -2.71093 
 
 ITRead=  0  0  0  0  0  0  0  0  0  0  0  0  0  0  0  0  0  0  0  0
 ITRead=  0  0  0  0  0  0  0  0  0  0  0  0  0  0  0  0  0  0  0  0
 ITRead=  0  0  0  0  0  0  0  0  0  0  0  0  0  0  0
 MicOpt= -1 -1 -1 -1 -1 -1 -1 -1 -1 -1 -1 -1 -1 -1 -1 -1 -1 -1 -1 -1
 MicOpt= -1 -1 -1 -1 -1 -1 -1 -1 -1 -1 -1 -1 -1 -1 -1 -1 -1 -1 -1 -1
 MicOpt= -1 -1 -1 -1 -1 -1 -1 -1 -1 -1 -1 -1 -1 -1 -1
 NAtoms=     55 NQM=       55 NQMF=       0 NMMI=      0 NMMIF=      0
                NMic=       0 NMicF=      0.
                    Isotopes and Nuclear Properties:
 (Nuclear quadrupole moments (NQMom) in fm**2, nuclear magnetic moments (NMagM)
  in nuclear magnetons)

  Atom         1           2           3           4           5           6           7           8           9          10
 IAtWgt=          12          12          12          12          12           1           1           1           1           1
 AtmWgt=  12.0000000  12.0000000  12.0000000  12.0000000  12.0000000   1.0078250   1.0078250   1.0078250   1.0078250   1.0078250
 NucSpn=           0           0           0           0           0           1           1           1           1           1
 AtZEff=   0.0000000   0.0000000   0.0000000   0.0000000   0.0000000   0.0000000   0.0000000   0.0000000   0.0000000   0.0000000
 NQMom=    0.0000000   0.0000000   0.0000000   0.0000000   0.0000000   0.0000000   0.0000000   0.0000000   0.0000000   0.0000000
 NMagM=    0.0000000   0.0000000   0.0000000   0.0000000   0.0000000   2.7928460   2.7928460   2.7928460   2.7928460   2.7928460
 AtZNuc=   6.0000000   6.0000000   6.0000000   6.0000000   6.0000000   1.0000000   1.0000000   1.0000000   1.0000000   1.0000000

  Atom        11          12          13          14          15          16          17          18          19          20
 IAtWgt=          16          16          16          16          16          12           1           1          16          32
 AtmWgt=  15.9949146  15.9949146  15.9949146  15.9949146  15.9949146  12.0000000   1.0078250   1.0078250  15.9949146  31.9720718
 NucSpn=           0           0           0           0           0           0           1           1           0           0
 AtZEff=   0.0000000   0.0000000   0.0000000   0.0000000   0.0000000   0.0000000   0.0000000   0.0000000   0.0000000   0.0000000
 NQMom=    0.0000000   0.0000000   0.0000000   0.0000000   0.0000000   0.0000000   0.0000000   0.0000000   0.0000000   0.0000000
 NMagM=    0.0000000   0.0000000   0.0000000   0.0000000   0.0000000   0.0000000   2.7928460   2.7928460   0.0000000   0.0000000
 AtZNuc=   8.0000000   8.0000000   8.0000000   8.0000000   8.0000000   6.0000000   1.0000000   1.0000000   8.0000000  16.0000000

  Atom        21          22          23          24          25          26          27          28          29          30
 IAtWgt=          16          16          12          12          12          12           1          12           1          12
 AtmWgt=  15.9949146  15.9949146  12.0000000  12.0000000  12.0000000  12.0000000   1.0078250  12.0000000   1.0078250  12.0000000
 NucSpn=           0           0           0           0           0           0           1           0           1           0
 AtZEff=   0.0000000   0.0000000   0.0000000   0.0000000   0.0000000   0.0000000   0.0000000   0.0000000   0.0000000   0.0000000
 NQMom=    0.0000000   0.0000000   0.0000000   0.0000000   0.0000000   0.0000000   0.0000000   0.0000000   0.0000000   0.0000000
 NMagM=    0.0000000   0.0000000   0.0000000   0.0000000   0.0000000   0.0000000   2.7928460   0.0000000   2.7928460   0.0000000
 AtZNuc=   8.0000000   8.0000000   6.0000000   6.0000000   6.0000000   6.0000000   1.0000000   6.0000000   1.0000000   6.0000000

  Atom        31          32          33          34          35          36          37          38          39          40
 IAtWgt=           1          12           1           1           1          12           1           1           1          12
 AtmWgt=   1.0078250  12.0000000   1.0078250   1.0078250   1.0078250  12.0000000   1.0078250   1.0078250   1.0078250  12.0000000
 NucSpn=           1           0           1           1           1           0           1           1           1           0
 AtZEff=   0.0000000   0.0000000   0.0000000   0.0000000   0.0000000   0.0000000   0.0000000   0.0000000   0.0000000   0.0000000
 NQMom=    0.0000000   0.0000000   0.0000000   0.0000000   0.0000000   0.0000000   0.0000000   0.0000000   0.0000000   0.0000000
 NMagM=    2.7928460   0.0000000   2.7928460   2.7928460   2.7928460   0.0000000   2.7928460   2.7928460   2.7928460   0.0000000
 AtZNuc=   1.0000000   6.0000000   1.0000000   1.0000000   1.0000000   6.0000000   1.0000000   1.0000000   1.0000000   6.0000000

  Atom        41          42          43          44          45          46          47          48          49          50
 IAtWgt=           1           1           1          12           1           1           1          12          19          19
 AtmWgt=   1.0078250   1.0078250   1.0078250  12.0000000   1.0078250   1.0078250   1.0078250  12.0000000  18.9984033  18.9984033
 NucSpn=           1           1           1           0           1           1           1           0           1           1
 AtZEff=   0.0000000   0.0000000   0.0000000   0.0000000   0.0000000   0.0000000   0.0000000   0.0000000   0.0000000   0.0000000
 NQMom=    0.0000000   0.0000000   0.0000000   0.0000000   0.0000000   0.0000000   0.0000000   0.0000000   0.0000000   0.0000000
 NMagM=    2.7928460   2.7928460   2.7928460   0.0000000   2.7928460   2.7928460   2.7928460   0.0000000   2.6288670   2.6288670
 AtZNuc=   1.0000000   1.0000000   1.0000000   6.0000000   1.0000000   1.0000000   1.0000000   6.0000000   9.0000000   9.0000000

  Atom        51          52          53          54          55
 IAtWgt=          19          12          19          19          19
 AtmWgt=  18.9984033  12.0000000  18.9984033  18.9984033  18.9984033
 NucSpn=           1           0           1           1           1
 AtZEff=   0.0000000   0.0000000   0.0000000   0.0000000   0.0000000
 NQMom=    0.0000000   0.0000000   0.0000000   0.0000000   0.0000000
 NMagM=    2.6288670   0.0000000   2.6288670   2.6288670   2.6288670
 AtZNuc=   9.0000000   6.0000000   9.0000000   9.0000000   9.0000000
 Leave Link  101 at Wed Jun  5 16:39:50 2019, MaxMem=  6442450944 cpu:              17.4 elap:               0.6
 (Enter /home/ekwan/sw/g16/l103.exe)

 GradGradGradGradGradGradGradGradGradGradGradGradGradGradGradGradGradGrad
 Berny optimization.
 Initialization pass.
                           ----------------------------
                           !    Initial Parameters    !
                           ! (Angstroms and Degrees)  !
 --------------------------                            --------------------------
 ! Name  Definition              Value          Derivative Info.                !
 --------------------------------------------------------------------------------
 ! R1    R(1,2)                  1.5219         estimate D2E/DX2                !
 ! R2    R(1,5)                  1.5214         estimate D2E/DX2                !
 ! R3    R(1,8)                  1.0896         estimate D2E/DX2                !
 ! R4    R(1,14)                 1.4033         estimate D2E/DX2                !
 ! R5    R(2,3)                  1.5281         estimate D2E/DX2                !
 ! R6    R(2,7)                  1.0922         estimate D2E/DX2                !
 ! R7    R(2,13)                 1.3941         estimate D2E/DX2                !
 ! R8    R(3,6)                  1.08           estimate D2E/DX2                !
 ! R9    R(3,11)                 1.3746         estimate D2E/DX2                !
 ! R10   R(3,12)                 1.445          estimate D2E/DX2                !
 ! R11   R(4,5)                  1.5238         estimate D2E/DX2                !
 ! R12   R(4,9)                  1.0895         estimate D2E/DX2                !
 ! R13   R(4,11)                 1.4297         estimate D2E/DX2                !
 ! R14   R(4,16)                 1.5164         estimate D2E/DX2                !
 ! R15   R(5,10)                 1.0882         estimate D2E/DX2                !
 ! R16   R(5,15)                 1.4039         estimate D2E/DX2                !
 ! R17   R(12,20)                1.597          estimate D2E/DX2                !
 ! R18   R(13,32)                1.4082         estimate D2E/DX2                !
 ! R19   R(14,36)                1.4084         estimate D2E/DX2                !
 ! R20   R(15,40)                1.4089         estimate D2E/DX2                !
 ! R21   R(16,17)                1.0848         estimate D2E/DX2                !
 ! R22   R(16,18)                1.0894         estimate D2E/DX2                !
 ! R23   R(16,19)                1.4017         estimate D2E/DX2                !
 ! R24   R(19,44)                1.4081         estimate D2E/DX2                !
 ! R25   R(20,21)                1.4363         estimate D2E/DX2                !
 ! R26   R(20,22)                1.4418         estimate D2E/DX2                !
 ! R27   R(20,23)                1.7682         estimate D2E/DX2                !
 ! R28   R(23,24)                1.3838         estimate D2E/DX2                !
 ! R29   R(23,25)                1.3841         estimate D2E/DX2                !
 ! R30   R(24,26)                1.3847         estimate D2E/DX2                !
 ! R31   R(24,27)                1.0755         estimate D2E/DX2                !
 ! R32   R(25,28)                1.3838         estimate D2E/DX2                !
 ! R33   R(25,29)                1.0751         estimate D2E/DX2                !
 ! R34   R(26,30)                1.3849         estimate D2E/DX2                !
 ! R35   R(26,48)                1.4993         estimate D2E/DX2                !
 ! R36   R(28,30)                1.3855         estimate D2E/DX2                !
 ! R37   R(28,52)                1.4984         estimate D2E/DX2                !
 ! R38   R(30,31)                1.0757         estimate D2E/DX2                !
 ! R39   R(32,33)                1.089          estimate D2E/DX2                !
 ! R40   R(32,34)                1.0896         estimate D2E/DX2                !
 ! R41   R(32,35)                1.0832         estimate D2E/DX2                !
 ! R42   R(36,37)                1.0844         estimate D2E/DX2                !
 ! R43   R(36,38)                1.0899         estimate D2E/DX2                !
 ! R44   R(36,39)                1.0859         estimate D2E/DX2                !
 ! R45   R(40,41)                1.0844         estimate D2E/DX2                !
 ! R46   R(40,42)                1.0864         estimate D2E/DX2                !
 ! R47   R(40,43)                1.0893         estimate D2E/DX2                !
 ! R48   R(44,45)                1.0845         estimate D2E/DX2                !
 ! R49   R(44,46)                1.0901         estimate D2E/DX2                !
 ! R50   R(44,47)                1.0864         estimate D2E/DX2                !
 ! R51   R(48,49)                1.3309         estimate D2E/DX2                !
 ! R52   R(48,50)                1.3334         estimate D2E/DX2                !
 ! R53   R(48,51)                1.3314         estimate D2E/DX2                !
 ! R54   R(52,53)                1.3385         estimate D2E/DX2                !
 ! R55   R(52,54)                1.3296         estimate D2E/DX2                !
 ! R56   R(52,55)                1.33           estimate D2E/DX2                !
 ! A1    A(2,1,5)              110.0783         estimate D2E/DX2                !
 ! A2    A(2,1,8)              109.2812         estimate D2E/DX2                !
 ! A3    A(2,1,14)             110.4652         estimate D2E/DX2                !
 ! A4    A(5,1,8)              108.6182         estimate D2E/DX2                !
 ! A5    A(5,1,14)             108.0521         estimate D2E/DX2                !
 ! A6    A(8,1,14)             110.3164         estimate D2E/DX2                !
 ! A7    A(1,2,3)              111.0915         estimate D2E/DX2                !
 ! A8    A(1,2,7)              107.8319         estimate D2E/DX2                !
 ! A9    A(1,2,13)             109.1153         estimate D2E/DX2                !
 ! A10   A(3,2,7)              106.0388         estimate D2E/DX2                !
 ! A11   A(3,2,13)             112.2176         estimate D2E/DX2                !
 ! A12   A(7,2,13)             110.4289         estimate D2E/DX2                !
 ! A13   A(2,3,6)              111.8587         estimate D2E/DX2                !
 ! A14   A(2,3,11)             112.7486         estimate D2E/DX2                !
 ! A15   A(2,3,12)             106.5706         estimate D2E/DX2                !
 ! A16   A(6,3,11)             106.8246         estimate D2E/DX2                !
 ! A17   A(6,3,12)             107.9634         estimate D2E/DX2                !
 ! A18   A(11,3,12)            110.8223         estimate D2E/DX2                !
 ! A19   A(5,4,9)              108.7685         estimate D2E/DX2                !
 ! A20   A(5,4,11)             110.5934         estimate D2E/DX2                !
 ! A21   A(5,4,16)             112.6564         estimate D2E/DX2                !
 ! A22   A(9,4,11)             108.945          estimate D2E/DX2                !
 ! A23   A(9,4,16)             107.6234         estimate D2E/DX2                !
 ! A24   A(11,4,16)            108.1538         estimate D2E/DX2                !
 ! A25   A(1,5,4)              111.2876         estimate D2E/DX2                !
 ! A26   A(1,5,10)             108.8206         estimate D2E/DX2                !
 ! A27   A(1,5,15)             110.192          estimate D2E/DX2                !
 ! A28   A(4,5,10)             108.4959         estimate D2E/DX2                !
 ! A29   A(4,5,15)             107.4058         estimate D2E/DX2                !
 ! A30   A(10,5,15)            110.6263         estimate D2E/DX2                !
 ! A31   A(3,11,4)             116.1818         estimate D2E/DX2                !
 ! A32   A(3,12,20)            120.3521         estimate D2E/DX2                !
 ! A33   A(2,13,32)            115.2903         estimate D2E/DX2                !
 ! A34   A(1,14,36)            115.3089         estimate D2E/DX2                !
 ! A35   A(5,15,40)            114.967          estimate D2E/DX2                !
 ! A36   A(4,16,17)            107.2572         estimate D2E/DX2                !
 ! A37   A(4,16,18)            109.2373         estimate D2E/DX2                !
 ! A38   A(4,16,19)            114.3768         estimate D2E/DX2                !
 ! A39   A(17,16,18)           108.3667         estimate D2E/DX2                !
 ! A40   A(17,16,19)           106.704          estimate D2E/DX2                !
 ! A41   A(18,16,19)           110.66           estimate D2E/DX2                !
 ! A42   A(16,19,44)           115.5056         estimate D2E/DX2                !
 ! A43   A(12,20,21)           105.0667         estimate D2E/DX2                !
 ! A44   A(12,20,22)           108.553          estimate D2E/DX2                !
 ! A45   A(12,20,23)           103.9717         estimate D2E/DX2                !
 ! A46   A(21,20,22)           121.0455         estimate D2E/DX2                !
 ! A47   A(21,20,23)           108.4617         estimate D2E/DX2                !
 ! A48   A(22,20,23)           108.435          estimate D2E/DX2                !
 ! A49   A(20,23,24)           119.0188         estimate D2E/DX2                !
 ! A50   A(20,23,25)           119.215          estimate D2E/DX2                !
 ! A51   A(24,23,25)           121.7661         estimate D2E/DX2                !
 ! A52   A(23,24,26)           118.6865         estimate D2E/DX2                !
 ! A53   A(23,24,27)           120.3179         estimate D2E/DX2                !
 ! A54   A(26,24,27)           120.9939         estimate D2E/DX2                !
 ! A55   A(23,25,28)           118.6434         estimate D2E/DX2                !
 ! A56   A(23,25,29)           120.572          estimate D2E/DX2                !
 ! A57   A(28,25,29)           120.7843         estimate D2E/DX2                !
 ! A58   A(24,26,30)           120.5398         estimate D2E/DX2                !
 ! A59   A(24,26,48)           119.6385         estimate D2E/DX2                !
 ! A60   A(30,26,48)           119.7808         estimate D2E/DX2                !
 ! A61   A(25,28,30)           120.6044         estimate D2E/DX2                !
 ! A62   A(25,28,52)           119.3855         estimate D2E/DX2                !
 ! A63   A(30,28,52)           119.9629         estimate D2E/DX2                !
 ! A64   A(26,30,28)           119.7537         estimate D2E/DX2                !
 ! A65   A(26,30,31)           120.1459         estimate D2E/DX2                !
 ! A66   A(28,30,31)           120.1001         estimate D2E/DX2                !
 ! A67   A(13,32,33)           112.0764         estimate D2E/DX2                !
 ! A68   A(13,32,34)           111.0753         estimate D2E/DX2                !
 ! A69   A(13,32,35)           106.8115         estimate D2E/DX2                !
 ! A70   A(33,32,34)           109.0103         estimate D2E/DX2                !
 ! A71   A(33,32,35)           108.6016         estimate D2E/DX2                !
 ! A72   A(34,32,35)           109.183          estimate D2E/DX2                !
 ! A73   A(14,36,37)           106.7741         estimate D2E/DX2                !
 ! A74   A(14,36,38)           110.9734         estimate D2E/DX2                !
 ! A75   A(14,36,39)           111.509          estimate D2E/DX2                !
 ! A76   A(37,36,38)           108.8771         estimate D2E/DX2                !
 ! A77   A(37,36,39)           109.432          estimate D2E/DX2                !
 ! A78   A(38,36,39)           109.2087         estimate D2E/DX2                !
 ! A79   A(15,40,41)           106.8362         estimate D2E/DX2                !
 ! A80   A(15,40,42)           111.197          estimate D2E/DX2                !
 ! A81   A(15,40,43)           110.9853         estimate D2E/DX2                !
 ! A82   A(41,40,42)           109.4            estimate D2E/DX2                !
 ! A83   A(41,40,43)           109.0315         estimate D2E/DX2                !
 ! A84   A(42,40,43)           109.3308         estimate D2E/DX2                !
 ! A85   A(19,44,45)           106.8898         estimate D2E/DX2                !
 ! A86   A(19,44,46)           110.9032         estimate D2E/DX2                !
 ! A87   A(19,44,47)           112.0174         estimate D2E/DX2                !
 ! A88   A(45,44,46)           108.9648         estimate D2E/DX2                !
 ! A89   A(45,44,47)           109.2864         estimate D2E/DX2                !
 ! A90   A(46,44,47)           108.7184         estimate D2E/DX2                !
 ! A91   A(26,48,49)           111.5577         estimate D2E/DX2                !
 ! A92   A(26,48,50)           111.4991         estimate D2E/DX2                !
 ! A93   A(26,48,51)           111.5424         estimate D2E/DX2                !
 ! A94   A(49,48,50)           107.1144         estimate D2E/DX2                !
 ! A95   A(49,48,51)           107.807          estimate D2E/DX2                !
 ! A96   A(50,48,51)           107.0758         estimate D2E/DX2                !
 ! A97   A(28,52,53)           111.2611         estimate D2E/DX2                !
 ! A98   A(28,52,54)           111.8411         estimate D2E/DX2                !
 ! A99   A(28,52,55)           111.6893         estimate D2E/DX2                !
 ! A100  A(53,52,54)           106.9186         estimate D2E/DX2                !
 ! A101  A(53,52,55)           106.9034         estimate D2E/DX2                !
 ! A102  A(54,52,55)           107.9621         estimate D2E/DX2                !
 ! D1    D(5,1,2,3)            -50.4499         estimate D2E/DX2                !
 ! D2    D(5,1,2,7)             65.3445         estimate D2E/DX2                !
 ! D3    D(5,1,2,13)          -174.6857         estimate D2E/DX2                !
 ! D4    D(8,1,2,3)             68.7584         estimate D2E/DX2                !
 ! D5    D(8,1,2,7)           -175.4472         estimate D2E/DX2                !
 ! D6    D(8,1,2,13)           -55.4774         estimate D2E/DX2                !
 ! D7    D(14,1,2,3)          -169.6965         estimate D2E/DX2                !
 ! D8    D(14,1,2,7)           -53.9021         estimate D2E/DX2                !
 ! D9    D(14,1,2,13)           66.0677         estimate D2E/DX2                !
 ! D10   D(2,1,5,4)             52.3003         estimate D2E/DX2                !
 ! D11   D(2,1,5,10)           -67.2046         estimate D2E/DX2                !
 ! D12   D(2,1,5,15)           171.3364         estimate D2E/DX2                !
 ! D13   D(8,1,5,4)            -67.3118         estimate D2E/DX2                !
 ! D14   D(8,1,5,10)           173.1833         estimate D2E/DX2                !
 ! D15   D(8,1,5,15)            51.7243         estimate D2E/DX2                !
 ! D16   D(14,1,5,4)           173.0087         estimate D2E/DX2                !
 ! D17   D(14,1,5,10)           53.5037         estimate D2E/DX2                !
 ! D18   D(14,1,5,15)          -67.9552         estimate D2E/DX2                !
 ! D19   D(2,1,14,36)          -99.1882         estimate D2E/DX2                !
 ! D20   D(5,1,14,36)          140.3452         estimate D2E/DX2                !
 ! D21   D(8,1,14,36)           21.7425         estimate D2E/DX2                !
 ! D22   D(1,2,3,6)            172.111          estimate D2E/DX2                !
 ! D23   D(1,2,3,11)            51.688          estimate D2E/DX2                !
 ! D24   D(1,2,3,12)           -70.1098         estimate D2E/DX2                !
 ! D25   D(7,2,3,6)             55.2141         estimate D2E/DX2                !
 ! D26   D(7,2,3,11)           -65.2089         estimate D2E/DX2                !
 ! D27   D(7,2,3,12)           172.9933         estimate D2E/DX2                !
 ! D28   D(13,2,3,6)           -65.4317         estimate D2E/DX2                !
 ! D29   D(13,2,3,11)          174.1453         estimate D2E/DX2                !
 ! D30   D(13,2,3,12)           52.3474         estimate D2E/DX2                !
 ! D31   D(1,2,13,32)         -159.3587         estimate D2E/DX2                !
 ! D32   D(3,2,13,32)           77.0707         estimate D2E/DX2                !
 ! D33   D(7,2,13,32)          -41.0034         estimate D2E/DX2                !
 ! D34   D(2,3,11,4)           -55.4418         estimate D2E/DX2                !
 ! D35   D(6,3,11,4)          -178.7109         estimate D2E/DX2                !
 ! D36   D(12,3,11,4)           63.9204         estimate D2E/DX2                !
 ! D37   D(2,3,12,20)         -150.9339         estimate D2E/DX2                !
 ! D38   D(6,3,12,20)          -30.6139         estimate D2E/DX2                !
 ! D39   D(11,3,12,20)          86.0552         estimate D2E/DX2                !
 ! D40   D(9,4,5,1)             66.2085         estimate D2E/DX2                !
 ! D41   D(9,4,5,10)          -174.0936         estimate D2E/DX2                !
 ! D42   D(9,4,5,15)           -54.4797         estimate D2E/DX2                !
 ! D43   D(11,4,5,1)           -53.3942         estimate D2E/DX2                !
 ! D44   D(11,4,5,10)           66.3036         estimate D2E/DX2                !
 ! D45   D(11,4,5,15)         -174.0825         estimate D2E/DX2                !
 ! D46   D(16,4,5,1)          -174.5596         estimate D2E/DX2                !
 ! D47   D(16,4,5,10)          -54.8617         estimate D2E/DX2                !
 ! D48   D(16,4,5,15)           64.7521         estimate D2E/DX2                !
 ! D49   D(5,4,11,3)            56.0903         estimate D2E/DX2                !
 ! D50   D(9,4,11,3)           -63.4061         estimate D2E/DX2                !
 ! D51   D(16,4,11,3)          179.8876         estimate D2E/DX2                !
 ! D52   D(5,4,16,17)          -66.6935         estimate D2E/DX2                !
 ! D53   D(5,4,16,18)          176.0567         estimate D2E/DX2                !
 ! D54   D(5,4,16,19)           51.4186         estimate D2E/DX2                !
 ! D55   D(9,4,16,17)           53.2019         estimate D2E/DX2                !
 ! D56   D(9,4,16,18)          -64.0479         estimate D2E/DX2                !
 ! D57   D(9,4,16,19)          171.3141         estimate D2E/DX2                !
 ! D58   D(11,4,16,17)         170.7604         estimate D2E/DX2                !
 ! D59   D(11,4,16,18)          53.5106         estimate D2E/DX2                !
 ! D60   D(11,4,16,19)         -71.1275         estimate D2E/DX2                !
 ! D61   D(1,5,15,40)          105.3758         estimate D2E/DX2                !
 ! D62   D(4,5,15,40)         -133.2464         estimate D2E/DX2                !
 ! D63   D(10,5,15,40)         -15.0022         estimate D2E/DX2                !
 ! D64   D(3,12,20,21)         157.7779         estimate D2E/DX2                !
 ! D65   D(3,12,20,22)          26.9563         estimate D2E/DX2                !
 ! D66   D(3,12,20,23)         -88.336          estimate D2E/DX2                !
 ! D67   D(2,13,32,33)         -68.1948         estimate D2E/DX2                !
 ! D68   D(2,13,32,34)          54.014          estimate D2E/DX2                !
 ! D69   D(2,13,32,35)         172.9805         estimate D2E/DX2                !
 ! D70   D(1,14,36,37)        -178.9045         estimate D2E/DX2                !
 ! D71   D(1,14,36,38)         -60.3862         estimate D2E/DX2                !
 ! D72   D(1,14,36,39)          61.6055         estimate D2E/DX2                !
 ! D73   D(5,15,40,41)         179.8649         estimate D2E/DX2                !
 ! D74   D(5,15,40,42)         -60.8226         estimate D2E/DX2                !
 ! D75   D(5,15,40,43)          61.1165         estimate D2E/DX2                !
 ! D76   D(4,16,19,44)          86.6701         estimate D2E/DX2                !
 ! D77   D(17,16,19,44)       -154.9036         estimate D2E/DX2                !
 ! D78   D(18,16,19,44)        -37.2098         estimate D2E/DX2                !
 ! D79   D(16,19,44,45)        168.4941         estimate D2E/DX2                !
 ! D80   D(16,19,44,46)         49.8394         estimate D2E/DX2                !
 ! D81   D(16,19,44,47)        -71.8285         estimate D2E/DX2                !
 ! D82   D(12,20,23,24)        -91.8081         estimate D2E/DX2                !
 ! D83   D(12,20,23,25)         88.2583         estimate D2E/DX2                !
 ! D84   D(21,20,23,24)         19.6281         estimate D2E/DX2                !
 ! D85   D(21,20,23,25)       -160.3055         estimate D2E/DX2                !
 ! D86   D(22,20,23,24)        152.8161         estimate D2E/DX2                !
 ! D87   D(22,20,23,25)        -27.1174         estimate D2E/DX2                !
 ! D88   D(20,23,24,26)        179.8223         estimate D2E/DX2                !
 ! D89   D(20,23,24,27)         -0.6462         estimate D2E/DX2                !
 ! D90   D(25,23,24,26)         -0.246          estimate D2E/DX2                !
 ! D91   D(25,23,24,27)        179.2856         estimate D2E/DX2                !
 ! D92   D(20,23,25,28)       -179.2468         estimate D2E/DX2                !
 ! D93   D(20,23,25,29)          0.9705         estimate D2E/DX2                !
 ! D94   D(24,23,25,28)          0.8215         estimate D2E/DX2                !
 ! D95   D(24,23,25,29)       -178.9611         estimate D2E/DX2                !
 ! D96   D(23,24,26,30)         -0.3945         estimate D2E/DX2                !
 ! D97   D(23,24,26,48)        177.2744         estimate D2E/DX2                !
 ! D98   D(27,24,26,30)       -179.9227         estimate D2E/DX2                !
 ! D99   D(27,24,26,48)         -2.2539         estimate D2E/DX2                !
 ! D100  D(23,25,28,30)         -0.7664         estimate D2E/DX2                !
 ! D101  D(23,25,28,52)        176.7348         estimate D2E/DX2                !
 ! D102  D(29,25,28,30)        179.0158         estimate D2E/DX2                !
 ! D103  D(29,25,28,52)         -3.4831         estimate D2E/DX2                !
 ! D104  D(24,26,30,28)          0.4431         estimate D2E/DX2                !
 ! D105  D(24,26,30,31)       -179.7625         estimate D2E/DX2                !
 ! D106  D(48,26,30,28)       -177.2224         estimate D2E/DX2                !
 ! D107  D(48,26,30,31)          2.572          estimate D2E/DX2                !
 ! D108  D(24,26,48,49)         30.6206         estimate D2E/DX2                !
 ! D109  D(24,26,48,50)        -89.0949         estimate D2E/DX2                !
 ! D110  D(24,26,48,51)        151.2491         estimate D2E/DX2                !
 ! D111  D(30,26,48,49)       -151.6927         estimate D2E/DX2                !
 ! D112  D(30,26,48,50)         88.5918         estimate D2E/DX2                !
 ! D113  D(30,26,48,51)        -31.0642         estimate D2E/DX2                !
 ! D114  D(25,28,30,26)          0.1489         estimate D2E/DX2                !
 ! D115  D(25,28,30,31)       -179.6456         estimate D2E/DX2                !
 ! D116  D(52,28,30,26)       -177.3378         estimate D2E/DX2                !
 ! D117  D(52,28,30,31)          2.8677         estimate D2E/DX2                !
 ! D118  D(25,28,52,53)        -86.6838         estimate D2E/DX2                !
 ! D119  D(25,28,52,54)        153.8198         estimate D2E/DX2                !
 ! D120  D(25,28,52,55)         32.6912         estimate D2E/DX2                !
 ! D121  D(30,28,52,53)         90.8336         estimate D2E/DX2                !
 ! D122  D(30,28,52,54)        -28.6627         estimate D2E/DX2                !
 ! D123  D(30,28,52,55)       -149.7914         estimate D2E/DX2                !
 --------------------------------------------------------------------------------
 Trust Radius=3.00D-01 FncErr=1.00D-07 GrdErr=1.00D-06 EigMax=2.50D+02 EigMin=1.00D-04
 Number of steps in this run=    291 maximum allowed number of steps=    330.
 GradGradGradGradGradGradGradGradGradGradGradGradGradGradGradGradGradGrad

 Leave Link  103 at Wed Jun  5 16:39:51 2019, MaxMem=  6442450944 cpu:               2.3 elap:               0.1
 (Enter /home/ekwan/sw/g16/l202.exe)
 Stoichiometry    C18H22F6O8S
 Framework group  C1[X(C18H22F6O8S)]
 Deg. of freedom   159
 Full point group                 C1      NOp   1
 Largest Abelian subgroup         C1      NOp   1
 Largest concise Abelian subgroup C1      NOp   1
                         Standard orientation:                         
 ---------------------------------------------------------------------
 Center     Atomic      Atomic             Coordinates (Angstroms)
 Number     Number       Type             X           Y           Z
 ---------------------------------------------------------------------
      1          6           0        3.481721   -0.222465    0.728933
      2          6           0        3.335020   -0.474518   -0.764810
      3          6           0        1.874877   -0.360938   -1.200852
      4          6           0        1.335931    1.082332    0.614265
      5          6           0        2.776005    1.069650    1.112371
      6          1           0        1.771721   -0.401519   -2.275146
      7          1           0        3.869933    0.318530   -1.291940
      8          1           0        3.025117   -1.044719    1.279116
      9          1           0        0.775261    0.312436    1.143256
     10          1           0        3.305070    1.906141    0.660171
     11          8           0        1.286658    0.811129   -0.788651
     12          8           0        1.188306   -1.503882   -0.643728
     13          8           0        3.882133   -1.719028   -1.073693
     14          8           0        4.836021   -0.097440    1.074755
     15          8           0        2.738434    1.205179    2.509205
     16          6           0        0.643162    2.408002    0.863837
     17          1           0        0.541698    2.520899    1.937994
     18          1           0       -0.353917    2.379967    0.425934
     19          8           0        1.352924    3.526813    0.406401
     20         16           0       -0.088076   -2.117321   -1.382015
     21          8           0       -0.180240   -3.469575   -0.906733
     22          8           0        0.014792   -1.829803   -2.791137
     23          6           0       -1.446281   -1.197817   -0.721408
     24          6           0       -2.106790   -1.683490    0.393323
     25          6           0       -1.821406   -0.013878   -1.332360
     26          6           0       -3.167074   -0.955986    0.907146
     27          1           0       -1.802881   -2.612157    0.842740
     28          6           0       -2.875792    0.704204   -0.796166
     29          1           0       -1.305244    0.337247   -2.207610
     30          6           0       -3.551472    0.237972    0.319990
     31          1           0       -4.373642    0.799914    0.726693
     32          6           0        4.233368   -1.903150   -2.424862
     33          1           0        3.359342   -1.942677   -3.073223
     34          1           0        4.895204   -1.109126   -2.769352
     35          1           0        4.752916   -2.851612   -2.487070
     36          6           0        5.427302   -1.253398    1.620283
     37          1           0        6.455552   -0.999116    1.852542
     38          1           0        4.922350   -1.553754    2.538262
     39          1           0        5.409747   -2.079769    0.916077
     40          6           0        3.635375    2.153785    3.038994
     41          1           0        3.495324    2.152143    4.114290
     42          1           0        4.664511    1.892738    2.808723
     43          1           0        3.421431    3.150285    2.654428
     44          6           0        1.133547    3.875047   -0.940234
     45          1           0        1.573997    4.855024   -1.088046
     46          1           0        0.067054    3.929303   -1.159154
     47          1           0        1.594306    3.167688   -1.624104
     48          6           0       -3.936770   -1.492475    2.076571
     49          9           0       -3.167014   -2.233149    2.870362
     50          9           0       -4.950437   -2.263661    1.682092
     51          9           0       -4.455240   -0.511338    2.812191
     52          6           0       -3.248574    2.024157   -1.399448
     53          9           0       -2.529927    3.020728   -0.868548
     54          9           0       -4.528859    2.318132   -1.193735
     55          9           0       -3.028605    2.044836   -2.710933
 ---------------------------------------------------------------------
 Rotational constants (GHZ):           0.1526393           0.0819392           0.0754724
 Leave Link  202 at Wed Jun  5 16:39:51 2019, MaxMem=  6442450944 cpu:               5.0 elap:               0.2
 (Enter /home/ekwan/sw/g16/l301.exe)
 Standard basis: 6-31G(d) (6D, 7F)
 Ernie: Thresh=  0.10000D-02 Tol=  0.10000D-05 Strict=F.
 There are   543 symmetry adapted cartesian basis functions of A   symmetry.
 There are   543 symmetry adapted basis functions of A   symmetry.
   543 basis functions,  1036 primitive gaussians,   543 cartesian basis functions
   132 alpha electrons      132 beta electrons
       nuclear repulsion energy      4310.0584007708 Hartrees.
 IExCor=  402 DFT=T Ex+Corr=BHandHLYP ExCW=0 ScaHFX=  0.500000
 ScaDFX=  0.500000  0.500000  1.000000  1.000000 ScalE2=  1.000000  1.000000
 IRadAn=      5 IRanWt=     -1 IRanGd=            0 ICorTp=0 IEmpDi=  4
 NAtoms=   55 NActive=   55 NUniq=   55 SFac= 1.00D+00 NAtFMM=   60 NAOKFM=F Big=F
 Integral buffers will be    131072 words long.
 Raffenetti 2 integral format.
 Two-electron integral symmetry is turned on.
 ------------------------------------------------------------------------------
 Polarizable Continuum Model (PCM)
 =================================
 Model                : PCM.
 Atomic radii         : UFF (Universal Force Field).
 Polarization charges : Total charges.
 Charge compensation  : None.
 Solution method      : On-the-fly selection.
 Cavity type          : Scaled VdW (van der Waals Surface) (Alpha=1.100).
 Cavity algorithm     : GePol (No added spheres)
                        Default sphere list used, NSphG=   55.
                        Lebedev-Laikov grids with approx.  5.0 points / Ang**2.
                        Smoothing algorithm: York/Karplus (Gamma=1.0000).
                        Polarization charges: spherical gaussians, with
                                              point-specific exponents (IZeta= 3).
                        Self-potential: point-specific (ISelfS= 7).
                        Self-field    : sphere-specific E.n sum rule (ISelfD= 2).
 1st derivatives      : Analytical E(r).r(x)/FMM algorithm (CHGder, D1EAlg=3).
                        Cavity 1st derivative terms included.
 Solvent              : TetraHydroFuran, Eps=   7.425700 Eps(inf)=   1.974025
 ------------------------------------------------------------------------------
 GePol: Number of generator spheres                  =      55
 GePol: Total number of spheres                      =      55
 GePol: Number of exposed spheres                    =      55 (100.00%)
 GePol: Number of points                             =    3943
 GePol: Average weight of points                     =       0.13
 GePol: Minimum weight of points                     =   0.16D-10
 GePol: Maximum weight of points                     =    0.20577
 GePol: Number of points with low weight             =     239
 GePol: Fraction of low-weight points (<1% of avg)   =       6.06%
 GePol: Cavity surface area                          =    500.404 Ang**2
 GePol: Cavity volume                                =    574.122 Ang**3
 Leave Link  301 at Wed Jun  5 16:39:51 2019, MaxMem=  6442450944 cpu:               6.9 elap:               0.3
 (Enter /home/ekwan/sw/g16/l302.exe)
 NPDir=0 NMtPBC=     1 NCelOv=     1 NCel=       1 NClECP=     1 NCelD=      1
         NCelK=      1 NCelE2=     1 NClLst=     1 CellRange=     0.0.
 One-electron integrals computed using PRISM.
 One-electron integral symmetry used in STVInt
 NBasis=   543 RedAO= T EigKep=  3.84D-04  NBF=   543
 NBsUse=   543 1.00D-06 EigRej= -1.00D+00 NBFU=   543
 Precomputing XC quadrature grid using
 IXCGrd= 4 IRadAn=           5 IRanWt=          -1 IRanGd=           0 AccXCQ= 0.00D+00.
 Generated NRdTot=       0 NPtTot=           0 NUsed=           0 NTot=          32
 NSgBfM=   532   531   531   532   532 MxSgAt=    55 MxSgA2=    55.
 Leave Link  302 at Wed Jun  5 16:39:59 2019, MaxMem=  6442450944 cpu:             213.4 elap:               7.4
 (Enter /home/ekwan/sw/g16/l303.exe)
 DipDrv:  MaxL=1.
 Leave Link  303 at Wed Jun  5 16:39:59 2019, MaxMem=  6442450944 cpu:              10.7 elap:               0.4
 (Enter /home/ekwan/sw/g16/l401.exe)
 ExpMin= 1.17D-01 ExpMax= 2.19D+04 ExpMxC= 3.30D+03 IAcc=3 IRadAn=         5 AccDes= 0.00D+00
 Harris functional with IExCor=  402 and IRadAn=       5 diagonalized for initial guess.
 HarFok:  IExCor=  402 AccDes= 0.00D+00 IRadAn=         5 IDoV= 1 UseB2=F ITyADJ=14
 ICtDFT=  3500011 ScaDFX=  1.000000  1.000000  1.000000  1.000000
 FoFCou: FMM=F IPFlag=           0 FMFlag=      100000 FMFlg1=           0
         NFxFlg=           0 DoJE=T BraDBF=F KetDBF=T FulRan=T
         wScrn=  0.000000 ICntrl=       500 IOpCl=  0 I1Cent=   200000004 NGrid=           0
         NMat0=    1 NMatS0=      1 NMatT0=    0 NMatD0=    1 NMtDS0=    0 NMtDT0=    0
 Petite list used in FoFCou.
 Harris En= -2298.01262362644    
 JPrj=0 DoOrth=F DoCkMO=F.
 Leave Link  401 at Wed Jun  5 16:40:07 2019, MaxMem=  6442450944 cpu:             235.6 elap:               7.7
 (Enter /home/ekwan/sw/g16/l502.exe)
 Integral symmetry usage will be decided dynamically.
 Closed shell SCF:
 Using DIIS extrapolation, IDIIS=  1040.
 NGot=  6442450944 LenX=  6441838015 LenY=  6441542623
 Requested convergence on RMS density matrix=1.00D-08 within 128 cycles.
 Requested convergence on MAX density matrix=1.00D-06.
 Requested convergence on             energy=1.00D-06.
 No special actions if energy rises.
 Fock matrices will be formed incrementally for  20 cycles.

 Cycle   1  Pass 1  IDiag  1:
 FoFJK:  IHMeth= 1 ICntrl=       0 DoSepK=F KAlg= 0 I1Cent=           0 FoldK=F
 IRaf= 690000000 NMat=       1 IRICut=       1 DoRegI=T DoRafI=F ISym2E= 0 IDoP0=0 IntGTp=1.
 FoFCou: FMM=F IPFlag=           0 FMFlag=      100000 FMFlg1=           0
         NFxFlg=           0 DoJE=F BraDBF=F KetDBF=F FulRan=T
         wScrn=  0.000000 ICntrl=         0 IOpCl=  0 I1Cent=           0 NGrid=           0
         NMat0=    1 NMatS0=      1 NMatT0=    0 NMatD0=    1 NMtDS0=    0 NMtDT0=    0
 Symmetry not used in FoFCou.
 Inv3:  Mode=1 IEnd=    46641747.
 Iteration    1 A*A^-1 deviation from unit magnitude is 7.33D-15 for   3943.
 Iteration    1 A*A^-1 deviation from orthogonality  is 3.57D-15 for   3932   2745.
 Iteration    1 A^-1*A deviation from unit magnitude is 7.33D-15 for   3943.
 Iteration    1 A^-1*A deviation from orthogonality  is 2.61D-15 for   3933   2833.
 E= -2296.34280226710    
 DIIS: error= 3.12D-02 at cycle   1 NSaved=   1.
 NSaved= 1 IEnMin= 1 EnMin= -2296.34280226710     IErMin= 1 ErrMin= 3.12D-02
 ErrMax= 3.12D-02  0.00D+00 EMaxC= 1.00D-01 BMatC= 1.09D+00 BMatP= 1.09D+00
 IDIUse=3 WtCom= 6.88D-01 WtEn= 3.12D-01
 Coeff-Com:  0.100D+01
 Coeff-En:   0.100D+01
 Coeff:      0.100D+01
 Gap=     0.273 Goal=   None    Shift=    0.000
 GapD=    0.273 DampG=1.000 DampE=0.500 DampFc=0.5000 IDamp=-1.
 Damping current iteration by 5.00D-01
 RMSDP=3.12D-03 MaxDP=4.01D-01              OVMax= 1.51D-01

 Cycle   2  Pass 1  IDiag  1:
 RMSU=  1.55D-03    CP:  9.90D-01
 E= -2296.72334651261     Delta-E=       -0.380544245513 Rises=F Damp=T
 DIIS: error= 1.07D-02 at cycle   2 NSaved=   2.
 NSaved= 2 IEnMin= 2 EnMin= -2296.72334651261     IErMin= 2 ErrMin= 1.07D-02
 ErrMax= 1.07D-02  0.00D+00 EMaxC= 1.00D-01 BMatC= 9.29D-02 BMatP= 1.09D+00
 IDIUse=3 WtCom= 8.93D-01 WtEn= 1.07D-01
 Coeff-Com: -0.552D-01 0.106D+01
 Coeff-En:   0.000D+00 0.100D+01
 Coeff:     -0.493D-01 0.105D+01
 Gap=     0.314 Goal=   None    Shift=    0.000
 RMSDP=9.92D-04 MaxDP=1.00D-01 DE=-3.81D-01 OVMax= 1.02D-01

 Cycle   3  Pass 1  IDiag  1:
 RMSU=  9.76D-04    CP:  9.79D-01  1.01D+00
 E= -2297.11146254073     Delta-E=       -0.388116028114 Rises=F Damp=F
 DIIS: error= 5.52D-03 at cycle   3 NSaved=   3.
 NSaved= 3 IEnMin= 3 EnMin= -2297.11146254073     IErMin= 3 ErrMin= 5.52D-03
 ErrMax= 5.52D-03  0.00D+00 EMaxC= 1.00D-01 BMatC= 3.63D-02 BMatP= 9.29D-02
 IDIUse=3 WtCom= 9.45D-01 WtEn= 5.52D-02
 Coeff-Com: -0.103D+00 0.393D+00 0.710D+00
 Coeff-En:   0.000D+00 0.000D+00 0.100D+01
 Coeff:     -0.971D-01 0.371D+00 0.726D+00
 Gap=     0.282 Goal=   None    Shift=    0.000
 RMSDP=4.37D-04 MaxDP=4.85D-02 DE=-3.88D-01 OVMax= 4.02D-02

 Cycle   4  Pass 1  IDiag  1:
 RMSU=  3.18D-04    CP:  9.81D-01  1.13D+00  7.52D-01
 E= -2297.13376419584     Delta-E=       -0.022301655117 Rises=F Damp=F
 DIIS: error= 2.13D-03 at cycle   4 NSaved=   4.
 NSaved= 4 IEnMin= 4 EnMin= -2297.13376419584     IErMin= 4 ErrMin= 2.13D-03
 ErrMax= 2.13D-03  0.00D+00 EMaxC= 1.00D-01 BMatC= 6.84D-03 BMatP= 3.63D-02
 IDIUse=3 WtCom= 9.79D-01 WtEn= 2.13D-02
 Coeff-Com: -0.422D-01 0.835D-01 0.357D+00 0.602D+00
 Coeff-En:   0.000D+00 0.000D+00 0.120D+00 0.880D+00
 Coeff:     -0.413D-01 0.817D-01 0.352D+00 0.608D+00
 Gap=     0.284 Goal=   None    Shift=    0.000
 RMSDP=1.62D-04 MaxDP=1.02D-02 DE=-2.23D-02 OVMax= 1.48D-02

 Cycle   5  Pass 1  IDiag  1:
 RMSU=  6.94D-05    CP:  9.80D-01  1.12D+00  8.33D-01  6.16D-01
 E= -2297.13925553033     Delta-E=       -0.005491334487 Rises=F Damp=F
 DIIS: error= 4.36D-04 at cycle   5 NSaved=   5.
 NSaved= 5 IEnMin= 5 EnMin= -2297.13925553033     IErMin= 5 ErrMin= 4.36D-04
 ErrMax= 4.36D-04  0.00D+00 EMaxC= 1.00D-01 BMatC= 2.85D-04 BMatP= 6.84D-03
 IDIUse=3 WtCom= 9.96D-01 WtEn= 4.36D-03
 Coeff-Com: -0.123D-01 0.173D-01 0.106D+00 0.255D+00 0.634D+00
 Coeff-En:   0.000D+00 0.000D+00 0.000D+00 0.000D+00 0.100D+01
 Coeff:     -0.123D-01 0.173D-01 0.105D+00 0.254D+00 0.636D+00
 Gap=     0.284 Goal=   None    Shift=    0.000
 RMSDP=3.12D-05 MaxDP=2.18D-03 DE=-5.49D-03 OVMax= 3.82D-03

 Cycle   6  Pass 1  IDiag  1:
 RMSU=  2.09D-05    CP:  9.80D-01  1.12D+00  8.35D-01  6.61D-01  7.62D-01
 E= -2297.13948282681     Delta-E=       -0.000227296480 Rises=F Damp=F
 DIIS: error= 1.34D-04 at cycle   6 NSaved=   6.
 NSaved= 6 IEnMin= 6 EnMin= -2297.13948282681     IErMin= 6 ErrMin= 1.34D-04
 ErrMax= 1.34D-04  0.00D+00 EMaxC= 1.00D-01 BMatC= 1.63D-05 BMatP= 2.85D-04
 IDIUse=3 WtCom= 9.99D-01 WtEn= 1.34D-03
 Coeff-Com: -0.143D-02-0.982D-04 0.837D-02 0.434D-01 0.226D+00 0.724D+00
 Coeff-En:   0.000D+00 0.000D+00 0.000D+00 0.000D+00 0.000D+00 0.100D+01
 Coeff:     -0.142D-02-0.981D-04 0.836D-02 0.433D-01 0.225D+00 0.725D+00
 Gap=     0.285 Goal=   None    Shift=    0.000
 RMSDP=8.82D-06 MaxDP=4.67D-04 DE=-2.27D-04 OVMax= 1.62D-03

 Cycle   7  Pass 1  IDiag  1:
 RMSU=  7.02D-06    CP:  9.80D-01  1.12D+00  8.37D-01  6.67D-01  8.14D-01
                    CP:  8.56D-01
 E= -2297.13949862133     Delta-E=       -0.000015794515 Rises=F Damp=F
 DIIS: error= 2.80D-05 at cycle   7 NSaved=   7.
 NSaved= 7 IEnMin= 7 EnMin= -2297.13949862133     IErMin= 7 ErrMin= 2.80D-05
 ErrMax= 2.80D-05  0.00D+00 EMaxC= 1.00D-01 BMatC= 1.05D-06 BMatP= 1.63D-05
 IDIUse=1 WtCom= 1.00D+00 WtEn= 0.00D+00
 Coeff-Com:  0.870D-03-0.172D-02-0.945D-02-0.160D-01-0.170D-01 0.154D+00
 Coeff-Com:  0.889D+00
 Coeff:      0.870D-03-0.172D-02-0.945D-02-0.160D-01-0.170D-01 0.154D+00
 Coeff:      0.889D+00
 Gap=     0.285 Goal=   None    Shift=    0.000
 RMSDP=3.44D-06 MaxDP=2.39D-04 DE=-1.58D-05 OVMax= 7.09D-04

 Cycle   8  Pass 1  IDiag  1:
 RMSU=  2.10D-06    CP:  9.80D-01  1.12D+00  8.37D-01  6.70D-01  8.34D-01
                    CP:  9.57D-01  1.00D+00
 E= -2297.13950029858     Delta-E=       -0.000001677256 Rises=F Damp=F
 DIIS: error= 1.32D-05 at cycle   8 NSaved=   8.
 NSaved= 8 IEnMin= 8 EnMin= -2297.13950029858     IErMin= 8 ErrMin= 1.32D-05
 ErrMax= 1.32D-05  0.00D+00 EMaxC= 1.00D-01 BMatC= 1.82D-07 BMatP= 1.05D-06
 IDIUse=1 WtCom= 1.00D+00 WtEn= 0.00D+00
 Coeff-Com:  0.437D-03-0.523D-03-0.393D-02-0.994D-02-0.306D-01-0.196D-01
 Coeff-Com:  0.314D+00 0.750D+00
 Coeff:      0.437D-03-0.523D-03-0.393D-02-0.994D-02-0.306D-01-0.196D-01
 Coeff:      0.314D+00 0.750D+00
 Gap=     0.285 Goal=   None    Shift=    0.000
 RMSDP=1.19D-06 MaxDP=5.63D-05 DE=-1.68D-06 OVMax= 2.41D-04

 Cycle   9  Pass 1  IDiag  1:
 RMSU=  7.31D-07    CP:  9.80D-01  1.12D+00  8.37D-01  6.70D-01  8.38D-01
                    CP:  9.73D-01  1.12D+00  9.25D-01
 E= -2297.13950055397     Delta-E=       -0.000000255387 Rises=F Damp=F
 DIIS: error= 3.95D-06 at cycle   9 NSaved=   9.
 NSaved= 9 IEnMin= 9 EnMin= -2297.13950055397     IErMin= 9 ErrMin= 3.95D-06
 ErrMax= 3.95D-06  0.00D+00 EMaxC= 1.00D-01 BMatC= 2.04D-08 BMatP= 1.82D-07
 IDIUse=1 WtCom= 1.00D+00 WtEn= 0.00D+00
 Coeff-Com:  0.245D-04 0.487D-04 0.199D-03-0.735D-03-0.741D-02-0.235D-01
 Coeff-Com: -0.264D-01 0.197D+00 0.860D+00
 Coeff:      0.245D-04 0.487D-04 0.199D-03-0.735D-03-0.741D-02-0.235D-01
 Coeff:     -0.264D-01 0.197D+00 0.860D+00
 Gap=     0.285 Goal=   None    Shift=    0.000
 RMSDP=4.95D-07 MaxDP=2.39D-05 DE=-2.55D-07 OVMax= 1.03D-04

 Cycle  10  Pass 1  IDiag  1:
 RMSU=  3.04D-07    CP:  9.80D-01  1.12D+00  8.37D-01  6.70D-01  8.38D-01
                    CP:  9.81D-01  1.15D+00  1.05D+00  1.06D+00
 E= -2297.13950058974     Delta-E=       -0.000000035768 Rises=F Damp=F
 DIIS: error= 1.86D-06 at cycle  10 NSaved=  10.
 NSaved=10 IEnMin=10 EnMin= -2297.13950058974     IErMin=10 ErrMin= 1.86D-06
 ErrMax= 1.86D-06  0.00D+00 EMaxC= 1.00D-01 BMatC= 4.91D-09 BMatP= 2.04D-08
 IDIUse=1 WtCom= 1.00D+00 WtEn= 0.00D+00
 Coeff-Com: -0.521D-04 0.826D-04 0.726D-03 0.132D-02 0.189D-02-0.532D-02
 Coeff-Com: -0.631D-01-0.532D-01 0.354D+00 0.764D+00
 Coeff:     -0.521D-04 0.826D-04 0.726D-03 0.132D-02 0.189D-02-0.532D-02
 Coeff:     -0.631D-01-0.532D-01 0.354D+00 0.764D+00
 Gap=     0.285 Goal=   None    Shift=    0.000
 RMSDP=1.99D-07 MaxDP=1.05D-05 DE=-3.58D-08 OVMax= 4.10D-05

 Cycle  11  Pass 1  IDiag  1:
 RMSU=  1.06D-07    CP:  9.80D-01  1.12D+00  8.37D-01  6.70D-01  8.39D-01
                    CP:  9.84D-01  1.16D+00  1.09D+00  1.21D+00  8.71D-01
 E= -2297.13950059573     Delta-E=       -0.000000005994 Rises=F Damp=F
 DIIS: error= 6.79D-07 at cycle  11 NSaved=  11.
 NSaved=11 IEnMin=11 EnMin= -2297.13950059573     IErMin=11 ErrMin= 6.79D-07
 ErrMax= 6.79D-07  0.00D+00 EMaxC= 1.00D-01 BMatC= 4.23D-10 BMatP= 4.91D-09
 IDIUse=1 WtCom= 1.00D+00 WtEn= 0.00D+00
 Coeff-Com: -0.204D-04 0.234D-04 0.261D-03 0.560D-03 0.139D-02 0.311D-03
 Coeff-Com: -0.211D-01-0.402D-01 0.489D-01 0.283D+00 0.727D+00
 Coeff:     -0.204D-04 0.234D-04 0.261D-03 0.560D-03 0.139D-02 0.311D-03
 Coeff:     -0.211D-01-0.402D-01 0.489D-01 0.283D+00 0.727D+00
 Gap=     0.285 Goal=   None    Shift=    0.000
 RMSDP=5.63D-08 MaxDP=3.52D-06 DE=-5.99D-09 OVMax= 1.17D-05

 Cycle  12  Pass 1  IDiag  1:
 RMSU=  3.76D-08    CP:  9.80D-01  1.12D+00  8.37D-01  6.70D-01  8.39D-01
                    CP:  9.84D-01  1.16D+00  1.09D+00  1.24D+00  9.64D-01
                    CP:  8.90D-01
 E= -2297.13950059627     Delta-E=       -0.000000000538 Rises=F Damp=F
 DIIS: error= 3.10D-07 at cycle  12 NSaved=  12.
 NSaved=12 IEnMin=12 EnMin= -2297.13950059627     IErMin=12 ErrMin= 3.10D-07
 ErrMax= 3.10D-07  0.00D+00 EMaxC= 1.00D-01 BMatC= 6.66D-11 BMatP= 4.23D-10
 IDIUse=1 WtCom= 1.00D+00 WtEn= 0.00D+00
 Coeff-Com: -0.193D-05-0.858D-06 0.241D-04 0.710D-04 0.355D-03 0.820D-03
 Coeff-Com: -0.100D-02-0.994D-02-0.219D-01 0.238D-01 0.312D+00 0.695D+00
 Coeff:     -0.193D-05-0.858D-06 0.241D-04 0.710D-04 0.355D-03 0.820D-03
 Coeff:     -0.100D-02-0.994D-02-0.219D-01 0.238D-01 0.312D+00 0.695D+00
 Gap=     0.285 Goal=   None    Shift=    0.000
 RMSDP=2.00D-08 MaxDP=1.45D-06 DE=-5.38D-10 OVMax= 2.95D-06

 Cycle  13  Pass 1  IDiag  1:
 RMSU=  1.23D-08    CP:  9.80D-01  1.12D+00  8.37D-01  6.70D-01  8.39D-01
                    CP:  9.84D-01  1.16D+00  1.09D+00  1.25D+00  9.83D-01
                    CP:  9.84D-01  7.89D-01
 E= -2297.13950059634     Delta-E=       -0.000000000074 Rises=F Damp=F
 DIIS: error= 6.31D-08 at cycle  13 NSaved=  13.
 NSaved=13 IEnMin=13 EnMin= -2297.13950059634     IErMin=13 ErrMin= 6.31D-08
 ErrMax= 6.31D-08  0.00D+00 EMaxC= 1.00D-01 BMatC= 6.31D-12 BMatP= 6.66D-11
 IDIUse=1 WtCom= 1.00D+00 WtEn= 0.00D+00
 Coeff-Com:  0.181D-05-0.336D-05-0.217D-04-0.423D-04-0.299D-04 0.260D-03
 Coeff-Com:  0.212D-02 0.147D-02-0.135D-01-0.284D-01 0.181D-01 0.253D+00
 Coeff-Com:  0.767D+00
 Coeff:      0.181D-05-0.336D-05-0.217D-04-0.423D-04-0.299D-04 0.260D-03
 Coeff:      0.212D-02 0.147D-02-0.135D-01-0.284D-01 0.181D-01 0.253D+00
 Coeff:      0.767D+00
 Gap=     0.285 Goal=   None    Shift=    0.000
 RMSDP=6.99D-09 MaxDP=4.00D-07 DE=-7.37D-11 OVMax= 7.81D-07

 Error on total polarization charges =  0.00901
 SCF Done:  E(RBHandHLYP) =  -2297.13950060     A.U. after   13 cycles
            NFock= 13  Conv=0.70D-08     -V/T= 2.0060
 KE= 2.283390188696D+03 PE=-1.402807200119D+04 EE= 5.137483911124D+03
 Leave Link  502 at Wed Jun  5 16:44:07 2019, MaxMem=  6442450944 cpu:            7184.3 elap:             239.8
 (Enter /home/ekwan/sw/g16/l701.exe)
 ... and contract with generalized density number  0.
 Compute integral first derivatives.
 D1PCM: PCM CHGder 1st derivatives, ID1Alg=3 FixD1E=F DoIter=F DoCFld=F I1PDM=0.
 GePol: Maximum number of non-zero 1st derivatives   =     229
 Leave Link  701 at Wed Jun  5 16:44:17 2019, MaxMem=  6442450944 cpu:             291.8 elap:              10.2
 (Enter /home/ekwan/sw/g16/l702.exe)
 L702 exits ... SP integral derivatives will be done elsewhere.
 Leave Link  702 at Wed Jun  5 16:44:17 2019, MaxMem=  6442450944 cpu:               2.4 elap:               0.1
 (Enter /home/ekwan/sw/g16/l703.exe)
 Integral derivatives from FoFJK, PRISM(SPDF).
 Compute integral first derivatives, UseDBF=F ICtDFT=           0.
 Calling FoFJK, ICntrl=      2127 FMM=F ISym2X=0 I1Cent= 0 IOpClX= 0 NMat=1 NMatS=1 NMatT=0.
 FoFJK:  IHMeth= 1 ICntrl=    2127 DoSepK=F KAlg= 0 I1Cent=           0 FoldK=F
 IRaf=         0 NMat=       1 IRICut=       1 DoRegI=T DoRafI=F ISym2E= 0 IDoP0=0 IntGTp=1.
 FoFCou: FMM=F IPFlag=           0 FMFlag=      100000 FMFlg1=         800
         NFxFlg=           0 DoJE=F BraDBF=F KetDBF=F FulRan=T
         wScrn=  0.000000 ICntrl=      2127 IOpCl=  0 I1Cent=           0 NGrid=           0
         NMat0=    1 NMatS0=      1 NMatT0=    0 NMatD0=    1 NMtDS0=    0 NMtDT0=    0
 Symmetry not used in FoFCou.
 Leave Link  703 at Wed Jun  5 16:44:57 2019, MaxMem=  6442450944 cpu:            1173.4 elap:              39.6
 (Enter /home/ekwan/sw/g16/l716.exe)
 Dipole        = 4.10263878D-01 1.20711351D+00-8.34313719D-02
 ***** Axes restored to original set *****
 -------------------------------------------------------------------
 Center     Atomic                   Forces (Hartrees/Bohr)
 Number     Number              X              Y              Z
 -------------------------------------------------------------------
      1        6          -0.000000771   -0.000000376   -0.000002840
      2        6           0.000003366    0.000004111   -0.000002283
      3        6          -0.000007836   -0.000009493    0.000004691
      4        6           0.000003519    0.000000619    0.000001602
      5        6           0.000001460    0.000001655   -0.000001062
      6        1          -0.000000326    0.000002086   -0.000002176
      7        1          -0.000001257    0.000000398   -0.000001642
      8        1           0.000000569    0.000000465   -0.000000124
      9        1           0.000000063   -0.000000501    0.000000563
     10        1          -0.000001219    0.000001749   -0.000001655
     11        8          -0.000004342    0.000003144    0.000000443
     12        8           0.000013731    0.000002582   -0.000000836
     13        8           0.000001725   -0.000000859   -0.000001187
     14        8           0.000001209    0.000003485   -0.000000859
     15        8          -0.000001897    0.000001304   -0.000001748
     16        6          -0.000000841    0.000000047   -0.000002379
     17        1          -0.000000139    0.000000668   -0.000000444
     18        1          -0.000001448   -0.000000660   -0.000000307
     19        8           0.000000430    0.000001315    0.000001671
     20       16          -0.000011679   -0.000001793   -0.000003670
     21        8           0.000003570   -0.000002063    0.000002740
     22        8           0.000003201   -0.000001746    0.000002272
     23        6          -0.000000702    0.000003882   -0.000001253
     24        6           0.000002323   -0.000000095    0.000001146
     25        6          -0.000002641   -0.000001327    0.000005576
     26        6           0.000002536   -0.000001780    0.000003952
     27        1           0.000002217   -0.000000881    0.000001433
     28        6           0.000002527   -0.000002084   -0.000002904
     29        1          -0.000002145   -0.000000392   -0.000000207
     30        6          -0.000002052   -0.000002674    0.000004555
     31        1          -0.000000871   -0.000000496    0.000002680
     32        6          -0.000000498    0.000000889    0.000001026
     33        1          -0.000001351    0.000001883   -0.000001952
     34        1           0.000000073    0.000002024   -0.000002039
     35        1          -0.000000545    0.000000041   -0.000001942
     36        6           0.000001659    0.000000647   -0.000003091
     37        1           0.000001330    0.000002927   -0.000002387
     38        1           0.000001534    0.000001896   -0.000001580
     39        1           0.000001130    0.000001973   -0.000001953
     40        6           0.000002346    0.000000578   -0.000000418
     41        1           0.000000829    0.000001623   -0.000001098
     42        1           0.000000819    0.000001767   -0.000002329
     43        1          -0.000000300    0.000002137   -0.000002123
     44        6          -0.000003464    0.000000382   -0.000002649
     45        1          -0.000001767   -0.000000074   -0.000000159
     46        1          -0.000002332   -0.000000417    0.000000729
     47        1          -0.000002122   -0.000000162   -0.000000648
     48        6           0.000003154   -0.000003252   -0.000003015
     49        9           0.000002041   -0.000001616    0.000002423
     50        9          -0.000000102   -0.000001243    0.000003231
     51        9           0.000001866    0.000000334    0.000004616
     52        6          -0.000009473   -0.000012557   -0.000003215
     53        9           0.000005319    0.000005762    0.000007375
     54        9          -0.000001376   -0.000003412    0.000002265
     55        9          -0.000001047   -0.000002421    0.000003183
 -------------------------------------------------------------------
 Cartesian Forces:  Max     0.000013731 RMS     0.000003019
 Leave Link  716 at Wed Jun  5 16:44:57 2019, MaxMem=  6442450944 cpu:               2.9 elap:               0.1
 (Enter /home/ekwan/sw/g16/l103.exe)

 GradGradGradGradGradGradGradGradGradGradGradGradGradGradGradGradGradGrad
 Berny optimization.
 FormGI is forming the generalized inverse of G from B-inverse, IUseBI=4.
 Internal  Forces:  Max     0.000011551 RMS     0.000001507
 Search for a local minimum.
 Step number   1 out of a maximum of  291
 All quantities printed in internal units (Hartrees-Bohrs-Radians)
 RMS Force = .15071D-05 SwitMx=.10000D-02 MixMth= 2
 Mixed Optimization -- En-DIIS/RFO-DIIS
 Second derivative matrix not updated -- first step.
 ITU=  0
     Eigenvalues ---    0.00548   0.00683   0.00735   0.00776   0.00787
     Eigenvalues ---    0.00791   0.01096   0.01490   0.01574   0.01581
     Eigenvalues ---    0.01584   0.01584   0.01640   0.01648   0.01660
     Eigenvalues ---    0.01669   0.01719   0.01732   0.01770   0.02284
     Eigenvalues ---    0.02287   0.02294   0.02297   0.02301   0.02302
     Eigenvalues ---    0.02658   0.02999   0.03393   0.04491   0.04658
     Eigenvalues ---    0.04797   0.04904   0.04978   0.05308   0.05330
     Eigenvalues ---    0.05857   0.06111   0.06619   0.07044   0.07101
     Eigenvalues ---    0.07227   0.07882   0.09389   0.10077   0.10109
     Eigenvalues ---    0.10141   0.10167   0.10604   0.10613   0.10635
     Eigenvalues ---    0.10635   0.10771   0.10784   0.10860   0.10935
     Eigenvalues ---    0.10982   0.11053   0.11504   0.11832   0.11920
     Eigenvalues ---    0.14121   0.15004   0.15999   0.16000   0.16000
     Eigenvalues ---    0.16000   0.16000   0.16000   0.16000   0.16000
     Eigenvalues ---    0.16000   0.16000   0.16000   0.16000   0.16000
     Eigenvalues ---    0.16000   0.16000   0.16454   0.16981   0.17500
     Eigenvalues ---    0.18709   0.19696   0.19804   0.20901   0.22131
     Eigenvalues ---    0.23483   0.23486   0.23501   0.24975   0.24980
     Eigenvalues ---    0.25000   0.25000   0.25000   0.25000   0.25000
     Eigenvalues ---    0.25000   0.25000   0.25000   0.25000   0.25000
     Eigenvalues ---    0.25000   0.25000   0.25000   0.27760   0.28789
     Eigenvalues ---    0.29285   0.29454   0.29818   0.30711   0.32454
     Eigenvalues ---    0.32546   0.34558   0.34803   0.34825   0.34856
     Eigenvalues ---    0.34862   0.34875   0.34886   0.34888   0.34932
     Eigenvalues ---    0.35025   0.35228   0.35231   0.35295   0.35417
     Eigenvalues ---    0.35453   0.35469   0.35470   0.35607   0.35995
     Eigenvalues ---    0.36518   0.36540   0.36597   0.38905   0.39555
     Eigenvalues ---    0.43778   0.43919   0.44175   0.44264   0.44294
     Eigenvalues ---    0.44300   0.44981   0.45072   0.45341   0.46611
     Eigenvalues ---    0.48034   0.48172   0.48283   0.48321   0.48403
     Eigenvalues ---    0.51795   0.57553   0.58718   0.59180   0.59300
     Eigenvalues ---    0.59514   0.59597   0.99682   1.02323
 RFO step:  Lambda= 0.00000000D+00 EMin= 5.48365552D-03
 Linear search not attempted -- first point.
 Iteration  1 RMS(Cart)=  0.00020289 RMS(Int)=  0.00000001
 Iteration  2 RMS(Cart)=  0.00000001 RMS(Int)=  0.00000000
 ITry= 1 IFail=0 DXMaxC= 9.91D-04 DCOld= 1.00D+10 DXMaxT= 3.00D-01 DXLimC= 3.00D+00 Rises=F
 Variable       Old X    -DE/DX   Delta X   Delta X   Delta X     New X
                                 (Linear)    (Quad)   (Total)
    R1        2.87606   0.00000   0.00000   0.00000   0.00000   2.87606
    R2        2.87501   0.00000   0.00000   0.00000   0.00000   2.87501
    R3        2.05910   0.00000   0.00000   0.00000   0.00000   2.05910
    R4        2.65192   0.00000   0.00000   0.00000   0.00000   2.65192
    R5        2.88767   0.00000   0.00000   0.00000   0.00000   2.88767
    R6        2.06398   0.00000   0.00000   0.00000   0.00000   2.06398
    R7        2.63449   0.00000   0.00000   0.00000   0.00000   2.63449
    R8        2.04090   0.00000   0.00000   0.00000   0.00000   2.04091
    R9        2.59770   0.00000   0.00000   0.00001   0.00001   2.59772
   R10        2.73070  -0.00001   0.00000  -0.00002  -0.00002   2.73068
   R11        2.87964   0.00000   0.00000   0.00000   0.00000   2.87963
   R12        2.05878   0.00000   0.00000   0.00000   0.00000   2.05878
   R13        2.70181   0.00000   0.00000   0.00000   0.00000   2.70182
   R14        2.86567   0.00000   0.00000   0.00000   0.00000   2.86568
   R15        2.05634   0.00000   0.00000   0.00000   0.00000   2.05634
   R16        2.65298   0.00000   0.00000   0.00000   0.00000   2.65298
   R17        3.01796   0.00001   0.00000   0.00001   0.00001   3.01797
   R18        2.66104   0.00000   0.00000   0.00000   0.00000   2.66104
   R19        2.66140   0.00000   0.00000   0.00000   0.00000   2.66140
   R20        2.66246   0.00000   0.00000   0.00000   0.00000   2.66246
   R21        2.05003   0.00000   0.00000   0.00000   0.00000   2.05003
   R22        2.05860   0.00000   0.00000   0.00000   0.00000   2.05860
   R23        2.64882   0.00000   0.00000   0.00000   0.00000   2.64882
   R24        2.66097   0.00000   0.00000   0.00000   0.00000   2.66097
   R25        2.71423   0.00000   0.00000   0.00000   0.00000   2.71423
   R26        2.72466   0.00000   0.00000   0.00000   0.00000   2.72466
   R27        3.34146   0.00000   0.00000   0.00001   0.00001   3.34146
   R28        2.61492   0.00000   0.00000   0.00000   0.00000   2.61492
   R29        2.61554   0.00000   0.00000   0.00000   0.00000   2.61554
   R30        2.61676   0.00000   0.00000   0.00000   0.00000   2.61676
   R31        2.03245   0.00000   0.00000   0.00000   0.00000   2.03245
   R32        2.61498   0.00000   0.00000  -0.00001  -0.00001   2.61498
   R33        2.03159   0.00000   0.00000   0.00000   0.00000   2.03159
   R34        2.61715   0.00000   0.00000   0.00000   0.00000   2.61715
   R35        2.83321   0.00000   0.00000  -0.00001  -0.00001   2.83320
   R36        2.61829   0.00000   0.00000   0.00000   0.00000   2.61829
   R37        2.83156  -0.00001   0.00000  -0.00002  -0.00002   2.83154
   R38        2.03280   0.00000   0.00000   0.00000   0.00000   2.03280
   R39        2.05786   0.00000   0.00000   0.00000   0.00000   2.05786
   R40        2.05900   0.00000   0.00000   0.00000   0.00000   2.05900
   R41        2.04700   0.00000   0.00000   0.00000   0.00000   2.04700
   R42        2.04920   0.00000   0.00000   0.00000   0.00000   2.04920
   R43        2.05961   0.00000   0.00000   0.00000   0.00000   2.05961
   R44        2.05199   0.00000   0.00000   0.00000   0.00000   2.05199
   R45        2.04918   0.00000   0.00000   0.00000   0.00000   2.04918
   R46        2.05302   0.00000   0.00000   0.00000   0.00000   2.05302
   R47        2.05857   0.00000   0.00000   0.00000   0.00000   2.05857
   R48        2.04946   0.00000   0.00000   0.00000   0.00000   2.04946
   R49        2.05995   0.00000   0.00000   0.00000   0.00000   2.05996
   R50        2.05306   0.00000   0.00000   0.00000   0.00000   2.05306
   R51        2.51499   0.00000   0.00000   0.00000   0.00000   2.51499
   R52        2.51969   0.00000   0.00000   0.00000   0.00000   2.51970
   R53        2.51595   0.00000   0.00000   0.00000   0.00000   2.51595
   R54        2.52931   0.00001   0.00000   0.00002   0.00002   2.52933
   R55        2.51260   0.00000   0.00000   0.00000   0.00000   2.51260
   R56        2.51327   0.00000   0.00000   0.00000   0.00000   2.51327
    A1        1.92123   0.00000   0.00000   0.00000   0.00000   1.92123
    A2        1.90732   0.00000   0.00000   0.00000   0.00000   1.90732
    A3        1.92798   0.00000   0.00000   0.00000   0.00000   1.92798
    A4        1.89575   0.00000   0.00000   0.00000   0.00000   1.89575
    A5        1.88586   0.00000   0.00000   0.00000   0.00000   1.88587
    A6        1.92538   0.00000   0.00000   0.00000   0.00000   1.92538
    A7        1.93891   0.00000   0.00000  -0.00002  -0.00002   1.93890
    A8        1.88202   0.00000   0.00000   0.00001   0.00001   1.88203
    A9        1.90442   0.00000   0.00000   0.00000   0.00000   1.90442
   A10        1.85073   0.00000   0.00000   0.00001   0.00001   1.85074
   A11        1.95857   0.00000   0.00000  -0.00001  -0.00001   1.95855
   A12        1.92735   0.00000   0.00000   0.00001   0.00001   1.92735
   A13        1.95230   0.00000   0.00000  -0.00001  -0.00001   1.95230
   A14        1.96783   0.00000   0.00000   0.00000   0.00000   1.96783
   A15        1.86001   0.00000   0.00000  -0.00001  -0.00001   1.86000
   A16        1.86444   0.00000   0.00000  -0.00001  -0.00001   1.86443
   A17        1.88432   0.00000   0.00000   0.00001   0.00001   1.88433
   A18        1.93421   0.00000   0.00000   0.00001   0.00001   1.93423
   A19        1.89837   0.00000   0.00000   0.00000   0.00000   1.89837
   A20        1.93022   0.00000   0.00000   0.00001   0.00001   1.93023
   A21        1.96622   0.00000   0.00000   0.00000   0.00000   1.96622
   A22        1.90145   0.00000   0.00000  -0.00001  -0.00001   1.90144
   A23        1.87838   0.00000   0.00000   0.00000   0.00000   1.87838
   A24        1.88764   0.00000   0.00000   0.00000   0.00000   1.88764
   A25        1.94234   0.00000   0.00000   0.00000   0.00000   1.94234
   A26        1.89928   0.00000   0.00000   0.00001   0.00001   1.89928
   A27        1.92321   0.00000   0.00000   0.00000   0.00000   1.92321
   A28        1.89361   0.00000   0.00000   0.00000   0.00000   1.89361
   A29        1.87458   0.00000   0.00000  -0.00001  -0.00001   1.87457
   A30        1.93079   0.00000   0.00000   0.00001   0.00001   1.93080
   A31        2.02775   0.00000   0.00000   0.00001   0.00001   2.02776
   A32        2.10054   0.00000   0.00000  -0.00001  -0.00001   2.10053
   A33        2.01219   0.00000   0.00000  -0.00001  -0.00001   2.01218
   A34        2.01252   0.00000   0.00000  -0.00001  -0.00001   2.01251
   A35        2.00655   0.00000   0.00000   0.00000   0.00000   2.00655
   A36        1.87199   0.00000   0.00000  -0.00001  -0.00001   1.87199
   A37        1.90655   0.00000   0.00000   0.00001   0.00001   1.90656
   A38        1.99625   0.00000   0.00000   0.00001   0.00001   1.99626
   A39        1.89136   0.00000   0.00000   0.00000   0.00000   1.89136
   A40        1.86234   0.00000   0.00000  -0.00001  -0.00001   1.86232
   A41        1.93138   0.00000   0.00000   0.00001   0.00001   1.93139
   A42        2.01595   0.00000   0.00000   0.00000   0.00000   2.01595
   A43        1.83376   0.00000   0.00000  -0.00002  -0.00002   1.83374
   A44        1.89461   0.00000   0.00000  -0.00002  -0.00002   1.89458
   A45        1.81465   0.00000   0.00000   0.00000   0.00000   1.81465
   A46        2.11264   0.00000   0.00000   0.00000   0.00000   2.11265
   A47        1.89301   0.00000   0.00000   0.00002   0.00002   1.89303
   A48        1.89255   0.00000   0.00000   0.00002   0.00002   1.89257
   A49        2.07727   0.00000   0.00000  -0.00001  -0.00001   2.07726
   A50        2.08069   0.00000   0.00000   0.00002   0.00002   2.08071
   A51        2.12522   0.00000   0.00000   0.00000   0.00000   2.12522
   A52        2.07147   0.00000   0.00000   0.00000   0.00000   2.07147
   A53        2.09994   0.00000   0.00000  -0.00001  -0.00001   2.09994
   A54        2.11174   0.00000   0.00000   0.00000   0.00000   2.11174
   A55        2.07072   0.00000   0.00000   0.00000   0.00000   2.07072
   A56        2.10438   0.00000   0.00000   0.00001   0.00001   2.10439
   A57        2.10808   0.00000   0.00000  -0.00001  -0.00001   2.10808
   A58        2.10382   0.00000   0.00000   0.00000   0.00000   2.10382
   A59        2.08809   0.00000   0.00000   0.00001   0.00001   2.08810
   A60        2.09057   0.00000   0.00000  -0.00002  -0.00002   2.09055
   A61        2.10494   0.00000   0.00000   0.00001   0.00001   2.10495
   A62        2.08367   0.00000   0.00000   0.00000   0.00000   2.08367
   A63        2.09375   0.00000   0.00000  -0.00001  -0.00001   2.09374
   A64        2.09010   0.00000   0.00000  -0.00001  -0.00001   2.09009
   A65        2.09694   0.00000   0.00000   0.00001   0.00001   2.09695
   A66        2.09614   0.00000   0.00000   0.00000   0.00000   2.09614
   A67        1.95610   0.00000   0.00000   0.00000   0.00000   1.95610
   A68        1.93863   0.00000   0.00000   0.00000   0.00000   1.93863
   A69        1.86421   0.00000   0.00000   0.00000   0.00000   1.86422
   A70        1.90259   0.00000   0.00000  -0.00001  -0.00001   1.90258
   A71        1.89545   0.00000   0.00000   0.00000   0.00000   1.89545
   A72        1.90560   0.00000   0.00000   0.00000   0.00000   1.90561
   A73        1.86356   0.00000   0.00000   0.00000   0.00000   1.86356
   A74        1.93685   0.00000   0.00000   0.00000   0.00000   1.93685
   A75        1.94620   0.00000   0.00000   0.00000   0.00000   1.94620
   A76        1.90026   0.00000   0.00000   0.00000   0.00000   1.90027
   A77        1.90995   0.00000   0.00000   0.00000   0.00000   1.90995
   A78        1.90605   0.00000   0.00000   0.00000   0.00000   1.90605
   A79        1.86464   0.00000   0.00000   0.00000   0.00000   1.86464
   A80        1.94075   0.00000   0.00000   0.00000   0.00000   1.94075
   A81        1.93706   0.00000   0.00000   0.00000   0.00000   1.93706
   A82        1.90939   0.00000   0.00000   0.00000   0.00000   1.90939
   A83        1.90296   0.00000   0.00000   0.00000   0.00000   1.90296
   A84        1.90818   0.00000   0.00000   0.00000   0.00000   1.90818
   A85        1.86558   0.00000   0.00000  -0.00001  -0.00001   1.86557
   A86        1.93563   0.00000   0.00000  -0.00001  -0.00001   1.93562
   A87        1.95507   0.00000   0.00000   0.00000   0.00000   1.95507
   A88        1.90180   0.00000   0.00000   0.00001   0.00001   1.90180
   A89        1.90741   0.00000   0.00000   0.00000   0.00000   1.90741
   A90        1.89749   0.00000   0.00000   0.00000   0.00000   1.89750
   A91        1.94705   0.00000   0.00000   0.00000   0.00000   1.94705
   A92        1.94603   0.00000   0.00000   0.00001   0.00001   1.94603
   A93        1.94678   0.00000   0.00000  -0.00001  -0.00001   1.94677
   A94        1.86950   0.00000   0.00000   0.00001   0.00001   1.86950
   A95        1.88159   0.00000   0.00000  -0.00001  -0.00001   1.88158
   A96        1.86883   0.00000   0.00000   0.00000   0.00000   1.86882
   A97        1.94187   0.00000   0.00000  -0.00002  -0.00002   1.94186
   A98        1.95200   0.00000   0.00000   0.00000   0.00000   1.95200
   A99        1.94935   0.00000   0.00000   0.00000   0.00000   1.94934
   A100       1.86608   0.00000   0.00000   0.00001   0.00001   1.86609
[...]
 .00002631,0.00000267,-0.00017166,-0.00013889,-0.00009800,0.00000142,0.
 00001487,0.00001654,0.00004709,0.00000636,0.00000190,-0.00000588,0.000
 00920,0.00000509,-0.00091262,0.00013016,0.00022834,0.00019454,0.000074
 65,-0.00003737,-0.00028848,-0.00037318,0.00033619,0.00028442,-0.000066
 73,-0.00007022,0.00094669,0.00231729,-0.00147912,-0.00012389,-0.000485
 95,0.00050111,-0.00065090,-0.00066747,0.00017895,-0.00034694,-0.000352
 17,0.00059795,-0.01361882,-0.03773931,0.60434247,0.00002663,-0.0001603
 8,-0.00006614,0.00005728,-0.00000422,-0.00006460,-0.00002548,-0.000739
 89,-0.00003832,-0.00032143,-0.00055535,-0.00047575,0.00011383,0.000218
 01,0.00023886,-0.00001513,0.00004096,0.00000943,0.00001996,0.00000553,
 0.00000459,-0.00000846,0.00001664,-0.00000727,-0.00000003,0.00004796,-
 0.00001393,0.00003912,-0.00001663,-0.00000225,-0.00017594,0.00052492,0
 .00027561,0.00056678,0.00044722,0.00002842,-0.00007062,0.00010982,0.00
 006956,-0.00016709,0.00013764,-0.00004162,-0.00015824,0.00002270,-0.00
 011217,0.00216070,0.00061779,0.00057681,-0.00028049,0.00004827,-0.0001
 8948,-0.00148343,0.00008832,-0.00058133,-0.00124718,-0.00032425,-0.000
 45110,-0.00100657,-0.00000471,0.00024862,0.00023632,-0.00017871,-0.000
 04240,0.00023324,0.00000565,-0.00011693,0.00088033,-0.00104793,0.00065
 343,0.00056812,-0.00014673,-0.00062777,-0.00120441,-0.00092463,0.00086
 672,-0.00033511,0.00049562,-0.00009268,-0.00001060,-0.00003027,-0.0000
 3603,0.00799665,-0.00574734,-0.00440186,-0.00023183,-0.00023788,-0.000
 27251,0.00020475,0.00021008,0.00103905,-0.00004227,0.00018238,-0.00042
 747,0.00001027,-0.00000781,-0.00005647,0.00000091,-0.00000567,0.000009
 14,0.00000366,-0.00000129,0.00000717,-0.00000740,0.00000807,0.00000679
 ,0.00002658,-0.00008463,0.00005091,-0.00001365,0.00001006,-0.00000804,
 0.00000276,0.00000908,-0.00000967,-0.00000406,0.00001695,-0.00000060,0
 .00010644,0.00006072,0.00008374,-0.00000615,-0.00000628,-0.00002475,-0
 .00002703,-0.00000584,-0.00000344,0.00000607,0.00001010,0.00000361,0.0
 0156165,-0.00046819,0.00056931,-0.00034843,-0.00005416,-0.00003193,-0.
 00110145,0.00027550,-0.00005782,-0.00022884,0.00002964,0.00004166,0.00
 001295,0.00010353,-0.00041224,0.00005463,-0.00007809,0.00015613,-0.000
 06277,-0.00006526,0.00007158,-0.00002204,-0.00000088,0.00012792,-0.125
 21387,-0.08073200,-0.03395284,0.18496660,-0.00006543,-0.00012443,-0.00
 012291,-0.00012814,0.00010991,-0.00005554,-0.00050090,-0.00110073,0.00
 025903,-0.00031211,-0.00053889,-0.00051332,0.00002477,0.00008996,0.000
 06055,-0.00002494,0.00005464,-0.00000468,0.00008398,0.00000676,0.00001
 211,-0.00000708,0.00002503,-0.00001647,-0.00002396,0.00006797,-0.00004
 821,0.00006197,-0.00000392,0.00000710,0.00029234,0.00071960,0.00037035
 ,0.00171440,0.00068737,-0.00004728,0.00009819,0.00002333,-0.00001796,0
 .00002928,0.00008295,0.00004464,-0.00001874,0.00011927,0.00006461,0.00
 096246,0.00006950,0.00052621,-0.00006626,0.00005973,-0.00007738,0.0005
 9029,-0.00088899,0.00029529,-0.00059280,0.00035398,-0.00056741,-0.0036
 6443,0.00151835,0.00147128,0.00089494,-0.00111012,-0.00025508,0.000940
 58,-0.00037836,-0.00087337,0.00138244,-0.00012816,0.00182188,0.0001633
 2,-0.00126596,0.00042113,-0.00252999,-0.00039418,0.00237283,0.00193204
 ,-0.00014212,0.00190113,-0.00020167,-0.00002098,-0.00017815,-0.0258726
 6,-0.04504464,-0.01475122,-0.00080269,-0.00053082,-0.00081569,0.002842
 34,-0.00183525,-0.00275535,-0.00095532,-0.00051017,-0.00072928,-0.0000
 6475,-0.00000115,0.00004198,-0.00000379,-0.00000093,0.00001733,0.00001
 671,0.00001424,-0.00000594,0.00000348,-0.00000353,-0.00000089,-0.00001
 386,-0.00001481,0.00001011,0.00000624,0.00000375,0.00000060,0.00000082
 ,-0.00000358,-0.00000487,-0.00000727,0.00000631,0.00000298,0.00000621,
 -0.00006506,0.00001803,0.00000393,0.00000175,-0.00000262,-0.00000790,0
 .00000683,-0.00000135,0.00001065,0.00002823,-0.00000461,0.00152789,-0.
 00042292,0.00080176,-0.00028365,-0.00002232,-0.00003937,-0.00018176,0.
 00038040,-0.00040984,-0.00032411,0.00002397,0.00002567,0.00186358,0.00
 076112,-0.00229793,-0.00014447,-0.00061957,0.00104450,-0.00075736,-0.0
 0050207,0.00032820,-0.00048854,0.00015484,0.00081979,-0.08249889,-0.22
 240484,-0.05531265,0.13907253,0.26588646,0.00001688,-0.00009547,-0.000
 05148,0.00004232,-0.00001738,-0.00003984,0.00004554,-0.00024571,-0.000
 08938,-0.00019421,-0.00034876,-0.00038224,0.00007351,0.00014608,0.0001
 3921,-0.00001725,0.00003235,0.00001060,-0.00000394,0.00000076,0.000002
 38,-0.00000325,0.00000446,0.00000074,0.00000858,0.00000295,0.00001123,
 0.00000953,-0.00001334,-0.00000205,-0.00012199,0.00022745,0.00024911,0
 .00004764,0.00013767,0.00009816,-0.00005143,0.00005922,0.00007059,-0.0
 0010739,0.00007973,-0.00001375,-0.00010289,0.00001037,-0.00003914,0.00
 127030,0.00056044,0.00039173,-0.00013107,0.00001156,-0.00007821,-0.000
 71057,-0.00006777,-0.00046485,-0.00065665,-0.00032925,0.00014144,-0.00
 007436,-0.00014068,-0.00043673,0.00000690,0.00005082,0.00008043,0.0000
 3360,-0.00001147,0.00015581,-0.00028858,0.00040986,-0.00069419,-0.0006
 1557,0.00028482,0.00042303,0.00140216,0.00034460,-0.00030791,-0.000081
 42,-0.00089349,0.00059243,0.00000073,-0.00001934,0.00002469,-0.0007537
 9,0.00475276,0.01178326,-0.00020330,0.00030866,0.00003267,0.00026557,-
 0.00106897,-0.00035089,-0.00001991,-0.00005243,-0.00007092,0.00001098,
 -0.00000400,-0.00005981,0.00000618,-0.00000100,0.00000822,-0.00000342,
 -0.00000299,0.00000525,-0.00000358,0.00000343,0.00000647,0.00001746,-0
 .00004708,0.00002310,-0.00000919,0.00000561,-0.00000542,0.00000041,0.0
 0000454,-0.00000254,-0.00000246,0.00001128,-0.00000052,0.00006845,0.00
 004063,0.00004666,-0.00000105,-0.00000521,-0.00000966,-0.00001919,-0.0
 0000180,-0.00000156,0.00000465,0.00000356,-0.00000162,0.00052284,-0.00
 003433,0.00000467,-0.00009694,-0.00003845,0.00002709,0.00016387,0.0000
 8965,-0.00035997,-0.00012668,0.00002066,0.00004070,0.00007737,-0.00017
 449,-0.00011925,0.00001901,-0.00003844,0.00009772,0.00001149,0.0000374
 8,0.00003118,-0.00000828,0.00007441,0.00005022,-0.03423026,-0.05428671
 ,-0.09964391,0.07480727,0.10535867,0.13767125,0.00009550,-0.00006226,0
 .00005278,0.00017616,-0.00012459,-0.00001741,0.00037053,0.00009651,-0.
 00023535,0.00001490,-0.00006200,0.00008968,0.00010923,0.00009555,0.000
 18593,0.00001168,-0.00001323,0.00001189,-0.00004706,0.00000356,-0.0000
 0922,-0.00000456,0.00000041,0.00000263,0.00001945,0.00000042,0.0000190
 4,0.00000233,-0.00001072,-0.00000969,-0.00041862,-0.00000509,-0.000087
 00,-0.00082742,-0.00008824,0.00004071,-0.00016212,0.00012015,0.0000830
 8,-0.00020662,0.00008678,-0.00009570,-0.00014836,-0.00005851,-0.000184
 44,0.00080340,0.00025267,0.00026644,-0.00010739,0.00000064,-0.00009362
 ,0.00000061,-0.00010668,0.00010543,-0.00048854,-0.00016209,-0.00019254
 ,0.00199148,-0.00110358,-0.00099463,-0.00058891,0.00107134,0.00010467,
 -0.00050477,0.00035033,0.00058374,-0.00085452,0.00065564,0.00135727,0.
 00007956,0.00022771,-0.00052828,0.00009553,0.00486942,-0.00484864,0.00
 034982,0.00110594,-0.00046960,0.00008563,-0.00008566,-0.00010363,-0.03
 093741,0.01242203,0.00637039,0.00040603,-0.00069450,-0.00025688,-0.001
 39003,-0.00119230,0.00396967,0.00046676,0.00011180,-0.00209987,0.00006
 634,-0.00001323,-0.00009079,0.00000209,-0.00000841,-0.00000659,-0.0000
 0530,-0.00001176,0.00001367,-0.00001402,0.00001486,0.00000687,0.000046
 39,-0.00009225,0.00005360,-0.00001977,0.00000775,-0.00000925,0.0000030
 6,0.00001400,-0.00000971,0.00000161,0.00001386,-0.00000167,0.00010342,
 0.00009673,0.00007393,-0.00000768,-0.00000851,-0.00002483,-0.00002283,
 -0.00000980,-0.00000063,-0.00000354,-0.00000599,0.00000408,0.00065586,
 -0.00011190,0.00025404,-0.00015797,-0.00005816,-0.00001953,-0.00004164
 ,0.00025419,-0.00011878,-0.00006064,0.00001427,0.00000106,-0.00134813,
 -0.00029202,0.00113859,0.00016257,0.00024863,-0.00043577,0.00057692,0.
 00031969,-0.00016343,0.00038918,-0.00014695,-0.00043502,-0.28775165,0.
 07492570,0.01854679,-0.07564126,-0.02547886,-0.01200316,0.42587733,-0.
 00006712,-0.00002687,-0.00007088,-0.00012656,0.00010060,-0.00001915,-0
 .00036992,-0.00055845,0.00022727,-0.00014424,-0.00020184,-0.00023889,-
 0.00003564,0.00000227,-0.00004941,-0.00001275,0.00002550,-0.00000892,0
 .00005787,0.00000245,0.00000952,-0.00000115,0.00001061,-0.00000934,-0.
 00001839,0.00002905,-0.00003336,0.00002373,0.00000365,0.00000730,0.000
 27033,0.00031635,0.00017807,0.00112068,0.00034684,-0.00004325,0.000108
 25,-0.00003730,-0.00004739,0.00009544,0.00000060,0.00005520,0.00005115
 ,0.00007247,0.00009796,0.00013914,-0.00007935,0.00007589,-0.00000451,0
 .00002314,0.00000002,0.00001191,-0.00016459,0.00003429,-0.00007051,0.0
 0015361,-0.00010783,-0.00274866,0.00091949,0.00109935,0.00079678,-0.00
 105073,-0.00012367,0.00064338,-0.00024730,-0.00070001,0.00057648,-0.00
 218708,-0.00111467,0.00075289,-0.00065489,-0.00004512,-0.00012667,-0.0
 0330847,0.00560567,0.00017965,-0.00005398,-0.00050000,-0.00000301,0.00
 004007,-0.00000234,0.04330835,-0.00718655,-0.00438426,0.00007428,0.000
 57573,0.00021651,0.00083916,-0.00088495,0.00002547,0.00085885,-0.00149
 153,0.00065368,-0.00005469,0.00000490,0.00006029,-0.00000401,0.0000021
 7,0.00000942,0.00001048,0.00001125,-0.00000809,0.00000675,-0.00000710,
 -0.00000374,-0.00002453,0.00003021,-0.00001626,0.00001061,-0.00000147,
 0.00000411,-0.00000066,-0.00000703,0.00000144,-0.00000372,-0.00000312,
 0.00000200,-0.00003893,-0.00006421,-0.00002184,0.00000448,0.00000405,0
 .00000839,0.00000614,0.00000624,-0.00000026,0.00000539,0.00001370,-0.0
 0000326,0.00023379,-0.00008929,0.00012714,-0.00002543,0.00001387,-0.00
 000604,-0.00000449,0.00006640,-0.00005105,-0.00006359,0.00000019,0.000
 01063,0.00111603,0.00065207,-0.00150120,-0.00007421,-0.00032565,0.0005
 4528,-0.00051708,-0.00034045,0.00022921,-0.00034833,0.00007998,0.00053
 914,0.06793384,-0.10737701,-0.00090285,-0.04386432,0.00965641,-0.00270
 039,-0.07525289,0.10101063,0.00001831,-0.00000619,0.00000009,0.0000309
 5,-0.00002987,-0.00000080,0.00009415,0.00014512,-0.00009770,0.00002107
 ,-0.00000659,-0.00003899,0.00001743,0.00001249,0.00001729,-0.00000526,
 0.00000406,0.00000573,-0.00001796,-0.00000151,-0.00000197,0.00000019,-
 0.00000340,0.00000410,0.00000614,-0.00001337,0.00001545,-0.00000605,-0
 .00000386,-0.00000167,-0.00006007,-0.00004245,0.00004381,-0.00034980,-
 0.00007628,0.00007018,-0.00003174,0.00001568,0.00003630,-0.00003369,0.
 00001002,-0.00000472,-0.00002722,-0.00000885,-0.00000663,0.00012293,0.
 00007866,0.00000141,0.00000177,-0.00000354,0.00000603,0.00001758,-0.00
 002093,0.00002319,-0.00007262,-0.00006347,0.00008076,0.00072694,-0.000
 29507,-0.00059148,-0.00019058,0.00028716,0.00008736,-0.00016047,0.0000
 2102,0.00029695,-0.00091474,0.00053463,0.00049302,-0.00012640,0.000255
 83,-0.00004967,0.00031280,0.00177574,-0.00160583,-0.00070384,-0.000205
 26,0.00069188,-0.00006473,0.00003173,0.00006407,-0.00966178,0.00505307
 ,0.01140059,-0.00028936,0.00027566,0.00009483,0.00009829,0.00057106,-0
 .00227201,-0.00171293,0.00098784,0.00047118,0.00001228,-0.00000219,-0.
 00003609,0.00000508,0.00000019,0.00000203,-0.00000485,-0.00000328,0.00
 000291,-0.00000146,0.00000123,0.00000297,0.00000813,-0.00001070,0.0000
 0170,-0.00000347,0.00000073,-0.00000178,-0.00000063,0.00000129,0.00000
 113,0.00000022,0.00000289,-0.00000024,0.00001805,0.00001481,0.00000766
 ,0.00000077,-0.00000183,0.00000011,-0.00000547,-0.00000004,0.00000011,
 0.00000099,-0.00000167,-0.00000144,0.00005933,-0.00000902,-0.00005225,
 -0.00001228,-0.00000568,0.00000569,0.00002721,0.00003866,-0.00003414,-
 0.00003066,0.00000853,0.00000819,-0.00022477,-0.00051645,0.00042541,-0
 .00002036,0.00014949,-0.00016775,0.00017945,0.00016502,-0.00005090,0.0
 0006303,0.00009186,-0.00013304,0.02414486,-0.00317516,-0.08327292,-0.0
 1951445,-0.00247987,0.01177634,-0.05476046,0.01127541,0.09371795,0.000
 02407,-0.00001603,0.00002182,0.00004607,-0.00002905,-0.00000813,0.0000
 8313,-0.00007023,-0.00002009,-0.00000183,-0.00000471,0.00008280,0.0000
 2953,0.00001864,0.00004512,0.00001038,-0.00000986,-0.00000073,-0.00000
 494,0.00000274,-0.00000207,-0.00000183,0.00000204,-0.00000225,0.000002
 08,0.00000750,-0.00000689,0.00000468,-0.00000094,-0.00000195,-0.000101
 07,0.00003058,-0.00006729,-0.00010215,0.00005714,-0.00002096,-0.000040
 54,0.00003780,0.00001071,-0.00005290,0.00002505,-0.00003113,-0.0000371
 4,-0.00001362,-0.00005770,0.00014269,0.00001511,0.00007064,-0.00002491
 ,0.00000068,-0.00002821,0.00001364,-0.00002512,0.00003909,-0.00009840,
 0.00000017,-0.00011747,0.00026019,-0.00048029,0.00006475,-0.00002140,0
 .00016454,-0.00003975,-0.00009260,0.00015352,0.00002960,0.00047647,-0.
 00046696,-0.00051405,0.00004460,0.00012592,-0.00008427,-0.00210091,0.0
 0066860,-0.00002462,0.00034789,-0.00000613,-0.00078968,0.00007779,0.00
 002838,-0.00005068,0.01128028,0.00163201,-0.00330078,0.00082623,0.0004
 7745,-0.00127387,-0.00071533,0.00140078,0.00000856,0.00022085,0.000303
 32,-0.00031099,0.00001603,-0.00000436,-0.00001369,-0.00000193,-0.00000
 409,-0.00000298,0.00000157,-0.00000204,0.00000353,-0.00000476,0.000005
 02,0.00000058,0.00001258,-0.00002736,0.00001722,-0.00000487,0.00000225
 ,-0.00000228,0.00000124,0.00000405,-0.00000404,0.00000038,0.00000340,-
 0.00000005,0.00002498,0.00002286,0.00001930,-0.00000235,-0.00000220,-0
 .00000772,-0.00000520,-0.00000289,0.00000012,-0.00000158,-0.00000059,0
 .00000146,0.00016473,-0.00002615,0.00010808,-0.00004157,-0.00002034,-0
 .00001511,-0.00002997,0.00007682,0.00003495,0.00002174,0.00000026,-0.0
 0000577,-0.00034393,-0.00002153,0.00020109,0.00003591,0.00007487,-0.00
 012537,0.00013446,0.00007629,-0.00003397,0.00008595,-0.00004284,-0.000
 07126,-0.08315277,0.00008200,0.03035209,0.00960504,-0.00850302,-0.0282
 9148,-0.03120263,0.00477014,0.06302018,0.09419230,-0.00004716,-0.00003
 266,-0.00005145,-0.00008906,0.00006780,-0.00001271,-0.00029805,-0.0004
 8428,0.00016466,-0.00012366,-0.00018531,-0.00017652,-0.00001885,0.0000
 1386,-0.00001455,-0.00001214,0.00001811,-0.00000439,0.00004500,0.00000
 340,0.00000601,-0.00000188,0.00001059,-0.00000888,-0.00001549,0.000030
 11,-0.00002902,0.00002341,0.00000267,0.00000488,0.00019691,0.00029000,
 0.00012936,0.00088624,0.00025525,-0.00002731,0.00007468,-0.00001408,-0
 .00003533,0.00005774,0.00001359,0.00003220,0.00002871,0.00005770,0.000
 05537,0.00020261,-0.00005968,0.00012135,-0.00002125,0.00002014,-0.0000
 1766,0.00004913,-0.00016660,0.00001565,-0.00011656,0.00013665,-0.00015
 353,-0.00196580,0.00109275,0.00061756,0.00045753,-0.00058478,-0.000086
 36,0.00052760,-0.00025809,-0.00048177,-0.00069968,0.00028334,0.0000047
 1,-0.00035238,-0.00045868,0.00099185,0.00091289,-0.00116899,0.00060873
 ,-0.00108191,-0.00193328,0.00077096,-0.00003763,0.00003985,0.00003619,
 -0.00519836,0.00187058,0.03892876,0.00008307,-0.00120172,0.00136586,0.
 00453331,-0.00300395,0.00013553,0.00018239,0.00041335,0.00019073,-0.00
 004061,0.00000160,0.00004412,-0.00000379,0.00000052,0.00000677,0.00000
 979,0.00000888,-0.00000535,0.00000381,-0.00000389,-0.00000272,-0.00001
 588,0.00001266,-0.00000489,0.00000704,-0.00000008,0.00000248,0.0000001
 7,-0.00000402,-0.00000107,-0.00000309,-0.00000108,0.00000162,-0.000022
 52,-0.00004579,-0.00000897,0.00000236,0.00000258,0.00000289,0.00000325
 ,0.00000389,-0.00000031,0.00000370,0.00001195,-0.00000187,0.00027339,-
 0.00008098,0.00014967,-0.00003816,0.00000407,-0.00000947,-0.00001741,0
 .00006767,-0.00002015,-0.00004969,-0.00000075,0.00000656,0.00127001,0.
 00017678,-0.00163746,-0.00003736,-0.00035987,0.00065952,-0.00065042,-0
 .00035487,0.00025685,-0.00032384,0.00010176,0.00048421,0.00138022,-0.0
 8807142,0.02668391,-0.00732238,-0.00283414,-0.05243556,0.00787962,0.01
 217469,-0.01482337,-0.00048959,0.08412220,0.00006494,-0.00004377,-0.00
 000908,0.00011286,-0.00008060,-0.00001775,0.00032926,0.00027229,-0.000
 32069,0.00004795,-0.00007413,-0.00016093,0.00007938,0.00007003,0.00010
 258,-0.00001764,0.00002111,0.00001766,-0.00005188,-0.00000441,-0.00000
 405,-0.00000064,-0.00000870,0.00001225,0.00002615,-0.00004029,0.000052
 93,-0.00001764,-0.00001467,-0.00000729,-0.00032528,-0.00005955,0.00016
 601,-0.00091033,-0.00014009,0.00021086,-0.00011820,0.00006815,0.000126
 37,-0.00013563,0.00005015,-0.00002347,-0.00011398,-0.00003461,-0.00005
 409,0.00070035,0.00034736,0.00012620,-0.00004692,-0.00000944,-0.000016
 50,0.00006378,-0.00011457,0.00000094,-0.00038521,-0.00027145,0.0002422
 8,0.00208373,-0.00105683,-0.00160138,-0.00054958,0.00069903,0.00026539
 ,-0.00048427,0.00013253,0.00091600,0.00002215,0.00133949,0.00042483,-0
 .00039296,0.00039388,-0.00021423,0.00335857,-0.00166663,-0.00095536,0.
 00178498,0.00075476,-0.00108818,-0.00011029,-0.00007986,0.00004759,0.0
 0855702,0.00557811,-0.04038067,-0.00189032,0.00061291,0.00002786,-0.00
 516219,0.00588626,-0.00062660,-0.00040062,-0.00070772,0.00040942,0.000
 04152,-0.00000736,-0.00012502,0.00001639,0.00000028,0.00000766,-0.0000
 1549,-0.00001107,0.00001044,-0.00000548,0.00000487,0.00001075,0.000029
 60,-0.00004596,0.00001387,-0.00001353,0.00000389,-0.00000682,-0.000001
 27,0.00000597,0.00000223,0.00000029,0.00001162,-0.00000152,0.00007596,
 0.00006552,0.00004096,-0.00000040,-0.00000666,-0.00000581,-0.00002102,
 -0.00000274,-0.00000091,0.00000248,-0.00000618,-0.00000255,0.00029973,
 -0.00002151,-0.00016487,-0.00007020,-0.00003073,0.00001875,0.00007725,
 0.00010512,-0.00012092,-0.00011872,0.00003111,0.00002858,-0.00154884,-
 0.00052185,0.00164687,0.00002162,0.00054284,-0.00087255,0.00077295,0.0
 0049158,-0.00019534,0.00031747,0.00003832,-0.00049880,0.02566894,0.034
 05617,-0.30606230,-0.01781251,-0.03570852,-0.06077056,0.04497014,-0.00
 838516,-0.03143443,-0.05880444,-0.00242829,0.44081344\\0.00000076,0.00
 000032,0.00000282,-0.00000340,-0.00000415,0.00000225,0.00000790,0.0000
 0940,-0.00000476,-0.00000352,-0.00000058,-0.00000151,-0.00000151,-0.00
 000160,0.00000106,0.00000032,-0.00000207,0.00000221,0.00000126,-0.0000
 0038,0.00000164,-0.00000056,-0.00000045,0.00000012,-0.00000005,0.00000
 051,-0.00000060,0.00000123,-0.00000175,0.00000165,0.00000434,-0.000003
 16,-0.00000041,-0.00001377,-0.00000258,0.00000084,-0.00000174,0.000000
 88,0.00000120,-0.00000117,-0.00000348,0.00000087,0.00000188,-0.0000013
 2,0.00000175,0.00000084,-0.00000009,0.00000236,0.00000014,-0.00000066,
 0.00000043,0.00000145,0.00000067,0.00000031,-0.00000043,-0.00000132,-0
 .00000163,0.00001168,0.00000199,0.00000334,-0.00000356,0.00000201,-0.0
 0000267,-0.00000321,0.00000168,-0.00000204,0.00000073,-0.00000388,0.00
 000125,-0.00000235,0.00000014,-0.00000116,0.00000256,0.00000134,-0.000
 00550,-0.00000255,0.00000196,-0.00000408,-0.00000221,0.00000085,-0.000
 00142,-0.00000256,0.00000195,0.00000305,0.00000215,0.00000039,0.000000
 20,0.00000217,0.00000265,-0.00000466,0.00000088,0.00000048,-0.00000268
 ,0.00000048,-0.00000087,-0.00000099,0.00000136,-0.00000189,0.00000194,
 -0.00000007,-0.00000203,0.00000203,0.00000055,-0.00000005,0.00000193,-
 0.00000167,-0.00000066,0.00000309,-0.00000132,-0.00000292,0.00000239,-
 0.00000153,-0.00000189,0.00000158,-0.00000113,-0.00000197,0.00000195,-
 0.00000237,-0.00000059,0.00000039,-0.00000082,-0.00000162,0.00000111,-
 0.00000080,-0.00000177,0.00000233,0.00000031,-0.00000213,0.00000213,0.
 00000345,-0.00000038,0.00000263,0.00000177,0.00000009,0.00000016,0.000
 00233,0.00000042,-0.00000073,0.00000213,0.00000016,0.00000064,-0.00000
 317,0.00000324,0.00000303,-0.00000202,0.00000159,-0.00000240,0.0000000
 9,0.00000123,-0.00000324,-0.00000187,-0.00000032,-0.00000461,0.0000094
 9,0.00001250,0.00000323,-0.00000533,-0.00000575,-0.00000738,0.00000139
 ,0.00000342,-0.00000227,0.00000104,0.00000244,-0.00000319\\\@


 ONE OF THE BENEFITS OF A COLLEGE EDUCATION
 IS TO SHOW THE BOY ITS LITTLE AVAIL 
                                    EMERSON IN 'CULTURE'
 Job cpu time:       0 days 21 hours 50 minutes 26.6 seconds.
 Elapsed time:       0 days  0 hours 44 minutes  0.4 seconds.
 File lengths (MBytes):  RWF=   2254 Int=      0 D2E=      0 Chk=     40 Scr=      1
 Normal termination of Gaussian 16 at Wed Jun  5 17:29:18 2019.
