 Entering Gaussian System, Link 0=g16
 Input=clay_new-glu_gluC6-BCDR-Na2_1Me2O-bisCF3-ts-m06_hf_d3-631gd-pcm_thf.gjf
 Output=clay_new-glu_gluC6-BCDR-Na2_1Me2O-bisCF3-ts-m06_hf_d3-631gd-pcm_thf.out
 Initial command:
 /home/ekwan/sw/g16/l1.exe "/scratch/users/ekwan/clay_new-glu_gluC6-BCDR-Na2_1Me2O-bisCF3-ts-m06_hf_d3-631gd-pcm_thf/Gau-22790.inp" -scrdir="/scratch/users/ekwan/clay_new-glu_gluC6-BCDR-Na2_1Me2O-bisCF3-ts-m06_hf_d3-631gd-pcm_thf/"
 Entering Link 1 = /home/ekwan/sw/g16/l1.exe PID=     22791.
  
 Copyright (c) 1988,1990,1992,1993,1995,1998,2003,2009,2016,
            Gaussian, Inc.  All Rights Reserved.
  
 This is part of the Gaussian(R) 16 program.  It is based on
 the Gaussian(R) 09 system (copyright 2009, Gaussian, Inc.),
 the Gaussian(R) 03 system (copyright 2003, Gaussian, Inc.),
 the Gaussian(R) 98 system (copyright 1998, Gaussian, Inc.),
 the Gaussian(R) 94 system (copyright 1995, Gaussian, Inc.),
 the Gaussian 92(TM) system (copyright 1992, Gaussian, Inc.),
 the Gaussian 90(TM) system (copyright 1990, Gaussian, Inc.),
 the Gaussian 88(TM) system (copyright 1988, Gaussian, Inc.),
 the Gaussian 86(TM) system (copyright 1986, Carnegie Mellon
 University), and the Gaussian 82(TM) system (copyright 1983,
 Carnegie Mellon University). Gaussian is a federally registered
 trademark of Gaussian, Inc.
  
 This software contains proprietary and confidential information,
 including trade secrets, belonging to Gaussian, Inc.
  
 This software is provided under written license and may be
 used, copied, transmitted, or stored only in accord with that
 written license.
  
 The following legend is applicable only to US Government
 contracts under FAR:
  
                    RESTRICTED RIGHTS LEGEND
  
 Use, reproduction and disclosure by the US Government is
 subject to restrictions as set forth in subparagraphs (a)
 and (c) of the Commercial Computer Software - Restricted
 Rights clause in FAR 52.227-19.
  
 Gaussian, Inc.
 340 Quinnipiac St., Bldg. 40, Wallingford CT 06492
  
  
 ---------------------------------------------------------------
 Warning -- This program may not be used in any manner that
 competes with the business of Gaussian, Inc. or will provide
 assistance to any competitor of Gaussian, Inc.  The licensee
 of this program is prohibited from giving any competitor of
 Gaussian, Inc. access to this program.  By using this program,
 the user acknowledges that Gaussian, Inc. is engaged in the
 business of creating and licensing software in the field of
 computational chemistry and represents and warrants to the
 licensee that it is not a competitor of Gaussian, Inc. and that
 it will not use this program in any manner prohibited above.
 ---------------------------------------------------------------
  

 Cite this work as:
 Gaussian 16, Revision A.03,
 M. J. Frisch, G. W. Trucks, H. B. Schlegel, G. E. Scuseria, 
 M. A. Robb, J. R. Cheeseman, G. Scalmani, V. Barone, 
 G. A. Petersson, H. Nakatsuji, X. Li, M. Caricato, A. V. Marenich, 
 J. Bloino, B. G. Janesko, R. Gomperts, B. Mennucci, H. P. Hratchian, 
 J. V. Ortiz, A. F. Izmaylov, J. L. Sonnenberg, D. Williams-Young, 
 F. Ding, F. Lipparini, F. Egidi, J. Goings, B. Peng, A. Petrone, 
 T. Henderson, D. Ranasinghe, V. G. Zakrzewski, J. Gao, N. Rega, 
 G. Zheng, W. Liang, M. Hada, M. Ehara, K. Toyota, R. Fukuda, 
 J. Hasegawa, M. Ishida, T. Nakajima, Y. Honda, O. Kitao, H. Nakai, 
 T. Vreven, K. Throssell, J. A. Montgomery, Jr., J. E. Peralta, 
 F. Ogliaro, M. J. Bearpark, J. J. Heyd, E. N. Brothers, K. N. Kudin, 
 V. N. Staroverov, T. A. Keith, R. Kobayashi, J. Normand, 
 K. Raghavachari, A. P. Rendell, J. C. Burant, S. S. Iyengar, 
 J. Tomasi, M. Cossi, J. M. Millam, M. Klene, C. Adamo, R. Cammi, 
 J. W. Ochterski, R. L. Martin, K. Morokuma, O. Farkas, 
 J. B. Foresman, and D. J. Fox, Gaussian, Inc., Wallingford CT, 2016.
 
 ******************************************
 Gaussian 16:  AS64L-G16RevA.03 25-Dec-2016
                 6-Jun-2019 
 ******************************************
 %nprocshared=32
 Will use up to   32 processors via shared memory.
 %mem=48GB
 ----------------------------------------------------------------------
 #p opt=(calcfc,ts,noeigentest,maxstep=5) freq=noraman 6-31g(d) scrf=(s
 olvent=tetrahydrofuran,pcm) pop=none empiricaldispersion=gd3 m06hf
 ----------------------------------------------------------------------
 1/5=1,8=5,10=4,11=1,18=20,26=3,38=1/1,3;
 2/9=110,12=2,17=6,18=5,40=1/2;
 3/5=1,6=6,7=1,11=2,25=1,30=1,70=2201,71=2,72=20,74=-52,124=31,140=1/1,2,3;
 4//1;
 5/5=2,38=5,53=20/2;
 8/6=4,10=90,11=11/1;
 11/6=1,8=1,9=11,15=111,16=1/1,2,10;
 10/6=1,13=1/2;
 7/10=1,18=20,25=1/1,2,3,16;
 1/5=1,8=5,10=4,11=1,18=20,26=3/3(2);
 2/9=110/2;
 99//99;
 2/9=110/2;
 3/5=1,6=6,7=1,11=2,25=1,30=1,70=2205,71=1,72=20,74=-52,124=31/1,2,3;
 4/5=5,16=3,69=1/1;
 5/5=2,38=5,53=20/2;
 7//1,2,3,16;
 1/5=1,8=5,11=1,18=20,26=3/3(-5);
 2/9=110/2;
 99/9=1/99;
 Leave Link    1 at Thu Jun  6 05:57:10 2019, MaxMem=  6442450944 cpu:               3.6 elap:               0.1
 (Enter /home/ekwan/sw/g16/l101.exe)
 -----
 title
 -----
 Symbolic Z-matrix:
 Charge =  0 Multiplicity = 1
 C                    -1.51904   1.45596   2.4504 
 C                    -1.86217   2.13191   1.12429 
 C                    -0.92575   3.32591   0.90432 
 C                     0.82944   2.33705   2.20447 
 C                    -0.03204   1.10588   2.50551 
 H                    -1.07429   3.73732  -0.0965 
 H                    -1.68454   1.43648   0.29765 
 H                    -1.74452   2.1634    3.25328 
 H                     0.66592   3.06244   3.00665 
 H                     0.17077   0.32639   1.76694 
 O                     0.42141   2.90625   0.95399 
 O                    -1.18753   4.28262   1.8783 
 O                    -3.18737   2.60567   1.10829 
 O                    -2.29097   0.27807   2.60391 
 O                     0.28733   0.63847   3.8012 
 C                     2.331     2.01798   2.09586 
 H                     2.58624   1.47824   3.01902 
 H                     2.84754   2.99344   2.14284 
 O                     2.67461   1.33015   0.94537 
 C                    -4.12954   1.69141   0.56614 
 H                    -3.87538   1.45544  -0.4711 
 H                    -4.16245   0.77399   1.15295 
 H                    -5.0967    2.18803   0.59106 
 C                    -2.86582   0.15026   3.89779 
 H                    -2.10029   0.26575   4.66509 
 H                    -3.64443   0.90418   4.03741 
 H                    -3.30254  -0.84172   3.9554 
 C                     0.56049  -0.75506   3.85798 
 H                    -0.29301  -1.32256   3.48116 
 H                     1.44982  -1.00085   3.2729 
 H                     0.72907  -0.9976    4.90533 
 C                     3.48844  -1.67491  -1.47301 
 C                     3.0577   -0.28088  -1.01304 
 C                     1.7608   -0.33406  -0.22243 
 C                     1.97056  -2.6399    0.29095 
 C                     3.39969  -2.5965   -0.25198 
 H                     1.08446   0.48881  -0.17085 
 H                     3.79552   0.09088  -0.29821 
 H                     2.83666  -2.0285   -2.2749 
 H                     1.30636  -3.04871  -0.47168 
 H                     4.06112  -2.20412   0.52432 
 O                     1.4895   -1.31122   0.58534 
 O                    -0.35657   0.06459  -3.80746 
 O                     2.85789   0.6687   -2.02989 
 O                     4.83215  -1.60037  -1.89516 
 O                     3.75972  -3.91009  -0.60735 
 C                     1.8408   -3.45056   1.56667 
 H                     2.04417  -4.49817   1.32705 
 H                     0.81548  -3.35832   1.94018 
 O                     2.76576  -2.95325   2.50125 
 S                    -0.29058   0.02739  -2.35194 
 O                    -0.11766   1.34885  -1.7042 
 O                     0.68874  -0.97567  -1.81237 
 C                    -1.8518   -0.6027   -1.7623 
 C                    -3.00044  -0.38798  -2.50713 
 C                    -1.87743  -1.26159  -0.53597 
 C                    -4.21207  -0.8435   -1.99274 
 H                    -2.94666   0.11542  -3.46339 
 C                    -3.09758  -1.71265  -0.05844 
 H                    -0.96501  -1.42501   0.025 
 C                    -4.27309  -1.51143  -0.77727 
 H                    -5.22056  -1.86641  -0.39239 
 C                     4.03689   1.08312  -2.72159 
 H                     4.84806   1.25592  -2.01424 
 H                     4.33536   0.3291   -3.44598 
 H                     3.77903   2.00987  -3.22654 
 C                     5.14756  -2.44979  -2.99239 
 H                     4.9166   -3.48628  -2.75254 
 H                     4.58955  -2.14451  -3.88042 
 H                     6.21278  -2.33617  -3.17526 
 C                     4.87436  -4.41891   0.1178 
 H                     5.76342  -3.82357  -0.09324 
 H                     4.66791  -4.40397   1.18938 
 H                     5.02459  -5.44099  -0.21826 
 C                     2.72301  -3.64375   3.73799 
 H                     3.44205  -3.16335   4.39518 
 H                     1.72471  -3.58229   4.17788 
 H                     2.99205  -4.69356   3.59941 
 C                    -0.46173   5.49078   1.69225 
 H                    -0.79841   6.17926   2.46136 
 H                     0.6103    5.31743   1.79204 
 H                    -0.67353   5.90863   0.70529 
 Na                    1.80524   2.50099  -0.86029 
 O                     3.61876   3.83107  -1.14047 
 C                     3.93868   4.89016  -2.02401 
 H                     4.82845   4.63901  -2.606 
 H                     3.09116   5.02558  -2.69093 
 H                     4.11843   5.81052  -1.46476 
 C                     4.65225   3.54803  -0.20359 
 H                     4.80563   4.4083    0.45222 
 H                     4.31638   2.68052   0.3644 
 H                     5.58274   3.32744  -0.73311 
 C                    -5.4934   -0.52546  -2.71785 
 F                    -6.02955   0.61685  -2.25783 
 F                    -6.41002  -1.48781  -2.54793 
 F                    -5.29434  -0.37172  -4.03247 
 C                    -3.1824   -2.45926   1.2465 
 F                    -2.01741  -2.47473   1.90446 
 F                    -3.5451   -3.73739   1.04644 
 F                    -4.11233  -1.91881   2.0491 
 
 Add virtual bond connecting atoms O52        and H37        Dist= 4.02D+00.
 Add virtual bond connecting atoms O53        and C34        Dist= 3.82D+00.
 Add virtual bond connecting atoms C34        and O19        Dist= 4.21D+00.
 Add virtual bond connecting atoms H37        and H10        Dist= 4.06D+00.
 Add virtual bond connecting atoms H37        and O19        Dist= 4.00D+00.
 Add virtual bond connecting atoms H38        and O19        Dist= 3.94D+00.
 Add virtual bond connecting atoms H91        and O19        Dist= 4.16D+00.
 ITRead=  0  0  0  0  0  0  0  0  0  0  0  0  0  0  0  0  0  0  0  0
 ITRead=  0  0  0  0  0  0  0  0  0  0  0  0  0  0  0  0  0  0  0  0
 ITRead=  0  0  0  0  0  0  0  0  0  0  0  0  0  0  0  0  0  0  0  0
 ITRead=  0  0  0  0  0  0  0  0  0  0  0  0  0  0  0  0  0  0  0  0
 ITRead=  0  0  0  0  0  0  0  0  0  0  0  0  0  0  0  0  0  0  0  0
 MicOpt= -1 -1 -1 -1 -1 -1 -1 -1 -1 -1 -1 -1 -1 -1 -1 -1 -1 -1 -1 -1
 MicOpt= -1 -1 -1 -1 -1 -1 -1 -1 -1 -1 -1 -1 -1 -1 -1 -1 -1 -1 -1 -1
 MicOpt= -1 -1 -1 -1 -1 -1 -1 -1 -1 -1 -1 -1 -1 -1 -1 -1 -1 -1 -1 -1
 MicOpt= -1 -1 -1 -1 -1 -1 -1 -1 -1 -1 -1 -1 -1 -1 -1 -1 -1 -1 -1 -1
 MicOpt= -1 -1 -1 -1 -1 -1 -1 -1 -1 -1 -1 -1 -1 -1 -1 -1 -1 -1 -1 -1
 NAtoms=    100 NQM=      100 NQMF=       0 NMMI=      0 NMMIF=      0
                NMic=       0 NMicF=      0.
                    Isotopes and Nuclear Properties:
 (Nuclear quadrupole moments (NQMom) in fm**2, nuclear magnetic moments (NMagM)
  in nuclear magnetons)

  Atom         1           2           3           4           5           6           7           8           9          10
 IAtWgt=          12          12          12          12          12           1           1           1           1           1
 AtmWgt=  12.0000000  12.0000000  12.0000000  12.0000000  12.0000000   1.0078250   1.0078250   1.0078250   1.0078250   1.0078250
 NucSpn=           0           0           0           0           0           1           1           1           1           1
 AtZEff=   0.0000000   0.0000000   0.0000000   0.0000000   0.0000000   0.0000000   0.0000000   0.0000000   0.0000000   0.0000000
 NQMom=    0.0000000   0.0000000   0.0000000   0.0000000   0.0000000   0.0000000   0.0000000   0.0000000   0.0000000   0.0000000
 NMagM=    0.0000000   0.0000000   0.0000000   0.0000000   0.0000000   2.7928460   2.7928460   2.7928460   2.7928460   2.7928460
 AtZNuc=   6.0000000   6.0000000   6.0000000   6.0000000   6.0000000   1.0000000   1.0000000   1.0000000   1.0000000   1.0000000

  Atom        11          12          13          14          15          16          17          18          19          20
 IAtWgt=          16          16          16          16          16          12           1           1          16          12
 AtmWgt=  15.9949146  15.9949146  15.9949146  15.9949146  15.9949146  12.0000000   1.0078250   1.0078250  15.9949146  12.0000000
 NucSpn=           0           0           0           0           0           0           1           1           0           0
 AtZEff=   0.0000000   0.0000000   0.0000000   0.0000000   0.0000000   0.0000000   0.0000000   0.0000000   0.0000000   0.0000000
 NQMom=    0.0000000   0.0000000   0.0000000   0.0000000   0.0000000   0.0000000   0.0000000   0.0000000   0.0000000   0.0000000
 NMagM=    0.0000000   0.0000000   0.0000000   0.0000000   0.0000000   0.0000000   2.7928460   2.7928460   0.0000000   0.0000000
 AtZNuc=   8.0000000   8.0000000   8.0000000   8.0000000   8.0000000   6.0000000   1.0000000   1.0000000   8.0000000   6.0000000

  Atom        21          22          23          24          25          26          27          28          29          30
 IAtWgt=           1           1           1          12           1           1           1          12           1           1
 AtmWgt=   1.0078250   1.0078250   1.0078250  12.0000000   1.0078250   1.0078250   1.0078250  12.0000000   1.0078250   1.0078250
 NucSpn=           1           1           1           0           1           1           1           0           1           1
 AtZEff=   0.0000000   0.0000000   0.0000000   0.0000000   0.0000000   0.0000000   0.0000000   0.0000000   0.0000000   0.0000000
 NQMom=    0.0000000   0.0000000   0.0000000   0.0000000   0.0000000   0.0000000   0.0000000   0.0000000   0.0000000   0.0000000
 NMagM=    2.7928460   2.7928460   2.7928460   0.0000000   2.7928460   2.7928460   2.7928460   0.0000000   2.7928460   2.7928460
 AtZNuc=   1.0000000   1.0000000   1.0000000   6.0000000   1.0000000   1.0000000   1.0000000   6.0000000   1.0000000   1.0000000

  Atom        31          32          33          34          35          36          37          38          39          40
 IAtWgt=           1          12          12          12          12          12           1           1           1           1
 AtmWgt=   1.0078250  12.0000000  12.0000000  12.0000000  12.0000000  12.0000000   1.0078250   1.0078250   1.0078250   1.0078250
 NucSpn=           1           0           0           0           0           0           1           1           1           1
 AtZEff=   0.0000000   0.0000000   0.0000000   0.0000000   0.0000000   0.0000000   0.0000000   0.0000000   0.0000000   0.0000000
 NQMom=    0.0000000   0.0000000   0.0000000   0.0000000   0.0000000   0.0000000   0.0000000   0.0000000   0.0000000   0.0000000
 NMagM=    2.7928460   0.0000000   0.0000000   0.0000000   0.0000000   0.0000000   2.7928460   2.7928460   2.7928460   2.7928460
 AtZNuc=   1.0000000   6.0000000   6.0000000   6.0000000   6.0000000   6.0000000   1.0000000   1.0000000   1.0000000   1.0000000

  Atom        41          42          43          44          45          46          47          48          49          50
 IAtWgt=           1          16          16          16          16          16          12           1           1          16
 AtmWgt=   1.0078250  15.9949146  15.9949146  15.9949146  15.9949146  15.9949146  12.0000000   1.0078250   1.0078250  15.9949146
 NucSpn=           1           0           0           0           0           0           0           1           1           0
 AtZEff=   0.0000000   0.0000000   0.0000000   0.0000000   0.0000000   0.0000000   0.0000000   0.0000000   0.0000000   0.0000000
 NQMom=    0.0000000   0.0000000   0.0000000   0.0000000   0.0000000   0.0000000   0.0000000   0.0000000   0.0000000   0.0000000
 NMagM=    2.7928460   0.0000000   0.0000000   0.0000000   0.0000000   0.0000000   0.0000000   2.7928460   2.7928460   0.0000000
 AtZNuc=   1.0000000   8.0000000   8.0000000   8.0000000   8.0000000   8.0000000   6.0000000   1.0000000   1.0000000   8.0000000

  Atom        51          52          53          54          55          56          57          58          59          60
 IAtWgt=          32          16          16          12          12          12          12           1          12           1
 AtmWgt=  31.9720718  15.9949146  15.9949146  12.0000000  12.0000000  12.0000000  12.0000000   1.0078250  12.0000000   1.0078250
 NucSpn=           0           0           0           0           0           0           0           1           0           1
 AtZEff=   0.0000000   0.0000000   0.0000000   0.0000000   0.0000000   0.0000000   0.0000000   0.0000000   0.0000000   0.0000000
 NQMom=    0.0000000   0.0000000   0.0000000   0.0000000   0.0000000   0.0000000   0.0000000   0.0000000   0.0000000   0.0000000
 NMagM=    0.0000000   0.0000000   0.0000000   0.0000000   0.0000000   0.0000000   0.0000000   2.7928460   0.0000000   2.7928460
 AtZNuc=  16.0000000   8.0000000   8.0000000   6.0000000   6.0000000   6.0000000   6.0000000   1.0000000   6.0000000   1.0000000

  Atom        61          62          63          64          65          66          67          68          69          70
 IAtWgt=          12           1          12           1           1           1          12           1           1           1
 AtmWgt=  12.0000000   1.0078250  12.0000000   1.0078250   1.0078250   1.0078250  12.0000000   1.0078250   1.0078250   1.0078250
 NucSpn=           0           1           0           1           1           1           0           1           1           1
 AtZEff=   0.0000000   0.0000000   0.0000000   0.0000000   0.0000000   0.0000000   0.0000000   0.0000000   0.0000000   0.0000000
 NQMom=    0.0000000   0.0000000   0.0000000   0.0000000   0.0000000   0.0000000   0.0000000   0.0000000   0.0000000   0.0000000
 NMagM=    0.0000000   2.7928460   0.0000000   2.7928460   2.7928460   2.7928460   0.0000000   2.7928460   2.7928460   2.7928460
 AtZNuc=   6.0000000   1.0000000   6.0000000   1.0000000   1.0000000   1.0000000   6.0000000   1.0000000   1.0000000   1.0000000

  Atom        71          72          73          74          75          76          77          78          79          80
 IAtWgt=          12           1           1           1          12           1           1           1          12           1
 AtmWgt=  12.0000000   1.0078250   1.0078250   1.0078250  12.0000000   1.0078250   1.0078250   1.0078250  12.0000000   1.0078250
 NucSpn=           0           1           1           1           0           1           1           1           0           1
 AtZEff=   0.0000000   0.0000000   0.0000000   0.0000000   0.0000000   0.0000000   0.0000000   0.0000000   0.0000000   0.0000000
 NQMom=    0.0000000   0.0000000   0.0000000   0.0000000   0.0000000   0.0000000   0.0000000   0.0000000   0.0000000   0.0000000
 NMagM=    0.0000000   2.7928460   2.7928460   2.7928460   0.0000000   2.7928460   2.7928460   2.7928460   0.0000000   2.7928460
 AtZNuc=   6.0000000   1.0000000   1.0000000   1.0000000   6.0000000   1.0000000   1.0000000   1.0000000   6.0000000   1.0000000

  Atom        81          82          83          84          85          86          87          88          89          90
 IAtWgt=           1           1          23          16          12           1           1           1          12           1
 AtmWgt=   1.0078250   1.0078250  22.9897697  15.9949146  12.0000000   1.0078250   1.0078250   1.0078250  12.0000000   1.0078250
 NucSpn=           1           1           3           0           0           1           1           1           0           1
 AtZEff=   0.0000000   0.0000000   0.0000000   0.0000000   0.0000000   0.0000000   0.0000000   0.0000000   0.0000000   0.0000000
 NQMom=    0.0000000   0.0000000  10.4000000   0.0000000   0.0000000   0.0000000   0.0000000   0.0000000   0.0000000   0.0000000
 NMagM=    2.7928460   2.7928460   2.2175200   0.0000000   0.0000000   2.7928460   2.7928460   2.7928460   0.0000000   2.7928460
 AtZNuc=   1.0000000   1.0000000  11.0000000   8.0000000   6.0000000   1.0000000   1.0000000   1.0000000   6.0000000   1.0000000

  Atom        91          92          93          94          95          96          97          98          99         100
 IAtWgt=           1           1          12          19          19          19          12          19          19          19
 AtmWgt=   1.0078250   1.0078250  12.0000000  18.9984033  18.9984033  18.9984033  12.0000000  18.9984033  18.9984033  18.9984033
 NucSpn=           1           1           0           1           1           1           0           1           1           1
 AtZEff=   0.0000000   0.0000000   0.0000000   0.0000000   0.0000000   0.0000000   0.0000000   0.0000000   0.0000000   0.0000000
 NQMom=    0.0000000   0.0000000   0.0000000   0.0000000   0.0000000   0.0000000   0.0000000   0.0000000   0.0000000   0.0000000
 NMagM=    2.7928460   2.7928460   0.0000000   2.6288670   2.6288670   2.6288670   0.0000000   2.6288670   2.6288670   2.6288670
 AtZNuc=   1.0000000   1.0000000   6.0000000   9.0000000   9.0000000   9.0000000   6.0000000   9.0000000   9.0000000   9.0000000
 Leave Link  101 at Thu Jun  6 05:57:11 2019, MaxMem=  6442450944 cpu:              18.1 elap:               0.6
 (Enter /home/ekwan/sw/g16/l103.exe)

 GradGradGradGradGradGradGradGradGradGradGradGradGradGradGradGradGradGrad
 Berny optimization.
 Initialization pass.
                           ----------------------------
                           !    Initial Parameters    !
                           ! (Angstroms and Degrees)  !
 --------------------------                            --------------------------
 ! Name  Definition              Value          Derivative Info.                !
 --------------------------------------------------------------------------------
 ! R1    R(1,2)                  1.5275         calculate D2E/DX2 analytically  !
 ! R2    R(1,5)                  1.5287         calculate D2E/DX2 analytically  !
 ! R3    R(1,8)                  1.0936         calculate D2E/DX2 analytically  !
 ! R4    R(1,14)                 1.4166         calculate D2E/DX2 analytically  !
 ! R5    R(2,3)                  1.5333         calculate D2E/DX2 analytically  !
 ! R6    R(2,7)                  1.0948         calculate D2E/DX2 analytically  !
 ! R7    R(2,13)                 1.4074         calculate D2E/DX2 analytically  !
 ! R8    R(3,6)                  1.0922         calculate D2E/DX2 analytically  !
 ! R9    R(3,11)                 1.4119         calculate D2E/DX2 analytically  !
 ! R10   R(3,12)                 1.3901         calculate D2E/DX2 analytically  !
 ! R11   R(4,5)                  1.5325         calculate D2E/DX2 analytically  !
 ! R12   R(4,9)                  1.0938         calculate D2E/DX2 analytically  !
 ! R13   R(4,11)                 1.4332         calculate D2E/DX2 analytically  !
 ! R14   R(4,16)                 1.5389         calculate D2E/DX2 analytically  !
 ! R15   R(5,10)                 1.0928         calculate D2E/DX2 analytically  !
 ! R16   R(5,15)                 1.414          calculate D2E/DX2 analytically  !
 ! R17   R(10,37)                2.1485         calculate D2E/DX2 analytically  !
 ! R18   R(12,79)                1.4216         calculate D2E/DX2 analytically  !
 ! R19   R(13,20)                1.4204         calculate D2E/DX2 analytically  !
 ! R20   R(14,24)                1.4216         calculate D2E/DX2 analytically  !
 ! R21   R(15,28)                1.4212         calculate D2E/DX2 analytically  !
 ! R22   R(16,17)                1.0994         calculate D2E/DX2 analytically  !
 ! R23   R(16,18)                1.1048         calculate D2E/DX2 analytically  !
 ! R24   R(16,19)                1.3838         calculate D2E/DX2 analytically  !
 ! R25   R(19,34)                2.229          calculate D2E/DX2 analytically  !
 ! R26   R(19,37)                2.1172         calculate D2E/DX2 analytically  !
 ! R27   R(19,38)                2.083          calculate D2E/DX2 analytically  !
 ! R28   R(19,91)                2.2037         calculate D2E/DX2 analytically  !
 ! R29   R(20,21)                1.0937         calculate D2E/DX2 analytically  !
 ! R30   R(20,22)                1.0895         calculate D2E/DX2 analytically  !
 ! R31   R(20,23)                1.0875         calculate D2E/DX2 analytically  !
 ! R32   R(24,25)                1.09           calculate D2E/DX2 analytically  !
 ! R33   R(24,26)                1.0928         calculate D2E/DX2 analytically  !
 ! R34   R(24,27)                1.0854         calculate D2E/DX2 analytically  !
 ! R35   R(28,29)                1.092          calculate D2E/DX2 analytically  !
 ! R36   R(28,30)                1.0925         calculate D2E/DX2 analytically  !
 ! R37   R(28,31)                1.0882         calculate D2E/DX2 analytically  !
 ! R38   R(32,33)                1.5298         calculate D2E/DX2 analytically  !
 ! R39   R(32,36)                1.5324         calculate D2E/DX2 analytically  !
 ! R40   R(32,39)                1.0922         calculate D2E/DX2 analytically  !
 ! R41   R(32,45)                1.4104         calculate D2E/DX2 analytically  !
 ! R42   R(33,34)                1.5198         calculate D2E/DX2 analytically  !
 ! R43   R(33,38)                1.0925         calculate D2E/DX2 analytically  !
 ! R44   R(33,44)                1.4056         calculate D2E/DX2 analytically  !
 ! R45   R(34,37)                1.0664         calculate D2E/DX2 analytically  !
 ! R46   R(34,42)                1.2965         calculate D2E/DX2 analytically  !
 ! R47   R(34,53)                2.0221         calculate D2E/DX2 analytically  !
 ! R48   R(35,36)                1.5294         calculate D2E/DX2 analytically  !
 ! R49   R(35,40)                1.0908         calculate D2E/DX2 analytically  !
 ! R50   R(35,42)                1.4434         calculate D2E/DX2 analytically  !
 ! R51   R(35,47)                1.5171         calculate D2E/DX2 analytically  !
 ! R52   R(36,41)                1.0927         calculate D2E/DX2 analytically  !
 ! R53   R(36,46)                1.4076         calculate D2E/DX2 analytically  !
 ! R54   R(37,52)                2.1298         calculate D2E/DX2 analytically  !
 ! R55   R(37,83)                2.2458         calculate D2E/DX2 analytically  !
 ! R56   R(43,51)                1.4575         calculate D2E/DX2 analytically  !
 ! R57   R(44,63)                1.4284         calculate D2E/DX2 analytically  !
 ! R58   R(45,67)                1.423          calculate D2E/DX2 analytically  !
 ! R59   R(46,71)                1.4238         calculate D2E/DX2 analytically  !
 ! R60   R(47,48)                1.0937         calculate D2E/DX2 analytically  !
 ! R61   R(47,49)                1.0951         calculate D2E/DX2 analytically  !
 ! R62   R(47,50)                1.4058         calculate D2E/DX2 analytically  !
 ! R63   R(50,75)                1.4171         calculate D2E/DX2 analytically  !
 ! R64   R(51,52)                1.4818         calculate D2E/DX2 analytically  !
 ! R65   R(51,53)                1.5021         calculate D2E/DX2 analytically  !
 ! R66   R(51,54)                1.7838         calculate D2E/DX2 analytically  !
 ! R67   R(54,55)                1.3857         calculate D2E/DX2 analytically  !
 ! R68   R(54,56)                1.3924         calculate D2E/DX2 analytically  !
 ! R69   R(55,57)                1.3929         calculate D2E/DX2 analytically  !
 ! R70   R(55,58)                1.082          calculate D2E/DX2 analytically  !
 ! R71   R(56,59)                1.3857         calculate D2E/DX2 analytically  !
 ! R72   R(56,60)                1.0835         calculate D2E/DX2 analytically  !
 ! R73   R(57,61)                1.3882         calculate D2E/DX2 analytically  !
 ! R74   R(57,93)                1.5062         calculate D2E/DX2 analytically  !
 ! R75   R(59,61)                1.3925         calculate D2E/DX2 analytically  !
 ! R76   R(59,97)                1.5058         calculate D2E/DX2 analytically  !
 ! R77   R(61,62)                1.0825         calculate D2E/DX2 analytically  !
 ! R78   R(63,64)                1.09           calculate D2E/DX2 analytically  !
 ! R79   R(63,65)                1.0874         calculate D2E/DX2 analytically  !
 ! R80   R(63,66)                1.0864         calculate D2E/DX2 analytically  !
 ! R81   R(67,68)                1.0887         calculate D2E/DX2 analytically  !
 ! R82   R(67,69)                1.0923         calculate D2E/DX2 analytically  !
 ! R83   R(67,70)                1.0868         calculate D2E/DX2 analytically  !
 ! R84   R(71,72)                1.0906         calculate D2E/DX2 analytically  !
 ! R85   R(71,73)                1.0914         calculate D2E/DX2 analytically  !
 ! R86   R(71,74)                1.0863         calculate D2E/DX2 analytically  !
 ! R87   R(75,76)                1.0861         calculate D2E/DX2 analytically  !
 ! R88   R(75,77)                1.0927         calculate D2E/DX2 analytically  !
 ! R89   R(75,78)                1.0926         calculate D2E/DX2 analytically  !
 ! R90   R(79,80)                1.0858         calculate D2E/DX2 analytically  !
 ! R91   R(79,81)                1.0905         calculate D2E/DX2 analytically  !
 ! R92   R(79,82)                1.0925         calculate D2E/DX2 analytically  !
 ! R93   R(83,84)                2.2664         calculate D2E/DX2 analytically  !
 ! R94   R(84,85)                1.4159         calculate D2E/DX2 analytically  !
 ! R95   R(84,89)                1.4234         calculate D2E/DX2 analytically  !
 ! R96   R(85,86)                1.0925         calculate D2E/DX2 analytically  !
 ! R97   R(85,87)                1.0869         calculate D2E/DX2 analytically  !
 ! R98   R(85,88)                1.0918         calculate D2E/DX2 analytically  !
 ! R99   R(89,90)                1.0925         calculate D2E/DX2 analytically  !
 ! R100  R(89,91)                1.09           calculate D2E/DX2 analytically  !
 ! R101  R(89,92)                1.0931         calculate D2E/DX2 analytically  !
 ! R102  R(93,94)                1.3431         calculate D2E/DX2 analytically  !
 ! R103  R(93,95)                1.3398         calculate D2E/DX2 analytically  !
 ! R104  R(93,96)                1.3385         calculate D2E/DX2 analytically  !
 ! R105  R(97,98)                1.338          calculate D2E/DX2 analytically  !
 ! R106  R(97,99)                1.3436         calculate D2E/DX2 analytically  !
 ! R107  R(97,100)               1.342          calculate D2E/DX2 analytically  !
 ! A1    A(2,1,5)              110.5576         calculate D2E/DX2 analytically  !
 ! A2    A(2,1,8)              107.7462         calculate D2E/DX2 analytically  !
 ! A3    A(2,1,14)             109.8536         calculate D2E/DX2 analytically  !
 ! A4    A(5,1,8)              108.7987         calculate D2E/DX2 analytically  !
 ! A5    A(5,1,14)             109.6168         calculate D2E/DX2 analytically  !
 ! A6    A(8,1,14)             110.2418         calculate D2E/DX2 analytically  !
 ! A7    A(1,2,3)              109.3881         calculate D2E/DX2 analytically  !
 ! A8    A(1,2,7)              109.7542         calculate D2E/DX2 analytically  !
 ! A9    A(1,2,13)             111.7362         calculate D2E/DX2 analytically  !
 ! A10   A(3,2,7)              106.694          calculate D2E/DX2 analytically  !
 ! A11   A(3,2,13)             108.1367         calculate D2E/DX2 analytically  !
 ! A12   A(7,2,13)             110.9787         calculate D2E/DX2 analytically  !
 ! A13   A(2,3,6)              109.9818         calculate D2E/DX2 analytically  !
 ! A14   A(2,3,11)             110.2566         calculate D2E/DX2 analytically  !
 ! A15   A(2,3,12)             108.6881         calculate D2E/DX2 analytically  !
 ! A16   A(6,3,11)             105.8997         calculate D2E/DX2 analytically  !
 ! A17   A(6,3,12)             110.9261         calculate D2E/DX2 analytically  !
 ! A18   A(11,3,12)            111.075          calculate D2E/DX2 analytically  !
 ! A19   A(5,4,9)              107.7385         calculate D2E/DX2 analytically  !
 ! A20   A(5,4,11)             109.2934         calculate D2E/DX2 analytically  !
 ! A21   A(5,4,16)             113.315          calculate D2E/DX2 analytically  !
 ! A22   A(9,4,11)             109.5078         calculate D2E/DX2 analytically  !
 ! A23   A(9,4,16)             109.5799         calculate D2E/DX2 analytically  !
 ! A24   A(11,4,16)            107.3705         calculate D2E/DX2 analytically  !
 ! A25   A(1,5,4)              110.84           calculate D2E/DX2 analytically  !
 ! A26   A(1,5,10)             108.6336         calculate D2E/DX2 analytically  !
 ! A27   A(1,5,15)             109.1745         calculate D2E/DX2 analytically  !
 ! A28   A(4,5,10)             109.6308         calculate D2E/DX2 analytically  !
 ! A29   A(4,5,15)             108.5789         calculate D2E/DX2 analytically  !
 ! A30   A(10,5,15)            109.9752         calculate D2E/DX2 analytically  !
 ! A31   A(5,10,37)            129.3868         calculate D2E/DX2 analytically  !
 ! A32   A(3,11,4)             114.8585         calculate D2E/DX2 analytically  !
 ! A33   A(3,12,79)            113.3933         calculate D2E/DX2 analytically  !
 ! A34   A(2,13,20)            114.3453         calculate D2E/DX2 analytically  !
 ! A35   A(1,14,24)            113.1863         calculate D2E/DX2 analytically  !
 ! A36   A(5,15,28)            113.8383         calculate D2E/DX2 analytically  !
 ! A37   A(4,16,17)            105.6078         calculate D2E/DX2 analytically  !
 ! A38   A(4,16,18)            105.6721         calculate D2E/DX2 analytically  !
 ! A39   A(4,16,19)            113.8297         calculate D2E/DX2 analytically  !
 ! A40   A(17,16,18)           106.8118         calculate D2E/DX2 analytically  !
 ! A41   A(17,16,19)           113.3566         calculate D2E/DX2 analytically  !
 ! A42   A(18,16,19)           110.9861         calculate D2E/DX2 analytically  !
 ! A43   A(16,19,34)           134.8229         calculate D2E/DX2 analytically  !
 ! A44   A(16,19,37)           116.7035         calculate D2E/DX2 analytically  !
 ! A45   A(16,19,38)           157.7802         calculate D2E/DX2 analytically  !
 ! A46   A(16,19,91)            95.7156         calculate D2E/DX2 analytically  !
 ! A47   A(34,19,38)            57.5624         calculate D2E/DX2 analytically  !
 ! A48   A(34,19,91)           128.6679         calculate D2E/DX2 analytically  !
 ! A49   A(37,19,38)            81.546          calculate D2E/DX2 analytically  !
 ! A50   A(37,19,91)           131.6105         calculate D2E/DX2 analytically  !
 ! A51   A(38,19,91)            78.8294         calculate D2E/DX2 analytically  !
 ! A52   A(13,20,21)           110.2866         calculate D2E/DX2 analytically  !
 ! A53   A(13,20,22)           110.8825         calculate D2E/DX2 analytically  !
 ! A54   A(13,20,23)           106.6922         calculate D2E/DX2 analytically  !
 ! A55   A(21,20,22)           109.6416         calculate D2E/DX2 analytically  !
 ! A56   A(21,20,23)           109.0825         calculate D2E/DX2 analytically  !
 ! A57   A(22,20,23)           110.2021         calculate D2E/DX2 analytically  !
 ! A58   A(14,24,25)           110.315          calculate D2E/DX2 analytically  !
 ! A59   A(14,24,26)           110.0223         calculate D2E/DX2 analytically  !
 ! A60   A(14,24,27)           107.0488         calculate D2E/DX2 analytically  !
 ! A61   A(25,24,26)           109.7161         calculate D2E/DX2 analytically  !
 ! A62   A(25,24,27)           110.0022         calculate D2E/DX2 analytically  !
 ! A63   A(26,24,27)           109.699          calculate D2E/DX2 analytically  !
 ! A64   A(15,28,29)           110.2157         calculate D2E/DX2 analytically  !
 ! A65   A(15,28,30)           110.8334         calculate D2E/DX2 analytically  !
 ! A66   A(15,28,31)           106.6647         calculate D2E/DX2 analytically  !
 ! A67   A(29,28,30)           109.5425         calculate D2E/DX2 analytically  !
 ! A68   A(29,28,31)           109.7167         calculate D2E/DX2 analytically  !
 ! A69   A(30,28,31)           109.8264         calculate D2E/DX2 analytically  !
 ! A70   A(33,32,36)           106.9863         calculate D2E/DX2 analytically  !
 ! A71   A(33,32,39)           110.3478         calculate D2E/DX2 analytically  !
 ! A72   A(33,32,45)           108.0638         calculate D2E/DX2 analytically  !
 ! A73   A(36,32,39)           110.8405         calculate D2E/DX2 analytically  !
 ! A74   A(36,32,45)           108.9936         calculate D2E/DX2 analytically  !
 ! A75   A(39,32,45)           111.4626         calculate D2E/DX2 analytically  !
 ! A76   A(32,33,34)           111.3946         calculate D2E/DX2 analytically  !
 ! A77   A(32,33,38)           108.4601         calculate D2E/DX2 analytically  !
 ! A78   A(32,33,44)           115.9844         calculate D2E/DX2 analytically  !
 ! A79   A(34,33,38)           104.3486         calculate D2E/DX2 analytically  !
 ! A80   A(34,33,44)           106.1809         calculate D2E/DX2 analytically  !
 ! A81   A(38,33,44)           109.8445         calculate D2E/DX2 analytically  !
 ! A82   A(19,34,33)            84.0642         calculate D2E/DX2 analytically  !
 ! A83   A(19,34,42)           108.7892         calculate D2E/DX2 analytically  !
 ! A84   A(19,34,53)           150.0199         calculate D2E/DX2 analytically  !
 ! A85   A(33,34,37)           122.6405         calculate D2E/DX2 analytically  !
 ! A86   A(33,34,42)           121.9406         calculate D2E/DX2 analytically  !
 ! A87   A(33,34,53)            93.1232         calculate D2E/DX2 analytically  !
 ! A88   A(37,34,42)           114.7534         calculate D2E/DX2 analytically  !
 ! A89   A(37,34,53)            86.9402         calculate D2E/DX2 analytically  !
 ! A90   A(42,34,53)            98.0359         calculate D2E/DX2 analytically  !
 ! A91   A(36,35,40)           109.3557         calculate D2E/DX2 analytically  !
 ! A92   A(36,35,42)           110.9589         calculate D2E/DX2 analytically  !
 ! A93   A(36,35,47)           113.1793         calculate D2E/DX2 analytically  !
 ! A94   A(40,35,42)           106.5371         calculate D2E/DX2 analytically  !
 ! A95   A(40,35,47)           109.6074         calculate D2E/DX2 analytically  !
 ! A96   A(42,35,47)           106.9698         calculate D2E/DX2 analytically  !
 ! A97   A(32,36,35)           110.7359         calculate D2E/DX2 analytically  !
 ! A98   A(32,36,41)           108.3646         calculate D2E/DX2 analytically  !
 ! A99   A(32,36,46)           110.1976         calculate D2E/DX2 analytically  !
 ! A100  A(35,36,41)           108.8816         calculate D2E/DX2 analytically  !
 ! A101  A(35,36,46)           107.5858         calculate D2E/DX2 analytically  !
 ! A102  A(41,36,46)           111.077          calculate D2E/DX2 analytically  !
 ! A103  A(10,37,19)            82.7579         calculate D2E/DX2 analytically  !
 ! A104  A(10,37,34)           104.7739         calculate D2E/DX2 analytically  !
 ! A105  A(10,37,52)           116.093          calculate D2E/DX2 analytically  !
 ! A106  A(10,37,83)           118.7567         calculate D2E/DX2 analytically  !
 ! A107  A(19,37,52)           130.0192         calculate D2E/DX2 analytically  !
 ! A108  A(19,37,83)            64.199          calculate D2E/DX2 analytically  !
 ! A109  A(34,37,52)           129.4019         calculate D2E/DX2 analytically  !
 ! A110  A(34,37,83)           118.2264         calculate D2E/DX2 analytically  !
 ! A111  A(52,37,83)            66.3172         calculate D2E/DX2 analytically  !
 ! A112  A(19,38,33)           103.2773         calculate D2E/DX2 analytically  !
 ! A113  A(34,42,35)           119.7992         calculate D2E/DX2 analytically  !
 ! A114  A(33,44,63)           115.4044         calculate D2E/DX2 analytically  !
 ! A115  A(32,45,67)           114.2304         calculate D2E/DX2 analytically  !
 ! A116  A(36,46,71)           113.9005         calculate D2E/DX2 analytically  !
 ! A117  A(35,47,48)           108.1609         calculate D2E/DX2 analytically  !
 ! A118  A(35,47,49)           108.7771         calculate D2E/DX2 analytically  !
 ! A119  A(35,47,50)           108.2843         calculate D2E/DX2 analytically  !
 ! A120  A(48,47,49)           109.2376         calculate D2E/DX2 analytically  !
 ! A121  A(48,47,50)           111.2313         calculate D2E/DX2 analytically  !
 ! A122  A(49,47,50)           111.0683         calculate D2E/DX2 analytically  !
 ! A123  A(47,50,75)           112.828          calculate D2E/DX2 analytically  !
 ! A124  A(43,51,52)           114.7751         calculate D2E/DX2 analytically  !
 ! A125  A(43,51,53)           113.9092         calculate D2E/DX2 analytically  !
 ! A126  A(43,51,54)           107.4266         calculate D2E/DX2 analytically  !
 ! A127  A(52,51,53)           111.2487         calculate D2E/DX2 analytically  !
 ! A128  A(52,51,54)           105.821          calculate D2E/DX2 analytically  !
 ! A129  A(53,51,54)           102.4742         calculate D2E/DX2 analytically  !
 ! A130  A(37,52,51)            91.1721         calculate D2E/DX2 analytically  !
 ! A131  A(34,53,51)           114.5953         calculate D2E/DX2 analytically  !
 ! A132  A(51,54,55)           119.542          calculate D2E/DX2 analytically  !
 ! A133  A(51,54,56)           118.3194         calculate D2E/DX2 analytically  !
 ! A134  A(55,54,56)           122.105          calculate D2E/DX2 analytically  !
 ! A135  A(54,55,57)           118.1556         calculate D2E/DX2 analytically  !
 ! A136  A(54,55,58)           120.3929         calculate D2E/DX2 analytically  !
 ! A137  A(57,55,58)           121.4505         calculate D2E/DX2 analytically  !
 ! A138  A(54,56,59)           118.2782         calculate D2E/DX2 analytically  !
 ! A139  A(54,56,60)           120.7896         calculate D2E/DX2 analytically  !
 ! A140  A(59,56,60)           120.9297         calculate D2E/DX2 analytically  !
 ! A141  A(55,57,61)           121.2595         calculate D2E/DX2 analytically  !
 ! A142  A(55,57,93)           119.5476         calculate D2E/DX2 analytically  !
 ! A143  A(61,57,93)           119.058          calculate D2E/DX2 analytically  !
 ! A144  A(56,59,61)           121.2234         calculate D2E/DX2 analytically  !
 ! A145  A(56,59,97)           120.6387         calculate D2E/DX2 analytically  !
 ! A146  A(61,59,97)           118.1285         calculate D2E/DX2 analytically  !
 ! A147  A(57,61,59)           118.9728         calculate D2E/DX2 analytically  !
 ! A148  A(57,61,62)           120.5002         calculate D2E/DX2 analytically  !
 ! A149  A(59,61,62)           120.5264         calculate D2E/DX2 analytically  !
 ! A150  A(44,63,64)           110.2426         calculate D2E/DX2 analytically  !
 ! A151  A(44,63,65)           110.3643         calculate D2E/DX2 analytically  !
 ! A152  A(44,63,66)           106.0604         calculate D2E/DX2 analytically  !
 ! A153  A(64,63,65)           109.7529         calculate D2E/DX2 analytically  !
 ! A154  A(64,63,66)           110.0599         calculate D2E/DX2 analytically  !
 ! A155  A(65,63,66)           110.3059         calculate D2E/DX2 analytically  !
 ! A156  A(45,67,68)           110.5743         calculate D2E/DX2 analytically  !
 ! A157  A(45,67,69)           110.292          calculate D2E/DX2 analytically  !
 ! A158  A(45,67,70)           106.535          calculate D2E/DX2 analytically  !
 ! A159  A(68,67,69)           109.6831         calculate D2E/DX2 analytically  !
 ! A160  A(68,67,70)           110.1545         calculate D2E/DX2 analytically  !
 ! A161  A(69,67,70)           109.5545         calculate D2E/DX2 analytically  !
 ! A162  A(46,71,72)           110.1553         calculate D2E/DX2 analytically  !
 ! A163  A(46,71,73)           110.309          calculate D2E/DX2 analytically  !
 ! A164  A(46,71,74)           106.6751         calculate D2E/DX2 analytically  !
 ! A165  A(72,71,73)           109.6773         calculate D2E/DX2 analytically  !
 ! A166  A(72,71,74)           109.9378         calculate D2E/DX2 analytically  !
 ! A167  A(73,71,74)           110.0457         calculate D2E/DX2 analytically  !
 ! A168  A(50,75,76)           107.0118         calculate D2E/DX2 analytically  !
 ! A169  A(50,75,77)           110.5798         calculate D2E/DX2 analytically  !
 ! A170  A(50,75,78)           110.4919         calculate D2E/DX2 analytically  !
 ! A171  A(76,75,77)           109.6565         calculate D2E/DX2 analytically  !
 ! A172  A(76,75,78)           109.7989         calculate D2E/DX2 analytically  !
 ! A173  A(77,75,78)           109.2745         calculate D2E/DX2 analytically  !
 ! A174  A(12,79,80)           106.7298         calculate D2E/DX2 analytically  !
 ! A175  A(12,79,81)           110.7814         calculate D2E/DX2 analytically  !
 ! A176  A(12,79,82)           110.1385         calculate D2E/DX2 analytically  !
 ! A177  A(80,79,81)           109.9254         calculate D2E/DX2 analytically  !
 ! A178  A(80,79,82)           109.7124         calculate D2E/DX2 analytically  !
 ! A179  A(81,79,82)           109.5149         calculate D2E/DX2 analytically  !
 ! A180  A(37,83,84)           145.1431         calculate D2E/DX2 analytically  !
 ! A181  A(83,84,85)           134.182          calculate D2E/DX2 analytically  !
 ! A182  A(83,84,89)           112.5159         calculate D2E/DX2 analytically  !
 ! A183  A(85,84,89)           113.2927         calculate D2E/DX2 analytically  !
 ! A184  A(84,85,86)           110.1513         calculate D2E/DX2 analytically  !
 ! A185  A(84,85,87)           107.452          calculate D2E/DX2 analytically  !
 ! A186  A(84,85,88)           110.371          calculate D2E/DX2 analytically  !
 ! A187  A(86,85,87)           109.6842         calculate D2E/DX2 analytically  !
 ! A188  A(86,85,88)           109.4247         calculate D2E/DX2 analytically  !
 ! A189  A(87,85,88)           109.7327         calculate D2E/DX2 analytically  !
 ! A190  A(84,89,90)           109.9047         calculate D2E/DX2 analytically  !
 ! A191  A(84,89,91)           106.1126         calculate D2E/DX2 analytically  !
 ! A192  A(84,89,92)           109.8371         calculate D2E/DX2 analytically  !
 ! A193  A(90,89,91)           110.9262         calculate D2E/DX2 analytically  !
 ! A194  A(90,89,92)           109.2793         calculate D2E/DX2 analytically  !
 ! A195  A(91,89,92)           110.7401         calculate D2E/DX2 analytically  !
 ! A196  A(19,91,89)           148.7224         calculate D2E/DX2 analytically  !
 ! A197  A(57,93,94)           110.7494         calculate D2E/DX2 analytically  !
 ! A198  A(57,93,95)           111.6699         calculate D2E/DX2 analytically  !
 ! A199  A(57,93,96)           111.7508         calculate D2E/DX2 analytically  !
 ! A200  A(94,93,95)           107.1183         calculate D2E/DX2 analytically  !
 ! A201  A(94,93,96)           107.3422         calculate D2E/DX2 analytically  !
 ! A202  A(95,93,96)           107.9874         calculate D2E/DX2 analytically  !
 ! A203  A(59,97,98)           112.5089         calculate D2E/DX2 analytically  !
 ! A204  A(59,97,99)           110.9672         calculate D2E/DX2 analytically  !
 ! A205  A(59,97,100)          110.9551         calculate D2E/DX2 analytically  !
 ! A206  A(98,97,99)           107.293          calculate D2E/DX2 analytically  !
 ! A207  A(98,97,100)          108.2938         calculate D2E/DX2 analytically  !
 ! A208  A(99,97,100)          106.5639         calculate D2E/DX2 analytically  !
 ! D1    D(5,1,2,3)            -53.3552         calculate D2E/DX2 analytically  !
 ! D2    D(5,1,2,7)             63.3855         calculate D2E/DX2 analytically  !
 ! D3    D(5,1,2,13)          -173.0621         calculate D2E/DX2 analytically  !
 ! D4    D(8,1,2,3)             65.4201         calculate D2E/DX2 analytically  !
 ! D5    D(8,1,2,7)           -177.8392         calculate D2E/DX2 analytically  !
 ! D6    D(8,1,2,13)           -54.2868         calculate D2E/DX2 analytically  !
 ! D7    D(14,1,2,3)          -174.4621         calculate D2E/DX2 analytically  !
 ! D8    D(14,1,2,7)           -57.7214         calculate D2E/DX2 analytically  !
 ! D9    D(14,1,2,13)           65.831          calculate D2E/DX2 analytically  !
 ! D10   D(2,1,5,4)             53.1575         calculate D2E/DX2 analytically  !
 ! D11   D(2,1,5,10)           -67.3544         calculate D2E/DX2 analytically  !
 ! D12   D(2,1,5,15)           172.7158         calculate D2E/DX2 analytically  !
 ! D13   D(8,1,5,4)            -64.9766         calculate D2E/DX2 analytically  !
 ! D14   D(8,1,5,10)           174.5116         calculate D2E/DX2 analytically  !
 ! D15   D(8,1,5,15)            54.5817         calculate D2E/DX2 analytically  !
 ! D16   D(14,1,5,4)           174.4047         calculate D2E/DX2 analytically  !
 ! D17   D(14,1,5,10)           53.8929         calculate D2E/DX2 analytically  !
 ! D18   D(14,1,5,15)          -66.037          calculate D2E/DX2 analytically  !
 ! D19   D(2,1,14,24)         -134.4451         calculate D2E/DX2 analytically  !
 ! D20   D(5,1,14,24)          103.8841         calculate D2E/DX2 analytically  !
 ! D21   D(8,1,14,24)          -15.8548         calculate D2E/DX2 analytically  !
 ! D22   D(1,2,3,6)            172.6919         calculate D2E/DX2 analytically  !
 ! D23   D(1,2,3,11)            56.2743         calculate D2E/DX2 analytically  !
 ! D24   D(1,2,3,12)           -65.6947         calculate D2E/DX2 analytically  !
 ! D25   D(7,2,3,6)             54.0319         calculate D2E/DX2 analytically  !
 ! D26   D(7,2,3,11)           -62.3858         calculate D2E/DX2 analytically  !
 ! D27   D(7,2,3,12)           175.6452         calculate D2E/DX2 analytically  !
 ! D28   D(13,2,3,6)           -65.4108         calculate D2E/DX2 analytically  !
 ! D29   D(13,2,3,11)          178.1716         calculate D2E/DX2 analytically  !
 ! D30   D(13,2,3,12)           56.2026         calculate D2E/DX2 analytically  !
 ! D31   D(1,2,13,20)          -92.9036         calculate D2E/DX2 analytically  !
 ! D32   D(3,2,13,20)          146.6554         calculate D2E/DX2 analytically  !
 ! D33   D(7,2,13,20)           29.9542         calculate D2E/DX2 analytically  !
 ! D34   D(2,3,11,4)           -61.5049         calculate D2E/DX2 analytically  !
 ! D35   D(6,3,11,4)           179.557          calculate D2E/DX2 analytically  !
 ! D36   D(12,3,11,4)           59.0419         calculate D2E/DX2 analytically  !
 ! D37   D(2,3,12,79)         -174.3277         calculate D2E/DX2 analytically  !
 ! D38   D(6,3,12,79)          -53.293          calculate D2E/DX2 analytically  !
 ! D39   D(11,3,12,79)          64.2027         calculate D2E/DX2 analytically  !
 ! D40   D(9,4,5,1)             64.7826         calculate D2E/DX2 analytically  !
 ! D41   D(9,4,5,10)          -175.2997         calculate D2E/DX2 analytically  !
 ! D42   D(9,4,5,15)           -55.1323         calculate D2E/DX2 analytically  !
 ! D43   D(11,4,5,1)           -54.128          calculate D2E/DX2 analytically  !
 ! D44   D(11,4,5,10)           65.7897         calculate D2E/DX2 analytically  !
 ! D45   D(11,4,5,15)         -174.0429         calculate D2E/DX2 analytically  !
 ! D46   D(16,4,5,1)          -173.8183         calculate D2E/DX2 analytically  !
 ! D47   D(16,4,5,10)          -53.9005         calculate D2E/DX2 analytically  !
 ! D48   D(16,4,5,15)           66.2669         calculate D2E/DX2 analytically  !
 ! D49   D(5,4,11,3)            59.8942         calculate D2E/DX2 analytically  !
 ! D50   D(9,4,11,3)           -57.9117         calculate D2E/DX2 analytically  !
 ! D51   D(16,4,11,3)         -176.8155         calculate D2E/DX2 analytically  !
 ! D52   D(5,4,16,17)          -52.7522         calculate D2E/DX2 analytically  !
 ! D53   D(5,4,16,18)         -165.7237         calculate D2E/DX2 analytically  !
 ! D54   D(5,4,16,19)           72.2336         calculate D2E/DX2 analytically  !
 ! D55   D(9,4,16,17)           67.607          calculate D2E/DX2 analytically  !
 ! D56   D(9,4,16,18)          -45.3645         calculate D2E/DX2 analytically  !
 ! D57   D(9,4,16,19)         -167.4072         calculate D2E/DX2 analytically  !
 ! D58   D(11,4,16,17)        -173.5356         calculate D2E/DX2 analytically  !
 ! D59   D(11,4,16,18)          73.4929         calculate D2E/DX2 analytically  !
 ! D60   D(11,4,16,19)         -48.5498         calculate D2E/DX2 analytically  !
 ! D61   D(1,5,10,37)          102.7076         calculate D2E/DX2 analytically  !
 ! D62   D(4,5,10,37)          -18.5495         calculate D2E/DX2 analytically  !
 ! D63   D(15,5,10,37)        -137.8621         calculate D2E/DX2 analytically  !
 ! D64   D(1,5,15,28)          108.9262         calculate D2E/DX2 analytically  !
 ! D65   D(4,5,15,28)         -130.1267         calculate D2E/DX2 analytically  !
 ! D66   D(10,5,15,28)         -10.1735         calculate D2E/DX2 analytically  !
 ! D67   D(5,10,37,19)          56.7486         calculate D2E/DX2 analytically  !
 ! D68   D(5,10,37,34)         136.154          calculate D2E/DX2 analytically  !
 ! D69   D(5,10,37,52)         -74.5165         calculate D2E/DX2 analytically  !
 ! D70   D(5,10,37,83)           1.5131         calculate D2E/DX2 analytically  !
 ! D71   D(3,12,79,80)         175.9878         calculate D2E/DX2 analytically  !
 ! D72   D(3,12,79,81)         -64.3628         calculate D2E/DX2 analytically  !
 ! D73   D(3,12,79,82)          56.9511         calculate D2E/DX2 analytically  !
 ! D74   D(2,13,20,21)         -60.2856         calculate D2E/DX2 analytically  !
 ! D75   D(2,13,20,22)          61.3546         calculate D2E/DX2 analytically  !
 ! D76   D(2,13,20,23)        -178.6272         calculate D2E/DX2 analytically  !
 ! D77   D(1,14,24,25)         -51.9606         calculate D2E/DX2 analytically  !
 ! D78   D(1,14,24,26)          69.2232         calculate D2E/DX2 analytically  !
 ! D79   D(1,14,24,27)        -171.6329         calculate D2E/DX2 analytically  !
 ! D80   D(5,15,28,29)         -57.546          calculate D2E/DX2 analytically  !
 ! D81   D(5,15,28,30)          63.8888         calculate D2E/DX2 analytically  !
 ! D82   D(5,15,28,31)        -176.5918         calculate D2E/DX2 analytically  !
 ! D83   D(4,16,19,34)         -40.5449         calculate D2E/DX2 analytically  !
 ! D84   D(4,16,19,37)         -13.4428         calculate D2E/DX2 analytically  !
 ! D85   D(4,16,19,38)        -156.2145         calculate D2E/DX2 analytically  !
 ! D86   D(4,16,19,91)         129.4404         calculate D2E/DX2 analytically  !
 ! D87   D(17,16,19,34)         80.1928         calculate D2E/DX2 analytically  !
 ! D88   D(17,16,19,37)        107.295          calculate D2E/DX2 analytically  !
 ! D89   D(17,16,19,38)        -35.4768         calculate D2E/DX2 analytically  !
 ! D90   D(17,16,19,91)       -109.8219         calculate D2E/DX2 analytically  !
 ! D91   D(18,16,19,34)       -159.6036         calculate D2E/DX2 analytically  !
 ! D92   D(18,16,19,37)       -132.5014         calculate D2E/DX2 analytically  !
 ! D93   D(18,16,19,38)         84.7268         calculate D2E/DX2 analytically  !
 ! D94   D(18,16,19,91)         10.3818         calculate D2E/DX2 analytically  !
 ! D95   D(16,19,34,33)       -172.7893         calculate D2E/DX2 analytically  !
 ! D96   D(16,19,34,42)        -51.0228         calculate D2E/DX2 analytically  !
 ! D97   D(16,19,34,53)        101.2595         calculate D2E/DX2 analytically  !
 ! D98   D(38,19,34,33)        -16.6083         calculate D2E/DX2 analytically  !
 ! D99   D(38,19,34,42)        105.1582         calculate D2E/DX2 analytically  !
 ! D100  D(38,19,34,53)       -102.5595         calculate D2E/DX2 analytically  !
 ! D101  D(91,19,34,33)         20.0148         calculate D2E/DX2 analytically  !
 ! D102  D(91,19,34,42)        141.7814         calculate D2E/DX2 analytically  !
 ! D103  D(91,19,34,53)        -65.9364         calculate D2E/DX2 analytically  !
 ! D104  D(16,19,37,10)        -30.7985         calculate D2E/DX2 analytically  !
 ! D105  D(16,19,37,52)         87.381          calculate D2E/DX2 analytically  !
 ! D106  D(16,19,37,83)         96.078          calculate D2E/DX2 analytically  !
 ! D107  D(38,19,37,10)        135.8281         calculate D2E/DX2 analytically  !
 ! D108  D(38,19,37,52)       -105.9925         calculate D2E/DX2 analytically  !
 ! D109  D(38,19,37,83)        -97.2954         calculate D2E/DX2 analytically  !
 ! D110  D(91,19,37,10)       -157.3734         calculate D2E/DX2 analytically  !
 ! D111  D(91,19,37,52)        -39.194          calculate D2E/DX2 analytically  !
 ! D112  D(91,19,37,83)        -30.497          calculate D2E/DX2 analytically  !
 ! D113  D(16,19,38,33)        154.734          calculate D2E/DX2 analytically  !
 ! D114  D(34,19,38,33)         23.9757         calculate D2E/DX2 analytically  !
 ! D115  D(37,19,38,33)          7.8546         calculate D2E/DX2 analytically  !
 ! D116  D(91,19,38,33)       -127.68           calculate D2E/DX2 analytically  !
 ! D117  D(16,19,91,89)        -93.2218         calculate D2E/DX2 analytically  !
 ! D118  D(34,19,91,89)         77.6887         calculate D2E/DX2 analytically  !
 ! D119  D(37,19,91,89)         40.6403         calculate D2E/DX2 analytically  !
 ! D120  D(38,19,91,89)        108.5656         calculate D2E/DX2 analytically  !
 ! D121  D(36,32,33,34)        -48.3703         calculate D2E/DX2 analytically  !
 ! D122  D(36,32,33,38)         65.9217         calculate D2E/DX2 analytically  !
 ! D123  D(36,32,33,44)       -169.965          calculate D2E/DX2 analytically  !
 ! D124  D(39,32,33,34)         72.2962         calculate D2E/DX2 analytically  !
 ! D125  D(39,32,33,38)       -173.4118         calculate D2E/DX2 analytically  !
 ! D126  D(39,32,33,44)        -49.2985         calculate D2E/DX2 analytically  !
 ! D127  D(45,32,33,34)       -165.6014         calculate D2E/DX2 analytically  !
 ! D128  D(45,32,33,38)        -51.3094         calculate D2E/DX2 analytically  !
 ! D129  D(45,32,33,44)         72.8039         calculate D2E/DX2 analytically  !
 ! D130  D(33,32,36,35)         59.9853         calculate D2E/DX2 analytically  !
 ! D131  D(33,32,36,41)        -59.3733         calculate D2E/DX2 analytically  !
 ! D132  D(33,32,36,46)        178.8997         calculate D2E/DX2 analytically  !
 ! D133  D(39,32,36,35)        -60.367          calculate D2E/DX2 analytically  !
 ! D134  D(39,32,36,41)       -179.7256         calculate D2E/DX2 analytically  !
 ! D135  D(39,32,36,46)         58.5474         calculate D2E/DX2 analytically  !
 ! D136  D(45,32,36,35)        176.6029         calculate D2E/DX2 analytically  !
 ! D137  D(45,32,36,41)         57.2442         calculate D2E/DX2 analytically  !
 ! D138  D(45,32,36,46)        -64.4828         calculate D2E/DX2 analytically  !
 ! D139  D(33,32,45,67)       -145.0859         calculate D2E/DX2 analytically  !
 ! D140  D(36,32,45,67)         98.9858         calculate D2E/DX2 analytically  !
 ! D141  D(39,32,45,67)        -23.6714         calculate D2E/DX2 analytically  !
 ! D142  D(32,33,34,19)        145.1658         calculate D2E/DX2 analytically  !
 ! D143  D(32,33,34,37)       -153.1458         calculate D2E/DX2 analytically  !
 ! D144  D(32,33,34,42)         36.6975         calculate D2E/DX2 analytically  !
 ! D145  D(32,33,34,53)        -64.7808         calculate D2E/DX2 analytically  !
 ! D146  D(38,33,34,19)         28.3421         calculate D2E/DX2 analytically  !
 ! D147  D(38,33,34,37)         90.0305         calculate D2E/DX2 analytically  !
 ! D148  D(38,33,34,42)        -80.1262         calculate D2E/DX2 analytically  !
 ! D149  D(38,33,34,53)        178.3954         calculate D2E/DX2 analytically  !
 ! D150  D(44,33,34,19)        -87.7028         calculate D2E/DX2 analytically  !
 ! D151  D(44,33,34,37)        -26.0144         calculate D2E/DX2 analytically  !
 ! D152  D(44,33,34,42)        163.8288         calculate D2E/DX2 analytically  !
 ! D153  D(44,33,34,53)         62.3505         calculate D2E/DX2 analytically  !
 ! D154  D(32,33,38,19)       -150.1158         calculate D2E/DX2 analytically  !
 ! D155  D(34,33,38,19)        -31.2767         calculate D2E/DX2 analytically  !
 ! D156  D(44,33,38,19)         82.1841         calculate D2E/DX2 analytically  !
 ! D157  D(32,33,44,63)        -68.1969         calculate D2E/DX2 analytically  !
 ! D158  D(34,33,44,63)        167.472          calculate D2E/DX2 analytically  !
 ! D159  D(38,33,44,63)         55.1969         calculate D2E/DX2 analytically  !
 ! D160  D(33,34,37,10)       -148.8954         calculate D2E/DX2 analytically  !
 ! D161  D(33,34,37,52)         67.465          calculate D2E/DX2 analytically  !
 ! D162  D(33,34,37,83)        -13.9645         calculate D2E/DX2 analytically  !
 ! D163  D(42,34,37,10)         21.9123         calculate D2E/DX2 analytically  !
 ! D164  D(42,34,37,52)       -121.7273         calculate D2E/DX2 analytically  !
 ! D165  D(42,34,37,83)        156.8432         calculate D2E/DX2 analytically  !
 ! D166  D(53,34,37,10)        119.3536         calculate D2E/DX2 analytically  !
 ! D167  D(53,34,37,52)        -24.286          calculate D2E/DX2 analytically  !
 ! D168  D(53,34,37,83)       -105.7155         calculate D2E/DX2 analytically  !
 ! D169  D(19,34,42,35)       -127.2641         calculate D2E/DX2 analytically  !
 ! D170  D(33,34,42,35)        -32.4813         calculate D2E/DX2 analytically  !
 ! D171  D(37,34,42,35)        156.6397         calculate D2E/DX2 analytically  !
 ! D172  D(53,34,42,35)         66.3112         calculate D2E/DX2 analytically  !
 ! D173  D(19,34,53,51)        -27.3388         calculate D2E/DX2 analytically  !
 ! D174  D(33,34,53,51)       -110.8694         calculate D2E/DX2 analytically  !
 ! D175  D(37,34,53,51)         11.6798         calculate D2E/DX2 analytically  !
 ! D176  D(42,34,53,51)        126.2572         calculate D2E/DX2 analytically  !
 ! D177  D(40,35,36,32)         62.0343         calculate D2E/DX2 analytically  !
 ! D178  D(40,35,36,41)       -178.9187         calculate D2E/DX2 analytically  !
 ! D179  D(40,35,36,46)        -58.4473         calculate D2E/DX2 analytically  !
 ! D180  D(42,35,36,32)        -55.1993         calculate D2E/DX2 analytically  !
 ! D181  D(42,35,36,41)         63.8476         calculate D2E/DX2 analytically  !
 ! D182  D(42,35,36,46)       -175.6809         calculate D2E/DX2 analytically  !
 ! D183  D(47,35,36,32)       -175.4643         calculate D2E/DX2 analytically  !
 ! D184  D(47,35,36,41)        -56.4173         calculate D2E/DX2 analytically  !
 ! D185  D(47,35,36,46)         64.0541         calculate D2E/DX2 analytically  !
 ! D186  D(36,35,42,34)         40.5367         calculate D2E/DX2 analytically  !
 ! D187  D(40,35,42,34)        -78.4077         calculate D2E/DX2 analytically  !
 ! D188  D(47,35,42,34)        164.4247         calculate D2E/DX2 analytically  !
 ! D189  D(36,35,47,48)        -66.5913         calculate D2E/DX2 analytically  !
 ! D190  D(36,35,47,49)        174.8684         calculate D2E/DX2 analytically  !
 ! D191  D(36,35,47,50)         54.0572         calculate D2E/DX2 analytically  !
 ! D192  D(40,35,47,48)         55.7699         calculate D2E/DX2 analytically  !
 ! D193  D(40,35,47,49)        -62.7703         calculate D2E/DX2 analytically  !
 ! D194  D(40,35,47,50)        176.4185         calculate D2E/DX2 analytically  !
 ! D195  D(42,35,47,48)        170.8964         calculate D2E/DX2 analytically  !
 ! D196  D(42,35,47,49)         52.3561         calculate D2E/DX2 analytically  !
 ! D197  D(42,35,47,50)        -68.4551         calculate D2E/DX2 analytically  !
 ! D198  D(32,36,46,71)        120.5043         calculate D2E/DX2 analytically  !
 ! D199  D(35,36,46,71)       -118.6751         calculate D2E/DX2 analytically  !
 ! D200  D(41,36,46,71)          0.4011         calculate D2E/DX2 analytically  !
 ! D201  D(10,37,52,51)       -107.3804         calculate D2E/DX2 analytically  !
 ! D202  D(19,37,52,51)        149.4442         calculate D2E/DX2 analytically  !
 ! D203  D(34,37,52,51)         32.9531         calculate D2E/DX2 analytically  !
 ! D204  D(83,37,52,51)        140.8952         calculate D2E/DX2 analytically  !
 ! D205  D(10,37,83,84)        101.6733         calculate D2E/DX2 analytically  !
 ! D206  D(19,37,83,84)         36.825          calculate D2E/DX2 analytically  !
 ! D207  D(34,37,83,84)        -26.9877         calculate D2E/DX2 analytically  !
 ! D208  D(52,37,83,84)       -150.4395         calculate D2E/DX2 analytically  !
 ! D209  D(33,44,63,64)        -43.3215         calculate D2E/DX2 analytically  !
 ! D210  D(33,44,63,65)         78.0853         calculate D2E/DX2 analytically  !
 ! D211  D(33,44,63,66)       -162.4385         calculate D2E/DX2 analytically  !
 ! D212  D(32,45,67,68)        -57.1904         calculate D2E/DX2 analytically  !
 ! D213  D(32,45,67,69)         64.3003         calculate D2E/DX2 analytically  !
 ! D214  D(32,45,67,70)       -176.8826         calculate D2E/DX2 analytically  !
 ! D215  D(36,46,71,72)        -62.8484         calculate D2E/DX2 analytically  !
 ! D216  D(36,46,71,73)         58.37           calculate D2E/DX2 analytically  !
 ! D217  D(36,46,71,74)        177.868          calculate D2E/DX2 analytically  !
 ! D218  D(35,47,50,75)        179.8153         calculate D2E/DX2 analytically  !
 ! D219  D(48,47,50,75)        -61.4646         calculate D2E/DX2 analytically  !
 ! D220  D(49,47,50,75)         60.4371         calculate D2E/DX2 analytically  !
 ! D221  D(47,50,75,76)       -177.9493         calculate D2E/DX2 analytically  !
 ! D222  D(47,50,75,77)        -58.5673         calculate D2E/DX2 analytically  !
 ! D223  D(47,50,75,78)         62.5464         calculate D2E/DX2 analytically  !
 ! D224  D(43,51,52,37)       -145.2959         calculate D2E/DX2 analytically  !
 ! D225  D(53,51,52,37)        -14.1177         calculate D2E/DX2 analytically  !
 ! D226  D(54,51,52,37)         96.435          calculate D2E/DX2 analytically  !
 ! D227  D(43,51,53,34)        139.5381         calculate D2E/DX2 analytically  !
 ! D228  D(52,51,53,34)          7.9156         calculate D2E/DX2 analytically  !
 ! D229  D(54,51,53,34)       -104.7663         calculate D2E/DX2 analytically  !
 ! D230  D(43,51,54,55)        -29.0089         calculate D2E/DX2 analytically  !
 ! D231  D(43,51,54,56)        153.0557         calculate D2E/DX2 analytically  !
 ! D232  D(52,51,54,55)         94.0469         calculate D2E/DX2 analytically  !
 ! D233  D(52,51,54,56)        -83.8885         calculate D2E/DX2 analytically  !
 ! D234  D(53,51,54,55)       -149.3068         calculate D2E/DX2 analytically  !
 ! D235  D(53,51,54,56)         32.7578         calculate D2E/DX2 analytically  !
 ! D236  D(51,54,55,57)       -177.3588         calculate D2E/DX2 analytically  !
 ! D237  D(51,54,55,58)          2.992          calculate D2E/DX2 analytically  !
 ! D238  D(56,54,55,57)          0.4956         calculate D2E/DX2 analytically  !
 ! D239  D(56,54,55,58)       -179.1536         calculate D2E/DX2 analytically  !
 ! D240  D(51,54,56,59)        177.949          calculate D2E/DX2 analytically  !
 ! D241  D(51,54,56,60)         -2.6175         calculate D2E/DX2 analytically  !
 ! D242  D(55,54,56,59)          0.0695         calculate D2E/DX2 analytically  !
 ! D243  D(55,54,56,60)        179.503          calculate D2E/DX2 analytically  !
 ! D244  D(54,55,57,61)         -0.8867         calculate D2E/DX2 analytically  !
 ! D245  D(54,55,57,93)        174.8514         calculate D2E/DX2 analytically  !
 ! D246  D(58,55,57,61)        178.7586         calculate D2E/DX2 analytically  !
 ! D247  D(58,55,57,93)         -5.5033         calculate D2E/DX2 analytically  !
 ! D248  D(54,56,59,61)         -0.266          calculate D2E/DX2 analytically  !
 ! D249  D(54,56,59,97)        178.6006         calculate D2E/DX2 analytically  !
 ! D250  D(60,56,59,61)       -179.6987         calculate D2E/DX2 analytically  !
 ! D251  D(60,56,59,97)         -0.8321         calculate D2E/DX2 analytically  !
 ! D252  D(55,57,61,59)          0.7042         calculate D2E/DX2 analytically  !
 ! D253  D(55,57,61,62)       -179.562          calculate D2E/DX2 analytically  !
 ! D254  D(93,57,61,59)       -175.0544         calculate D2E/DX2 analytically  !
 ! D255  D(93,57,61,62)          4.6794         calculate D2E/DX2 analytically  !
 ! D256  D(55,57,93,94)        -91.4697         calculate D2E/DX2 analytically  !
 ! D257  D(55,57,93,95)        149.2402         calculate D2E/DX2 analytically  !
 ! D258  D(55,57,93,96)         28.1564         calculate D2E/DX2 analytically  !
 ! D259  D(61,57,93,94)         84.3627         calculate D2E/DX2 analytically  !
 ! D260  D(61,57,93,95)        -34.9274         calculate D2E/DX2 analytically  !
 ! D261  D(61,57,93,96)       -156.0112         calculate D2E/DX2 analytically  !
 ! D262  D(56,59,61,57)         -0.1128         calculate D2E/DX2 analytically  !
 ! D263  D(56,59,61,62)       -179.8465         calculate D2E/DX2 analytically  !
 ! D264  D(97,59,61,57)       -179.007          calculate D2E/DX2 analytically  !
 ! D265  D(97,59,61,62)          1.2592         calculate D2E/DX2 analytically  !
 ! D266  D(56,59,97,98)          7.2438         calculate D2E/DX2 analytically  !
 ! D267  D(56,59,97,99)       -112.9805         calculate D2E/DX2 analytically  !
 ! D268  D(56,59,97,100)       128.7463         calculate D2E/DX2 analytically  !
 ! D269  D(61,59,97,98)       -173.8553         calculate D2E/DX2 analytically  !
 ! D270  D(61,59,97,99)         65.9205         calculate D2E/DX2 analytically  !
 ! D271  D(61,59,97,100)       -52.3528         calculate D2E/DX2 analytically  !
 ! D272  D(37,83,84,85)        152.1508         calculate D2E/DX2 analytically  !
 ! D273  D(37,83,84,89)        -29.0764         calculate D2E/DX2 analytically  !
 ! D274  D(83,84,85,86)       -120.5861         calculate D2E/DX2 analytically  !
 ! D275  D(83,84,85,87)         -1.1484         calculate D2E/DX2 analytically  !
 ! D276  D(83,84,85,88)        118.4734         calculate D2E/DX2 analytically  !
 ! D277  D(89,84,85,86)         60.6482         calculate D2E/DX2 analytically  !
 ! D278  D(89,84,85,87)       -179.9141         calculate D2E/DX2 analytically  !
 ! D279  D(89,84,85,88)        -60.2924         calculate D2E/DX2 analytically  !
 ! D280  D(83,84,89,90)       -115.2021         calculate D2E/DX2 analytically  !
 ! D281  D(83,84,89,91)          4.797          calculate D2E/DX2 analytically  !
 ! D282  D(83,84,89,92)        124.5377         calculate D2E/DX2 analytically  !
 ! D283  D(85,84,89,90)         63.8398         calculate D2E/DX2 analytically  !
 ! D284  D(85,84,89,91)       -176.1611         calculate D2E/DX2 analytically  !
 ! D285  D(85,84,89,92)        -56.4205         calculate D2E/DX2 analytically  !
 ! D286  D(84,89,91,19)        -14.5684         calculate D2E/DX2 analytically  !
 ! D287  D(90,89,91,19)        104.7632         calculate D2E/DX2 analytically  !
 ! D288  D(92,89,91,19)       -133.7177         calculate D2E/DX2 analytically  !
 --------------------------------------------------------------------------------
 Trust Radius=5.00D-02 FncErr=1.00D-07 GrdErr=1.00D-06 EigMax=2.50D+02 EigMin=1.00D-04
 Number of steps in this run=    600 maximum allowed number of steps=    600.
 Search for a saddle point of order  1.
 GradGradGradGradGradGradGradGradGradGradGradGradGradGradGradGradGradGrad

 Leave Link  103 at Thu Jun  6 05:57:11 2019, MaxMem=  6442450944 cpu:               7.4 elap:               0.3
 (Enter /home/ekwan/sw/g16/l202.exe)
 Stoichiometry    C30H47F6NaO15S
 Framework group  C1[X(C30H47F6NaO15S)]
 Deg. of freedom   294
 Full point group                 C1      NOp   1
 Largest Abelian subgroup         C1      NOp   1
 Largest concise Abelian subgroup C1      NOp   1
                         Standard orientation:                         
 ---------------------------------------------------------------------
 Center     Atomic      Atomic             Coordinates (Angstroms)
 Number     Number       Type             X           Y           Z
 ---------------------------------------------------------------------
      1          6           0       -1.519044    1.455963    2.450403
      2          6           0       -1.862165    2.131910    1.124286
      3          6           0       -0.925752    3.325909    0.904322
      4          6           0        0.829440    2.337054    2.204467
      5          6           0       -0.032036    1.105882    2.505508
      6          1           0       -1.074291    3.737318   -0.096500
      7          1           0       -1.684537    1.436478    0.297651
      8          1           0       -1.744515    2.163402    3.253276
      9          1           0        0.665919    3.062438    3.006654
     10          1           0        0.170767    0.326393    1.766937
     11          8           0        0.421406    2.906252    0.953990
     12          8           0       -1.187526    4.282623    1.878301
     13          8           0       -3.187365    2.605674    1.108290
     14          8           0       -2.290968    0.278066    2.603909
     15          8           0        0.287326    0.638474    3.801200
     16          6           0        2.331003    2.017981    2.095862
     17          1           0        2.586235    1.478236    3.019015
     18          1           0        2.847542    2.993442    2.142839
     19          8           0        2.674610    1.330148    0.945367
     20          6           0       -4.129543    1.691408    0.566142
     21          1           0       -3.875383    1.455443   -0.471097
     22          1           0       -4.162446    0.773988    1.152946
     23          1           0       -5.096698    2.188034    0.591057
     24          6           0       -2.865821    0.150255    3.897785
     25          1           0       -2.100294    0.265747    4.665093
     26          1           0       -3.644430    0.904183    4.037410
     27          1           0       -3.302542   -0.841719    3.955396
     28          6           0        0.560485   -0.755064    3.857979
     29          1           0       -0.293009   -1.322558    3.481161
     30          1           0        1.449815   -1.000851    3.272901
     31          1           0        0.729070   -0.997602    4.905331
     32          6           0        3.488444   -1.674907   -1.473007
     33          6           0        3.057696   -0.280884   -1.013045
     34          6           0        1.760803   -0.334059   -0.222432
     35          6           0        1.970555   -2.639904    0.290947
     36          6           0        3.399690   -2.596496   -0.251978
     37          1           0        1.084460    0.488814   -0.170850
     38          1           0        3.795518    0.090878   -0.298208
     39          1           0        2.836657   -2.028496   -2.274899
     40          1           0        1.306357   -3.048706   -0.471677
     41          1           0        4.061123   -2.204117    0.524319
     42          8           0        1.489498   -1.311217    0.585338
     43          8           0       -0.356574    0.064590   -3.807456
     44          8           0        2.857886    0.668697   -2.029889
     45          8           0        4.832146   -1.600366   -1.895160
     46          8           0        3.759719   -3.910094   -0.607350
     47          6           0        1.840798   -3.450555    1.566667
     48          1           0        2.044174   -4.498173    1.327046
     49          1           0        0.815480   -3.358319    1.940181
     50          8           0        2.765763   -2.953245    2.501247
     51         16           0       -0.290575    0.027385   -2.351936
     52          8           0       -0.117663    1.348853   -1.704196
     53          8           0        0.688740   -0.975672   -1.812373
     54          6           0       -1.851799   -0.602696   -1.762295
     55          6           0       -3.000440   -0.387976   -2.507125
     56          6           0       -1.877427   -1.261588   -0.535972
     57          6           0       -4.212072   -0.843504   -1.992739
     58          1           0       -2.946663    0.115419   -3.463393
     59          6           0       -3.097577   -1.712648   -0.058440
     60          1           0       -0.965009   -1.425008    0.024995
     61          6           0       -4.273090   -1.511427   -0.777273
     62          1           0       -5.220556   -1.866407   -0.392388
     63          6           0        4.036891    1.083115   -2.721587
     64          1           0        4.848055    1.255917   -2.014241
     65          1           0        4.335363    0.329100   -3.445975
     66          1           0        3.779026    2.009872   -3.226544
     67          6           0        5.147556   -2.449788   -2.992389
     68          1           0        4.916597   -3.486280   -2.752544
     69          1           0        4.589548   -2.144508   -3.880422
     70          1           0        6.212777   -2.336172   -3.175258
     71          6           0        4.874359   -4.418914    0.117796
     72          1           0        5.763424   -3.823566   -0.093236
     73          1           0        4.667908   -4.403972    1.189378
     74          1           0        5.024594   -5.440992   -0.218258
     75          6           0        2.723008   -3.643747    3.737991
     76          1           0        3.442052   -3.163350    4.395175
     77          1           0        1.724705   -3.582285    4.177884
     78          1           0        2.992046   -4.693563    3.599412
     79          6           0       -0.461731    5.490783    1.692246
     80          1           0       -0.798410    6.179256    2.461360
     81          1           0        0.610299    5.317428    1.792044
     82          1           0       -0.673531    5.908626    0.705289
     83         11           0        1.805239    2.500991   -0.860290
     84          8           0        3.618762    3.831065   -1.140467
     85          6           0        3.938679    4.890162   -2.024011
     86          1           0        4.828449    4.639008   -2.605999
     87          1           0        3.091163    5.025582   -2.690929
     88          1           0        4.118434    5.810516   -1.464759
     89          6           0        4.652251    3.548033   -0.203587
     90          1           0        4.805629    4.408299    0.452217
     91          1           0        4.316381    2.680516    0.364400
     92          1           0        5.582737    3.327443   -0.733111
     93          6           0       -5.493400   -0.525458   -2.717849
[...]
 0021001,-0.00002811,0.00008055,-0.00012065,0.00008589,0.00007966,-0.00
 008868,0.00016453,0.00000372,0.00009589,-0.00005908,-0.00003544,-0.000
 08563,0.00004547,-0.00000033,0.00003735,-0.00012274,0.00003792,-0.0000
 4676,0.00015247,-0.00007260,0.00349195,0.00092357,-0.00100084,-0.00090
 131,-0.00091655,-0.00003896,-0.00159025,0.00026967,-0.00021481,-0.0009
 7330,0.00070659,0.00194094,-0.00034567,-0.00074705,0.00048607,0.003233
 63,-0.00221987,0.00292322,0.00007346,0.00075341,0.00098146,0.00007851,
 -0.00009194,-0.00012795,-0.01548422,-0.03780260,0.00079987,0.00042279,
 -0.00065446,-0.00065474,-0.00229712,0.00038412,0.00068002,0.00070123,-
 0.00088883,-0.00042657,0.00011864,0.00004717,-0.00009283,-0.00002344,-
 0.00000658,0.00000247,-0.00002084,0.00000316,0.00001816,-0.00000367,-0
 .00000844,0.00001063,0.00001988,-0.00006189,-0.00006553,-0.00000162,0.
 00001257,0.00000237,0.00000176,0.00000120,0.00000573,-0.00000888,0.000
 00635,0.00001069,0.00005040,-0.00003710,0.00003696,-0.00000325,0.00000
 485,-0.00000669,-0.00000182,-0.00000815,-0.00000787,-0.00001742,0.0000
 1504,0.00000222,0.00002309,-0.00008256,0.00008543,0.00000558,0.0000072
 1,-0.00000975,0.00000263,-0.00001762,-0.00000750,-0.00002180,0.0000264
 8,-0.00000133,0.00009018,0.00017180,-0.00003185,-0.00000630,-0.0000355
 5,-0.00001090,-0.00002133,-0.00001061,0.00000769,-0.00001151,-0.000019
 45,0.00001794,0.00019777,0.00016233,-0.00001461,-0.00005335,-0.0000385
 5,0.00000626,0.00001929,0.00003381,-0.00002969,-0.00000841,-0.00000064
 ,0.00000617,0.00000172,0.00000122,-0.00000103,-0.00000264,-0.00000749,
 0.00000006,0.00002458,0.00000191,0.00001093,-0.00000364,-0.00000824,-0
 .00000153,0.00003554,0.00001562,-0.00000504,-0.00001133,-0.00000337,0.
 00000888,-0.00221459,0.00007043,-0.00106428,0.00066226,-0.00041475,0.0
 0013885,0.00075685,0.00029362,0.00021846,0.00048629,-0.00012349,0.0007
 3258,-0.05890541,-0.29634297,-0.00898624,-0.03439267,-0.01319806,-0.02
 002633,0.09090052,0.40567700,0.00027228,0.00036651,-0.00022912,-0.0000
 0124,-0.00007661,-0.00025688,-0.00000740,-0.00003050,0.00001012,-0.000
 04306,0.00008723,-0.00007965,-0.00000216,-0.00001879,-0.00011032,-0.00
 000747,-0.00003073,0.00001045,-0.00001571,-0.00004025,0.00001644,-0.00
 005061,-0.00007577,0.00003069,-0.00000526,-0.00000126,0.00001142,-0.00
 000269,0.00001877,-0.00001700,0.00002071,-0.00000940,0.00010532,0.0000
 1185,0.00002561,0.00004542,0.00000967,0.00004545,0.00020025,-0.0001947
 3,-0.00063456,0.00016163,-0.00006871,-0.00021425,0.00010391,0.00006135
 ,-0.00004618,-0.00009190,0.00000968,0.00000161,0.00002632,-0.00001897,
 0.00001338,0.00002415,0.00002397,0.00011868,0.00018753,0.00002724,0.00
 009288,-0.00030590,0.00000561,-0.00013932,0.00009918,-0.00001496,0.000
 05040,-0.00007866,-0.00001198,0.00001255,0.00005854,0.00004936,0.00043
 825,0.00002688,-0.00005801,-0.00010531,0.00000027,0.00001180,-0.000091
 75,0.00000513,-0.00003805,-0.00006659,0.00038154,0.00021248,0.00026231
 ,0.00003956,0.00001052,-0.00003981,0.00008066,-0.00005101,-0.00003208,
 -0.00002326,-0.00004156,-0.00003145,-0.00002505,-0.00005129,0.00002002
 ,-0.00001105,0.00000168,0.00002251,0.00003936,-0.00041046,-0.00016722,
 -0.00064065,-0.00008800,0.00009192,-0.00007756,-0.00000530,0.00000534,
 0.00000140,-0.00000085,0.00000982,0.00000062,0.00001974,-0.00000347,-0
 .00002517,-0.00001001,0.00001479,0.00002040,-0.00000775,0.00001577,0.0
 0000024,0.00001073,0.00000035,-0.00000231,0.00010935,-0.00015330,0.000
 23676,0.00054785,0.00024395,-0.00051946,0.00008537,0.00001559,0.000001
 88,0.00004175,-0.00001718,0.00000518,0.00003365,-0.00003839,0.00002655
 ,0.00013593,0.00002000,-0.00009734,-0.00002292,0.00000379,0.00001711,0
 .00001135,-0.00002695,0.00003378,-0.00006966,-0.00000674,0.00007260,-0
 .00191103,-0.00068836,0.00025581,0.00047909,0.00055639,0.00014380,0.00
 091028,-0.00006927,0.00028509,0.00004743,-0.00068690,-0.00181168,0.000
 85839,0.00060242,-0.00043256,-0.00240632,0.00079414,-0.00046856,0.0002
 1488,-0.00082566,0.00036484,-0.00000302,0.00002876,0.00009477,0.009480
 34,0.03023819,0.00652858,0.00012726,0.00062927,0.00014621,0.00066840,0
 .00033338,-0.00085764,-0.00003502,0.00011170,0.00003218,-0.00004210,-0
 .00002463,0.00002813,0.00001180,0.00000304,0.00000066,0.00000513,0.000
 00109,-0.00000464,-0.00000034,0.00000130,-0.00000422,-0.00001005,0.000
 00929,0.00000437,-0.00000152,-0.00000118,-0.00000330,-0.00000083,-0.00
 000351,0.00000353,0.00000542,-0.00000024,-0.00000182,-0.00002271,0.000
 01212,-0.00002728,0.00000268,-0.00000015,0.00000281,0.00000507,-0.0000
 0168,0.00000692,0.00000219,-0.00000160,0.00000095,0.00005091,0.0000002
 2,-0.00003858,-0.00000618,-0.00000309,0.00000422,-0.00001321,0.0000040
 0,0.00001097,-0.00000593,0.00000340,0.00000540,-0.00000405,0.00000395,
 -0.00000176,0.00000017,0.00000468,0.00000105,0.00000126,0.00000034,-0.
 00000192,0.00000158,-0.00000338,0.00000295,-0.00007378,-0.00007865,-0.
 00006347,0.00001791,0.00001058,0.00001609,-0.00000558,-0.00000756,0.00
 000028,0.00000045,-0.00000031,-0.00000093,0.00000114,-0.00000235,0.000
 00079,0.00000140,0.00000302,0.00000173,-0.00001145,0.00000139,-0.00001
 436,0.00000257,0.00000478,0.00000186,-0.00000588,-0.00000498,-0.000001
 08,0.00000181,-0.00000010,0.00000085,0.00112590,-0.00034710,0.00051739
 ,-0.00035321,0.00029255,-0.00004334,-0.00036683,-0.00004086,-0.0001138
 6,-0.00025142,0.00010706,-0.00031958,-0.00415582,-0.00956243,-0.080439
 70,-0.02598723,-0.03089330,-0.00140439,0.01504021,0.05717103,0.0841693
 8,-0.00002577,-0.00011669,-0.00019318,-0.00031886,0.00019619,0.0001257
 5,-0.00008637,0.00009295,0.00001076,0.00004857,0.00003725,-0.00005000,
 -0.00008282,0.00019824,0.00006421,0.00000242,0.00000045,0.00000177,0.0
 0000734,0.00002662,-0.00003952,-0.00005659,-0.00006862,0.00001898,-0.0
 0000923,-0.00003129,-0.00000447,0.00008519,-0.00000037,-0.00002527,0.0
 0008062,-0.00009989,0.00000216,0.00003441,-0.00009326,-0.00003706,0.00
 052255,0.00023833,-0.00007930,0.00010006,-0.00122632,-0.00062605,0.000
 04320,-0.00036308,-0.00006044,-0.00003112,0.00004625,0.00010253,0.0000
 1363,0.00000095,-0.00001860,-0.00000955,-0.00004434,-0.00002258,-0.000
 09452,-0.00021812,-0.00017337,-0.00023376,-0.00088297,0.00053090,0.000
 01970,0.00021414,-0.00015513,-0.00028168,-0.00018962,-0.00011564,0.000
 01600,0.00006239,-0.00007971,-0.00039049,-0.00111972,0.00016943,0.0001
 2632,0.00021322,-0.00003464,-0.00002448,-0.00018858,-0.00017104,-0.001
 01247,-0.00051065,-0.00163143,0.00028202,0.00044096,0.00009118,0.00000
 999,0.00001272,0.00022041,-0.00001837,-0.00002064,-0.00002399,-0.00008
 634,-0.00006227,-0.00007174,0.00005795,0.00000141,-0.00004839,0.000025
 04,0.00003147,-0.00006595,0.00043628,0.00050661,0.00023481,0.00010275,
 -0.00004397,-0.00003179,0.00010327,-0.00007768,-0.00002234,-0.00000917
 ,-0.00000075,-0.00001841,-0.00000933,0.00000302,0.00003279,0.00000739,
 -0.00001208,-0.00001661,0.00003917,-0.00002312,-0.00004394,-0.00001593
 ,0.00000577,0.00000234,-0.00028000,-0.00017915,0.00010741,-0.00037369,
 -0.00017900,0.00054074,-0.00012019,-0.00007715,0.00007211,-0.00011524,
 0.00001490,0.00007975,-0.00011996,0.00007537,0.00000948,0.00043812,0.0
 0004827,-0.00003041,-0.00007065,0.00001081,0.00001693,-0.00000176,-0.0
 0009394,0.00015988,-0.00025647,0.00001122,-0.00018029,0.00140724,0.000
 69338,-0.00048056,-0.00036036,-0.00055455,-0.00009408,-0.00065714,-0.0
 0008350,0.00001363,-0.00011573,-0.00081801,-0.00034055,0.00034386,-0.0
 0008006,0.00040256,0.00083611,-0.00086293,0.00176681,0.00052047,-0.001
 29761,0.00051328,0.00008006,0.00014823,0.00002935,-0.00714889,0.008551
 30,0.01695827,0.00048408,0.00081998,-0.00019140,-0.00207560,-0.0009081
 2,-0.00088479,0.00096082,0.00088170,0.00090669,0.00008098,0.00004231,-
 0.00005281,-0.00001479,-0.00000255,0.00000050,-0.00001223,0.00000155,0
 .00000694,-0.00000395,-0.00000896,0.00000968,0.00002088,-0.00003098,-0
 .00004899,0.00000485,0.00000195,0.00000247,0.00000388,0.00000441,0.000
 00503,-0.00001211,0.00000225,0.00000762,0.00008099,-0.00003480,0.00003
 295,-0.00001507,-0.00000343,-0.00000161,0.00000552,-0.00000318,-0.0000
 0399,-0.00000611,0.00001053,-0.00000097,0.00005314,-0.00008517,0.00011
 177,-0.00001987,0.00000023,-0.00001987,0.00000252,0.00001653,0.0000104
 9,-0.00000184,0.00002305,-0.00000316,0.00000132,0.00002459,-0.00000275
 ,-0.00000082,-0.00000894,-0.00000413,0.00000402,0.00000148,0.00000289,
 -0.00000296,-0.00000220,0.00000335,0.00006267,0.00012661,0.00001448,-0
 .00001571,-0.00003475,0.00000224,0.00000600,0.00002421,-0.00001496,-0.
 00000153,-0.00000145,0.00000260,0.00000059,0.00000117,0.00000205,-0.00
 000293,-0.00000604,-0.00000103,0.00000593,0.00000825,0.00000468,-0.000
 00223,-0.00000805,-0.00000095,0.00001859,0.00001236,-0.00000157,-0.000
 00230,-0.00000159,0.00000246,-0.00119501,0.00017836,-0.00009666,0.0003
 6767,-0.00027243,-0.00003937,0.00038524,0.00009408,0.00002766,0.000260
 98,-0.00008053,0.00023761,-0.18113045,0.05503152,0.10771927,-0.0734920
 6,0.02549094,0.01609706,0.01019357,0.01691623,0.00618578,0.25163047,0.
 00064292,0.00083927,-0.00073622,0.00010207,-0.00000822,-0.00008226,0.0
 0025661,0.00021824,0.00003655,-0.00009468,0.00017793,0.00000796,0.0001
 5259,-0.00031385,0.00008003,-0.00003805,-0.00006084,0.00001518,0.00003
 231,0.00003661,-0.00001594,-0.00019213,-0.00020661,0.00006263,0.000005
 08,-0.00000726,-0.00000367,0.00000822,0.00000772,0.00001372,-0.0001682
 3,-0.00006310,-0.00000886,-0.00011055,-0.00023389,-0.00001021,-0.00039
 798,-0.00052454,0.00004789,-0.00208968,-0.00236992,-0.00066566,-0.0002
 4012,0.00027982,-0.00009709,0.00011026,-0.00010109,-0.00002024,-0.0000
 0583,0.00000957,-0.00000572,-0.00005265,-0.00000844,0.00001225,-0.0000
 9866,0.00007667,0.00007649,0.00019038,0.00085347,-0.00039153,-0.000019
 04,-0.00013223,0.00013754,-0.00000234,-0.00073982,0.00035238,0.0000437
 5,-0.00019177,0.00009691,-0.00062553,0.00072502,-0.00049561,-0.0002395
 3,-0.00058362,-0.00004518,0.00017047,-0.00021565,0.00000066,-0.0005054
 3,-0.00133426,-0.00047353,0.00000487,-0.00030961,0.00002047,0.00003155
 ,-0.00005564,-0.00005417,-0.00001321,0.00001733,0.00000386,0.00001015,
 0.00003440,-0.00000996,0.00001265,-0.00003269,0.00000636,0.00001149,-0
 .00001177,-0.00001484,0.00004897,-0.00017089,0.00013194,0.00002507,-0.
 00015335,0.00001270,-0.00001221,0.00000639,0.00000902,0.00002950,-0.00
 001221,-0.00001274,-0.00000022,-0.00000601,-0.00000028,0.00000042,-0.0
 0000425,-0.00000099,-0.00001586,-0.00000265,0.00002370,0.00000704,-0.0
 0000014,0.00000041,-0.00001264,0.00024570,-0.00010101,-0.00012909,0.00
 001855,0.00014511,-0.00003157,0.00002409,0.00000860,-0.00000142,0.0000
 2906,-0.00000072,0.00001153,0.00003416,-0.00000456,-0.00016223,-0.0000
 4563,0.00000189,0.00000534,0.00001123,-0.00000943,0.00001690,-0.000002
 50,-0.00004276,0.00009594,0.00006056,0.00004363,0.00064009,-0.00013224
 ,-0.00022414,-0.00019915,-0.00001395,0.00006886,-0.00025406,0.00013861
 ,-0.00006418,0.00054345,-0.00093965,0.00039504,-0.00070270,-0.00020738
 ,0.00020365,0.00070579,0.00068574,-0.00062386,-0.00006551,0.00016167,-
 0.00070032,-0.00003257,0.00003503,-0.00001430,-0.00514703,0.01072686,0
 .00792988,-0.00016094,0.00020379,0.00021968,0.00025236,-0.00027087,0.0
 0116046,-0.00024744,-0.00025122,0.00004647,0.00001542,0.00000148,-0.00
 001614,-0.00000261,-0.00000173,0.00000041,-0.00000336,0.00000100,0.000
 00470,0.00000019,0.00000006,-0.00000005,-0.00000016,-0.00001139,-0.000
 00634,-0.00000224,0.00000400,0.00000028,-0.00000075,-0.00000103,0.0000
 0006,0.00000097,0.00000136,0.00000116,-0.00001138,-0.00000108,0.000002
 94,0.00000450,0.00000296,-0.00000231,-0.00000350,-0.00000164,-0.000001
 84,-0.00000386,0.00000157,0.00000114,-0.00001879,0.00000243,-0.0000068
 4,0.00001213,0.00000199,0.00000414,0.00000131,-0.00001572,-0.00000809,
 -0.00000648,0.00000079,0.00000081,0.00006475,0.00011639,-0.00001820,-0
 .00000481,-0.00002073,-0.00000591,-0.00001768,-0.00000965,0.00000360,-
 0.00000762,-0.00001570,0.00001217,0.00006576,0.00000685,-0.00004445,-0
 .00001966,-0.00000363,0.00000605,0.00000696,0.00000698,-0.00000978,-0.
 00000386,0.00000023,0.00000219,0.00000087,-0.00000039,-0.00000137,0.00
 000026,-0.00000092,0.00000068,0.00000885,-0.00000185,0.00000140,-0.000
 00025,0.00000002,-0.00000017,0.00001093,0.00000175,-0.00000251,-0.0000
 0505,-0.00000134,0.00000439,-0.00031483,-0.00007764,-0.00033621,0.0000
 6661,0.00001764,0.00007915,0.00012370,0.00006867,0.00005938,0.00005833
 ,0.00000259,0.00012721,0.05448078,-0.10279508,-0.05124696,0.02020187,0
 .00523453,-0.00155236,0.03368687,-0.05501093,-0.04758039,-0.10048363,0
 .14655741,0.00068727,0.00084527,-0.00046554,-0.00002078,-0.00015334,-0
 .00044594,0.00012134,-0.00003733,0.00002787,-0.00013206,0.00018305,-0.
 00009983,0.00010789,-0.00024983,-0.00016316,-0.00003003,-0.00007251,0.
 00002113,0.00000386,-0.00005257,0.00005128,-0.00011998,-0.00010278,0.0
 0009233,0.00000071,0.00001297,0.00001935,-0.00004898,0.00003189,-0.000
 00407,-0.00004416,0.00002038,0.00015888,-0.00002922,0.00000369,0.00008
 749,-0.00009248,-0.00001029,0.00037032,-0.00090662,-0.00098119,0.00052
 958,-0.00026116,0.00004284,0.00017573,0.00014284,-0.00013076,-0.000189
 52,0.00000615,0.00000458,0.00004576,-0.00004292,0.00003899,0.00005057,
 0.00005229,0.00030748,0.00038714,0.00010241,0.00051889,-0.00067523,-0.
 00001212,-0.00025657,0.00021848,0.00001395,0.00039488,-0.00040138,-0.0
 0001073,-0.00002180,0.00011344,0.00013915,0.00193840,-0.00227606,-0.00
 041031,-0.00102975,0.00007673,0.00000783,-0.00054857,0.00010868,-0.001
 34340,-0.00249720,-0.00024518,0.00010783,-0.00008375,0.00002300,0.0000
 5040,-0.00006840,-0.00007087,-0.00005896,-0.00001942,-0.00001223,0.000
 01353,0.00001385,0.00000990,-0.00009489,0.00002335,0.00001590,-0.00000
 854,0.00001892,0.00008765,-0.00080441,-0.00055253,-0.00102139,-0.00016
 843,0.00014612,-0.00007273,-0.00006477,0.00005180,0.00001121,0.0000069
 5,0.00001239,-0.00000069,0.00003485,-0.00000926,-0.00005362,-0.0000169
 1,0.00002819,0.00003568,-0.00003153,0.00004011,0.00002620,0.00002192,-
 0.00000328,-0.00000408,0.00030958,-0.00007922,0.00025236,0.00092415,0.
 00031289,-0.00106808,0.00018258,0.00006375,-0.00003288,0.00011629,-0.0
 0003016,-0.00003875,0.00010553,-0.00008873,0.00002554,-0.00006685,-0.0
 0000453,-0.00011938,0.00001015,-0.00000112,0.00001504,0.00000969,0.000
 01462,-0.00001841,0.00005731,-0.00000183,0.00018722,-0.00368101,-0.001
 02815,0.00072296,0.00099230,0.00119880,0.00032707,0.00165166,-0.000072
 53,0.00037737,0.00094353,0.00243214,-0.00078401,0.00082049,0.00053387,
 -0.00074897,-0.00363852,0.00067728,-0.00506729,-0.00000760,0.00023603,
 0.00041751,-0.00002699,-0.00012279,0.00002591,0.03759839,-0.01349443,-
 0.02862339,-0.00002795,-0.00074981,-0.00021442,0.00153298,0.00088605,-
 0.00004835,-0.00022068,-0.00036792,-0.00112563,-0.00009871,-0.00005559
 ,0.00006653,0.00002430,0.00000525,-0.00000010,0.00001398,0.00000073,-0
 .00000988,0.00000162,0.00000661,-0.00001092,-0.00002365,0.00002972,0.0
 0003374,-0.00000402,-0.00000292,-0.00000508,-0.00000306,-0.00000624,0.
 00000115,0.00001303,-0.00000193,-0.00000670,-0.00007083,0.00003253,-0.
 00005002,0.00001137,0.00000181,0.00000375,0.00000295,-0.00000080,0.000
 01018,0.00000618,-0.00000772,0.00000223,0.00003111,0.00004197,-0.00010
 048,0.00000651,-0.00000348,0.00001533,-0.00001668,-0.00000897,0.000005
 72,-0.00000846,-0.00000651,0.00000901,0.00001392,0.00002943,-0.0000063
 1,-0.00000124,0.00000487,0.00000132,-0.00000484,-0.00000299,-0.0000031
 7,0.00000081,-0.00000936,0.00000710,-0.00012881,-0.00018048,-0.0001166
 5,0.00002878,0.00003101,0.00002330,-0.00000925,-0.00002073,0.00000567,
 0.00000066,0.00000040,-0.00000201,0.00000137,-0.00000398,-0.00000007,0
 .00000352,0.00000699,0.00000292,-0.00001740,-0.00000204,-0.00002261,0.
 00000489,0.00001075,0.00000301,-0.00001451,-0.00001278,-0.00000149,0.0
 0000257,0.00000028,0.00000133,0.00216621,-0.00058478,0.00084109,-0.000
 67026,0.00053795,-0.00004752,-0.00072213,-0.00012834,-0.00017733,-0.00
 045144,0.00017504,-0.00059561,0.10302679,-0.04944959,-0.18661360,-0.00
 168566,0.00267601,0.02132916,0.01143656,-0.03529937,-0.00606697,-0.147
 31901,0.09408610,0.21046979\\0.00000018,0.00000036,-0.00000123,-0.0000
 0058,-0.00000026,-0.00000131,-0.00000158,-0.00000106,-0.00000290,-0.00
 000113,0.00000102,-0.00000078,-0.00000004,0.00000185,0.00000014,-0.000
 00123,-0.00000092,-0.00000192,-0.00000084,-0.00000114,-0.00000108,-0.0
 0000193,0.00000052,-0.00000144,-0.00000167,0.00000133,-0.00000171,-0.0
 0000020,0.00000062,-0.00000021,-0.00000132,0.00000170,-0.00000180,-0.0
 0000171,0.00000071,-0.00000227,-0.00000088,-0.00000106,-0.00000202,-0.
 00000210,0.00000032,-0.00000160,-0.00000072,0.00000085,-0.00000010,-0.
 00000103,0.00000175,-0.00000116,-0.00000095,0.00000220,-0.00000022,-0.
 00000170,0.00000171,-0.00000115,-0.00000058,0.00000241,-0.00000034,-0.
 00000119,-0.00000167,-0.00000169,-0.00000055,-0.00000238,-0.00000188,-
 0.00000024,-0.00000142,-0.00000124,-0.00000084,-0.00000209,-0.00000207
 ,-0.00000011,0.00000042,0.,-0.00000101,0.00000111,-0.00000022,-0.00000
 083,0.00000016,-0.00000123,-0.00000061,0.00000057,-0.00000028,-0.00000
 030,0.00000195,0.00000051,0.00000052,0.00000081,0.00000074,-0.00000043
 ,0.00000150,0.00000078,-0.00000031,0.00000261,0.00000047,0.00000118,0.
 00000041,0.00000095,0.00000106,0.00000026,0.00000091,-0.00000152,-0.00
 000027,-0.00000179,0.00000109,0.00000145,0.00000177,0.00000089,0.00000
 013,0.00000244,0.00000026,-0.00000016,0.00000146,0.,0.00000095,0.00000
 038,0.00000112,-0.00000057,0.00000156,0.00000140,-0.00000035,0.0000012
 7,0.00000128,0.00000173,0.00000180,0.00000125,-0.00000059,0.00000119,0
 .00000110,-0.00000292,-0.00000038,-0.00000009,-0.00000074,-0.00000085,
 0.00000040,0.00000070,0.00000221,0.00000189,0.00000109,0.00000183,0.00
 000075,0.00000053,0.00000180,0.00000148,0.00000146,0.00000268,0.000001
 83,0.00000072,0.00000194,0.00000057,0.00000228,0.00000254,0.00000173,-
 0.00000260,0.00000040,-0.00000058,-0.00000166,-0.00000127,0.00000120,0
 .00000094,0.00000109,0.00000014,-0.00000154,0.00000042,0.00000071,-0.0
 0000325,-0.00000099,0.00000068,-0.00000189,-0.00000051,0.00000053,-0.0
 0000228,0.00000016,0.00000062,-0.00000335,-0.00000039,0.00000090,-0.00
 000129,0.00000019,-0.00000017,-0.00000091,0.00000167,0.00000131,-0.000
 00245,-0.00000023,0.00000040,-0.00000273,0.00000026,0.00000025,0.00000
 003,0.00000003,-0.00000014,0.,-0.00000013,0.00000041,-0.00000011,0.000
 00073,-0.00000005,-0.00000126,-0.00000040,0.00000200,-0.00000026,0.000
 00172,0.00000202,0.00000014,0.00000269,0.00000154,-0.00000066,0.000001
 78,0.00000122,0.00000028,0.00000227,0.00000183,0.00000186,0.00000379,0
 .00000144,0.00000164,0.00000289,0.00000188,0.00000206,0.00000269,0.000
 00226,0.00000128,0.00000371,0.00000112,0.00000208,0.00000209,0.0000007
 3,0.00000339,0.00000226,0.00000068,0.00000253,0.00000225,0.00000118,0.
 00000302,0.00000288,-0.00000261,0.00000036,-0.00000297,-0.00000260,0.0
 0000031,-0.00000379,-0.00000244,0.00000084,-0.00000272,-0.00000236,-0.
 00000038,-0.00000304,-0.00000046,-0.00000028,-0.00000028,-0.00000167,0
 .00000004,-0.00000233,-0.00000091,-0.00000004,-0.00000086,-0.00000140,
 0.00000040,-0.00000170,-0.00000193,-0.00000062,-0.00000264,-0.00000199
 ,0.00000045,-0.00000249,-0.00000076,0.00000242,-0.00000167,-0.00000161
 ,0.00000142,-0.00000175,-0.00000111,0.00000062,-0.00000050,-0.00000116
 ,0.00000149,-0.00000066,0.00000041,-0.00000422,-0.00000059,0.00000070,
 -0.00000418,-0.00000128,0.00000132,-0.00000420,-0.00000033,0.00000092,
 -0.00000459,-0.00000076,0.00000165,-0.00000120,0.00000029,0.00000039,0
 .00000002,0.00000114,0.00000143,-0.00000131,0.00000141,0.00000036,-0.0
 0000096,0.00000101\\\@


 IT IS NOT EASY TO DESCRIBE
     THE SEA WITH THE MOUTH

                   -- KOKYU
 Job cpu time:       6 days 20 hours 16 minutes 58.2 seconds.
 Elapsed time:       0 days  5 hours 26 minutes 32.0 seconds.
 File lengths (MBytes):  RWF=   9694 Int=      0 D2E=      0 Chk=     85 Scr=      1
 Normal termination of Gaussian 16 at Thu Jun  6 17:07:10 2019.
