 Entering Gaussian System, Link 0=g16
 Input=clay_new-glu_gluC6-bisCF3-sm-b98-631gd-pcm_thf.gjf
 Output=clay_new-glu_gluC6-bisCF3-sm-b98-631gd-pcm_thf.out
 Initial command:
 /home/ekwan/sw/g16/l1.exe "/scratch/users/ekwan/clay_new-glu_gluC6-bisCF3-sm-b98-631gd-pcm_thf/Gau-16374.inp" -scrdir="/scratch/users/ekwan/clay_new-glu_gluC6-bisCF3-sm-b98-631gd-pcm_thf/"
 Entering Link 1 = /home/ekwan/sw/g16/l1.exe PID=     16375.
  
 Copyright (c) 1988,1990,1992,1993,1995,1998,2003,2009,2016,
            Gaussian, Inc.  All Rights Reserved.
  
 This is part of the Gaussian(R) 16 program.  It is based on
 the Gaussian(R) 09 system (copyright 2009, Gaussian, Inc.),
 the Gaussian(R) 03 system (copyright 2003, Gaussian, Inc.),
 the Gaussian(R) 98 system (copyright 1998, Gaussian, Inc.),
 the Gaussian(R) 94 system (copyright 1995, Gaussian, Inc.),
 the Gaussian 92(TM) system (copyright 1992, Gaussian, Inc.),
 the Gaussian 90(TM) system (copyright 1990, Gaussian, Inc.),
 the Gaussian 88(TM) system (copyright 1988, Gaussian, Inc.),
 the Gaussian 86(TM) system (copyright 1986, Carnegie Mellon
 University), and the Gaussian 82(TM) system (copyright 1983,
 Carnegie Mellon University). Gaussian is a federally registered
 trademark of Gaussian, Inc.
  
 This software contains proprietary and confidential information,
 including trade secrets, belonging to Gaussian, Inc.
  
 This software is provided under written license and may be
 used, copied, transmitted, or stored only in accord with that
 written license.
  
 The following legend is applicable only to US Government
 contracts under FAR:
  
                    RESTRICTED RIGHTS LEGEND
  
 Use, reproduction and disclosure by the US Government is
 subject to restrictions as set forth in subparagraphs (a)
 and (c) of the Commercial Computer Software - Restricted
 Rights clause in FAR 52.227-19.
  
 Gaussian, Inc.
 340 Quinnipiac St., Bldg. 40, Wallingford CT 06492
  
  
 ---------------------------------------------------------------
 Warning -- This program may not be used in any manner that
 competes with the business of Gaussian, Inc. or will provide
 assistance to any competitor of Gaussian, Inc.  The licensee
 of this program is prohibited from giving any competitor of
 Gaussian, Inc. access to this program.  By using this program,
 the user acknowledges that Gaussian, Inc. is engaged in the
 business of creating and licensing software in the field of
 computational chemistry and represents and warrants to the
 licensee that it is not a competitor of Gaussian, Inc. and that
 it will not use this program in any manner prohibited above.
 ---------------------------------------------------------------
  

 Cite this work as:
 Gaussian 16, Revision A.03,
 M. J. Frisch, G. W. Trucks, H. B. Schlegel, G. E. Scuseria, 
 M. A. Robb, J. R. Cheeseman, G. Scalmani, V. Barone, 
 G. A. Petersson, H. Nakatsuji, X. Li, M. Caricato, A. V. Marenich, 
 J. Bloino, B. G. Janesko, R. Gomperts, B. Mennucci, H. P. Hratchian, 
 J. V. Ortiz, A. F. Izmaylov, J. L. Sonnenberg, D. Williams-Young, 
 F. Ding, F. Lipparini, F. Egidi, J. Goings, B. Peng, A. Petrone, 
 T. Henderson, D. Ranasinghe, V. G. Zakrzewski, J. Gao, N. Rega, 
 G. Zheng, W. Liang, M. Hada, M. Ehara, K. Toyota, R. Fukuda, 
 J. Hasegawa, M. Ishida, T. Nakajima, Y. Honda, O. Kitao, H. Nakai, 
 T. Vreven, K. Throssell, J. A. Montgomery, Jr., J. E. Peralta, 
 F. Ogliaro, M. J. Bearpark, J. J. Heyd, E. N. Brothers, K. N. Kudin, 
 V. N. Staroverov, T. A. Keith, R. Kobayashi, J. Normand, 
 K. Raghavachari, A. P. Rendell, J. C. Burant, S. S. Iyengar, 
 J. Tomasi, M. Cossi, J. M. Millam, M. Klene, C. Adamo, R. Cammi, 
 J. W. Ochterski, R. L. Martin, K. Morokuma, O. Farkas, 
 J. B. Foresman, and D. J. Fox, Gaussian, Inc., Wallingford CT, 2016.
 
 ******************************************
 Gaussian 16:  AS64L-G16RevA.03 25-Dec-2016
                 5-Jun-2019 
 ******************************************
 %nprocshared=32
 Will use up to   32 processors via shared memory.
 %mem=48GB
 ----------------------------------------------------------------------
 #p opt freq=noraman pop=none 6-31g* scrf=(pcm,solvent=tetrahydrofuran)
  b98
 ----------------------------------------------------------------------
 1/18=20,19=15,26=3,38=1/1,3;
 2/9=110,12=2,17=6,18=5,40=1/2;
 3/5=1,6=6,7=1,11=2,25=1,30=1,70=2201,71=1,72=20,74=-18/1,2,3;
 4//1;
 5/5=2,38=5,53=20/2;
 7//1,2,3,16;
 1/18=20,19=15,26=3/3(2);
 2/9=110/2;
 99//99;
 2/9=110/2;
 3/5=1,6=6,7=1,11=2,25=1,30=1,70=2205,71=1,72=20,74=-18/1,2,3;
 4/5=5,16=3,69=1/1;
 5/5=2,38=5,53=20/2;
 7//1,2,3,16;
 1/18=20,19=15,26=3/3(-5);
 2/9=110/2;
 99/9=1/99;
 Leave Link    1 at Wed Jun  5 16:25:28 2019, MaxMem=  6442450944 cpu:               4.3 elap:               0.2
 (Enter /home/ekwan/sw/g16/l101.exe)
 -----
 title
 -----
 Symbolic Z-matrix:
 Charge =  0 Multiplicity = 1
 6                     3.54478  -0.19697   0.7284 
 6                     3.3647   -0.50975  -0.76725 
 6                     1.87833  -0.40945  -1.18505 
 6                     1.35924   1.09651   0.6061 
 6                     2.8212    1.11121   1.08922 
 1                     1.75714  -0.47961  -2.26753 
 1                     3.89118   0.27178  -1.34189 
 1                     3.1096   -1.01361   1.32396 
 1                     0.80772   0.32819   1.16884 
 1                     3.34008   1.94907   0.60299 
 8                     1.28861   0.78562  -0.80204 
 8                     1.20254  -1.55389  -0.57851 
 8                     3.91683  -1.77546  -1.03743 
 8                     4.91679  -0.03252   1.04234 
 8                     2.79884   1.28334   2.49638 
 6                     0.6462    2.43387   0.83596 
 1                     0.54667   2.56131   1.91917 
 1                    -0.36176   2.38422   0.39689 
 8                     1.34287   3.57038   0.36462 
 16                   -0.0953   -2.19968  -1.31962 
 8                    -0.19228  -3.54538  -0.78115 
 8                     0.01349  -1.96134  -2.75438 
 6                    -1.47232  -1.23456  -0.68758 
 6                    -2.13996  -1.68004   0.454 
 6                    -1.84114  -0.06214  -1.34989 
 6                    -3.20658  -0.92027   0.9438 
 1                    -1.83781  -2.60088   0.94211 
 6                    -2.9022    0.68768  -0.83694 
 1                    -1.31698   0.2561   -2.24442 
 6                    -3.5874    0.26365   0.30621 
 1                    -4.41359   0.85028   0.69468 
 6                     4.19616  -2.02433  -2.4083 
 1                     3.27931  -2.13536  -3.00521 
 1                     4.81136  -1.22148  -2.84188 
 1                     4.75314  -2.9643   -2.44648 
 6                     5.54424  -1.17916   1.59989 
 1                     6.5764   -0.89086   1.82186 
 1                     5.05107  -1.48594   2.53494 
 1                     5.54314  -2.02215   0.89872 
 6                     3.69151   2.27743   2.98183 
 1                     3.56207   2.30878   4.06812 
 1                     4.73349   2.02708   2.74621 
 1                     3.4507    3.26568   2.56283 
 6                     1.14639   3.86659  -1.01115 
 1                     1.56335   4.86456  -1.17911 
 1                     0.07476   3.8783   -1.26309 
 1                     1.65324   3.14685  -1.66629 
 6                    -3.99114  -1.41717   2.13997 
 9                    -3.21657  -2.13002   2.97678 
 9                    -5.00779  -2.2155    1.75965 
 9                    -4.52451  -0.39888   2.83856 
 6                    -3.26962   2.00247  -1.48997 
 9                    -2.57135   3.02661  -0.94715 
 9                    -4.57259   2.28991  -1.33325 
 9                    -3.00112   1.99645  -2.80634 
 
 ITRead=  0  0  0  0  0  0  0  0  0  0  0  0  0  0  0  0  0  0  0  0
 ITRead=  0  0  0  0  0  0  0  0  0  0  0  0  0  0  0  0  0  0  0  0
 ITRead=  0  0  0  0  0  0  0  0  0  0  0  0  0  0  0
 MicOpt= -1 -1 -1 -1 -1 -1 -1 -1 -1 -1 -1 -1 -1 -1 -1 -1 -1 -1 -1 -1
 MicOpt= -1 -1 -1 -1 -1 -1 -1 -1 -1 -1 -1 -1 -1 -1 -1 -1 -1 -1 -1 -1
 MicOpt= -1 -1 -1 -1 -1 -1 -1 -1 -1 -1 -1 -1 -1 -1 -1
 NAtoms=     55 NQM=       55 NQMF=       0 NMMI=      0 NMMIF=      0
                NMic=       0 NMicF=      0.
                    Isotopes and Nuclear Properties:
 (Nuclear quadrupole moments (NQMom) in fm**2, nuclear magnetic moments (NMagM)
  in nuclear magnetons)

  Atom         1           2           3           4           5           6           7           8           9          10
 IAtWgt=          12          12          12          12          12           1           1           1           1           1
 AtmWgt=  12.0000000  12.0000000  12.0000000  12.0000000  12.0000000   1.0078250   1.0078250   1.0078250   1.0078250   1.0078250
 NucSpn=           0           0           0           0           0           1           1           1           1           1
 AtZEff=   0.0000000   0.0000000   0.0000000   0.0000000   0.0000000   0.0000000   0.0000000   0.0000000   0.0000000   0.0000000
 NQMom=    0.0000000   0.0000000   0.0000000   0.0000000   0.0000000   0.0000000   0.0000000   0.0000000   0.0000000   0.0000000
 NMagM=    0.0000000   0.0000000   0.0000000   0.0000000   0.0000000   2.7928460   2.7928460   2.7928460   2.7928460   2.7928460
 AtZNuc=   6.0000000   6.0000000   6.0000000   6.0000000   6.0000000   1.0000000   1.0000000   1.0000000   1.0000000   1.0000000

  Atom        11          12          13          14          15          16          17          18          19          20
 IAtWgt=          16          16          16          16          16          12           1           1          16          32
 AtmWgt=  15.9949146  15.9949146  15.9949146  15.9949146  15.9949146  12.0000000   1.0078250   1.0078250  15.9949146  31.9720718
 NucSpn=           0           0           0           0           0           0           1           1           0           0
 AtZEff=   0.0000000   0.0000000   0.0000000   0.0000000   0.0000000   0.0000000   0.0000000   0.0000000   0.0000000   0.0000000
 NQMom=    0.0000000   0.0000000   0.0000000   0.0000000   0.0000000   0.0000000   0.0000000   0.0000000   0.0000000   0.0000000
 NMagM=    0.0000000   0.0000000   0.0000000   0.0000000   0.0000000   0.0000000   2.7928460   2.7928460   0.0000000   0.0000000
 AtZNuc=   8.0000000   8.0000000   8.0000000   8.0000000   8.0000000   6.0000000   1.0000000   1.0000000   8.0000000  16.0000000

  Atom        21          22          23          24          25          26          27          28          29          30
 IAtWgt=          16          16          12          12          12          12           1          12           1          12
 AtmWgt=  15.9949146  15.9949146  12.0000000  12.0000000  12.0000000  12.0000000   1.0078250  12.0000000   1.0078250  12.0000000
 NucSpn=           0           0           0           0           0           0           1           0           1           0
 AtZEff=   0.0000000   0.0000000   0.0000000   0.0000000   0.0000000   0.0000000   0.0000000   0.0000000   0.0000000   0.0000000
 NQMom=    0.0000000   0.0000000   0.0000000   0.0000000   0.0000000   0.0000000   0.0000000   0.0000000   0.0000000   0.0000000
 NMagM=    0.0000000   0.0000000   0.0000000   0.0000000   0.0000000   0.0000000   2.7928460   0.0000000   2.7928460   0.0000000
 AtZNuc=   8.0000000   8.0000000   6.0000000   6.0000000   6.0000000   6.0000000   1.0000000   6.0000000   1.0000000   6.0000000

  Atom        31          32          33          34          35          36          37          38          39          40
 IAtWgt=           1          12           1           1           1          12           1           1           1          12
 AtmWgt=   1.0078250  12.0000000   1.0078250   1.0078250   1.0078250  12.0000000   1.0078250   1.0078250   1.0078250  12.0000000
 NucSpn=           1           0           1           1           1           0           1           1           1           0
 AtZEff=   0.0000000   0.0000000   0.0000000   0.0000000   0.0000000   0.0000000   0.0000000   0.0000000   0.0000000   0.0000000
 NQMom=    0.0000000   0.0000000   0.0000000   0.0000000   0.0000000   0.0000000   0.0000000   0.0000000   0.0000000   0.0000000
 NMagM=    2.7928460   0.0000000   2.7928460   2.7928460   2.7928460   0.0000000   2.7928460   2.7928460   2.7928460   0.0000000
 AtZNuc=   1.0000000   6.0000000   1.0000000   1.0000000   1.0000000   6.0000000   1.0000000   1.0000000   1.0000000   6.0000000

  Atom        41          42          43          44          45          46          47          48          49          50
 IAtWgt=           1           1           1          12           1           1           1          12          19          19
 AtmWgt=   1.0078250   1.0078250   1.0078250  12.0000000   1.0078250   1.0078250   1.0078250  12.0000000  18.9984033  18.9984033
 NucSpn=           1           1           1           0           1           1           1           0           1           1
 AtZEff=   0.0000000   0.0000000   0.0000000   0.0000000   0.0000000   0.0000000   0.0000000   0.0000000   0.0000000   0.0000000
 NQMom=    0.0000000   0.0000000   0.0000000   0.0000000   0.0000000   0.0000000   0.0000000   0.0000000   0.0000000   0.0000000
 NMagM=    2.7928460   2.7928460   2.7928460   0.0000000   2.7928460   2.7928460   2.7928460   0.0000000   2.6288670   2.6288670
 AtZNuc=   1.0000000   1.0000000   1.0000000   6.0000000   1.0000000   1.0000000   1.0000000   6.0000000   9.0000000   9.0000000

  Atom        51          52          53          54          55
 IAtWgt=          19          12          19          19          19
 AtmWgt=  18.9984033  12.0000000  18.9984033  18.9984033  18.9984033
 NucSpn=           1           0           1           1           1
 AtZEff=   0.0000000   0.0000000   0.0000000   0.0000000   0.0000000
 NQMom=    0.0000000   0.0000000   0.0000000   0.0000000   0.0000000
 NMagM=    2.6288670   0.0000000   2.6288670   2.6288670   2.6288670
 AtZNuc=   9.0000000   6.0000000   9.0000000   9.0000000   9.0000000
 Leave Link  101 at Wed Jun  5 16:25:29 2019, MaxMem=  6442450944 cpu:              16.0 elap:               0.7
 (Enter /home/ekwan/sw/g16/l103.exe)

 GradGradGradGradGradGradGradGradGradGradGradGradGradGradGradGradGradGrad
 Berny optimization.
 Initialization pass.
                           ----------------------------
                           !    Initial Parameters    !
                           ! (Angstroms and Degrees)  !
 --------------------------                            --------------------------
 ! Name  Definition              Value          Derivative Info.                !
 --------------------------------------------------------------------------------
 ! R1    R(1,2)                  1.5386         estimate D2E/DX2                !
 ! R2    R(1,5)                  1.5379         estimate D2E/DX2                !
 ! R3    R(1,8)                  1.1004         estimate D2E/DX2                !
 ! R4    R(1,14)                 1.417          estimate D2E/DX2                !
 ! R5    R(2,3)                  1.5472         estimate D2E/DX2                !
 ! R6    R(2,7)                  1.1037         estimate D2E/DX2                !
 ! R7    R(2,13)                 1.4071         estimate D2E/DX2                !
 ! R8    R(3,6)                  1.0915         estimate D2E/DX2                !
 ! R9    R(3,11)                 1.3866         estimate D2E/DX2                !
 ! R10   R(3,12)                 1.4609         estimate D2E/DX2                !
 ! R11   R(4,5)                  1.5398         estimate D2E/DX2                !
 ! R12   R(4,9)                  1.1005         estimate D2E/DX2                !
 ! R13   R(4,11)                 1.4438         estimate D2E/DX2                !
 ! R14   R(4,16)                 1.5329         estimate D2E/DX2                !
 ! R15   R(5,10)                 1.0989         estimate D2E/DX2                !
 ! R16   R(5,15)                 1.4178         estimate D2E/DX2                !
 ! R17   R(12,20)                1.6281         estimate D2E/DX2                !
 ! R18   R(13,32)                1.421          estimate D2E/DX2                !
 ! R19   R(14,36)                1.421          estimate D2E/DX2                !
 ! R20   R(15,40)                1.4215         estimate D2E/DX2                !
 ! R21   R(16,17)                1.0952         estimate D2E/DX2                !
 ! R22   R(16,18)                1.1006         estimate D2E/DX2                !
 ! R23   R(16,19)                1.4139         estimate D2E/DX2                !
 ! R24   R(19,44)                1.421          estimate D2E/DX2                !
 ! R25   R(20,21)                1.4527         estimate D2E/DX2                !
 ! R26   R(20,22)                1.4585         estimate D2E/DX2                !
 ! R27   R(20,23)                1.7964         estimate D2E/DX2                !
 ! R28   R(23,24)                1.3955         estimate D2E/DX2                !
 ! R29   R(23,25)                1.3962         estimate D2E/DX2                !
 ! R30   R(24,26)                1.3982         estimate D2E/DX2                !
 ! R31   R(24,27)                1.0851         estimate D2E/DX2                !
 ! R32   R(25,28)                1.3969         estimate D2E/DX2                !
 ! R33   R(25,29)                1.0845         estimate D2E/DX2                !
 ! R34   R(26,30)                1.3976         estimate D2E/DX2                !
 ! R35   R(26,48)                1.5144         estimate D2E/DX2                !
 ! R36   R(28,30)                1.3986         estimate D2E/DX2                !
 ! R37   R(28,52)                1.5133         estimate D2E/DX2                !
 ! R38   R(30,31)                1.0852         estimate D2E/DX2                !
 ! R39   R(32,33)                1.0997         estimate D2E/DX2                !
 ! R40   R(32,34)                1.1005         estimate D2E/DX2                !
 ! R41   R(32,35)                1.0933         estimate D2E/DX2                !
 ! R42   R(36,37)                1.0944         estimate D2E/DX2                !
 ! R43   R(36,38)                1.1007         estimate D2E/DX2                !
 ! R44   R(36,39)                1.0965         estimate D2E/DX2                !
 ! R45   R(40,41)                1.0944         estimate D2E/DX2                !
 ! R46   R(40,42)                1.0972         estimate D2E/DX2                !
 ! R47   R(40,43)                1.1001         estimate D2E/DX2                !
 ! R48   R(44,45)                1.0945         estimate D2E/DX2                !
 ! R49   R(44,46)                1.1009         estimate D2E/DX2                !
 ! R50   R(44,47)                1.0973         estimate D2E/DX2                !
 ! R51   R(48,49)                1.3448         estimate D2E/DX2                !
 ! R52   R(48,50)                1.3474         estimate D2E/DX2                !
 ! R53   R(48,51)                1.3451         estimate D2E/DX2                !
 ! R54   R(52,53)                1.3532         estimate D2E/DX2                !
 ! R55   R(52,54)                1.3435         estimate D2E/DX2                !
 ! R56   R(52,55)                1.3435         estimate D2E/DX2                !
 ! A1    A(2,1,5)              110.2383         estimate D2E/DX2                !
 ! A2    A(2,1,8)              109.2047         estimate D2E/DX2                !
 ! A3    A(2,1,14)             110.6268         estimate D2E/DX2                !
 ! A4    A(5,1,8)              108.5553         estimate D2E/DX2                !
 ! A5    A(5,1,14)             107.7499         estimate D2E/DX2                !
 ! A6    A(8,1,14)             110.4332         estimate D2E/DX2                !
 ! A7    A(1,2,3)              111.2081         estimate D2E/DX2                !
 ! A8    A(1,2,7)              107.8387         estimate D2E/DX2                !
 ! A9    A(1,2,13)             108.8802         estimate D2E/DX2                !
 ! A10   A(3,2,7)              105.7693         estimate D2E/DX2                !
 ! A11   A(3,2,13)             112.5459         estimate D2E/DX2                !
 ! A12   A(7,2,13)             110.475          estimate D2E/DX2                !
 ! A13   A(2,3,6)              111.7336         estimate D2E/DX2                !
 ! A14   A(2,3,11)             112.9453         estimate D2E/DX2                !
 ! A15   A(2,3,12)             106.3495         estimate D2E/DX2                !
 ! A16   A(6,3,11)             106.3866         estimate D2E/DX2                !
 ! A17   A(6,3,12)             108.061          estimate D2E/DX2                !
 ! A18   A(11,3,12)            111.3302         estimate D2E/DX2                !
 ! A19   A(5,4,9)              108.7863         estimate D2E/DX2                !
 ! A20   A(5,4,11)             110.7633         estimate D2E/DX2                !
 ! A21   A(5,4,16)             112.7225         estimate D2E/DX2                !
 ! A22   A(9,4,11)             108.8971         estimate D2E/DX2                !
 ! A23   A(9,4,16)             107.4157         estimate D2E/DX2                !
 ! A24   A(11,4,16)            108.1409         estimate D2E/DX2                !
 ! A25   A(1,5,4)              111.4071         estimate D2E/DX2                !
 ! A26   A(1,5,10)             108.8192         estimate D2E/DX2                !
 ! A27   A(1,5,15)             110.0929         estimate D2E/DX2                !
 ! A28   A(4,5,10)             108.4672         estimate D2E/DX2                !
 ! A29   A(4,5,15)             107.3122         estimate D2E/DX2                !
 ! A30   A(10,5,15)            110.7325         estimate D2E/DX2                !
 ! A31   A(3,11,4)             115.7335         estimate D2E/DX2                !
 ! A32   A(3,12,20)            119.372          estimate D2E/DX2                !
 ! A33   A(2,13,32)            114.8289         estimate D2E/DX2                !
 ! A34   A(1,14,36)            114.8849         estimate D2E/DX2                !
 ! A35   A(5,15,40)            114.4516         estimate D2E/DX2                !
 ! A36   A(4,16,17)            106.9835         estimate D2E/DX2                !
 ! A37   A(4,16,18)            109.0769         estimate D2E/DX2                !
 ! A38   A(4,16,19)            114.9665         estimate D2E/DX2                !
 ! A39   A(17,16,18)           108.4574         estimate D2E/DX2                !
 ! A40   A(17,16,19)           106.3165         estimate D2E/DX2                !
 ! A41   A(18,16,19)           110.7651         estimate D2E/DX2                !
 ! A42   A(16,19,44)           114.9725         estimate D2E/DX2                !
 ! A43   A(12,20,21)           104.5916         estimate D2E/DX2                !
 ! A44   A(12,20,22)           108.876          estimate D2E/DX2                !
 ! A45   A(12,20,23)           103.7563         estimate D2E/DX2                !
 ! A46   A(21,20,22)           121.3997         estimate D2E/DX2                !
 ! A47   A(21,20,23)           108.4269         estimate D2E/DX2                !
 ! A48   A(22,20,23)           108.3906         estimate D2E/DX2                !
 ! A49   A(20,23,24)           118.8842         estimate D2E/DX2                !
 ! A50   A(20,23,25)           119.1265         estimate D2E/DX2                !
 ! A51   A(24,23,25)           121.9891         estimate D2E/DX2                !
 ! A52   A(23,24,26)           118.5603         estimate D2E/DX2                !
 ! A53   A(23,24,27)           120.3752         estimate D2E/DX2                !
 ! A54   A(26,24,27)           121.063          estimate D2E/DX2                !
 ! A55   A(23,25,28)           118.5048         estimate D2E/DX2                !
 ! A56   A(23,25,29)           120.6643         estimate D2E/DX2                !
 ! A57   A(28,25,29)           120.8305         estimate D2E/DX2                !
 ! A58   A(24,26,30)           120.5565         estimate D2E/DX2                !
 ! A59   A(24,26,48)           119.5799         estimate D2E/DX2                !
 ! A60   A(30,26,48)           119.812          estimate D2E/DX2                !
 ! A61   A(25,28,30)           120.6334         estimate D2E/DX2                !
 ! A62   A(25,28,52)           119.4942         estimate D2E/DX2                !
 ! A63   A(30,28,52)           119.8129         estimate D2E/DX2                !
 ! A64   A(26,30,28)           119.7507         estimate D2E/DX2                !
 ! A65   A(26,30,31)           120.1371         estimate D2E/DX2                !
 ! A66   A(28,30,31)           120.1119         estimate D2E/DX2                !
 ! A67   A(13,32,33)           112.1765         estimate D2E/DX2                !
 ! A68   A(13,32,34)           111.2361         estimate D2E/DX2                !
 ! A69   A(13,32,35)           106.5238         estimate D2E/DX2                !
 ! A70   A(33,32,34)           109.0203         estimate D2E/DX2                !
 ! A71   A(33,32,35)           108.6025         estimate D2E/DX2                !
 ! A72   A(34,32,35)           109.1889         estimate D2E/DX2                !
 ! A73   A(14,36,37)           106.466          estimate D2E/DX2                !
 ! A74   A(14,36,38)           111.1223         estimate D2E/DX2                !
 ! A75   A(14,36,39)           111.6554         estimate D2E/DX2                !
 ! A76   A(37,36,38)           108.8846         estimate D2E/DX2                !
 ! A77   A(37,36,39)           109.4611         estimate D2E/DX2                !
 ! A78   A(38,36,39)           109.1771         estimate D2E/DX2                !
 ! A79   A(15,40,41)           106.5422         estimate D2E/DX2                !
 ! A80   A(15,40,42)           111.3128         estimate D2E/DX2                !
 ! A81   A(15,40,43)           111.1422         estimate D2E/DX2                !
 ! A82   A(41,40,42)           109.3904         estimate D2E/DX2                !
 ! A83   A(41,40,43)           109.0516         estimate D2E/DX2                !
 ! A84   A(42,40,43)           109.3327         estimate D2E/DX2                !
 ! A85   A(19,44,45)           106.6168         estimate D2E/DX2                !
 ! A86   A(19,44,46)           111.0007         estimate D2E/DX2                !
 ! A87   A(19,44,47)           112.1759         estimate D2E/DX2                !
 ! A88   A(45,44,46)           109.0262         estimate D2E/DX2                !
 ! A89   A(45,44,47)           109.2967         estimate D2E/DX2                !
 ! A90   A(46,44,47)           108.6607         estimate D2E/DX2                !
 ! A91   A(26,48,49)           111.5345         estimate D2E/DX2                !
 ! A92   A(26,48,50)           111.2454         estimate D2E/DX2                !
 ! A93   A(26,48,51)           111.546          estimate D2E/DX2                !
 ! A94   A(49,48,50)           107.2274         estimate D2E/DX2                !
 ! A95   A(49,48,51)           107.8485         estimate D2E/DX2                !
 ! A96   A(50,48,51)           107.213          estimate D2E/DX2                !
 ! A97   A(28,52,53)           111.049          estimate D2E/DX2                !
 ! A98   A(28,52,54)           111.7781         estimate D2E/DX2                !
 ! A99   A(28,52,55)           111.7402         estimate D2E/DX2                !
 ! A100  A(53,52,54)           106.9623         estimate D2E/DX2                !
 ! A101  A(53,52,55)           107.0567         estimate D2E/DX2                !
 ! A102  A(54,52,55)           108.0041         estimate D2E/DX2                !
 ! D1    D(5,1,2,3)            -49.4272         estimate D2E/DX2                !
 ! D2    D(5,1,2,7)             66.1106         estimate D2E/DX2                !
 ! D3    D(5,1,2,13)          -173.9941         estimate D2E/DX2                !
 ! D4    D(8,1,2,3)             69.7538         estimate D2E/DX2                !
 ! D5    D(8,1,2,7)           -174.7085         estimate D2E/DX2                !
 ! D6    D(8,1,2,13)           -54.8132         estimate D2E/DX2                !
 ! D7    D(14,1,2,3)          -168.5022         estimate D2E/DX2                !
 ! D8    D(14,1,2,7)           -52.9645         estimate D2E/DX2                !
 ! D9    D(14,1,2,13)           66.9308         estimate D2E/DX2                !
 ! D10   D(2,1,5,4)             51.4546         estimate D2E/DX2                !
 ! D11   D(2,1,5,10)           -68.0872         estimate D2E/DX2                !
 ! D12   D(2,1,5,15)           170.3855         estimate D2E/DX2                !
 ! D13   D(8,1,5,4)            -68.1208         estimate D2E/DX2                !
 ! D14   D(8,1,5,10)           172.3374         estimate D2E/DX2                !
 ! D15   D(8,1,5,15)            50.8101         estimate D2E/DX2                !
 ! D16   D(14,1,5,4)           172.2679         estimate D2E/DX2                !
 ! D17   D(14,1,5,10)           52.7262         estimate D2E/DX2                !
 ! D18   D(14,1,5,15)          -68.8011         estimate D2E/DX2                !
 ! D19   D(2,1,14,36)          -98.1811         estimate D2E/DX2                !
 ! D20   D(5,1,14,36)          141.2494         estimate D2E/DX2                !
 ! D21   D(8,1,14,36)           22.837          estimate D2E/DX2                !
 ! D22   D(1,2,3,6)            171.3585         estimate D2E/DX2                !
 ! D23   D(1,2,3,11)            51.4538         estimate D2E/DX2                !
 ! D24   D(1,2,3,12)           -70.9468         estimate D2E/DX2                !
 ! D25   D(7,2,3,6)             54.5491         estimate D2E/DX2                !
 ! D26   D(7,2,3,11)           -65.3556         estimate D2E/DX2                !
 ! D27   D(7,2,3,12)           172.2438         estimate D2E/DX2                !
 ! D28   D(13,2,3,6)           -66.1676         estimate D2E/DX2                !
 ! D29   D(13,2,3,11)          173.9277         estimate D2E/DX2                !
 ! D30   D(13,2,3,12)           51.5271         estimate D2E/DX2                !
 ! D31   D(1,2,13,32)         -161.5339         estimate D2E/DX2                !
 ! D32   D(3,2,13,32)           74.6904         estimate D2E/DX2                !
 ! D33   D(7,2,13,32)          -43.2861         estimate D2E/DX2                !
 ! D34   D(2,3,11,4)           -55.8509         estimate D2E/DX2                !
 ! D35   D(6,3,11,4)          -178.7816         estimate D2E/DX2                !
 ! D36   D(12,3,11,4)           63.7184         estimate D2E/DX2                !
 ! D37   D(2,3,12,20)         -150.1039         estimate D2E/DX2                !
 ! D38   D(6,3,12,20)          -30.0006         estimate D2E/DX2                !
 ! D39   D(11,3,12,20)          86.4802         estimate D2E/DX2                !
 ! D40   D(9,4,5,1)             66.203          estimate D2E/DX2                !
 ! D41   D(9,4,5,10)          -174.0465         estimate D2E/DX2                !
 ! D42   D(9,4,5,15)           -54.3748         estimate D2E/DX2                !
 ! D43   D(11,4,5,1)           -53.4549         estimate D2E/DX2                !
 ! D44   D(11,4,5,10)           66.2955         estimate D2E/DX2                !
 ! D45   D(11,4,5,15)         -174.0328         estimate D2E/DX2                !
 ! D46   D(16,4,5,1)          -174.7716         estimate D2E/DX2                !
 ! D47   D(16,4,5,10)          -55.0212         estimate D2E/DX2                !
 ! D48   D(16,4,5,15)           64.6505         estimate D2E/DX2                !
 ! D49   D(5,4,11,3)            56.669          estimate D2E/DX2                !
 ! D50   D(9,4,11,3)           -62.9225         estimate D2E/DX2                !
 ! D51   D(16,4,11,3)         -179.3496         estimate D2E/DX2                !
 ! D52   D(5,4,16,17)          -67.4734         estimate D2E/DX2                !
 ! D53   D(5,4,16,18)          175.4041         estimate D2E/DX2                !
 ! D54   D(5,4,16,19)           50.3168         estimate D2E/DX2                !
 ! D55   D(9,4,16,17)           52.3464         estimate D2E/DX2                !
 ! D56   D(9,4,16,18)          -64.7762         estimate D2E/DX2                !
 ! D57   D(9,4,16,19)          170.1365         estimate D2E/DX2                !
 ! D58   D(11,4,16,17)         169.7308         estimate D2E/DX2                !
 ! D59   D(11,4,16,18)          52.6083         estimate D2E/DX2                !
 ! D60   D(11,4,16,19)         -72.4791         estimate D2E/DX2                !
 ! D61   D(1,5,15,40)          106.1162         estimate D2E/DX2                !
 ! D62   D(4,5,15,40)         -132.477          estimate D2E/DX2                !
 ! D63   D(10,5,15,40)         -14.264          estimate D2E/DX2                !
 ! D64   D(3,12,20,21)         158.9155         estimate D2E/DX2                !
 ! D65   D(3,12,20,22)          27.7699         estimate D2E/DX2                !
 ! D66   D(3,12,20,23)         -87.5059         estimate D2E/DX2                !
 ! D67   D(2,13,32,33)         -69.7703         estimate D2E/DX2                !
 ! D68   D(2,13,32,34)          52.6398         estimate D2E/DX2                !
 ! D69   D(2,13,32,35)         171.5281         estimate D2E/DX2                !
 ! D70   D(1,14,36,37)        -177.9173         estimate D2E/DX2                !
 ! D71   D(1,14,36,38)         -59.493          estimate D2E/DX2                !
 ! D72   D(1,14,36,39)          62.6663         estimate D2E/DX2                !
 ! D73   D(5,15,40,41)         179.4369         estimate D2E/DX2                !
 ! D74   D(5,15,40,42)         -61.3775         estimate D2E/DX2                !
 ! D75   D(5,15,40,43)          60.7548         estimate D2E/DX2                !
 ! D76   D(4,16,19,44)          84.6102         estimate D2E/DX2                !
 ! D77   D(17,16,19,44)       -157.2242         estimate D2E/DX2                !
 ! D78   D(18,16,19,44)        -39.5917         estimate D2E/DX2                !
 ! D79   D(16,19,44,45)        168.4327         estimate D2E/DX2                !
 ! D80   D(16,19,44,46)         49.8142         estimate D2E/DX2                !
 ! D81   D(16,19,44,47)        -71.9602         estimate D2E/DX2                !
 ! D82   D(12,20,23,24)        -91.3984         estimate D2E/DX2                !
 ! D83   D(12,20,23,25)         88.4932         estimate D2E/DX2                !
 ! D84   D(21,20,23,24)         19.3921         estimate D2E/DX2                !
 ! D85   D(21,20,23,25)       -160.7163         estimate D2E/DX2                !
 ! D86   D(22,20,23,24)        152.9819         estimate D2E/DX2                !
 ! D87   D(22,20,23,25)        -27.1265         estimate D2E/DX2                !
 ! D88   D(20,23,24,26)        179.6952         estimate D2E/DX2                !
 ! D89   D(20,23,24,27)         -0.7546         estimate D2E/DX2                !
 ! D90   D(25,23,24,26)         -0.1932         estimate D2E/DX2                !
 ! D91   D(25,23,24,27)        179.357          estimate D2E/DX2                !
 ! D92   D(20,23,25,28)       -179.1548         estimate D2E/DX2                !
 ! D93   D(20,23,25,29)          1.0621         estimate D2E/DX2                !
 ! D94   D(24,23,25,28)          0.7333         estimate D2E/DX2                !
 ! D95   D(24,23,25,29)       -179.0498         estimate D2E/DX2                !
 ! D96   D(23,24,26,30)         -0.4069         estimate D2E/DX2                !
 ! D97   D(23,24,26,48)        176.9751         estimate D2E/DX2                !
 ! D98   D(27,24,26,30)       -179.9539         estimate D2E/DX2                !
 ! D99   D(27,24,26,48)         -2.5718         estimate D2E/DX2                !
 ! D100  D(23,25,28,30)         -0.6831         estimate D2E/DX2                !
 ! D101  D(23,25,28,52)        176.5079         estimate D2E/DX2                !
 ! D102  D(29,25,28,30)        179.0997         estimate D2E/DX2                !
 ! D103  D(29,25,28,52)         -3.7093         estimate D2E/DX2                !
 ! D104  D(24,26,30,28)          0.4509         estimate D2E/DX2                !
 ! D105  D(24,26,30,31)       -179.7386         estimate D2E/DX2                !
 ! D106  D(48,26,30,28)       -176.9251         estimate D2E/DX2                !
 ! D107  D(48,26,30,31)          2.8854         estimate D2E/DX2                !
 ! D108  D(24,26,48,49)         31.376          estimate D2E/DX2                !
 ! D109  D(24,26,48,50)        -88.2952         estimate D2E/DX2                !
 ! D110  D(24,26,48,51)        152.044          estimate D2E/DX2                !
 ! D111  D(30,26,48,49)       -151.2222         estimate D2E/DX2                !
 ! D112  D(30,26,48,50)         89.1066         estimate D2E/DX2                !
 ! D113  D(30,26,48,51)        -30.5542         estimate D2E/DX2                !
 ! D114  D(25,28,30,26)          0.1058         estimate D2E/DX2                !
 ! D115  D(25,28,30,31)       -179.7047         estimate D2E/DX2                !
 ! D116  D(52,28,30,26)       -177.0763         estimate D2E/DX2                !
 ! D117  D(52,28,30,31)          3.1132         estimate D2E/DX2                !
 ! D118  D(25,28,52,53)        -88.9257         estimate D2E/DX2                !
 ! D119  D(25,28,52,54)        151.7086         estimate D2E/DX2                !
 ! D120  D(25,28,52,55)         30.5343         estimate D2E/DX2                !
 ! D121  D(30,28,52,53)         88.2886         estimate D2E/DX2                !
 ! D122  D(30,28,52,54)        -31.0771         estimate D2E/DX2                !
 ! D123  D(30,28,52,55)       -152.2513         estimate D2E/DX2                !
 --------------------------------------------------------------------------------
 Trust Radius=3.00D-01 FncErr=1.00D-07 GrdErr=1.00D-06 EigMax=2.50D+02 EigMin=1.00D-04
 Number of steps in this run=    291 maximum allowed number of steps=    330.
 GradGradGradGradGradGradGradGradGradGradGradGradGradGradGradGradGradGrad

 Leave Link  103 at Wed Jun  5 16:25:29 2019, MaxMem=  6442450944 cpu:               3.4 elap:               0.2
 (Enter /home/ekwan/sw/g16/l202.exe)
 Stoichiometry    C18H22F6O8S
 Framework group  C1[X(C18H22F6O8S)]
 Deg. of freedom   159
 Full point group                 C1      NOp   1
 Largest Abelian subgroup         C1      NOp   1
 Largest concise Abelian subgroup C1      NOp   1
                         Standard orientation:                         
 ---------------------------------------------------------------------
 Center     Atomic      Atomic             Coordinates (Angstroms)
 Number     Number       Type             X           Y           Z
 ---------------------------------------------------------------------
      1          6           0        3.544782   -0.196967    0.728402
      2          6           0        3.364699   -0.509745   -0.767253
      3          6           0        1.878331   -0.409452   -1.185045
      4          6           0        1.359235    1.096507    0.606103
      5          6           0        2.821197    1.111209    1.089215
      6          1           0        1.757141   -0.479611   -2.267533
      7          1           0        3.891184    0.271777   -1.341893
      8          1           0        3.109597   -1.013615    1.323957
      9          1           0        0.807721    0.328186    1.168843
     10          1           0        3.340078    1.949069    0.602990
     11          8           0        1.288610    0.785617   -0.802036
     12          8           0        1.202537   -1.553892   -0.578506
     13          8           0        3.916832   -1.775459   -1.037428
     14          8           0        4.916790   -0.032523    1.042340
     15          8           0        2.798837    1.283342    2.496384
     16          6           0        0.646198    2.433866    0.835957
     17          1           0        0.546666    2.561309    1.919167
     18          1           0       -0.361756    2.384216    0.396885
     19          8           0        1.342872    3.570380    0.364624
     20         16           0       -0.095299   -2.199676   -1.319620
     21          8           0       -0.192277   -3.545376   -0.781153
     22          8           0        0.013491   -1.961336   -2.754376
     23          6           0       -1.472324   -1.234559   -0.687579
     24          6           0       -2.139957   -1.680041    0.453999
     25          6           0       -1.841139   -0.062138   -1.349889
     26          6           0       -3.206577   -0.920266    0.943802
     27          1           0       -1.837806   -2.600881    0.942111
     28          6           0       -2.902201    0.687680   -0.836944
     29          1           0       -1.316975    0.256095   -2.244415
     30          6           0       -3.587395    0.263651    0.306207
     31          1           0       -4.413587    0.850279    0.694682
     32          6           0        4.196156   -2.024327   -2.408301
     33          1           0        3.279306   -2.135363   -3.005214
     34          1           0        4.811358   -1.221481   -2.841876
     35          1           0        4.753139   -2.964297   -2.446481
     36          6           0        5.544235   -1.179157    1.599888
     37          1           0        6.576397   -0.890860    1.821862
     38          1           0        5.051074   -1.485939    2.534939
     39          1           0        5.543140   -2.022150    0.898724
     40          6           0        3.691513    2.277427    2.981829
     41          1           0        3.562072    2.308784    4.068117
     42          1           0        4.733492    2.027080    2.746205
     43          1           0        3.450703    3.265680    2.562827
     44          6           0        1.146394    3.866591   -1.011152
     45          1           0        1.563354    4.864562   -1.179113
     46          1           0        0.074764    3.878301   -1.263087
     47          1           0        1.653244    3.146855   -1.666286
     48          6           0       -3.991136   -1.417169    2.139969
     49          9           0       -3.216573   -2.130016    2.976781
     50          9           0       -5.007793   -2.215495    1.759651
     51          9           0       -4.524505   -0.398877    2.838557
     52          6           0       -3.269616    2.002474   -1.489974
     53          9           0       -2.571349    3.026614   -0.947146
     54          9           0       -4.572593    2.289910   -1.333251
     55          9           0       -3.001122    1.996453   -2.806335
 ---------------------------------------------------------------------
 Rotational constants (GHZ):           0.1500455           0.0801680           0.0738678
 Leave Link  202 at Wed Jun  5 16:25:30 2019, MaxMem=  6442450944 cpu:               5.4 elap:               0.2
 (Enter /home/ekwan/sw/g16/l301.exe)
 Standard basis: 6-31G(d) (6D, 7F)
 Ernie: Thresh=  0.10000D-02 Tol=  0.10000D-05 Strict=F.
 There are   543 symmetry adapted cartesian basis functions of A   symmetry.
 There are   543 symmetry adapted basis functions of A   symmetry.
   543 basis functions,  1036 primitive gaussians,   543 cartesian basis functions
   132 alpha electrons      132 beta electrons
       nuclear repulsion energy      4266.4321264385 Hartrees.
 IExCor= 1412 DFT=T Ex+Corr=B98 ExCW=0 ScaHFX=  0.219800
 ScaDFX=  1.000000  1.000000  1.000000  1.000000 ScalE2=  1.000000  1.000000
 IRadAn=      5 IRanWt=     -1 IRanGd=            0 ICorTp=0 IEmpDi=  4
 NAtoms=   55 NActive=   55 NUniq=   55 SFac= 1.00D+00 NAtFMM=   60 NAOKFM=F Big=F
 Integral buffers will be    131072 words long.
 Raffenetti 2 integral format.
 Two-electron integral symmetry is turned on.
 ------------------------------------------------------------------------------
 Polarizable Continuum Model (PCM)
 =================================
 Model                : PCM.
 Atomic radii         : UFF (Universal Force Field).
 Polarization charges : Total charges.
 Charge compensation  : None.
 Solution method      : On-the-fly selection.
 Cavity type          : Scaled VdW (van der Waals Surface) (Alpha=1.100).
 Cavity algorithm     : GePol (No added spheres)
                        Default sphere list used, NSphG=   55.
                        Lebedev-Laikov grids with approx.  5.0 points / Ang**2.
                        Smoothing algorithm: York/Karplus (Gamma=1.0000).
                        Polarization charges: spherical gaussians, with
                                              point-specific exponents (IZeta= 3).
                        Self-potential: point-specific (ISelfS= 7).
                        Self-field    : sphere-specific E.n sum rule (ISelfD= 2).
 1st derivatives      : Analytical E(r).r(x)/FMM algorithm (CHGder, D1EAlg=3).
                        Cavity 1st derivative terms included.
 Solvent              : TetraHydroFuran, Eps=   7.425700 Eps(inf)=   1.974025
 ------------------------------------------------------------------------------
 GePol: Number of generator spheres                  =      55
 GePol: Total number of spheres                      =      55
 GePol: Number of exposed spheres                    =      55 (100.00%)
 GePol: Number of points                             =    4015
 GePol: Average weight of points                     =       0.13
 GePol: Minimum weight of points                     =   0.20D-10
 GePol: Maximum weight of points                     =    0.20577
 GePol: Number of points with low weight             =     266
 GePol: Fraction of low-weight points (<1% of avg)   =       6.63%
 GePol: Cavity surface area                          =    507.350 Ang**2
 GePol: Cavity volume                                =    582.319 Ang**3
 Leave Link  301 at Wed Jun  5 16:25:30 2019, MaxMem=  6442450944 cpu:               7.0 elap:               0.3
 (Enter /home/ekwan/sw/g16/l302.exe)
 NPDir=0 NMtPBC=     1 NCelOv=     1 NCel=       1 NClECP=     1 NCelD=      1
         NCelK=      1 NCelE2=     1 NClLst=     1 CellRange=     0.0.
 One-electron integrals computed using PRISM.
 One-electron integral symmetry used in STVInt
 NBasis=   543 RedAO= T EigKep=  4.26D-04  NBF=   543
 NBsUse=   543 1.00D-06 EigRej= -1.00D+00 NBFU=   543
 Precomputing XC quadrature grid using
 IXCGrd= 4 IRadAn=           5 IRanWt=          -1 IRanGd=           0 AccXCQ= 0.00D+00.
 Generated NRdTot=       0 NPtTot=           0 NUsed=           0 NTot=          32
 NSgBfM=   531   530   530   530   531 MxSgAt=    55 MxSgA2=    55.
 Leave Link  302 at Wed Jun  5 16:25:38 2019, MaxMem=  6442450944 cpu:             215.2 elap:               8.4
 (Enter /home/ekwan/sw/g16/l303.exe)
 DipDrv:  MaxL=1.
 Leave Link  303 at Wed Jun  5 16:25:39 2019, MaxMem=  6442450944 cpu:              12.4 elap:               0.6
 (Enter /home/ekwan/sw/g16/l401.exe)
 ExpMin= 1.17D-01 ExpMax= 2.19D+04 ExpMxC= 3.30D+03 IAcc=3 IRadAn=         5 AccDes= 0.00D+00
 Harris functional with IExCor= 1412 and IRadAn=       5 diagonalized for initial guess.
 HarFok:  IExCor= 1412 AccDes= 0.00D+00 IRadAn=         5 IDoV= 1 UseB2=F ITyADJ=14
 ICtDFT=  3500011 ScaDFX=  1.000000  1.000000  1.000000  1.000000
 FoFCou: FMM=F IPFlag=           0 FMFlag=      100000 FMFlg1=           0
         NFxFlg=           0 DoJE=T BraDBF=F KetDBF=T FulRan=T
         wScrn=  0.000000 ICntrl=       500 IOpCl=  0 I1Cent=   200000004 NGrid=           0
         NMat0=    1 NMatS0=      1 NMatT0=    0 NMatD0=    1 NMtDS0=    0 NMtDT0=    0
 Petite list used in FoFCou.
 Harris En= -2242.55830875952    
 JPrj=0 DoOrth=F DoCkMO=F.
 Leave Link  401 at Wed Jun  5 16:25:49 2019, MaxMem=  6442450944 cpu:             268.1 elap:              10.2
 (Enter /home/ekwan/sw/g16/l502.exe)
 Integral symmetry usage will be decided dynamically.
 Closed shell SCF:
 Using DIIS extrapolation, IDIIS=  1040.
 NGot=  6442450944 LenX=  6441838015 LenY=  6441542623
 Requested convergence on RMS density matrix=1.00D-08 within 128 cycles.
 Requested convergence on MAX density matrix=1.00D-06.
 Requested convergence on             energy=1.00D-06.
 No special actions if energy rises.
 Fock matrices will be formed incrementally for  20 cycles.

 Cycle   1  Pass 1  IDiag  1:
 FoFJK:  IHMeth= 1 ICntrl=       0 DoSepK=F KAlg= 0 I1Cent=           0 FoldK=F
 IRaf= 680000000 NMat=       1 IRICut=       1 DoRegI=T DoRafI=F ISym2E= 0 IDoP0=0 IntGTp=1.
 FoFCou: FMM=F IPFlag=           0 FMFlag=      100000 FMFlg1=           0
         NFxFlg=           0 DoJE=F BraDBF=F KetDBF=F FulRan=T
         wScrn=  0.000000 ICntrl=         0 IOpCl=  0 I1Cent=           0 NGrid=           0
         NMat0=    1 NMatS0=      1 NMatT0=    0 NMatD0=    1 NMtDS0=    0 NMtDT0=    0
 Symmetry not used in FoFCou.
 Inv3:  Mode=1 IEnd=    48360675.
 Iteration    1 A*A^-1 deviation from unit magnitude is 4.66D-15 for   4006.
 Iteration    1 A*A^-1 deviation from orthogonality  is 2.67D-15 for   4011   2803.
 Iteration    1 A^-1*A deviation from unit magnitude is 4.66D-15 for   4006.
 Iteration    1 A^-1*A deviation from orthogonality  is 4.93D-15 for   3998   2580.
 E= -2296.59120986269    
 DIIS: error= 7.43D-02 at cycle   1 NSaved=   1.
 NSaved= 1 IEnMin= 1 EnMin= -2296.59120986269     IErMin= 1 ErrMin= 7.43D-02
 ErrMax= 7.43D-02  0.00D+00 EMaxC= 1.00D-01 BMatC= 2.08D+00 BMatP= 2.08D+00
 IDIUse=3 WtCom= 2.57D-01 WtEn= 7.43D-01
 Coeff-Com:  0.100D+01
 Coeff-En:   0.100D+01
 Coeff:      0.100D+01
 Gap=     0.286 Goal=   None    Shift=    0.000
 GapD=    0.286 DampG=1.000 DampE=0.500 DampFc=0.5000 IDamp=-1.
 Damping current iteration by 5.00D-01
 RMSDP=4.05D-03 MaxDP=5.67D-01              OVMax= 2.35D-01

 Cycle   2  Pass 1  IDiag  1:
 RMSU=  2.02D-03    CP:  9.95D-01
 E= -2296.90463645524     Delta-E=       -0.313426592554 Rises=F Damp=T
 DIIS: error= 3.85D-02 at cycle   2 NSaved=   2.
 NSaved= 2 IEnMin= 2 EnMin= -2296.90463645524     IErMin= 2 ErrMin= 3.85D-02
 ErrMax= 3.85D-02  0.00D+00 EMaxC= 1.00D-01 BMatC= 3.14D-01 BMatP= 2.08D+00
 IDIUse=3 WtCom= 6.15D-01 WtEn= 3.85D-01
 Coeff-Com: -0.159D+00 0.116D+01
 Coeff-En:   0.111D+00 0.889D+00
 Coeff:     -0.550D-01 0.105D+01
 Gap=     0.368 Goal=   None    Shift=    0.000
 RMSDP=1.26D-03 MaxDP=1.17D-01 DE=-3.13D-01 OVMax= 1.60D-01

 Cycle   3  Pass 1  IDiag  1:
 RMSU=  1.25D-03    CP:  9.98D-01  9.24D-01
 E= -2297.20755347010     Delta-E=       -0.302917014857 Rises=F Damp=F
 DIIS: error= 1.03D-02 at cycle   3 NSaved=   3.
 NSaved= 3 IEnMin= 3 EnMin= -2297.20755347010     IErMin= 3 ErrMin= 1.03D-02
 ErrMax= 1.03D-02  0.00D+00 EMaxC= 1.00D-01 BMatC= 1.76D-01 BMatP= 3.14D-01
 IDIUse=3 WtCom= 8.97D-01 WtEn= 1.03D-01
 Coeff-Com: -0.188D+00 0.567D+00 0.621D+00
 Coeff-En:   0.000D+00 0.000D+00 0.100D+01
 Coeff:     -0.169D+00 0.509D+00 0.660D+00
 Gap=     0.181 Goal=   None    Shift=    0.000
 RMSDP=1.02D-03 MaxDP=7.53D-02 DE=-3.03D-01 OVMax= 1.03D-01

 Cycle   4  Pass 1  IDiag  1:
 RMSU=  6.01D-04    CP:  9.97D-01  1.13D+00  4.32D-01
 E= -2297.30054353979     Delta-E=       -0.092990069694 Rises=F Damp=F
 DIIS: error= 6.21D-03 at cycle   4 NSaved=   4.
 NSaved= 4 IEnMin= 4 EnMin= -2297.30054353979     IErMin= 4 ErrMin= 6.21D-03
 ErrMax= 6.21D-03  0.00D+00 EMaxC= 1.00D-01 BMatC= 5.71D-02 BMatP= 1.76D-01
 IDIUse=3 WtCom= 9.38D-01 WtEn= 6.21D-02
 Coeff-Com: -0.933D-01 0.223D+00 0.420D+00 0.450D+00
 Coeff-En:   0.000D+00 0.000D+00 0.264D+00 0.736D+00
 Coeff:     -0.875D-01 0.210D+00 0.410D+00 0.468D+00
 Gap=     0.189 Goal=   None    Shift=    0.000
 RMSDP=4.76D-04 MaxDP=3.75D-02 DE=-9.30D-02 OVMax= 4.25D-02

 Cycle   5  Pass 1  IDiag  1:
 RMSU=  1.80D-04    CP:  9.96D-01  1.12D+00  6.34D-01  4.03D-01
 E= -2297.34253003845     Delta-E=       -0.041986498655 Rises=F Damp=F
 DIIS: error= 1.10D-03 at cycle   5 NSaved=   5.
 NSaved= 5 IEnMin= 5 EnMin= -2297.34253003845     IErMin= 5 ErrMin= 1.10D-03
 ErrMax= 1.10D-03  0.00D+00 EMaxC= 1.00D-01 BMatC= 2.39D-03 BMatP= 5.71D-02
 IDIUse=3 WtCom= 9.89D-01 WtEn= 1.10D-02
 Coeff-Com: -0.351D-01 0.765D-01 0.181D+00 0.265D+00 0.512D+00
 Coeff-En:   0.000D+00 0.000D+00 0.000D+00 0.000D+00 0.100D+01
 Coeff:     -0.347D-01 0.757D-01 0.179D+00 0.262D+00 0.517D+00
 Gap=     0.181 Goal=   None    Shift=    0.000
 RMSDP=9.80D-05 MaxDP=5.19D-03 DE=-4.20D-02 OVMax= 8.65D-03

 Cycle   6  Pass 1  IDiag  1:
 RMSU=  4.38D-05    CP:  9.96D-01  1.12D+00  6.28D-01  4.91D-01  6.20D-01
 E= -2297.34450520128     Delta-E=       -0.001975162832 Rises=F Damp=F
 DIIS: error= 1.85D-04 at cycle   6 NSaved=   6.
 NSaved= 6 IEnMin= 6 EnMin= -2297.34450520128     IErMin= 6 ErrMin= 1.85D-04
 ErrMax= 1.85D-04  0.00D+00 EMaxC= 1.00D-01 BMatC= 8.12D-05 BMatP= 2.39D-03
 IDIUse=3 WtCom= 9.98D-01 WtEn= 1.85D-03
 Coeff-Com: -0.825D-02 0.169D-01 0.459D-01 0.792D-01 0.229D+00 0.637D+00
 Coeff-En:   0.000D+00 0.000D+00 0.000D+00 0.000D+00 0.000D+00 0.100D+01
 Coeff:     -0.824D-02 0.169D-01 0.459D-01 0.790D-01 0.229D+00 0.638D+00
 Gap=     0.181 Goal=   None    Shift=    0.000
 RMSDP=2.29D-05 MaxDP=1.07D-03 DE=-1.98D-03 OVMax= 2.47D-03

 Cycle   7  Pass 1  IDiag  1:
 RMSU=  1.63D-05    CP:  9.96D-01  1.12D+00  6.30D-01  4.93D-01  6.53D-01
                    CP:  6.80D-01
 E= -2297.34456126188     Delta-E=       -0.000056060601 Rises=F Damp=F
 DIIS: error= 9.16D-05 at cycle   7 NSaved=   7.
 NSaved= 7 IEnMin= 7 EnMin= -2297.34456126188     IErMin= 7 ErrMin= 9.16D-05
 ErrMax= 9.16D-05  0.00D+00 EMaxC= 1.00D-01 BMatC= 1.47D-05 BMatP= 8.12D-05
 IDIUse=1 WtCom= 1.00D+00 WtEn= 0.00D+00
 Coeff-Com:  0.501D-03-0.146D-02-0.129D-02 0.439D-02 0.492D-01 0.348D+00
 Coeff-Com:  0.600D+00
 Coeff:      0.501D-03-0.146D-02-0.129D-02 0.439D-02 0.492D-01 0.348D+00
 Coeff:      0.600D+00
 Gap=     0.182 Goal=   None    Shift=    0.000
 RMSDP=7.74D-06 MaxDP=4.82D-04 DE=-5.61D-05 OVMax= 1.00D-03

 Cycle   8  Pass 1  IDiag  1:
 RMSU=  3.00D-06    CP:  9.96D-01  1.12D+00  6.29D-01  4.93D-01  6.60D-01
                    CP:  7.64D-01  6.44D-01
 E= -2297.34457437218     Delta-E=       -0.000013110305 Rises=F Damp=F
 DIIS: error= 2.53D-05 at cycle   8 NSaved=   8.
 NSaved= 8 IEnMin= 8 EnMin= -2297.34457437218     IErMin= 8 ErrMin= 2.53D-05
 ErrMax= 2.53D-05  0.00D+00 EMaxC= 1.00D-01 BMatC= 4.46D-07 BMatP= 1.47D-05
 IDIUse=1 WtCom= 1.00D+00 WtEn= 0.00D+00
 Coeff-Com:  0.581D-03-0.141D-02-0.244D-02-0.811D-03 0.157D-01 0.148D+00
 Coeff-Com:  0.285D+00 0.556D+00
 Coeff:      0.581D-03-0.141D-02-0.244D-02-0.811D-03 0.157D-01 0.148D+00
 Coeff:      0.285D+00 0.556D+00
 Gap=     0.182 Goal=   None    Shift=    0.000
 RMSDP=1.46D-06 MaxDP=9.38D-05 DE=-1.31D-05 OVMax= 1.28D-04

 Cycle   9  Pass 1  IDiag  1:
 RMSU=  1.24D-06    CP:  9.96D-01  1.12D+00  6.29D-01  4.93D-01  6.61D-01
                    CP:  7.67D-01  6.52D-01  7.75D-01
 E= -2297.34457465210     Delta-E=       -0.000000279917 Rises=F Damp=F
 DIIS: error= 9.63D-06 at cycle   9 NSaved=   9.
 NSaved= 9 IEnMin= 9 EnMin= -2297.34457465210     IErMin= 9 ErrMin= 9.63D-06
 ErrMax= 9.63D-06  0.00D+00 EMaxC= 1.00D-01 BMatC= 8.14D-08 BMatP= 4.46D-07
 IDIUse=1 WtCom= 1.00D+00 WtEn= 0.00D+00
 Coeff-Com:  0.228D-03-0.520D-03-0.110D-02-0.106D-02 0.130D-02 0.306D-01
 Coeff-Com:  0.688D-01 0.315D+00 0.586D+00
 Coeff:      0.228D-03-0.520D-03-0.110D-02-0.106D-02 0.130D-02 0.306D-01
 Coeff:      0.688D-01 0.315D+00 0.586D+00
 Gap=     0.182 Goal=   None    Shift=    0.000
 RMSDP=6.18D-07 MaxDP=4.81D-05 DE=-2.80D-07 OVMax= 6.73D-05

 Cycle  10  Pass 1  IDiag  1:
 RMSU=  3.42D-07    CP:  9.96D-01  1.12D+00  6.29D-01  4.93D-01  6.61D-01
                    CP:  7.68D-01  6.55D-01  8.51D-01  6.46D-01
 E= -2297.34457471093     Delta-E=       -0.000000058828 Rises=F Damp=F
 DIIS: error= 3.36D-06 at cycle  10 NSaved=  10.
 NSaved=10 IEnMin=10 EnMin= -2297.34457471093     IErMin=10 ErrMin= 3.36D-06
 ErrMax= 3.36D-06  0.00D+00 EMaxC= 1.00D-01 BMatC= 1.02D-08 BMatP= 8.14D-08
 IDIUse=1 WtCom= 1.00D+00 WtEn= 0.00D+00
 Coeff-Com:  0.864D-04-0.189D-03-0.443D-03-0.545D-03-0.418D-03 0.685D-02
 Coeff-Com:  0.192D-01 0.138D+00 0.340D+00 0.498D+00
 Coeff:      0.864D-04-0.189D-03-0.443D-03-0.545D-03-0.418D-03 0.685D-02
 Coeff:      0.192D-01 0.138D+00 0.340D+00 0.498D+00
 Gap=     0.182 Goal=   None    Shift=    0.000
 RMSDP=1.96D-07 MaxDP=1.56D-05 DE=-5.88D-08 OVMax= 2.22D-05

 Cycle  11  Pass 1  IDiag  1:
 RMSU=  1.12D-07    CP:  9.96D-01  1.12D+00  6.29D-01  4.93D-01  6.61D-01
                    CP:  7.68D-01  6.57D-01  8.49D-01  7.15D-01  6.22D-01
 E= -2297.34457471832     Delta-E=       -0.000000007388 Rises=F Damp=F
 DIIS: error= 8.37D-07 at cycle  11 NSaved=  11.
 NSaved=11 IEnMin=11 EnMin= -2297.34457471832     IErMin=11 ErrMin= 8.37D-07
 ErrMax= 8.37D-07  0.00D+00 EMaxC= 1.00D-01 BMatC= 6.37D-10 BMatP= 1.02D-08
 IDIUse=1 WtCom= 1.00D+00 WtEn= 0.00D+00
 Coeff-Com:  0.940D-05-0.174D-04-0.531D-04-0.110D-03-0.431D-03-0.148D-02
 Coeff-Com: -0.137D-02 0.150D-01 0.677D-01 0.232D+00 0.688D+00
 Coeff:      0.940D-05-0.174D-04-0.531D-04-0.110D-03-0.431D-03-0.148D-02
 Coeff:     -0.137D-02 0.150D-01 0.677D-01 0.232D+00 0.688D+00
 Gap=     0.182 Goal=   None    Shift=    0.000
 RMSDP=5.52D-08 MaxDP=3.74D-06 DE=-7.39D-09 OVMax= 6.18D-06

 Cycle  12  Pass 1  IDiag  1:
 RMSU=  3.50D-08    CP:  9.96D-01  1.12D+00  6.29D-01  4.93D-01  6.61D-01
                    CP:  7.68D-01  6.57D-01  8.55D-01  7.17D-01  6.91D-01
                    CP:  7.50D-01
 E= -2297.34457471875     Delta-E=       -0.000000000436 Rises=F Damp=F
 DIIS: error= 4.55D-07 at cycle  12 NSaved=  12.
 NSaved=12 IEnMin=12 EnMin= -2297.34457471875     IErMin=12 ErrMin= 4.55D-07
 ErrMax= 4.55D-07  0.00D+00 EMaxC= 1.00D-01 BMatC= 9.20D-11 BMatP= 6.37D-10
 IDIUse=1 WtCom= 1.00D+00 WtEn= 0.00D+00
 Coeff-Com: -0.178D-05 0.565D-05 0.649D-05-0.172D-04-0.221D-03-0.145D-02
 Coeff-Com: -0.238D-02-0.244D-02 0.119D-01 0.938D-01 0.389D+00 0.512D+00
 Coeff:     -0.178D-05 0.565D-05 0.649D-05-0.172D-04-0.221D-03-0.145D-02
 Coeff:     -0.238D-02-0.244D-02 0.119D-01 0.938D-01 0.389D+00 0.512D+00
 Gap=     0.182 Goal=   None    Shift=    0.000
 RMSDP=2.17D-08 MaxDP=1.17D-06 DE=-4.36D-10 OVMax= 3.09D-06

 Cycle  13  Pass 1  IDiag  1:
 RMSU=  1.33D-08    CP:  9.96D-01  1.12D+00  6.29D-01  4.93D-01  6.61D-01
                    CP:  7.68D-01  6.57D-01  8.56D-01  7.18D-01  6.98D-01
                    CP:  8.15D-01  5.92D-01
 E= -2297.34457471877     Delta-E=       -0.000000000013 Rises=F Damp=F
 DIIS: error= 1.41D-07 at cycle  13 NSaved=  13.
 NSaved=13 IEnMin=13 EnMin= -2297.34457471877     IErMin=13 ErrMin= 1.41D-07
 ErrMax= 1.41D-07  0.00D+00 EMaxC= 1.00D-01 BMatC= 8.41D-12 BMatP= 9.20D-11
 IDIUse=1 WtCom= 1.00D+00 WtEn= 0.00D+00
 Coeff-Com: -0.201D-05 0.478D-05 0.107D-04 0.798D-05-0.475D-04-0.498D-03
 Coeff-Com: -0.924D-03-0.329D-02-0.341D-02 0.146D-01 0.100D+00 0.264D+00
 Coeff-Com:  0.630D+00
 Coeff:     -0.201D-05 0.478D-05 0.107D-04 0.798D-05-0.475D-04-0.498D-03
 Coeff:     -0.924D-03-0.329D-02-0.341D-02 0.146D-01 0.100D+00 0.264D+00
 Coeff:      0.630D+00
 Gap=     0.182 Goal=   None    Shift=    0.000
 RMSDP=6.88D-09 MaxDP=4.53D-07 DE=-1.27D-11 OVMax= 1.07D-06

 Error on total polarization charges =  0.00890
 SCF Done:  E(RB98) =  -2297.34457472     A.U. after   13 cycles
            NFock= 13  Conv=0.69D-08     -V/T= 2.0072
 KE= 2.280985818524D+03 PE=-1.393983135547D+04 EE= 5.095068835791D+03
 Leave Link  502 at Wed Jun  5 16:30:40 2019, MaxMem=  6442450944 cpu:            7813.8 elap:             290.5
 (Enter /home/ekwan/sw/g16/l701.exe)
 ... and contract with generalized density number  0.
 Compute integral first derivatives.
 D1PCM: PCM CHGder 1st derivatives, ID1Alg=3 FixD1E=F DoIter=F DoCFld=F I1PDM=0.
 GePol: Maximum number of non-zero 1st derivatives   =     231
 Leave Link  701 at Wed Jun  5 16:30:51 2019, MaxMem=  6442450944 cpu:             302.8 elap:              11.3
 (Enter /home/ekwan/sw/g16/l702.exe)
 L702 exits ... SP integral derivatives will be done elsewhere.
 Leave Link  702 at Wed Jun  5 16:30:51 2019, MaxMem=  6442450944 cpu:               2.8 elap:               0.1
 (Enter /home/ekwan/sw/g16/l703.exe)
 Integral derivatives from FoFJK, PRISM(SPDF).
 Compute integral first derivatives, UseDBF=F ICtDFT=           0.
 Calling FoFJK, ICntrl=      2127 FMM=F ISym2X=0 I1Cent= 0 IOpClX= 0 NMat=1 NMatS=1 NMatT=0.
 FoFJK:  IHMeth= 1 ICntrl=    2127 DoSepK=F KAlg= 0 I1Cent=           0 FoldK=F
 IRaf=         0 NMat=       1 IRICut=       1 DoRegI=T DoRafI=F ISym2E= 0 IDoP0=0 IntGTp=1.
 FoFCou: FMM=F IPFlag=           0 FMFlag=      100000 FMFlg1=         800
         NFxFlg=           0 DoJE=F BraDBF=F KetDBF=F FulRan=T
         wScrn=  0.000000 ICntrl=      2127 IOpCl=  0 I1Cent=           0 NGrid=           0
         NMat0=    1 NMatS0=      1 NMatT0=    0 NMatD0=    1 NMtDS0=    0 NMtDT0=    0
 Symmetry not used in FoFCou.
 Leave Link  703 at Wed Jun  5 16:31:31 2019, MaxMem=  6442450944 cpu:             999.8 elap:              39.8
 (Enter /home/ekwan/sw/g16/l716.exe)
 Dipole        = 3.59386228D-01 1.15873488D+00-1.47990373D-01
 ***** Axes restored to original set *****
 -------------------------------------------------------------------
 Center     Atomic                   Forces (Hartrees/Bohr)
 Number     Number              X              Y              Z
 -------------------------------------------------------------------
      1        6          -0.000006525   -0.000001153   -0.000002588
      2        6          -0.000007633    0.000005017   -0.000003562
      3        6           0.000002841   -0.000010535    0.000007391
      4        6          -0.000000984    0.000005979    0.000010757
      5        6           0.000000024    0.000001869   -0.000001130
      6        1           0.000001080   -0.000000112   -0.000000956
      7        1          -0.000000200    0.000000727   -0.000000008
      8        1           0.000000552    0.000000559    0.000001372
      9        1          -0.000000973    0.000001190   -0.000000207
     10        1           0.000000940    0.000000980   -0.000000228
     11        8           0.000000598    0.000002062   -0.000006302
     12        8          -0.000012294    0.000006036   -0.000006714
     13        8           0.000004718   -0.000003482    0.000001461
     14        8           0.000005676    0.000004281    0.000004732
     15        8           0.000000652   -0.000002172   -0.000000080
     16        6          -0.000002283   -0.000007951   -0.000004565
     17        1           0.000001790    0.000000504    0.000000353
     18        1           0.000001999   -0.000000508    0.000000467
     19        8          -0.000002714    0.000005917    0.000000582
     20       16           0.000027670   -0.000001480    0.000004748
     21        8          -0.000005621    0.000002196   -0.000000163
     22        8          -0.000006658    0.000000392   -0.000000319
     23        6          -0.000000257   -0.000007119    0.000000511
     24        6           0.000003007    0.000000994   -0.000002417
     25        6          -0.000001617    0.000004838   -0.000001195
     26        6           0.000000894   -0.000000799   -0.000001990
     27        1          -0.000000604   -0.000002332    0.000002422
     28        6           0.000002706   -0.000004738   -0.000001006
     29        1           0.000001280   -0.000003504   -0.000001377
     30        6           0.000001028   -0.000000908    0.000001127
     31        1          -0.000001160   -0.000001616   -0.000000522
     32        6          -0.000002620    0.000000793    0.000001499
     33        1           0.000001080   -0.000000323    0.000001300
     34        1           0.000001478    0.000001042    0.000000006
     35        1           0.000002028    0.000000115    0.000001039
     36        6           0.000000612    0.000001424   -0.000002217
     37        1           0.000000494    0.000002777    0.000000828
     38        1           0.000000180    0.000001796    0.000000978
     39        1           0.000000773    0.000001675    0.000001664
     40        6          -0.000000626    0.000004311   -0.000000256
     41        1          -0.000001053    0.000001809   -0.000000430
     42        1          -0.000000535    0.000001440   -0.000000242
     43        1          -0.000001150    0.000001514   -0.000000743
     44        6           0.000002331   -0.000002613   -0.000002745
     45        1          -0.000001430   -0.000000225   -0.000000628
     46        1          -0.000003585   -0.000000008   -0.000001989
     47        1          -0.000001963    0.000000147   -0.000000300
     48        6          -0.000000665   -0.000002003    0.000007206
     49        9          -0.000002784    0.000001174   -0.000002145
     50        9           0.000002560    0.000000043    0.000002466
     51        9           0.000001442   -0.000004888   -0.000001951
     52        6          -0.000007243    0.000003108   -0.000009901
     53        9           0.000001316   -0.000001709    0.000001071
     54        9           0.000002542   -0.000003454   -0.000000774
     55        9          -0.000001113   -0.000003078    0.000005674
 -------------------------------------------------------------------
 Cartesian Forces:  Max     0.000027670 RMS     0.000003905
 Leave Link  716 at Wed Jun  5 16:31:31 2019, MaxMem=  6442450944 cpu:               4.3 elap:               0.2
 (Enter /home/ekwan/sw/g16/l103.exe)

 GradGradGradGradGradGradGradGradGradGradGradGradGradGradGradGradGradGrad
 Berny optimization.
 FormGI is forming the generalized inverse of G from B-inverse, IUseBI=4.
 Internal  Forces:  Max     0.000009438 RMS     0.000002068
 Search for a local minimum.
 Step number   1 out of a maximum of  291
 All quantities printed in internal units (Hartrees-Bohrs-Radians)
 RMS Force = .20679D-05 SwitMx=.10000D-02 MixMth= 2
 Mixed Optimization -- En-DIIS/RFO-DIIS
 Second derivative matrix not updated -- first step.
 ITU=  0
     Eigenvalues ---    0.00331   0.00418   0.00482   0.00522   0.00576
     Eigenvalues ---    0.00590   0.00886   0.01315   0.01407   0.01414
     Eigenvalues ---    0.01414   0.01415   0.01452   0.01456   0.01466
     Eigenvalues ---    0.01508   0.01518   0.01539   0.01598   0.02113
     Eigenvalues ---    0.02116   0.02123   0.02131   0.02135   0.02142
     Eigenvalues ---    0.02247   0.02816   0.03234   0.04308   0.04486
     Eigenvalues ---    0.04586   0.04743   0.04825   0.05174   0.05205
     Eigenvalues ---    0.05701   0.05987   0.06509   0.06927   0.06977
     Eigenvalues ---    0.07101   0.07772   0.09272   0.09982   0.10018
     Eigenvalues ---    0.10047   0.10074   0.10559   0.10571   0.10594
     Eigenvalues ---    0.10595   0.10675   0.10688   0.10752   0.10824
     Eigenvalues ---    0.10868   0.10908   0.11406   0.11775   0.11838
     Eigenvalues ---    0.14138   0.14940   0.15999   0.16000   0.16000
     Eigenvalues ---    0.16000   0.16000   0.16000   0.16000   0.16000
     Eigenvalues ---    0.16000   0.16000   0.16000   0.16000   0.16000
     Eigenvalues ---    0.16000   0.16000   0.16415   0.16815   0.17477
     Eigenvalues ---    0.18686   0.19711   0.19775   0.20794   0.22145
     Eigenvalues ---    0.23480   0.23483   0.23502   0.24968   0.24975
     Eigenvalues ---    0.25000   0.25000   0.25000   0.25000   0.25000
     Eigenvalues ---    0.25000   0.25000   0.25000   0.25000   0.25000
     Eigenvalues ---    0.25000   0.25000   0.25000   0.26401   0.26474
     Eigenvalues ---    0.27907   0.28030   0.28273   0.29157   0.30917
     Eigenvalues ---    0.31020   0.33275   0.33582   0.33600   0.33621
     Eigenvalues ---    0.33624   0.33631   0.33633   0.33672   0.33720
     Eigenvalues ---    0.33800   0.33980   0.33990   0.34074   0.34217
     Eigenvalues ---    0.34293   0.34307   0.34307   0.34438   0.34639
     Eigenvalues ---    0.35374   0.35382   0.35453   0.36848   0.37731
     Eigenvalues ---    0.42072   0.42137   0.42232   0.42306   0.42310
     Eigenvalues ---    0.42317   0.42788   0.42909   0.43389   0.44467
     Eigenvalues ---    0.45925   0.46008   0.46052   0.46142   0.46149
     Eigenvalues ---    0.46289   0.54350   0.55573   0.56066   0.56154
     Eigenvalues ---    0.56433   0.56433   0.92250   0.94756
 RFO step:  Lambda=-1.24068799D-08 EMin= 3.30737949D-03
 Linear search not attempted -- first point.
 Iteration  1 RMS(Cart)=  0.00035922 RMS(Int)=  0.00000002
 Iteration  2 RMS(Cart)=  0.00000006 RMS(Int)=  0.00000000
 ITry= 1 IFail=0 DXMaxC= 1.46D-03 DCOld= 1.00D+10 DXMaxT= 3.00D-01 DXLimC= 3.00D+00 Rises=F
 Variable       Old X    -DE/DX   Delta X   Delta X   Delta X     New X
                                 (Linear)    (Quad)   (Total)
    R1        2.90750   0.00000   0.00000   0.00001   0.00001   2.90751
    R2        2.90618   0.00000   0.00000  -0.00001  -0.00001   2.90617
    R3        2.07955   0.00000   0.00000   0.00000   0.00000   2.07955
    R4        2.67782   0.00001   0.00000   0.00002   0.00002   2.67783
    R5        2.92383   0.00000   0.00000  -0.00001  -0.00001   2.92382
    R6        2.08571   0.00000   0.00000   0.00000   0.00000   2.08571
    R7        2.65900   0.00000   0.00000   0.00001   0.00001   2.65901
    R8        2.06265   0.00000   0.00000   0.00000   0.00000   2.06265
    R9        2.62029   0.00000   0.00000   0.00001   0.00001   2.62030
   R10        2.76077  -0.00001   0.00000  -0.00002  -0.00002   2.76075
   R11        2.90978   0.00000   0.00000   0.00000   0.00000   2.90977
   R12        2.07970   0.00000   0.00000   0.00000   0.00000   2.07970
   R13        2.72835   0.00001   0.00000   0.00002   0.00002   2.72837
   R14        2.89676   0.00000   0.00000  -0.00002  -0.00002   2.89675
   R15        2.07669   0.00000   0.00000   0.00000   0.00000   2.07669
   R16        2.67932   0.00000   0.00000   0.00000   0.00000   2.67932
   R17        3.07664  -0.00001   0.00000  -0.00002  -0.00002   3.07662
   R18        2.68531   0.00000   0.00000   0.00000   0.00000   2.68530
   R19        2.68535   0.00000   0.00000   0.00000   0.00000   2.68535
   R20        2.68629   0.00000   0.00000   0.00000   0.00000   2.68630
   R21        2.06965   0.00000   0.00000   0.00000   0.00000   2.06966
   R22        2.07975   0.00000   0.00000  -0.00001  -0.00001   2.07974
   R23        2.67192   0.00000   0.00000   0.00001   0.00001   2.67193
   R24        2.68521   0.00000   0.00000   0.00000   0.00000   2.68521
   R25        2.74515   0.00000   0.00000   0.00000   0.00000   2.74515
   R26        2.75613   0.00000   0.00000   0.00000   0.00000   2.75613
   R27        3.39474   0.00000   0.00000  -0.00001  -0.00001   3.39473
   R28        2.63709   0.00000   0.00000   0.00000   0.00000   2.63709
   R29        2.63835   0.00000   0.00000   0.00001   0.00001   2.63836
   R30        2.64213   0.00000   0.00000   0.00000   0.00000   2.64213
   R31        2.05059   0.00000   0.00000   0.00001   0.00001   2.05059
   R32        2.63967   0.00000   0.00000   0.00000   0.00000   2.63966
   R33        2.04946   0.00000   0.00000   0.00000   0.00000   2.04946
   R34        2.64103   0.00000   0.00000   0.00000   0.00000   2.64103
   R35        2.86171   0.00000   0.00000   0.00002   0.00002   2.86173
   R36        2.64297   0.00000   0.00000   0.00001   0.00001   2.64298
   R37        2.85975   0.00000   0.00000   0.00001   0.00001   2.85976
   R38        2.05071   0.00000   0.00000   0.00000   0.00000   2.05071
   R39        2.07805   0.00000   0.00000   0.00000   0.00000   2.07805
   R40        2.07958   0.00000   0.00000   0.00000   0.00000   2.07958
   R41        2.06597   0.00000   0.00000   0.00000   0.00000   2.06598
   R42        2.06815   0.00000   0.00000   0.00000   0.00000   2.06815
   R43        2.08011   0.00000   0.00000   0.00000   0.00000   2.08011
   R44        2.07205   0.00000   0.00000   0.00000   0.00000   2.07205
   R45        2.06816   0.00000   0.00000   0.00000   0.00000   2.06816
   R46        2.07346   0.00000   0.00000   0.00000   0.00000   2.07346
   R47        2.07887   0.00000   0.00000   0.00000   0.00000   2.07887
   R48        2.06838   0.00000   0.00000   0.00000   0.00000   2.06838
   R49        2.08042   0.00000   0.00000   0.00001   0.00001   2.08042
   R50        2.07364   0.00000   0.00000   0.00000   0.00000   2.07364
   R51        2.54121   0.00000   0.00000  -0.00001  -0.00001   2.54120
   R52        2.54627   0.00000   0.00000  -0.00001  -0.00001   2.54626
   R53        2.54196   0.00000   0.00000  -0.00001  -0.00001   2.54196
   R54        2.55714   0.00000   0.00000   0.00000   0.00000   2.55715
   R55        2.53880   0.00000   0.00000  -0.00001  -0.00001   2.53880
   R56        2.53880  -0.00001   0.00000  -0.00001  -0.00001   2.53879
    A1        1.92402   0.00000   0.00000   0.00001   0.00001   1.92403
    A2        1.90598   0.00000   0.00000   0.00000   0.00000   1.90598
    A3        1.93080   0.00000   0.00000   0.00001   0.00001   1.93081
    A4        1.89465   0.00000   0.00000   0.00000   0.00000   1.89465
    A5        1.88059   0.00000   0.00000  -0.00002  -0.00002   1.88057
    A6        1.92742   0.00000   0.00000   0.00000   0.00000   1.92742
    A7        1.94095   0.00000   0.00000   0.00003   0.00003   1.94098
    A8        1.88214   0.00000   0.00000   0.00000   0.00000   1.88214
    A9        1.90032   0.00000   0.00000  -0.00002  -0.00002   1.90030
   A10        1.84602   0.00000   0.00000  -0.00001  -0.00001   1.84601
   A11        1.96430   0.00000   0.00000   0.00000   0.00000   1.96430
   A12        1.92815   0.00000   0.00000   0.00000   0.00000   1.92815
   A13        1.95012   0.00000   0.00000  -0.00003  -0.00003   1.95009
   A14        1.97127   0.00000   0.00000   0.00000   0.00000   1.97127
   A15        1.85615   0.00000   0.00000   0.00003   0.00003   1.85618
   A16        1.85680   0.00000   0.00000  -0.00001  -0.00001   1.85679
   A17        1.88602   0.00000   0.00000  -0.00002  -0.00002   1.88600
   A18        1.94308   0.00000   0.00000   0.00003   0.00003   1.94311
   A19        1.89868   0.00000   0.00000   0.00000   0.00000   1.89868
   A20        1.93318   0.00000   0.00000  -0.00001  -0.00001   1.93317
   A21        1.96738   0.00000   0.00000   0.00002   0.00002   1.96740
   A22        1.90061   0.00000   0.00000   0.00001   0.00001   1.90063
   A23        1.87476   0.00000   0.00000  -0.00001  -0.00001   1.87475
   A24        1.88741   0.00000   0.00000  -0.00001  -0.00001   1.88741
   A25        1.94442   0.00000   0.00000  -0.00001  -0.00001   1.94441
   A26        1.89925   0.00000   0.00000   0.00000   0.00000   1.89926
   A27        1.92148   0.00000   0.00000  -0.00001  -0.00001   1.92148
   A28        1.89311   0.00000   0.00000   0.00001   0.00001   1.89312
   A29        1.87295   0.00000   0.00000   0.00000   0.00000   1.87295
   A30        1.93265   0.00000   0.00000   0.00000   0.00000   1.93265
   A31        2.01993   0.00000   0.00000   0.00002   0.00002   2.01995
   A32        2.08343   0.00000   0.00000   0.00002   0.00002   2.08345
   A33        2.00414   0.00000   0.00000   0.00000   0.00000   2.00414
   A34        2.00512   0.00000   0.00000   0.00000   0.00000   2.00512
   A35        1.99756   0.00000   0.00000   0.00000   0.00000   1.99756
   A36        1.86721   0.00000   0.00000  -0.00001  -0.00001   1.86721
   A37        1.90375   0.00000   0.00000  -0.00001  -0.00001   1.90374
   A38        2.00654   0.00000   0.00000   0.00002   0.00002   2.00656
   A39        1.89294   0.00000   0.00000   0.00001   0.00001   1.89295
   A40        1.85557   0.00000   0.00000   0.00000   0.00000   1.85557
   A41        1.93322   0.00000   0.00000  -0.00001  -0.00001   1.93320
   A42        2.00665   0.00000   0.00000  -0.00001  -0.00001   2.00664
   A43        1.82547   0.00001   0.00000   0.00004   0.00004   1.82551
   A44        1.90024   0.00001   0.00000   0.00006   0.00006   1.90030
   A45        1.81089   0.00000   0.00000  -0.00001  -0.00001   1.81088
   A46        2.11883   0.00000   0.00000   0.00000   0.00000   2.11883
   A47        1.89241  -0.00001   0.00000  -0.00005  -0.00005   1.89236
   A48        1.89177  -0.00001   0.00000  -0.00004  -0.00004   1.89173
   A49        2.07492   0.00000   0.00000   0.00000   0.00000   2.07492
   A50        2.07915   0.00000   0.00000   0.00000   0.00000   2.07915
   A51        2.12911   0.00000   0.00000   0.00000   0.00000   2.12912
   A52        2.06927   0.00000   0.00000   0.00000   0.00000   2.06927
   A53        2.10094   0.00000   0.00000   0.00001   0.00001   2.10096
   A54        2.11295   0.00000   0.00000  -0.00001  -0.00001   2.11293
   A55        2.06830   0.00000   0.00000   0.00000   0.00000   2.06829
   A56        2.10599   0.00000   0.00000  -0.00001  -0.00001   2.10598
   A57        2.10889   0.00000   0.00000   0.00002   0.00002   2.10891
   A58        2.10411   0.00000   0.00000   0.00000   0.00000   2.10410
   A59        2.08706   0.00000   0.00000   0.00000   0.00000   2.08706
   A60        2.09111   0.00000   0.00000   0.00001   0.00001   2.09112
   A61        2.10545   0.00000   0.00000   0.00000   0.00000   2.10545
   A62        2.08557   0.00000   0.00000   0.00000   0.00000   2.08557
   A63        2.09113   0.00000   0.00000   0.00000   0.00000   2.09113
   A64        2.09004   0.00000   0.00000   0.00000   0.00000   2.09005
   A65        2.09679   0.00000   0.00000   0.00000   0.00000   2.09679
   A66        2.09635   0.00000   0.00000   0.00000   0.00000   2.09635
   A67        1.95785   0.00000   0.00000   0.00000   0.00000   1.95785
   A68        1.94144   0.00000   0.00000   0.00000   0.00000   1.94144
   A69        1.85919   0.00000   0.00000   0.00000   0.00000   1.85919
   A70        1.90276   0.00000   0.00000   0.00000   0.00000   1.90277
   A71        1.89547   0.00000   0.00000   0.00000   0.00000   1.89547
   A72        1.90571   0.00000   0.00000   0.00000   0.00000   1.90570
   A73        1.85818   0.00000   0.00000   0.00000   0.00000   1.85818
   A74        1.93945   0.00000   0.00000   0.00000   0.00000   1.93945
   A75        1.94875   0.00000   0.00000   0.00001   0.00001   1.94876
   A76        1.90040   0.00000   0.00000   0.00000   0.00000   1.90039
   A77        1.91046   0.00000   0.00000   0.00000   0.00000   1.91046
   A78        1.90550   0.00000   0.00000   0.00000   0.00000   1.90550
   A79        1.85951   0.00000   0.00000   0.00000   0.00000   1.85951
   A80        1.94277   0.00000   0.00000   0.00000   0.00000   1.94277
   A81        1.93980   0.00000   0.00000   0.00000   0.00000   1.93980
   A82        1.90922   0.00000   0.00000   0.00000   0.00000   1.90922
   A83        1.90331   0.00000   0.00000   0.00000   0.00000   1.90331
   A84        1.90822   0.00000   0.00000   0.00000   0.00000   1.90822
   A85        1.86081   0.00000   0.00000  -0.00001  -0.00001   1.86081
   A86        1.93733   0.00000   0.00000   0.00000   0.00000   1.93733
   A87        1.95784   0.00000   0.00000   0.00000   0.00000   1.95784
   A88        1.90287   0.00000   0.00000   0.00000   0.00000   1.90286
   A89        1.90759   0.00000   0.00000   0.00000   0.00000   1.90759
   A90        1.89649   0.00000   0.00000   0.00000   0.00000   1.89649
   A91        1.94664   0.00000   0.00000   0.00000   0.00000   1.94665
   A92        1.94160   0.00000   0.00000   0.00001   0.00001   1.94160
   A93        1.94684   0.00000   0.00000   0.00000   0.00000   1.94685
   A94        1.87147   0.00000   0.00000  -0.00001  -0.00001   1.87146
   A95        1.88231   0.00000   0.00000   0.00000   0.00000   1.88231
   A96        1.87122   0.00000   0.00000  -0.00001  -0.00001   1.87121
   A97        1.93817   0.00000   0.00000  -0.00002  -0.00002   1.93815
   A98        1.95090   0.00000   0.00000   0.00000   0.00000   1.95090
   A99        1.95023   0.00000   0.00000  -0.00001  -0.00001   1.95023
   A100       1.86684   0.00000   0.00000   0.00001   0.00001   1.86685
[...]
 010886,-0.00004314,0.00003027,-0.00001017,0.00001566,0.00000307,-0.000
 01481,-0.00000007,0.00000022,-0.00002542,0.00000039,-0.00015653,-0.000
 13995,-0.00008044,0.00000169,0.00001485,0.00001659,0.00004809,0.000006
 92,0.00000177,-0.00000646,0.00001028,0.00000353,-0.00084551,0.00009767
 ,0.00014806,0.00016870,0.00007480,-0.00003489,-0.00039096,-0.00030512,
 0.00038854,0.00027935,-0.00006469,-0.00006040,0.00114660,0.00219368,-0
 .00174037,-0.00011875,-0.00050091,0.00056541,-0.00071684,-0.00068908,0
 .00026592,-0.00040731,-0.00025828,0.00064709,-0.01287189,-0.03568207,0
 .54171423,0.00002734,-0.00014784,-0.00005953,0.00004224,0.00000122,-0.
 00006456,-0.00001910,-0.00067385,0.00000635,-0.00027189,-0.00048902,-0
 .00042955,0.00009812,0.00019574,0.00019593,-0.00001622,0.00003792,0.00
 000545,0.00002185,0.00000658,0.00000463,-0.00000664,0.00001469,-0.0000
 0744,-0.00000543,0.00004452,-0.00001283,0.00003517,-0.00001579,-0.0000
 0027,-0.00014696,0.00046281,0.00022950,0.00051871,0.00040747,0.0000139
 0,-0.00005910,0.00009807,0.00005914,-0.00014771,0.00011596,-0.00003404
 ,-0.00013478,0.00001684,-0.00008029,0.00188483,0.00058932,0.00047623,-
 0.00023207,0.00004517,-0.00015652,-0.00143740,0.00008584,-0.00045681,-
 0.00107251,-0.00029603,-0.00042631,-0.00090561,0.00001865,0.00023333,0
 .00021633,-0.00017843,-0.00003395,0.00020956,-0.00000350,-0.00010905,0
 .00079081,-0.00089774,0.00050727,0.00044070,-0.00012494,-0.00050499,-0
 .00096576,-0.00089495,0.00081730,-0.00025248,0.00034521,-0.00009057,-0
 .00000941,-0.00002912,-0.00002467,0.00778822,-0.00595730,-0.00377949,-
 0.00017994,-0.00017162,-0.00022596,0.00027212,0.00040873,0.00061398,-0
 .00005554,0.00016141,-0.00039793,0.00000281,-0.00000764,-0.00005047,0.
 00000118,-0.00000564,0.00001174,0.00000421,-0.00000123,0.00000596,-0.0
 0000621,0.00000746,0.00000647,0.00002166,-0.00007190,0.00004688,-0.000
 01274,0.00000910,-0.00000725,0.00000251,0.00000830,-0.00000922,-0.0000
 0469,0.00001632,-0.00000044,0.00008977,0.00005374,0.00006605,-0.000005
 29,-0.00000589,-0.00002176,-0.00002580,-0.00000525,-0.00000315,0.00000
 762,0.00001110,0.00000378,0.00140144,-0.00038149,0.00062188,-0.0003009
 1,-0.00005798,-0.00002741,-0.00117159,0.00023785,-0.00009543,-0.000234
 91,0.00002350,0.00003163,0.00001861,0.00006371,-0.00039617,0.00005291,
 -0.00006479,0.00014632,-0.00005960,-0.00005412,0.00007372,-0.00002747,
 0.00001196,0.00011889,-0.10760883,-0.06553856,-0.02604634,0.15936647,-
 0.00006272,-0.00012721,-0.00012521,-0.00014004,0.00012882,-0.00006956,
 -0.00043382,-0.00113165,0.00030946,-0.00026765,-0.00050882,-0.00049797
 ,0.00001963,0.00008292,0.00005447,-0.00003136,0.00005097,-0.00000633,0
 .00009198,0.00000825,0.00001313,-0.00000997,0.00002403,-0.00001649,-0.
 00001151,0.00005227,-0.00004127,0.00005690,-0.00000364,0.00000571,0.00
 024199,0.00071397,0.00034092,0.00168129,0.00068631,-0.00007360,0.00009
 182,0.00001749,-0.00001505,0.00003346,0.00007786,0.00004669,-0.0000140
 3,0.00011267,0.00007160,0.00094323,0.00009231,0.00050254,-0.00006459,0
 .00005814,-0.00007091,0.00064798,-0.00090013,0.00031706,-0.00053262,0.
 00030555,-0.00052164,-0.00356963,0.00156307,0.00139448,0.00084884,-0.0
 0108401,-0.00018455,0.00090078,-0.00036962,-0.00082130,0.00155969,-0.0
 0017489,0.00160993,0.00016008,-0.00114246,0.00035520,-0.00267835,-0.00
 047368,0.00218628,0.00158242,-0.00006039,0.00196188,-0.00020552,-0.000
 04993,-0.00016360,-0.02164837,-0.04294250,-0.01240123,-0.00075384,-0.0
 0049225,-0.00078466,0.00254505,-0.00186514,-0.00266028,-0.00092986,-0.
 00047878,-0.00061459,-0.00006796,-0.00000371,0.00004336,-0.00000319,0.
 00000371,0.00002041,0.00001693,0.00001619,-0.00000799,0.00000545,-0.00
 000443,-0.00000004,-0.00001622,-0.00000759,0.00000979,0.00000655,0.000
 00335,0.00000094,0.00000149,-0.00000430,-0.00000423,-0.00000828,0.0000
 0754,0.00000110,0.00000340,-0.00006378,0.00001742,0.00000440,0.0000023
 5,-0.00000168,-0.00000759,0.00000657,-0.00000209,0.00001147,0.00003008
 ,-0.00000597,0.00142787,-0.00028622,0.00083569,-0.00024666,-0.00002889
 ,-0.00003716,-0.00003600,0.00030206,-0.00048167,-0.00032162,0.00001593
 ,0.00001788,0.00188282,0.00068908,-0.00236352,-0.00012353,-0.00058322,
 0.00104021,-0.00077427,-0.00050381,0.00037781,-0.00051223,0.00020307,0
 .00079412,-0.06844424,-0.19892308,-0.04733445,0.11937958,0.24254495,0.
 00002023,-0.00009186,-0.00004274,0.00004417,-0.00001980,-0.00003839,0.
 00005031,-0.00022239,-0.00007862,-0.00015819,-0.00032031,-0.00032646,0
 .00006935,0.00013767,0.00012165,-0.00001554,0.00002928,0.00001187,-0.0
 0000552,0.00000098,0.00000203,-0.00000165,0.00000359,0.00000063,0.0000
 0059,0.00000714,0.00001037,0.00000828,-0.00001344,-0.00000115,-0.00012
 421,0.00020748,0.00020200,0.00001046,0.00012770,0.00008818,-0.00005063
 ,0.00005967,0.00006467,-0.00010411,0.00007126,-0.00001559,-0.00009482,
 0.00000457,-0.00003251,0.00117710,0.00055834,0.00034888,-0.00012313,0.
 00001063,-0.00007042,-0.00071191,-0.00010811,-0.00042316,-0.00058858,-
 0.00030179,0.00012163,0.00000696,-0.00020190,-0.00043302,-0.00000628,0
 .00007543,0.00007198,0.00001155,0.00000274,0.00016043,-0.00031930,0.00
 032979,-0.00055439,-0.00052485,0.00029020,0.00032217,0.00128751,0.0004
 2753,-0.00028532,-0.00008295,-0.00078383,0.00056381,-0.00000028,-0.000
 02041,0.00002326,-0.00057021,0.00447049,0.01080773,-0.00020836,0.00028
 613,-0.00001651,0.00016599,-0.00100055,-0.00029469,-0.00004985,-0.0000
 3569,-0.00006096,0.00000933,-0.00000496,-0.00005790,0.00000712,0.00000
 094,0.00000669,-0.00000394,-0.00000399,0.00000586,-0.00000360,0.000003
 95,0.00000646,0.00001580,-0.00004412,0.00002412,-0.00000946,0.00000558
 ,-0.00000545,0.00000026,0.00000471,-0.00000290,-0.00000278,0.00001138,
 -0.00000028,0.00006221,0.00004157,0.00003956,-0.00000119,-0.00000515,-
 0.00000960,-0.00001943,-0.00000229,-0.00000156,0.00000516,0.00000352,-
 0.00000106,0.00047918,-0.00001324,0.00004486,-0.00008573,-0.00003791,0
 .00002256,0.00025675,0.00005563,-0.00035108,-0.00011743,0.00002016,0.0
 0003545,0.00002819,-0.00019227,-0.00003906,0.00002085,-0.00002282,0.00
 008088,0.00003224,0.00005160,0.00001312,0.00000576,0.00006425,0.000023
 61,-0.02648792,-0.04548466,-0.08949902,0.06366449,0.09559662,0.1250881
 5,0.00009715,-0.00005640,0.00005849,0.00017705,-0.00013369,-0.00000828
 ,0.00032267,0.00013022,-0.00023555,0.00001151,-0.00005275,0.00009446,0
 .00010301,0.00009917,0.00016910,0.00001483,-0.00000850,0.00000619,-0.0
 0005043,0.00000418,-0.00000970,-0.00000043,-0.00000017,0.00000147,0.00
 000496,0.00001182,0.00001366,0.00000255,-0.00001076,-0.00000678,-0.000
 37446,-0.00002964,-0.00009140,-0.00079677,-0.00010602,0.00004938,-0.00
 015205,0.00012126,0.00007537,-0.00020369,0.00007457,-0.00009202,-0.000
 14063,-0.00006270,-0.00016768,0.00076579,0.00024821,0.00024524,-0.0000
 9617,-0.00000020,-0.00008520,-0.00001370,-0.00010910,0.00012306,-0.000
 44731,-0.00015304,-0.00018856,0.00194618,-0.00105988,-0.00094929,-0.00
 056931,0.00103324,0.00005572,-0.00048172,0.00032512,0.00056043,-0.0008
 2914,0.00068346,0.00129230,0.00001778,0.00019746,-0.00044595,0.0003764
 6,0.00397988,-0.00478960,0.00048336,0.00102907,-0.00055838,0.00008169,
 -0.00008633,-0.00011082,-0.02928717,0.01262690,0.00389387,0.00036686,-
 0.00067253,-0.00017484,-0.00141425,-0.00077458,0.00365533,0.00036845,0
 .00003190,-0.00202982,0.00006136,-0.00001082,-0.00009254,0.00000164,-0
 .00001560,-0.00000278,-0.00000431,-0.00001360,0.00001402,-0.00001508,0
 .00001551,0.00000653,0.00004513,-0.00008959,0.00005297,-0.00002027,0.0
 0000778,-0.00000930,0.00000239,0.00001463,-0.00001057,0.00000148,0.000
 01341,-0.00000010,0.00009651,0.00009617,0.00006127,-0.00000783,-0.0000
 0933,-0.00002428,-0.00002373,-0.00000954,-0.00000050,-0.00000240,-0.00
 000582,0.00000530,0.00064577,-0.00008235,0.00028596,-0.00014553,-0.000
 06047,-0.00001831,-0.00000690,0.00022827,-0.00015278,-0.00006593,0.000
 01381,-0.00000305,-0.00132289,-0.00026270,0.00115270,0.00015005,0.0002
 3587,-0.00043438,0.00058379,0.00032796,-0.00018285,0.00038452,-0.00016
 292,-0.00042038,-0.25447302,0.06454343,0.00735130,-0.06884405,-0.02555
 159,-0.01422115,0.38532388,-0.00006517,-0.00002966,-0.00007244,-0.0001
 3037,0.00010811,-0.00002801,-0.00031278,-0.00055777,0.00024220,-0.0001
 2440,-0.00018924,-0.00023211,-0.00003430,-0.00000243,-0.00004386,-0.00
 001736,0.00002095,-0.00000823,0.00006087,0.00000321,0.00000963,-0.0000
 0411,0.00001036,-0.00000862,-0.00000717,0.00001853,-0.00002748,0.00002
 180,0.00000383,0.00000536,0.00023351,0.00031330,0.00016397,0.00103621,
 0.00034065,-0.00005223,0.00009950,-0.00004046,-0.00004213,0.00009416,0
 .00000292,0.00005318,0.00004974,0.00006981,0.00009179,0.00014145,-0.00
 006725,0.00007827,-0.00000577,0.00002329,-0.00000108,0.00002834,-0.000
 16698,0.00005153,-0.00006558,0.00013736,-0.00010708,-0.00257270,0.0008
 5881,0.00098226,0.00074791,-0.00097719,-0.00006881,0.00060161,-0.00023
 381,-0.00064621,0.00048208,-0.00196852,-0.00105550,0.00067376,-0.00061
 250,0.00001757,-0.00016168,-0.00264359,0.00520728,0.00001978,-0.000120
 30,-0.00034232,0.00000129,0.00004173,0.00001704,0.03903206,-0.00697466
 ,-0.00181706,0.00010756,0.00054388,0.00016516,0.00098859,-0.00081193,-
 0.00004909,0.00077705,-0.00104634,0.00090991,-0.00005307,0.00000294,0.
 00006005,-0.00000377,0.00000602,0.00000968,0.00001026,0.00001272,-0.00
 000908,0.00000780,-0.00000762,-0.00000319,-0.00002460,0.00003157,-0.00
 001561,0.00001077,-0.00000159,0.00000421,-0.00000003,-0.00000737,0.000
 00185,-0.00000400,-0.00000243,0.00000052,-0.00003684,-0.00006230,-0.00
 001666,0.00000444,0.00000459,0.00000818,0.00000675,0.00000585,-0.00000
 064,0.00000512,0.00001409,-0.00000399,0.00022712,-0.00006865,0.0001387
 2,-0.00002267,0.00001283,-0.00000646,0.00001427,0.00006076,-0.00006501
 ,-0.00006438,-0.00000240,0.00000884,0.00109489,0.00055051,-0.00147258,
 -0.00006534,-0.00029802,0.00052735,-0.00050807,-0.00032769,0.00024390,
 -0.00034189,0.00010296,0.00049773,0.05884658,-0.09668177,0.00204446,-0
 .04135510,0.00858821,-0.00417648,-0.06501203,0.09068838,0.00001926,-0.
 00000541,0.00000434,0.00003731,-0.00003568,0.00000235,0.00008996,0.000
 15902,-0.00010588,0.00002118,-0.00000445,-0.00002310,0.00001749,0.0000
 1527,0.00001923,-0.00000226,0.00000353,0.00000798,-0.00002106,-0.00000
 196,-0.00000244,0.00000128,-0.00000360,0.00000414,0.00000196,-0.000008
 60,0.00001461,-0.00000574,-0.00000439,-0.00000138,-0.00006111,-0.00005
 209,0.00002773,-0.00035001,-0.00009105,0.00006563,-0.00003222,0.000018
 25,0.00003404,-0.00003605,0.00000910,-0.00000777,-0.00002687,-0.000011
 38,-0.00001092,0.00012307,0.00008010,0.00000601,-0.00000051,-0.0000036
 8,0.00000352,0.00001498,-0.00002269,0.00003273,-0.00006996,-0.00005934
 ,0.00006636,0.00074561,-0.00028078,-0.00056108,-0.00020946,0.00031453,
 0.00007430,-0.00017001,0.00003791,0.00029334,-0.00085102,0.00055341,0.
 00050416,-0.00016713,0.00027884,-0.00003492,0.00029188,0.00175772,-0.0
 0188745,-0.00059134,-0.00025462,0.00061025,-0.00005169,0.00003343,0.00
 005665,-0.01085448,0.00550915,0.01039103,-0.00028794,0.00028455,0.0000
 5983,-0.00021253,0.00053122,-0.00190723,-0.00133915,0.00108309,0.00015
 870,0.00001333,-0.00000249,-0.00003590,0.00000577,0.00000143,-0.000000
 39,-0.00000562,-0.00000434,0.00000371,-0.00000190,0.00000170,0.0000029
 0,0.00000826,-0.00001193,0.00000304,-0.00000383,0.00000093,-0.00000198
 ,-0.00000076,0.00000166,0.00000077,0.00000029,0.00000288,0.00000004,0.
 00001772,0.00001697,0.00000725,0.00000038,-0.00000185,-0.00000065,-0.0
 0000575,-0.00000044,0.00000002,0.00000076,-0.00000213,-0.00000097,0.00
 006921,-0.00001044,-0.00003187,-0.00001424,-0.00000686,0.00000473,0.00
 003984,0.00004025,-0.00004574,-0.00003141,0.00000824,0.00000672,-0.000
 25826,-0.00044495,0.00043666,-0.00001177,0.00013441,-0.00017047,0.0001
 7699,0.00015603,-0.00005807,0.00007397,0.00006394,-0.00013511,0.012290
 08,0.00020424,-0.07611579,-0.01969593,-0.00322999,0.01031050,-0.036795
 29,0.00704731,0.08313621,0.00002248,-0.00001272,0.00002157,0.00003796,
 -0.00002463,-0.00000658,0.00006221,-0.00008474,-0.00000520,-0.00000081
 ,0.00000198,0.00008298,0.00002447,0.00001599,0.00003735,0.00001010,-0.
 00000893,-0.00000566,-0.00000196,0.00000358,-0.00000180,-0.00000117,0.
 00000232,-0.00000314,0.00000010,0.00000963,-0.00000977,0.00000516,0.00
 000006,-0.00000110,-0.00008399,0.00003241,-0.00006498,-0.00004732,0.00
 005721,-0.00002611,-0.00003350,0.00003428,0.00000474,-0.00004654,0.000
 01953,-0.00002770,-0.00003139,-0.00001336,-0.00005031,0.00010394,-0.00
 000307,0.00005892,-0.00002080,0.00000092,-0.00002571,0.00000456,-0.000
 01473,0.00004190,-0.00007448,0.00001023,-0.00012143,0.00013546,-0.0003
 7351,0.00011908,0.00000363,0.00011791,-0.00004530,-0.00005721,0.000123
 92,-0.00000920,0.00048985,-0.00053346,-0.00045444,0.00004864,0.0001304
 5,-0.00008723,-0.00192303,0.00080153,-0.00028558,0.00025225,-0.0000616
 5,-0.00067383,0.00007677,0.00002701,-0.00005363,0.01020180,0.00130879,
 -0.00160604,0.00064850,0.00063931,-0.00125397,-0.00041390,0.00119404,0
 .00005105,0.00021272,0.00030019,-0.00035737,0.00001207,-0.00000312,-0.
 00000998,-0.00000318,-0.00000737,-0.00000017,0.00000302,-0.00000165,0.
 00000270,-0.00000463,0.00000480,0.00000016,0.00001115,-0.00002421,0.00
 001608,-0.00000442,0.00000201,-0.00000194,0.00000121,0.00000393,-0.000
 00427,0.00000035,0.00000288,0.00000028,0.00002066,0.00002009,0.0000146
 5,-0.00000235,-0.00000219,-0.00000726,-0.00000456,-0.00000265,0.000000
 12,-0.00000130,-0.00000019,0.00000185,0.00016072,-0.00002168,0.0001179
 0,-0.00003749,-0.00002001,-0.00001564,-0.00003214,0.00008076,0.0000460
 5,0.00002474,-0.00000020,-0.00000748,-0.00027243,0.00000120,0.00010700
 ,0.00003599,0.00005121,-0.00009759,0.00009265,0.00005084,-0.00001872,0
 .00006657,-0.00004247,-0.00004885,-0.07911440,-0.00053926,0.03220224,0
 .01090546,-0.00667783,-0.02274684,-0.03264765,0.00556790,0.05810472,0.
 09118550,-0.00004229,-0.00003409,-0.00005090,-0.00008790,0.00007034,-0
 .00001914,-0.00024545,-0.00047152,0.00017196,-0.00010378,-0.00016940,-
 0.00016877,-0.00001653,0.00001084,-0.00001125,-0.00001484,0.00001564,-
 0.00000477,0.00004571,0.00000402,0.00000597,-0.00000393,0.00000996,-0.
 00000816,-0.00000676,0.00002067,-0.00002401,0.00002091,0.00000268,0.00
 000354,0.00015703,0.00027784,0.00011510,0.00079746,0.00024258,-0.00003
 576,0.00006448,-0.00001446,-0.00002897,0.00005256,0.00001455,0.0000300
 0,0.00002502,0.00005295,0.00005088,0.00020360,-0.00004527,0.00011721,-
 0.00002011,0.00001914,-0.00001627,0.00005664,-0.00016447,0.00002427,-0
 .00010923,0.00011599,-0.00014021,-0.00177812,0.00100107,0.00051946,0.0
 0040765,-0.00052052,-0.00004893,0.00046970,-0.00023174,-0.00042121,-0.
 00061281,0.00023101,0.00000480,-0.00025016,-0.00039622,0.00084820,0.00
 091629,-0.00121579,0.00088741,-0.00117182,-0.00156069,0.00090524,-0.00
 003118,0.00003007,0.00004569,-0.00544198,0.00216311,0.03408996,0.00025
 427,-0.00118290,0.00134529,0.00413808,-0.00289427,0.00035694,0.0001180
 3,0.00035028,0.00017580,-0.00003799,0.00000010,0.00004073,-0.00000356,
 0.00000225,0.00000797,0.00000938,0.00000947,-0.00000604,0.00000434,-0.
 00000399,-0.00000208,-0.00001480,0.00001288,-0.00000406,0.00000659,-0.
 00000015,0.00000237,0.00000063,-0.00000398,-0.00000079,-0.00000324,-0.
 00000024,0.00000048,-0.00001928,-0.00004218,-0.00000534,0.00000239,0.0
 0000263,0.00000277,0.00000305,0.00000359,-0.00000057,0.00000370,0.0000
 1211,-0.00000253,0.00026408,-0.00005990,0.00015038,-0.00003388,0.00000
 243,-0.00000931,-0.00000585,0.00006264,-0.00002342,-0.00005152,-0.0000
 0159,0.00000506,0.00121586,0.00009991,-0.00155293,-0.00002737,-0.00032
 483,0.00064036,-0.00062240,-0.00033269,0.00026340,-0.00031074,0.000118
 10,0.00044012,0.00091301,-0.08009138,0.02083894,-0.00544906,-0.0041736
 1,-0.04985254,0.00850938,0.01132433,-0.01379398,-0.00214326,0.07765270
 ,0.00006018,-0.00003766,-0.00000413,0.00011418,-0.00008565,-0.00000988
 ,0.00028225,0.00031219,-0.00032027,0.00004403,-0.00007006,-0.00014065,
 0.00007072,0.00006927,0.00008569,-0.00001281,0.00002137,0.00002502,-0.
 00005659,-0.00000621,-0.00000428,0.00000328,-0.00000991,0.00001253,0.0
 0000841,-0.00002748,0.00004982,-0.00001738,-0.00001603,-0.00000500,-0.
 00027450,-0.00008341,0.00014167,-0.00087458,-0.00015241,0.00020462,-0.
 00010535,0.00006567,0.00011535,-0.00012491,0.00004061,-0.00002151,-0.0
 0010131,-0.00003427,-0.00004112,0.00064489,0.00033686,0.00011058,-0.00
 003671,-0.00001015,-0.00000792,0.00006274,-0.00011748,0.00000998,-0.00
 033689,-0.00024479,0.00023783,0.00200470,-0.00103636,-0.00145880,-0.00
 051972,0.00065732,0.00021381,-0.00047246,0.00014021,0.00085967,-0.0000
 6991,0.00123489,0.00046793,-0.00030769,0.00033641,-0.00022976,0.003097
 09,-0.00151117,-0.00109228,0.00184788,0.00058604,-0.00129624,-0.000115
 08,-0.00006668,0.00004782,0.00939135,0.00538508,-0.03853465,-0.0018971
 9,0.00073100,-0.00016262,-0.00510654,0.00562681,-0.00053659,-0.0003090
 2,-0.00060028,0.00044703,0.00003791,-0.00000780,-0.00011894,0.00001908
 ,0.00000612,0.00000134,-0.00001782,-0.00001338,0.00001189,-0.00000527,
 0.00000499,0.00001033,0.00002630,-0.00004144,0.00001254,-0.00001307,0.
 00000375,-0.00000671,-0.00000222,0.00000557,0.00000248,0.00000007,0.00
 001083,-0.00000034,0.00006617,0.00006161,0.00003135,0.00000003,-0.0000
 0624,-0.00000471,-0.00002105,-0.00000246,-0.00000084,0.00000308,-0.000
 00622,-0.00000229,0.00026289,-0.00001489,-0.00014882,-0.00005675,-0.00
 002836,0.00001913,0.00010763,0.00007775,-0.00013389,-0.00012033,0.0000
 3096,0.00002639,-0.00159376,-0.00044027,0.00168532,0.00001374,0.000524
 18,-0.00090773,0.00078424,0.00048989,-0.00022709,0.00032598,0.00000182
 ,-0.00048676,0.02781108,0.02737190,-0.26862533,-0.01471252,-0.03538768
 ,-0.05598131,0.04308804,-0.00821599,-0.02521037,-0.06289651,0.00414163
 ,0.39089072\\0.00000667,0.00000122,0.00000268,0.00000768,-0.00000505,0
 .00000356,-0.00000271,0.00001095,-0.00000745,0.00000103,-0.00000597,-0
 .00001080,0.,-0.00000186,0.00000113,-0.00000110,0.00000005,0.00000096,
 0.00000016,-0.00000075,0.00000002,-0.00000059,-0.00000060,-0.00000136,
 0.00000095,-0.00000122,0.00000024,-0.00000096,-0.00000101,0.00000024,-
 0.00000064,-0.00000213,0.00000627,0.00001233,-0.00000614,0.00000681,-0
 .00000471,0.00000346,-0.00000144,-0.00000571,-0.00000427,-0.00000475,-
 0.00000066,0.00000215,0.00000004,0.00000224,0.00000793,0.00000458,-0.0
 0000179,-0.00000050,-0.00000034,-0.00000198,0.00000051,-0.00000046,0.0
 0000272,-0.00000591,-0.00000061,-0.00002809,0.00000159,-0.00000497,0.0
 0000569,-0.00000232,0.00000023,0.00000673,-0.00000042,0.00000041,0.000
 00015,0.00000727,-0.00000047,-0.00000285,-0.00000098,0.00000223,0.0000
 0163,-0.00000498,0.00000130,-0.00000090,0.00000061,0.00000217,0.000000
 58,0.00000234,-0.00000240,-0.00000251,0.00000480,0.00000077,-0.0000013
 2,0.00000351,0.00000143,-0.00000108,0.00000100,-0.00000115,0.00000112,
 0.00000164,0.00000055,0.00000265,-0.00000079,-0.00000155,-0.00000110,0
 .00000032,-0.00000129,-0.00000148,-0.00000104,0.,-0.00000203,-0.000000
 12,-0.00000103,-0.00000066,-0.00000136,0.00000218,-0.00000049,-0.00000
 279,-0.00000082,-0.00000018,-0.00000182,-0.00000096,-0.00000076,-0.000
 00170,-0.00000166,0.00000066,-0.00000429,0.00000026,0.00000105,-0.0000
 0181,0.00000044,0.00000052,-0.00000144,0.00000024,0.00000115,-0.000001
 52,0.00000074,-0.00000233,0.00000261,0.00000269,0.00000143,0.00000022,
 0.00000064,0.00000360,0.,0.00000201,0.00000195,-0.00000013,0.00000033,
 0.00000063,0.00000201,-0.00000716,0.00000273,-0.00000112,0.00000208,-0
 .00000249,0.00000001,-0.00000245,-0.00000140,0.00000481,0.00000190,0.0
 0000718,-0.00000321,0.00000987,-0.00000133,0.00000170,-0.00000109,-0.0
 0000245,0.00000346,0.00000076,0.00000109,0.00000309,-0.00000554\\\@


 LIFE IS A CONTINUAL STRUGGLE AGAINST THE TENDENCY TO PRODUCE ENTROPY.
 Job cpu time:       0 days 19 hours 27 minutes 39.9 seconds.
 Elapsed time:       0 days  0 hours 45 minutes 16.1 seconds.
 File lengths (MBytes):  RWF=   2264 Int=      0 D2E=      0 Chk=     40 Scr=      1
 Normal termination of Gaussian 16 at Wed Jun  5 17:17:11 2019.
