 Entering Gaussian System, Link 0=g16
 Input=clay_new-glu_gluC6-BCDR-Na2_1Me2O-bisCF3-ts-mpw3pbe-631gd-pcm_thf.gjf
 Output=clay_new-glu_gluC6-BCDR-Na2_1Me2O-bisCF3-ts-mpw3pbe-631gd-pcm_thf.out
 Initial command:
 /home/ekwan/sw/g16/l1.exe "/scratch/users/ekwan/clay_new-glu_gluC6-BCDR-Na2_1Me2O-bisCF3-ts-mpw3pbe-631gd-pcm_thf/Gau-47274.inp" -scrdir="/scratch/users/ekwan/clay_new-glu_gluC6-BCDR-Na2_1Me2O-bisCF3-ts-mpw3pbe-631gd-pcm_thf/"
 Entering Link 1 = /home/ekwan/sw/g16/l1.exe PID=     47275.
  
 Copyright (c) 1988,1990,1992,1993,1995,1998,2003,2009,2016,
            Gaussian, Inc.  All Rights Reserved.
  
 This is part of the Gaussian(R) 16 program.  It is based on
 the Gaussian(R) 09 system (copyright 2009, Gaussian, Inc.),
 the Gaussian(R) 03 system (copyright 2003, Gaussian, Inc.),
 the Gaussian(R) 98 system (copyright 1998, Gaussian, Inc.),
 the Gaussian(R) 94 system (copyright 1995, Gaussian, Inc.),
 the Gaussian 92(TM) system (copyright 1992, Gaussian, Inc.),
 the Gaussian 90(TM) system (copyright 1990, Gaussian, Inc.),
 the Gaussian 88(TM) system (copyright 1988, Gaussian, Inc.),
 the Gaussian 86(TM) system (copyright 1986, Carnegie Mellon
 University), and the Gaussian 82(TM) system (copyright 1983,
 Carnegie Mellon University). Gaussian is a federally registered
 trademark of Gaussian, Inc.
  
 This software contains proprietary and confidential information,
 including trade secrets, belonging to Gaussian, Inc.
  
 This software is provided under written license and may be
 used, copied, transmitted, or stored only in accord with that
 written license.
  
 The following legend is applicable only to US Government
 contracts under FAR:
  
                    RESTRICTED RIGHTS LEGEND
  
 Use, reproduction and disclosure by the US Government is
 subject to restrictions as set forth in subparagraphs (a)
 and (c) of the Commercial Computer Software - Restricted
 Rights clause in FAR 52.227-19.
  
 Gaussian, Inc.
 340 Quinnipiac St., Bldg. 40, Wallingford CT 06492
  
  
 ---------------------------------------------------------------
 Warning -- This program may not be used in any manner that
 competes with the business of Gaussian, Inc. or will provide
 assistance to any competitor of Gaussian, Inc.  The licensee
 of this program is prohibited from giving any competitor of
 Gaussian, Inc. access to this program.  By using this program,
 the user acknowledges that Gaussian, Inc. is engaged in the
 business of creating and licensing software in the field of
 computational chemistry and represents and warrants to the
 licensee that it is not a competitor of Gaussian, Inc. and that
 it will not use this program in any manner prohibited above.
 ---------------------------------------------------------------
  

 Cite this work as:
 Gaussian 16, Revision A.03,
 M. J. Frisch, G. W. Trucks, H. B. Schlegel, G. E. Scuseria, 
 M. A. Robb, J. R. Cheeseman, G. Scalmani, V. Barone, 
 G. A. Petersson, H. Nakatsuji, X. Li, M. Caricato, A. V. Marenich, 
 J. Bloino, B. G. Janesko, R. Gomperts, B. Mennucci, H. P. Hratchian, 
 J. V. Ortiz, A. F. Izmaylov, J. L. Sonnenberg, D. Williams-Young, 
 F. Ding, F. Lipparini, F. Egidi, J. Goings, B. Peng, A. Petrone, 
 T. Henderson, D. Ranasinghe, V. G. Zakrzewski, J. Gao, N. Rega, 
 G. Zheng, W. Liang, M. Hada, M. Ehara, K. Toyota, R. Fukuda, 
 J. Hasegawa, M. Ishida, T. Nakajima, Y. Honda, O. Kitao, H. Nakai, 
 T. Vreven, K. Throssell, J. A. Montgomery, Jr., J. E. Peralta, 
 F. Ogliaro, M. J. Bearpark, J. J. Heyd, E. N. Brothers, K. N. Kudin, 
 V. N. Staroverov, T. A. Keith, R. Kobayashi, J. Normand, 
 K. Raghavachari, A. P. Rendell, J. C. Burant, S. S. Iyengar, 
 J. Tomasi, M. Cossi, J. M. Millam, M. Klene, C. Adamo, R. Cammi, 
 J. W. Ochterski, R. L. Martin, K. Morokuma, O. Farkas, 
 J. B. Foresman, and D. J. Fox, Gaussian, Inc., Wallingford CT, 2016.
 
 ******************************************
 Gaussian 16:  AS64L-G16RevA.03 25-Dec-2016
                 5-Jun-2019 
 ******************************************
 %nprocshared=32
 Will use up to   32 processors via shared memory.
 %mem=48GB
 ----------------------------------------------------------------------
 #p opt=(ts,calcfc,noeigentest,maxstep=5) freq=noraman pop=none 6-31g* 
 scrf=(pcm,solvent=tetrahydrofuran) mpw3pbe
 ----------------------------------------------------------------------
 1/5=1,8=5,10=4,11=1,18=20,26=3,38=1/1,3;
 2/9=110,12=2,17=6,18=5,40=1/2;
 3/5=1,6=6,7=1,11=2,25=1,30=1,70=2201,71=2,72=20,74=-12,140=1/1,2,3;
 4//1;
 5/5=2,38=5,53=20/2;
 8/6=4,10=90,11=11/1;
 11/6=1,8=1,9=11,15=111,16=1/1,2,10;
 10/6=1,13=1/2;
 7/10=1,18=20,25=1/1,2,3,16;
 1/5=1,8=5,10=4,11=1,18=20,26=3/3(2);
 2/9=110/2;
 99//99;
 2/9=110/2;
 3/5=1,6=6,7=1,11=2,25=1,30=1,70=2205,71=1,72=20,74=-12/1,2,3;
 4/5=5,16=3,69=1/1;
 5/5=2,38=5,53=20/2;
 7//1,2,3,16;
 1/5=1,8=5,11=1,18=20,26=3/3(-5);
 2/9=110/2;
 99/9=1/99;
 Leave Link    1 at Wed Jun  5 12:47:29 2019, MaxMem=  6442450944 cpu:               4.9 elap:               0.2
 (Enter /home/ekwan/sw/g16/l101.exe)
 -----
 title
 -----
 Symbolic Z-matrix:
 Charge =  0 Multiplicity = 1
 6                    -1.95307   1.69217   2.25976 
 6                    -2.28336   2.45387   0.97876 
 6                    -1.41882   3.71254   0.88919 
 6                     0.37703   2.70122   2.12999 
 6                    -0.44985   1.43334   2.36404 
 1                    -1.56132   4.20643  -0.08422 
 1                    -2.01988   1.82845   0.11316 
 1                    -2.26475   2.308     3.11467 
 1                     0.2072    3.37496   2.98284 
 1                    -0.17825   0.68586   1.60586 
 8                    -0.04848   3.36036   0.92062 
 8                    -1.77552   4.57365   1.92521 
 8                    -3.64553   2.82658   0.92115 
 8                    -2.66011   0.45922   2.26553 
 8                    -0.15474   0.94368   3.66571 
 6                     1.88762   2.43978   1.98881 
 1                     2.17671   1.90612   2.92076 
 1                     2.36756   3.4431    2.07379 
 8                     2.26189   1.79477   0.83896 
 6                    -4.43831   1.98502   0.10527 
 1                    -4.09928   2.00036  -0.94176 
 1                    -4.43153   0.94935   0.4635 
 1                    -5.45907   2.37639   0.14752 
 6                    -3.3562    0.19344   3.46691 
 1                    -2.68196   0.18664   4.33304 
 1                    -4.15346   0.9308    3.6426 
 1                    -3.80538  -0.79696   3.35437 
 6                     0.31172  -0.3904    3.70128 
 1                    -0.41292  -1.08261   3.25219 
 1                     1.27684  -0.50235   3.18818 
 1                     0.44205  -0.64867   4.75694 
 6                     4.03535  -1.37707  -1.27304 
 6                     3.26235  -0.1031   -0.92353 
 6                     1.98462  -0.41324  -0.20416 
 6                     2.70725  -2.59501   0.48731 
 6                     4.10625  -2.24921  -0.01732 
 1                     1.18917   0.30757  -0.15459 
 1                     3.83049   0.46634  -0.1653 
 1                     3.50627  -1.91087  -2.07418 
 1                     2.20421  -3.2257   -0.25436 
 1                     4.646    -1.69592   0.76207 
 8                     1.86279  -1.40723   0.60515 
 8                    -0.36398  -0.42613  -3.87354 
 8                     2.95759   0.74855  -1.99969 
 8                     5.3417   -1.02597  -1.67666 
 8                     4.75412  -3.47107  -0.30169 
 6                     2.67145  -3.29244   1.82659 
 1                     3.12702  -4.28723   1.70026 
 1                     1.62145  -3.43877   2.1279 
 8                     3.36971  -2.52219   2.7711 
 16                   -0.22738  -0.43082  -2.4103 
 8                    -0.25188   0.92217  -1.78249 
 8                     0.91896  -1.26653  -1.90888 
 6                    -1.69028  -1.24259  -1.75674 
 6                    -2.91483  -1.04863  -2.38673 
 6                    -1.5997   -1.9862   -0.58403 
 6                    -4.06508  -1.59446  -1.81835 
 1                    -2.96639  -0.48311  -3.31194 
 6                    -2.7551   -2.53156  -0.03203 
 1                    -0.63673  -2.13262  -0.10759 
 6                    -3.99279  -2.33616  -0.64194 
 1                    -4.89265  -2.75686  -0.2052 
 6                     4.05591   1.50567  -2.50065 
 1                     4.68326   1.88053  -1.68242 
 1                     4.67362   0.9132   -3.18138 
 1                     3.62368   2.35221  -3.03952 
 6                     5.8231   -1.76411  -2.7882 
 1                     5.8321   -2.84052  -2.58322 
 1                     5.2168   -1.57375  -3.68573 
 1                     6.84462  -1.42054  -2.9709 
 6                     5.95437  -3.67249   0.42893 
 1                     6.70287  -2.90934   0.18089 
 1                     5.77023  -3.6577    1.51158 
 1                     6.33284  -4.65648   0.14125 
 6                     3.37277  -3.11949   4.05135 
 1                     3.93341  -2.45563   4.71337 
 1                     2.35092  -3.23879   4.44115 
 1                     3.85888  -4.10656   4.03242 
 6                    -1.18759   5.85891   1.82029 
 1                    -1.59623   6.4607    2.63525 
 1                    -0.09563   5.81387   1.91438 
 1                    -1.44368   6.33057   0.85996 
 11                    1.2318    2.58327  -1.01419 
 8                     2.4674    4.50303  -1.54981 
 6                     2.31702   5.58156  -2.45 
 1                     3.23215   5.73391  -3.04059 
 1                     1.49208   5.33449  -3.12287 
 1                     2.08236   6.51388  -1.91592 
 6                     3.51947   4.70946  -0.62184 
 1                     3.33788   5.6094   -0.01657 
 1                     3.54381   3.82711   0.02445 
 1                     4.4827    4.81984  -1.14132 
 6                    -5.40313  -1.31148  -2.44266 
 9                    -5.91007  -0.14098  -1.99916 
 9                    -6.30542  -2.26446  -2.15255 
 9                    -5.3205   -1.21959  -3.78075 
 6                    -2.67159  -3.37754   1.20768 
 9                    -1.5387   -3.15235   1.89972 
 9                    -2.69728  -4.69154   0.9122 
 9                    -3.70721  -3.14618   2.03733 
 
 Add virtual bond connecting atoms H37        and O19        Dist= 3.94D+00.
 Add virtual bond connecting atoms O52        and H37        Dist= 4.27D+00.
 Add virtual bond connecting atoms O53        and C34        Dist= 4.13D+00.
 Add virtual bond connecting atoms O84        and Na83       Dist= 4.43D+00.
 Add virtual bond connecting atoms H91        and H18        Dist= 4.52D+00.
 ITRead=  0  0  0  0  0  0  0  0  0  0  0  0  0  0  0  0  0  0  0  0
 ITRead=  0  0  0  0  0  0  0  0  0  0  0  0  0  0  0  0  0  0  0  0
 ITRead=  0  0  0  0  0  0  0  0  0  0  0  0  0  0  0  0  0  0  0  0
 ITRead=  0  0  0  0  0  0  0  0  0  0  0  0  0  0  0  0  0  0  0  0
 ITRead=  0  0  0  0  0  0  0  0  0  0  0  0  0  0  0  0  0  0  0  0
 MicOpt= -1 -1 -1 -1 -1 -1 -1 -1 -1 -1 -1 -1 -1 -1 -1 -1 -1 -1 -1 -1
 MicOpt= -1 -1 -1 -1 -1 -1 -1 -1 -1 -1 -1 -1 -1 -1 -1 -1 -1 -1 -1 -1
 MicOpt= -1 -1 -1 -1 -1 -1 -1 -1 -1 -1 -1 -1 -1 -1 -1 -1 -1 -1 -1 -1
 MicOpt= -1 -1 -1 -1 -1 -1 -1 -1 -1 -1 -1 -1 -1 -1 -1 -1 -1 -1 -1 -1
 MicOpt= -1 -1 -1 -1 -1 -1 -1 -1 -1 -1 -1 -1 -1 -1 -1 -1 -1 -1 -1 -1
 NAtoms=    100 NQM=      100 NQMF=       0 NMMI=      0 NMMIF=      0
                NMic=       0 NMicF=      0.
                    Isotopes and Nuclear Properties:
 (Nuclear quadrupole moments (NQMom) in fm**2, nuclear magnetic moments (NMagM)
  in nuclear magnetons)

  Atom         1           2           3           4           5           6           7           8           9          10
 IAtWgt=          12          12          12          12          12           1           1           1           1           1
 AtmWgt=  12.0000000  12.0000000  12.0000000  12.0000000  12.0000000   1.0078250   1.0078250   1.0078250   1.0078250   1.0078250
 NucSpn=           0           0           0           0           0           1           1           1           1           1
 AtZEff=   0.0000000   0.0000000   0.0000000   0.0000000   0.0000000   0.0000000   0.0000000   0.0000000   0.0000000   0.0000000
 NQMom=    0.0000000   0.0000000   0.0000000   0.0000000   0.0000000   0.0000000   0.0000000   0.0000000   0.0000000   0.0000000
 NMagM=    0.0000000   0.0000000   0.0000000   0.0000000   0.0000000   2.7928460   2.7928460   2.7928460   2.7928460   2.7928460
 AtZNuc=   6.0000000   6.0000000   6.0000000   6.0000000   6.0000000   1.0000000   1.0000000   1.0000000   1.0000000   1.0000000

  Atom        11          12          13          14          15          16          17          18          19          20
 IAtWgt=          16          16          16          16          16          12           1           1          16          12
 AtmWgt=  15.9949146  15.9949146  15.9949146  15.9949146  15.9949146  12.0000000   1.0078250   1.0078250  15.9949146  12.0000000
 NucSpn=           0           0           0           0           0           0           1           1           0           0
 AtZEff=   0.0000000   0.0000000   0.0000000   0.0000000   0.0000000   0.0000000   0.0000000   0.0000000   0.0000000   0.0000000
 NQMom=    0.0000000   0.0000000   0.0000000   0.0000000   0.0000000   0.0000000   0.0000000   0.0000000   0.0000000   0.0000000
 NMagM=    0.0000000   0.0000000   0.0000000   0.0000000   0.0000000   0.0000000   2.7928460   2.7928460   0.0000000   0.0000000
 AtZNuc=   8.0000000   8.0000000   8.0000000   8.0000000   8.0000000   6.0000000   1.0000000   1.0000000   8.0000000   6.0000000

  Atom        21          22          23          24          25          26          27          28          29          30
 IAtWgt=           1           1           1          12           1           1           1          12           1           1
 AtmWgt=   1.0078250   1.0078250   1.0078250  12.0000000   1.0078250   1.0078250   1.0078250  12.0000000   1.0078250   1.0078250
 NucSpn=           1           1           1           0           1           1           1           0           1           1
 AtZEff=   0.0000000   0.0000000   0.0000000   0.0000000   0.0000000   0.0000000   0.0000000   0.0000000   0.0000000   0.0000000
 NQMom=    0.0000000   0.0000000   0.0000000   0.0000000   0.0000000   0.0000000   0.0000000   0.0000000   0.0000000   0.0000000
 NMagM=    2.7928460   2.7928460   2.7928460   0.0000000   2.7928460   2.7928460   2.7928460   0.0000000   2.7928460   2.7928460
 AtZNuc=   1.0000000   1.0000000   1.0000000   6.0000000   1.0000000   1.0000000   1.0000000   6.0000000   1.0000000   1.0000000

  Atom        31          32          33          34          35          36          37          38          39          40
 IAtWgt=           1          12          12          12          12          12           1           1           1           1
 AtmWgt=   1.0078250  12.0000000  12.0000000  12.0000000  12.0000000  12.0000000   1.0078250   1.0078250   1.0078250   1.0078250
 NucSpn=           1           0           0           0           0           0           1           1           1           1
 AtZEff=   0.0000000   0.0000000   0.0000000   0.0000000   0.0000000   0.0000000   0.0000000   0.0000000   0.0000000   0.0000000
 NQMom=    0.0000000   0.0000000   0.0000000   0.0000000   0.0000000   0.0000000   0.0000000   0.0000000   0.0000000   0.0000000
 NMagM=    2.7928460   0.0000000   0.0000000   0.0000000   0.0000000   0.0000000   2.7928460   2.7928460   2.7928460   2.7928460
 AtZNuc=   1.0000000   6.0000000   6.0000000   6.0000000   6.0000000   6.0000000   1.0000000   1.0000000   1.0000000   1.0000000

  Atom        41          42          43          44          45          46          47          48          49          50
 IAtWgt=           1          16          16          16          16          16          12           1           1          16
 AtmWgt=   1.0078250  15.9949146  15.9949146  15.9949146  15.9949146  15.9949146  12.0000000   1.0078250   1.0078250  15.9949146
 NucSpn=           1           0           0           0           0           0           0           1           1           0
 AtZEff=   0.0000000   0.0000000   0.0000000   0.0000000   0.0000000   0.0000000   0.0000000   0.0000000   0.0000000   0.0000000
 NQMom=    0.0000000   0.0000000   0.0000000   0.0000000   0.0000000   0.0000000   0.0000000   0.0000000   0.0000000   0.0000000
 NMagM=    2.7928460   0.0000000   0.0000000   0.0000000   0.0000000   0.0000000   0.0000000   2.7928460   2.7928460   0.0000000
 AtZNuc=   1.0000000   8.0000000   8.0000000   8.0000000   8.0000000   8.0000000   6.0000000   1.0000000   1.0000000   8.0000000

  Atom        51          52          53          54          55          56          57          58          59          60
 IAtWgt=          32          16          16          12          12          12          12           1          12           1
 AtmWgt=  31.9720718  15.9949146  15.9949146  12.0000000  12.0000000  12.0000000  12.0000000   1.0078250  12.0000000   1.0078250
 NucSpn=           0           0           0           0           0           0           0           1           0           1
 AtZEff=   0.0000000   0.0000000   0.0000000   0.0000000   0.0000000   0.0000000   0.0000000   0.0000000   0.0000000   0.0000000
 NQMom=    0.0000000   0.0000000   0.0000000   0.0000000   0.0000000   0.0000000   0.0000000   0.0000000   0.0000000   0.0000000
 NMagM=    0.0000000   0.0000000   0.0000000   0.0000000   0.0000000   0.0000000   0.0000000   2.7928460   0.0000000   2.7928460
 AtZNuc=  16.0000000   8.0000000   8.0000000   6.0000000   6.0000000   6.0000000   6.0000000   1.0000000   6.0000000   1.0000000

  Atom        61          62          63          64          65          66          67          68          69          70
 IAtWgt=          12           1          12           1           1           1          12           1           1           1
 AtmWgt=  12.0000000   1.0078250  12.0000000   1.0078250   1.0078250   1.0078250  12.0000000   1.0078250   1.0078250   1.0078250
 NucSpn=           0           1           0           1           1           1           0           1           1           1
 AtZEff=   0.0000000   0.0000000   0.0000000   0.0000000   0.0000000   0.0000000   0.0000000   0.0000000   0.0000000   0.0000000
 NQMom=    0.0000000   0.0000000   0.0000000   0.0000000   0.0000000   0.0000000   0.0000000   0.0000000   0.0000000   0.0000000
 NMagM=    0.0000000   2.7928460   0.0000000   2.7928460   2.7928460   2.7928460   0.0000000   2.7928460   2.7928460   2.7928460
 AtZNuc=   6.0000000   1.0000000   6.0000000   1.0000000   1.0000000   1.0000000   6.0000000   1.0000000   1.0000000   1.0000000

  Atom        71          72          73          74          75          76          77          78          79          80
 IAtWgt=          12           1           1           1          12           1           1           1          12           1
 AtmWgt=  12.0000000   1.0078250   1.0078250   1.0078250  12.0000000   1.0078250   1.0078250   1.0078250  12.0000000   1.0078250
 NucSpn=           0           1           1           1           0           1           1           1           0           1
 AtZEff=   0.0000000   0.0000000   0.0000000   0.0000000   0.0000000   0.0000000   0.0000000   0.0000000   0.0000000   0.0000000
 NQMom=    0.0000000   0.0000000   0.0000000   0.0000000   0.0000000   0.0000000   0.0000000   0.0000000   0.0000000   0.0000000
 NMagM=    0.0000000   2.7928460   2.7928460   2.7928460   0.0000000   2.7928460   2.7928460   2.7928460   0.0000000   2.7928460
 AtZNuc=   6.0000000   1.0000000   1.0000000   1.0000000   6.0000000   1.0000000   1.0000000   1.0000000   6.0000000   1.0000000

  Atom        81          82          83          84          85          86          87          88          89          90
 IAtWgt=           1           1          23          16          12           1           1           1          12           1
 AtmWgt=   1.0078250   1.0078250  22.9897697  15.9949146  12.0000000   1.0078250   1.0078250   1.0078250  12.0000000   1.0078250
 NucSpn=           1           1           3           0           0           1           1           1           0           1
 AtZEff=   0.0000000   0.0000000   0.0000000   0.0000000   0.0000000   0.0000000   0.0000000   0.0000000   0.0000000   0.0000000
 NQMom=    0.0000000   0.0000000  10.4000000   0.0000000   0.0000000   0.0000000   0.0000000   0.0000000   0.0000000   0.0000000
 NMagM=    2.7928460   2.7928460   2.2175200   0.0000000   0.0000000   2.7928460   2.7928460   2.7928460   0.0000000   2.7928460
 AtZNuc=   1.0000000   1.0000000  11.0000000   8.0000000   6.0000000   1.0000000   1.0000000   1.0000000   6.0000000   1.0000000

  Atom        91          92          93          94          95          96          97          98          99         100
 IAtWgt=           1           1          12          19          19          19          12          19          19          19
 AtmWgt=   1.0078250   1.0078250  12.0000000  18.9984033  18.9984033  18.9984033  12.0000000  18.9984033  18.9984033  18.9984033
 NucSpn=           1           1           0           1           1           1           0           1           1           1
 AtZEff=   0.0000000   0.0000000   0.0000000   0.0000000   0.0000000   0.0000000   0.0000000   0.0000000   0.0000000   0.0000000
 NQMom=    0.0000000   0.0000000   0.0000000   0.0000000   0.0000000   0.0000000   0.0000000   0.0000000   0.0000000   0.0000000
 NMagM=    2.7928460   2.7928460   0.0000000   2.6288670   2.6288670   2.6288670   0.0000000   2.6288670   2.6288670   2.6288670
 AtZNuc=   1.0000000   1.0000000   6.0000000   9.0000000   9.0000000   9.0000000   6.0000000   9.0000000   9.0000000   9.0000000
 Leave Link  101 at Wed Jun  5 12:47:29 2019, MaxMem=  6442450944 cpu:              18.1 elap:               0.7
 (Enter /home/ekwan/sw/g16/l103.exe)

 GradGradGradGradGradGradGradGradGradGradGradGradGradGradGradGradGradGrad
 Berny optimization.
 Initialization pass.
                           ----------------------------
                           !    Initial Parameters    !
                           ! (Angstroms and Degrees)  !
 --------------------------                            --------------------------
 ! Name  Definition              Value          Derivative Info.                !
 --------------------------------------------------------------------------------
 ! R1    R(1,2)                  1.5265         calculate D2E/DX2 analytically  !
 ! R2    R(1,5)                  1.5289         calculate D2E/DX2 analytically  !
 ! R3    R(1,8)                  1.0988         calculate D2E/DX2 analytically  !
 ! R4    R(1,14)                 1.4213         calculate D2E/DX2 analytically  !
 ! R5    R(2,3)                  1.5296         calculate D2E/DX2 analytically  !
 ! R6    R(2,7)                  1.0999         calculate D2E/DX2 analytically  !
 ! R7    R(2,13)                 1.4134         calculate D2E/DX2 analytically  !
 ! R8    R(3,6)                  1.1008         calculate D2E/DX2 analytically  !
 ! R9    R(3,11)                 1.4152         calculate D2E/DX2 analytically  !
 ! R10   R(3,12)                 1.3936         calculate D2E/DX2 analytically  !
 ! R11   R(4,5)                  1.5317         calculate D2E/DX2 analytically  !
 ! R12   R(4,9)                  1.1001         calculate D2E/DX2 analytically  !
 ! R13   R(4,11)                 1.4416         calculate D2E/DX2 analytically  !
 ! R14   R(4,16)                 1.5395         calculate D2E/DX2 analytically  !
 ! R15   R(5,10)                 1.0988         calculate D2E/DX2 analytically  !
 ! R16   R(5,15)                 1.4217         calculate D2E/DX2 analytically  !
 ! R17   R(12,79)                1.4172         calculate D2E/DX2 analytically  !
 ! R18   R(13,20)                1.4151         calculate D2E/DX2 analytically  !
 ! R19   R(14,24)                1.4137         calculate D2E/DX2 analytically  !
 ! R20   R(15,28)                1.4137         calculate D2E/DX2 analytically  !
 ! R21   R(16,17)                1.1122         calculate D2E/DX2 analytically  !
 ! R22   R(16,18)                1.1154         calculate D2E/DX2 analytically  !
 ! R23   R(16,19)                1.3705         calculate D2E/DX2 analytically  !
 ! R24   R(18,91)                2.3939         calculate D2E/DX2 analytically  !
 ! R25   R(19,37)                2.0856         calculate D2E/DX2 analytically  !
 ! R26   R(19,83)                2.2621         calculate D2E/DX2 analytically  !
 ! R27   R(20,21)                1.1007         calculate D2E/DX2 analytically  !
 ! R28   R(20,22)                1.0959         calculate D2E/DX2 analytically  !
 ! R29   R(20,23)                1.094          calculate D2E/DX2 analytically  !
 ! R30   R(24,25)                1.0977         calculate D2E/DX2 analytically  !
 ! R31   R(24,26)                1.1001         calculate D2E/DX2 analytically  !
 ! R32   R(24,27)                1.0933         calculate D2E/DX2 analytically  !
 ! R33   R(28,29)                1.0981         calculate D2E/DX2 analytically  !
 ! R34   R(28,30)                1.0988         calculate D2E/DX2 analytically  !
 ! R35   R(28,31)                1.0946         calculate D2E/DX2 analytically  !
 ! R36   R(32,33)                1.5306         calculate D2E/DX2 analytically  !
 ! R37   R(32,36)                1.5305         calculate D2E/DX2 analytically  !
 ! R38   R(32,39)                1.0985         calculate D2E/DX2 analytically  !
 ! R39   R(32,45)                1.4116         calculate D2E/DX2 analytically  !
 ! R40   R(33,34)                1.4988         calculate D2E/DX2 analytically  !
 ! R41   R(33,38)                1.1054         calculate D2E/DX2 analytically  !
 ! R42   R(33,44)                1.4058         calculate D2E/DX2 analytically  !
 ! R43   R(34,37)                1.0746         calculate D2E/DX2 analytically  !
 ! R44   R(34,42)                1.2876         calculate D2E/DX2 analytically  !
 ! R45   R(34,53)                2.184          calculate D2E/DX2 analytically  !
 ! R46   R(35,36)                1.5269         calculate D2E/DX2 analytically  !
 ! R47   R(35,40)                1.0958         calculate D2E/DX2 analytically  !
 ! R48   R(35,42)                1.4621         calculate D2E/DX2 analytically  !
 ! R49   R(35,47)                1.5104         calculate D2E/DX2 analytically  !
 ! R50   R(36,41)                1.0977         calculate D2E/DX2 analytically  !
 ! R51   R(36,46)                1.4119         calculate D2E/DX2 analytically  !
 ! R52   R(37,52)                2.2593         calculate D2E/DX2 analytically  !
 ! R53   R(43,51)                1.4696         calculate D2E/DX2 analytically  !
 ! R54   R(44,63)                1.425          calculate D2E/DX2 analytically  !
 ! R55   R(45,67)                1.4185         calculate D2E/DX2 analytically  !
 ! R56   R(46,71)                1.4195         calculate D2E/DX2 analytically  !
 ! R57   R(47,48)                1.1014         calculate D2E/DX2 analytically  !
 ! R58   R(47,49)                1.1021         calculate D2E/DX2 analytically  !
 ! R59   R(47,50)                1.4046         calculate D2E/DX2 analytically  !
 ! R60   R(50,75)                1.4127         calculate D2E/DX2 analytically  !
 ! R61   R(51,52)                1.4918         calculate D2E/DX2 analytically  !
 ! R62   R(51,53)                1.5046         calculate D2E/DX2 analytically  !
 ! R63   R(51,54)                1.7962         calculate D2E/DX2 analytically  !
 ! R64   R(54,55)                1.3907         calculate D2E/DX2 analytically  !
 ! R65   R(54,56)                1.3915         calculate D2E/DX2 analytically  !
 ! R66   R(55,57)                1.3943         calculate D2E/DX2 analytically  !
 ! R67   R(55,58)                1.0856         calculate D2E/DX2 analytically  !
 ! R68   R(56,59)                1.3918         calculate D2E/DX2 analytically  !
 ! R69   R(56,60)                1.0843         calculate D2E/DX2 analytically  !
 ! R70   R(57,61)                1.3926         calculate D2E/DX2 analytically  !
 ! R71   R(57,93)                1.5034         calculate D2E/DX2 analytically  !
 ! R72   R(59,61)                1.3936         calculate D2E/DX2 analytically  !
 ! R73   R(59,97)                1.5032         calculate D2E/DX2 analytically  !
 ! R74   R(61,62)                1.0851         calculate D2E/DX2 analytically  !
 ! R75   R(63,64)                1.0971         calculate D2E/DX2 analytically  !
 ! R76   R(63,65)                1.0936         calculate D2E/DX2 analytically  !
 ! R77   R(63,66)                1.0926         calculate D2E/DX2 analytically  !
 ! R78   R(67,68)                1.0958         calculate D2E/DX2 analytically  !
 ! R79   R(67,69)                1.0997         calculate D2E/DX2 analytically  !
 ! R80   R(67,70)                1.0931         calculate D2E/DX2 analytically  !
 ! R81   R(71,72)                1.0973         calculate D2E/DX2 analytically  !
 ! R82   R(71,73)                1.0983         calculate D2E/DX2 analytically  !
 ! R83   R(71,74)                1.0928         calculate D2E/DX2 analytically  !
 ! R84   R(75,76)                1.0924         calculate D2E/DX2 analytically  !
 ! R85   R(75,77)                1.1002         calculate D2E/DX2 analytically  !
 ! R86   R(75,78)                1.1004         calculate D2E/DX2 analytically  !
 ! R87   R(79,80)                1.0924         calculate D2E/DX2 analytically  !
 ! R88   R(79,81)                1.0969         calculate D2E/DX2 analytically  !
 ! R89   R(79,82)                1.1001         calculate D2E/DX2 analytically  !
 ! R90   R(83,84)                2.345          calculate D2E/DX2 analytically  !
 ! R91   R(84,85)                1.4129         calculate D2E/DX2 analytically  !
 ! R92   R(84,89)                1.418          calculate D2E/DX2 analytically  !
 ! R93   R(85,86)                1.0998         calculate D2E/DX2 analytically  !
 ! R94   R(85,87)                1.0928         calculate D2E/DX2 analytically  !
 ! R95   R(85,88)                1.0998         calculate D2E/DX2 analytically  !
 ! R96   R(89,90)                1.0997         calculate D2E/DX2 analytically  !
 ! R97   R(89,91)                1.094          calculate D2E/DX2 analytically  !
 ! R98   R(89,92)                1.0999         calculate D2E/DX2 analytically  !
 ! R99   R(93,94)                1.3505         calculate D2E/DX2 analytically  !
 ! R100  R(93,95)                1.344          calculate D2E/DX2 analytically  !
 ! R101  R(93,96)                1.3438         calculate D2E/DX2 analytically  !
 ! R102  R(97,98)                1.3465         calculate D2E/DX2 analytically  !
 ! R103  R(97,99)                1.3471         calculate D2E/DX2 analytically  !
 ! R104  R(97,100)               1.347          calculate D2E/DX2 analytically  !
 ! A1    A(2,1,5)              110.7599         calculate D2E/DX2 analytically  !
 ! A2    A(2,1,8)              108.1732         calculate D2E/DX2 analytically  !
 ! A3    A(2,1,14)             109.1854         calculate D2E/DX2 analytically  !
 ! A4    A(5,1,8)              108.7061         calculate D2E/DX2 analytically  !
 ! A5    A(5,1,14)             109.9967         calculate D2E/DX2 analytically  !
 ! A6    A(8,1,14)             109.9946         calculate D2E/DX2 analytically  !
 ! A7    A(1,2,3)              109.7211         calculate D2E/DX2 analytically  !
 ! A8    A(1,2,7)              108.9558         calculate D2E/DX2 analytically  !
 ! A9    A(1,2,13)             111.9816         calculate D2E/DX2 analytically  !
 ! A10   A(3,2,7)              106.6436         calculate D2E/DX2 analytically  !
 ! A11   A(3,2,13)             108.9863         calculate D2E/DX2 analytically  !
 ! A12   A(7,2,13)             110.4088         calculate D2E/DX2 analytically  !
 ! A13   A(2,3,6)              110.3536         calculate D2E/DX2 analytically  !
 ! A14   A(2,3,11)             109.9505         calculate D2E/DX2 analytically  !
 ! A15   A(2,3,12)             108.6788         calculate D2E/DX2 analytically  !
 ! A16   A(6,3,11)             104.8702         calculate D2E/DX2 analytically  !
 ! A17   A(6,3,12)             110.3047         calculate D2E/DX2 analytically  !
 ! A18   A(11,3,12)            112.6499         calculate D2E/DX2 analytically  !
 ! A19   A(5,4,9)              107.7684         calculate D2E/DX2 analytically  !
 ! A20   A(5,4,11)             110.3249         calculate D2E/DX2 analytically  !
 ! A21   A(5,4,16)             113.7747         calculate D2E/DX2 analytically  !
 ! A22   A(9,4,11)             108.953          calculate D2E/DX2 analytically  !
 ! A23   A(9,4,16)             109.0613         calculate D2E/DX2 analytically  !
 ! A24   A(11,4,16)            106.8782         calculate D2E/DX2 analytically  !
 ! A25   A(1,5,4)              112.3473         calculate D2E/DX2 analytically  !
 ! A26   A(1,5,10)             108.1274         calculate D2E/DX2 analytically  !
 ! A27   A(1,5,15)             108.9567         calculate D2E/DX2 analytically  !
 ! A28   A(4,5,10)             108.9192         calculate D2E/DX2 analytically  !
 ! A29   A(4,5,15)             108.2372         calculate D2E/DX2 analytically  !
 ! A30   A(10,5,15)            110.2522         calculate D2E/DX2 analytically  !
 ! A31   A(3,11,4)             114.7224         calculate D2E/DX2 analytically  !
 ! A32   A(3,12,79)            113.5254         calculate D2E/DX2 analytically  !
 ! A33   A(2,13,20)            113.9921         calculate D2E/DX2 analytically  !
 ! A34   A(1,14,24)            114.2983         calculate D2E/DX2 analytically  !
 ! A35   A(5,15,28)            114.6166         calculate D2E/DX2 analytically  !
 ! A36   A(4,16,17)            105.0522         calculate D2E/DX2 analytically  !
 ! A37   A(4,16,18)            105.2151         calculate D2E/DX2 analytically  !
 ! A38   A(4,16,19)            115.1392         calculate D2E/DX2 analytically  !
 ! A39   A(17,16,18)           104.8286         calculate D2E/DX2 analytically  !
 ! A40   A(17,16,19)           113.9687         calculate D2E/DX2 analytically  !
 ! A41   A(18,16,19)           111.6993         calculate D2E/DX2 analytically  !
 ! A42   A(16,18,91)           106.8871         calculate D2E/DX2 analytically  !
 ! A43   A(16,19,37)           126.5003         calculate D2E/DX2 analytically  !
 ! A44   A(16,19,83)           113.5106         calculate D2E/DX2 analytically  !
 ! A45   A(37,19,83)            67.9183         calculate D2E/DX2 analytically  !
 ! A46   A(13,20,21)           111.5686         calculate D2E/DX2 analytically  !
 ! A47   A(13,20,22)           111.7222         calculate D2E/DX2 analytically  !
 ! A48   A(13,20,23)           106.7206         calculate D2E/DX2 analytically  !
 ! A49   A(21,20,22)           108.7977         calculate D2E/DX2 analytically  !
 ! A50   A(21,20,23)           108.6111         calculate D2E/DX2 analytically  !
 ! A51   A(22,20,23)           109.3427         calculate D2E/DX2 analytically  !
 ! A52   A(14,24,25)           111.6718         calculate D2E/DX2 analytically  !
 ! A53   A(14,24,26)           111.5033         calculate D2E/DX2 analytically  !
 ! A54   A(14,24,27)           106.5669         calculate D2E/DX2 analytically  !
 ! A55   A(25,24,26)           108.8624         calculate D2E/DX2 analytically  !
 ! A56   A(25,24,27)           109.146          calculate D2E/DX2 analytically  !
 ! A57   A(26,24,27)           109.0187         calculate D2E/DX2 analytically  !
 ! A58   A(15,28,29)           111.5196         calculate D2E/DX2 analytically  !
 ! A59   A(15,28,30)           111.9759         calculate D2E/DX2 analytically  !
 ! A60   A(15,28,31)           106.6311         calculate D2E/DX2 analytically  !
 ! A61   A(29,28,30)           108.9307         calculate D2E/DX2 analytically  !
 ! A62   A(29,28,31)           108.9202         calculate D2E/DX2 analytically  !
 ! A63   A(30,28,31)           108.7683         calculate D2E/DX2 analytically  !
 ! A64   A(33,32,36)           108.08           calculate D2E/DX2 analytically  !
 ! A65   A(33,32,39)           109.1324         calculate D2E/DX2 analytically  !
 ! A66   A(33,32,45)           109.0046         calculate D2E/DX2 analytically  !
 ! A67   A(36,32,39)           110.1065         calculate D2E/DX2 analytically  !
 ! A68   A(36,32,45)           109.4783         calculate D2E/DX2 analytically  !
 ! A69   A(39,32,45)           110.9803         calculate D2E/DX2 analytically  !
 ! A70   A(32,33,34)           111.5874         calculate D2E/DX2 analytically  !
 ! A71   A(32,33,38)           109.0157         calculate D2E/DX2 analytically  !
 ! A72   A(32,33,44)           116.0347         calculate D2E/DX2 analytically  !
 ! A73   A(34,33,38)           102.4471         calculate D2E/DX2 analytically  !
 ! A74   A(34,33,44)           107.9372         calculate D2E/DX2 analytically  !
 ! A75   A(38,33,44)           108.9309         calculate D2E/DX2 analytically  !
 ! A76   A(33,34,37)           120.9572         calculate D2E/DX2 analytically  !
 ! A77   A(33,34,42)           122.8274         calculate D2E/DX2 analytically  !
 ! A78   A(33,34,53)            97.0183         calculate D2E/DX2 analytically  !
 ! A79   A(37,34,42)           114.7583         calculate D2E/DX2 analytically  !
 ! A80   A(37,34,53)            86.3817         calculate D2E/DX2 analytically  !
 ! A81   A(42,34,53)            98.212          calculate D2E/DX2 analytically  !
 ! A82   A(36,35,40)           109.1023         calculate D2E/DX2 analytically  !
 ! A83   A(36,35,42)           111.8289         calculate D2E/DX2 analytically  !
 ! A84   A(36,35,47)           114.7926         calculate D2E/DX2 analytically  !
 ! A85   A(40,35,42)           104.8897         calculate D2E/DX2 analytically  !
 ! A86   A(40,35,47)           108.8739         calculate D2E/DX2 analytically  !
 ! A87   A(42,35,47)           106.855          calculate D2E/DX2 analytically  !
 ! A88   A(32,36,35)           110.9628         calculate D2E/DX2 analytically  !
 ! A89   A(32,36,41)           108.5477         calculate D2E/DX2 analytically  !
 ! A90   A(32,36,46)           110.435          calculate D2E/DX2 analytically  !
 ! A91   A(35,36,41)           109.2702         calculate D2E/DX2 analytically  !
 ! A92   A(35,36,46)           106.9176         calculate D2E/DX2 analytically  !
 ! A93   A(41,36,46)           110.706          calculate D2E/DX2 analytically  !
 ! A94   A(19,37,34)            96.8665         calculate D2E/DX2 analytically  !
 ! A95   A(19,37,52)           118.5118         calculate D2E/DX2 analytically  !
 ! A96   A(34,37,52)           128.4167         calculate D2E/DX2 analytically  !
 ! A97   A(34,42,35)           121.4548         calculate D2E/DX2 analytically  !
 ! A98   A(33,44,63)           115.0818         calculate D2E/DX2 analytically  !
 ! A99   A(32,45,67)           114.1225         calculate D2E/DX2 analytically  !
 ! A100  A(36,46,71)           114.0235         calculate D2E/DX2 analytically  !
 ! A101  A(35,47,48)           107.7909         calculate D2E/DX2 analytically  !
 ! A102  A(35,47,49)           109.0441         calculate D2E/DX2 analytically  !
 ! A103  A(35,47,50)           109.345          calculate D2E/DX2 analytically  !
 ! A104  A(48,47,49)           107.7879         calculate D2E/DX2 analytically  !
 ! A105  A(48,47,50)           111.5175         calculate D2E/DX2 analytically  !
 ! A106  A(49,47,50)           111.2587         calculate D2E/DX2 analytically  !
 ! A107  A(47,50,75)           112.2471         calculate D2E/DX2 analytically  !
 ! A108  A(43,51,52)           114.4952         calculate D2E/DX2 analytically  !
 ! A109  A(43,51,53)           113.853          calculate D2E/DX2 analytically  !
 ! A110  A(43,51,54)           106.74           calculate D2E/DX2 analytically  !
 ! A111  A(52,51,53)           112.0872         calculate D2E/DX2 analytically  !
 ! A112  A(52,51,54)           104.0871         calculate D2E/DX2 analytically  !
 ! A113  A(53,51,54)           104.3727         calculate D2E/DX2 analytically  !
 ! A114  A(37,52,51)            92.6389         calculate D2E/DX2 analytically  !
 ! A115  A(34,53,51)           114.5106         calculate D2E/DX2 analytically  !
 ! A116  A(51,54,55)           119.2938         calculate D2E/DX2 analytically  !
 ! A117  A(51,54,56)           119.6789         calculate D2E/DX2 analytically  !
 ! A118  A(55,54,56)           120.9046         calculate D2E/DX2 analytically  !
 ! A119  A(54,55,57)           119.1532         calculate D2E/DX2 analytically  !
 ! A120  A(54,55,58)           120.0375         calculate D2E/DX2 analytically  !
 ! A121  A(57,55,58)           120.8084         calculate D2E/DX2 analytically  !
 ! A122  A(54,56,59)           119.3138         calculate D2E/DX2 analytically  !
 ! A123  A(54,56,60)           120.0172         calculate D2E/DX2 analytically  !
 ! A124  A(59,56,60)           120.6686         calculate D2E/DX2 analytically  !
 ! A125  A(55,57,61)           120.6668         calculate D2E/DX2 analytically  !
 ! A126  A(55,57,93)           119.4237         calculate D2E/DX2 analytically  !
 ! A127  A(61,57,93)           119.8187         calculate D2E/DX2 analytically  !
 ! A128  A(56,59,61)           120.5822         calculate D2E/DX2 analytically  !
 ! A129  A(56,59,97)           120.0997         calculate D2E/DX2 analytically  !
 ! A130  A(61,59,97)           119.2879         calculate D2E/DX2 analytically  !
 ! A131  A(57,61,59)           119.3735         calculate D2E/DX2 analytically  !
 ! A132  A(57,61,62)           120.2288         calculate D2E/DX2 analytically  !
 ! A133  A(59,61,62)           120.3977         calculate D2E/DX2 analytically  !
 ! A134  A(44,63,64)           111.1067         calculate D2E/DX2 analytically  !
 ! A135  A(44,63,65)           111.4902         calculate D2E/DX2 analytically  !
 ! A136  A(44,63,66)           106.2688         calculate D2E/DX2 analytically  !
 ! A137  A(64,63,65)           109.0477         calculate D2E/DX2 analytically  !
 ! A138  A(64,63,66)           109.2272         calculate D2E/DX2 analytically  !
 ! A139  A(65,63,66)           109.6449         calculate D2E/DX2 analytically  !
 ! A140  A(45,67,68)           111.5535         calculate D2E/DX2 analytically  !
 ! A141  A(45,67,69)           111.2451         calculate D2E/DX2 analytically  !
 ! A142  A(45,67,70)           106.5323         calculate D2E/DX2 analytically  !
 ! A143  A(68,67,69)           109.1014         calculate D2E/DX2 analytically  !
 ! A144  A(68,67,70)           109.4099         calculate D2E/DX2 analytically  !
 ! A145  A(69,67,70)           108.9288         calculate D2E/DX2 analytically  !
 ! A146  A(46,71,72)           111.2063         calculate D2E/DX2 analytically  !
 ! A147  A(46,71,73)           111.3278         calculate D2E/DX2 analytically  !
 ! A148  A(46,71,74)           106.5649         calculate D2E/DX2 analytically  !
 ! A149  A(72,71,73)           109.1362         calculate D2E/DX2 analytically  !
 ! A150  A(72,71,74)           109.2963         calculate D2E/DX2 analytically  !
 ! A151  A(73,71,74)           109.2497         calculate D2E/DX2 analytically  !
 ! A152  A(50,75,76)           107.0596         calculate D2E/DX2 analytically  !
 ! A153  A(50,75,77)           111.4026         calculate D2E/DX2 analytically  !
 ! A154  A(50,75,78)           111.383          calculate D2E/DX2 analytically  !
 ! A155  A(76,75,77)           109.1398         calculate D2E/DX2 analytically  !
 ! A156  A(76,75,78)           109.1977         calculate D2E/DX2 analytically  !
 ! A157  A(77,75,78)           108.6101         calculate D2E/DX2 analytically  !
 ! A158  A(12,79,80)           106.8092         calculate D2E/DX2 analytically  !
 ! A159  A(12,79,81)           111.6767         calculate D2E/DX2 analytically  !
 ! A160  A(12,79,82)           110.9078         calculate D2E/DX2 analytically  !
 ! A161  A(80,79,81)           109.3303         calculate D2E/DX2 analytically  !
 ! A162  A(80,79,82)           109.1453         calculate D2E/DX2 analytically  !
 ! A163  A(81,79,82)           108.918          calculate D2E/DX2 analytically  !
 ! A164  A(19,83,84)           103.4466         calculate D2E/DX2 analytically  !
 ! A165  A(83,84,85)           135.5922         calculate D2E/DX2 analytically  !
 ! A166  A(83,84,89)           111.14           calculate D2E/DX2 analytically  !
 ! A167  A(85,84,89)           112.6322         calculate D2E/DX2 analytically  !
 ! A168  A(84,85,86)           111.0595         calculate D2E/DX2 analytically  !
 ! A169  A(84,85,87)           107.4606         calculate D2E/DX2 analytically  !
 ! A170  A(84,85,88)           111.126          calculate D2E/DX2 analytically  !
 ! A171  A(86,85,87)           109.1963         calculate D2E/DX2 analytically  !
 ! A172  A(86,85,88)           108.7172         calculate D2E/DX2 analytically  !
 ! A173  A(87,85,88)           109.2443         calculate D2E/DX2 analytically  !
 ! A174  A(84,89,90)           110.9058         calculate D2E/DX2 analytically  !
 ! A175  A(84,89,91)           106.6016         calculate D2E/DX2 analytically  !
 ! A176  A(84,89,92)           110.8108         calculate D2E/DX2 analytically  !
 ! A177  A(90,89,91)           109.7897         calculate D2E/DX2 analytically  !
 ! A178  A(90,89,92)           108.8103         calculate D2E/DX2 analytically  !
 ! A179  A(91,89,92)           109.905          calculate D2E/DX2 analytically  !
 ! A180  A(18,91,89)           128.6216         calculate D2E/DX2 analytically  !
 ! A181  A(57,93,94)           111.1531         calculate D2E/DX2 analytically  !
 ! A182  A(57,93,95)           111.9865         calculate D2E/DX2 analytically  !
 ! A183  A(57,93,96)           111.8173         calculate D2E/DX2 analytically  !
 ! A184  A(94,93,95)           106.9576         calculate D2E/DX2 analytically  !
 ! A185  A(94,93,96)           106.9079         calculate D2E/DX2 analytically  !
 ! A186  A(95,93,96)           107.7401         calculate D2E/DX2 analytically  !
 ! A187  A(59,97,98)           112.1162         calculate D2E/DX2 analytically  !
 ! A188  A(59,97,99)           111.532          calculate D2E/DX2 analytically  !
 ! A189  A(59,97,100)          111.6294         calculate D2E/DX2 analytically  !
 ! A190  A(98,97,99)           106.973          calculate D2E/DX2 analytically  !
 ! A191  A(98,97,100)          107.5529         calculate D2E/DX2 analytically  !
 ! A192  A(99,97,100)          106.7374         calculate D2E/DX2 analytically  !
 ! D1    D(5,1,2,3)            -52.814          calculate D2E/DX2 analytically  !
 ! D2    D(5,1,2,7)             63.5986         calculate D2E/DX2 analytically  !
 ! D3    D(5,1,2,13)          -173.9723         calculate D2E/DX2 analytically  !
 ! D4    D(8,1,2,3)             66.2261         calculate D2E/DX2 analytically  !
 ! D5    D(8,1,2,7)           -177.3613         calculate D2E/DX2 analytically  !
 ! D6    D(8,1,2,13)           -54.9322         calculate D2E/DX2 analytically  !
 ! D7    D(14,1,2,3)          -174.0866         calculate D2E/DX2 analytically  !
 ! D8    D(14,1,2,7)           -57.6741         calculate D2E/DX2 analytically  !
 ! D9    D(14,1,2,13)           64.7551         calculate D2E/DX2 analytically  !
 ! D10   D(2,1,5,4)             49.7117         calculate D2E/DX2 analytically  !
 ! D11   D(2,1,5,10)           -70.5171         calculate D2E/DX2 analytically  !
 ! D12   D(2,1,5,15)           169.6437         calculate D2E/DX2 analytically  !
 ! D13   D(8,1,5,4)            -69.0063         calculate D2E/DX2 analytically  !
 ! D14   D(8,1,5,10)           170.7649         calculate D2E/DX2 analytically  !
 ! D15   D(8,1,5,15)            50.9258         calculate D2E/DX2 analytically  !
 ! D16   D(14,1,5,4)           170.5044         calculate D2E/DX2 analytically  !
 ! D17   D(14,1,5,10)           50.2756         calculate D2E/DX2 analytically  !
 ! D18   D(14,1,5,15)          -69.5636         calculate D2E/DX2 analytically  !
 ! D19   D(2,1,14,24)         -131.0405         calculate D2E/DX2 analytically  !
 ! D20   D(5,1,14,24)          107.2243         calculate D2E/DX2 analytically  !
 ! D21   D(8,1,14,24)          -12.4844         calculate D2E/DX2 analytically  !
 ! D22   D(1,2,3,6)            173.3153         calculate D2E/DX2 analytically  !
 ! D23   D(1,2,3,11)            58.1104         calculate D2E/DX2 analytically  !
 ! D24   D(1,2,3,12)           -65.6127         calculate D2E/DX2 analytically  !
 ! D25   D(7,2,3,6)             55.4543         calculate D2E/DX2 analytically  !
 ! D26   D(7,2,3,11)           -59.7506         calculate D2E/DX2 analytically  !
 ! D27   D(7,2,3,12)           176.5263         calculate D2E/DX2 analytically  !
 ! D28   D(13,2,3,6)           -63.7391         calculate D2E/DX2 analytically  !
 ! D29   D(13,2,3,11)         -178.944          calculate D2E/DX2 analytically  !
 ! D30   D(13,2,3,12)           57.3329         calculate D2E/DX2 analytically  !
 ! D31   D(1,2,13,20)         -100.6182         calculate D2E/DX2 analytically  !
 ! D32   D(3,2,13,20)          137.8002         calculate D2E/DX2 analytically  !
 ! D33   D(7,2,13,20)           20.9796         calculate D2E/DX2 analytically  !
 ! D34   D(2,3,11,4)           -61.97           calculate D2E/DX2 analytically  !
 ! D35   D(6,3,11,4)           179.3954         calculate D2E/DX2 analytically  !
 ! D36   D(12,3,11,4)           59.4061         calculate D2E/DX2 analytically  !
 ! D37   D(2,3,12,79)         -170.7161         calculate D2E/DX2 analytically  !
 ! D38   D(6,3,12,79)          -49.6141         calculate D2E/DX2 analytically  !
 ! D39   D(11,3,12,79)          67.1872         calculate D2E/DX2 analytically  !
 ! D40   D(9,4,5,1)             68.7921         calculate D2E/DX2 analytically  !
 ! D41   D(9,4,5,10)          -171.4386         calculate D2E/DX2 analytically  !
 ! D42   D(9,4,5,15)           -51.5569         calculate D2E/DX2 analytically  !
 ! D43   D(11,4,5,1)           -50.0505         calculate D2E/DX2 analytically  !
 ! D44   D(11,4,5,10)           69.7188         calculate D2E/DX2 analytically  !
 ! D45   D(11,4,5,15)         -170.3995         calculate D2E/DX2 analytically  !
 ! D46   D(16,4,5,1)          -170.1497         calculate D2E/DX2 analytically  !
 ! D47   D(16,4,5,10)          -50.3804         calculate D2E/DX2 analytically  !
 ! D48   D(16,4,5,15)           69.5013         calculate D2E/DX2 analytically  !
 ! D49   D(5,4,11,3)            57.4245         calculate D2E/DX2 analytically  !
 ! D50   D(9,4,11,3)           -60.6933         calculate D2E/DX2 analytically  !
 ! D51   D(16,4,11,3)         -178.4059         calculate D2E/DX2 analytically  !
 ! D52   D(5,4,16,17)          -56.3563         calculate D2E/DX2 analytically  !
 ! D53   D(5,4,16,18)         -166.7085         calculate D2E/DX2 analytically  !
 ! D54   D(5,4,16,19)           69.8635         calculate D2E/DX2 analytically  !
 ! D55   D(9,4,16,17)           63.9767         calculate D2E/DX2 analytically  !
 ! D56   D(9,4,16,18)          -46.3755         calculate D2E/DX2 analytically  !
 ! D57   D(9,4,16,19)         -169.8034         calculate D2E/DX2 analytically  !
 ! D58   D(11,4,16,17)        -178.3818         calculate D2E/DX2 analytically  !
 ! D59   D(11,4,16,18)          71.266          calculate D2E/DX2 analytically  !
 ! D60   D(11,4,16,19)         -52.162          calculate D2E/DX2 analytically  !
 ! D61   D(1,5,15,28)          114.0619         calculate D2E/DX2 analytically  !
 ! D62   D(4,5,15,28)         -123.4948         calculate D2E/DX2 analytically  !
 ! D63   D(10,5,15,28)          -4.4527         calculate D2E/DX2 analytically  !
 ! D64   D(3,12,79,80)         175.7947         calculate D2E/DX2 analytically  !
 ! D65   D(3,12,79,81)         -64.7215         calculate D2E/DX2 analytically  !
 ! D66   D(3,12,79,82)          56.9684         calculate D2E/DX2 analytically  !
 ! D67   D(2,13,20,21)         -61.6171         calculate D2E/DX2 analytically  !
 ! D68   D(2,13,20,22)          60.4193         calculate D2E/DX2 analytically  !
 ! D69   D(2,13,20,23)         179.8886         calculate D2E/DX2 analytically  !
 ! D70   D(1,14,24,25)         -57.9911         calculate D2E/DX2 analytically  !
 ! D71   D(1,14,24,26)          64.0462         calculate D2E/DX2 analytically  !
 ! D72   D(1,14,24,27)        -177.0967         calculate D2E/DX2 analytically  !
 ! D73   D(5,15,28,29)         -58.0863         calculate D2E/DX2 analytically  !
 ! D74   D(5,15,28,30)          64.2694         calculate D2E/DX2 analytically  !
 ! D75   D(5,15,28,31)        -176.8728         calculate D2E/DX2 analytically  !
 ! D76   D(4,16,18,91)        -119.676          calculate D2E/DX2 analytically  !
 ! D77   D(17,16,18,91)        129.8117         calculate D2E/DX2 analytically  !
 ! D78   D(19,16,18,91)          5.9194         calculate D2E/DX2 analytically  !
 ! D79   D(4,16,19,37)         -35.4791         calculate D2E/DX2 analytically  !
 ! D80   D(4,16,19,83)          43.68           calculate D2E/DX2 analytically  !
 ! D81   D(17,16,19,37)         86.0257         calculate D2E/DX2 analytically  !
 ! D82   D(17,16,19,83)        165.1847         calculate D2E/DX2 analytically  !
 ! D83   D(18,16,19,37)       -155.3965         calculate D2E/DX2 analytically  !
 ! D84   D(18,16,19,83)        -76.2375         calculate D2E/DX2 analytically  !
 ! D85   D(16,18,91,89)        130.9094         calculate D2E/DX2 analytically  !
 ! D86   D(16,19,37,34)       -127.4621         calculate D2E/DX2 analytically  !
 ! D87   D(16,19,37,52)         91.4908         calculate D2E/DX2 analytically  !
 ! D88   D(83,19,37,34)        128.9259         calculate D2E/DX2 analytically  !
 ! D89   D(83,19,37,52)        -12.1211         calculate D2E/DX2 analytically  !
 ! D90   D(16,19,83,84)         80.8045         calculate D2E/DX2 analytically  !
 ! D91   D(37,19,83,84)       -157.6257         calculate D2E/DX2 analytically  !
 ! D92   D(36,32,33,34)        -48.4405         calculate D2E/DX2 analytically  !
 ! D93   D(36,32,33,38)         63.9886         calculate D2E/DX2 analytically  !
 ! D94   D(36,32,33,44)       -172.627          calculate D2E/DX2 analytically  !
 ! D95   D(39,32,33,34)         71.2965         calculate D2E/DX2 analytically  !
 ! D96   D(39,32,33,38)       -176.2744         calculate D2E/DX2 analytically  !
 ! D97   D(39,32,33,44)        -52.89           calculate D2E/DX2 analytically  !
 ! D98   D(45,32,33,34)       -167.3502         calculate D2E/DX2 analytically  !
 ! D99   D(45,32,33,38)        -54.9212         calculate D2E/DX2 analytically  !
 ! D100  D(45,32,33,44)         68.4633         calculate D2E/DX2 analytically  !
 ! D101  D(33,32,36,35)         58.7339         calculate D2E/DX2 analytically  !
 ! D102  D(33,32,36,41)        -61.3536         calculate D2E/DX2 analytically  !
 ! D103  D(33,32,36,46)        177.1125         calculate D2E/DX2 analytically  !
 ! D104  D(39,32,36,35)        -60.3876         calculate D2E/DX2 analytically  !
 ! D105  D(39,32,36,41)        179.5249         calculate D2E/DX2 analytically  !
 ! D106  D(39,32,36,46)         57.991          calculate D2E/DX2 analytically  !
 ! D107  D(45,32,36,35)        177.3424         calculate D2E/DX2 analytically  !
 ! D108  D(45,32,36,41)         57.2549         calculate D2E/DX2 analytically  !
 ! D109  D(45,32,36,46)        -64.279          calculate D2E/DX2 analytically  !
 ! D110  D(33,32,45,67)       -138.9103         calculate D2E/DX2 analytically  !
 ! D111  D(36,32,45,67)        103.0567         calculate D2E/DX2 analytically  !
 ! D112  D(39,32,45,67)        -18.6894         calculate D2E/DX2 analytically  !
 ! D113  D(32,33,34,37)       -160.8841         calculate D2E/DX2 analytically  !
 ! D114  D(32,33,34,42)         33.6166         calculate D2E/DX2 analytically  !
 ! D115  D(32,33,34,53)        -70.9015         calculate D2E/DX2 analytically  !
 ! D116  D(38,33,34,37)         82.6172         calculate D2E/DX2 analytically  !
 ! D117  D(38,33,34,42)        -82.8821         calculate D2E/DX2 analytically  !
 ! D118  D(38,33,34,53)        172.5999         calculate D2E/DX2 analytically  !
 ! D119  D(44,33,34,37)        -32.259          calculate D2E/DX2 analytically  !
 ! D120  D(44,33,34,42)        162.2417         calculate D2E/DX2 analytically  !
 ! D121  D(44,33,34,53)         57.7236         calculate D2E/DX2 analytically  !
 ! D122  D(32,33,44,63)        -74.8004         calculate D2E/DX2 analytically  !
 ! D123  D(34,33,44,63)        159.1479         calculate D2E/DX2 analytically  !
 ! D124  D(38,33,44,63)         48.6282         calculate D2E/DX2 analytically  !
 ! D125  D(33,34,37,19)        -60.5265         calculate D2E/DX2 analytically  !
 ! D126  D(33,34,37,52)         74.6379         calculate D2E/DX2 analytically  !
 ! D127  D(42,34,37,19)        106.0761         calculate D2E/DX2 analytically  !
 ! D128  D(42,34,37,52)       -118.7595         calculate D2E/DX2 analytically  !
 ! D129  D(53,34,37,19)       -156.5442         calculate D2E/DX2 analytically  !
 ! D130  D(53,34,37,52)        -21.3798         calculate D2E/DX2 analytically  !
 ! D131  D(33,34,42,35)        -25.7129         calculate D2E/DX2 analytically  !
 ! D132  D(37,34,42,35)        167.9647         calculate D2E/DX2 analytically  !
 ! D133  D(53,34,42,35)         78.1745         calculate D2E/DX2 analytically  !
 ! D134  D(33,34,53,51)       -111.0207         calculate D2E/DX2 analytically  !
 ! D135  D(37,34,53,51)          9.7453         calculate D2E/DX2 analytically  !
 ! D136  D(42,34,53,51)        124.2551         calculate D2E/DX2 analytically  !
 ! D137  D(40,35,36,32)         65.5184         calculate D2E/DX2 analytically  !
 ! D138  D(40,35,36,41)       -174.825          calculate D2E/DX2 analytically  !
 ! D139  D(40,35,36,46)        -54.9679         calculate D2E/DX2 analytically  !
 ! D140  D(42,35,36,32)        -50.0545         calculate D2E/DX2 analytically  !
 ! D141  D(42,35,36,41)         69.6021         calculate D2E/DX2 analytically  !
 ! D142  D(42,35,36,46)       -170.5408         calculate D2E/DX2 analytically  !
 ! D143  D(47,35,36,32)       -171.9977         calculate D2E/DX2 analytically  !
 ! D144  D(47,35,36,41)        -52.341          calculate D2E/DX2 analytically  !
 ! D145  D(47,35,36,46)         67.516          calculate D2E/DX2 analytically  !
 ! D146  D(36,35,42,34)         33.1112         calculate D2E/DX2 analytically  !
 ! D147  D(40,35,42,34)        -85.0065         calculate D2E/DX2 analytically  !
 ! D148  D(47,35,42,34)        159.5067         calculate D2E/DX2 analytically  !
 ! D149  D(36,35,47,48)        -66.8052         calculate D2E/DX2 analytically  !
 ! D150  D(36,35,47,49)        176.4395         calculate D2E/DX2 analytically  !
 ! D151  D(36,35,47,50)         54.5884         calculate D2E/DX2 analytically  !
 ! D152  D(40,35,47,48)         55.8019         calculate D2E/DX2 analytically  !
 ! D153  D(40,35,47,49)        -60.9534         calculate D2E/DX2 analytically  !
 ! D154  D(40,35,47,50)        177.1955         calculate D2E/DX2 analytically  !
 ! D155  D(42,35,47,48)        168.5899         calculate D2E/DX2 analytically  !
 ! D156  D(42,35,47,49)         51.8346         calculate D2E/DX2 analytically  !
 ! D157  D(42,35,47,50)        -70.0165         calculate D2E/DX2 analytically  !
 ! D158  D(32,36,46,71)        117.8751         calculate D2E/DX2 analytically  !
 ! D159  D(35,36,46,71)       -121.3021         calculate D2E/DX2 analytically  !
 ! D160  D(41,36,46,71)         -2.3722         calculate D2E/DX2 analytically  !
 ! D161  D(19,37,52,51)        158.5207         calculate D2E/DX2 analytically  !
 ! D162  D(34,37,52,51)         31.3306         calculate D2E/DX2 analytically  !
 ! D163  D(33,44,63,64)        -40.7017         calculate D2E/DX2 analytically  !
 ! D164  D(33,44,63,65)         81.1643         calculate D2E/DX2 analytically  !
 ! D165  D(33,44,63,66)       -159.4112         calculate D2E/DX2 analytically  !
 ! D166  D(32,45,67,68)        -58.7521         calculate D2E/DX2 analytically  !
 ! D167  D(32,45,67,69)         63.3253         calculate D2E/DX2 analytically  !
 ! D168  D(32,45,67,70)       -178.0901         calculate D2E/DX2 analytically  !
 ! D169  D(36,46,71,72)        -62.6983         calculate D2E/DX2 analytically  !
 ! D170  D(36,46,71,73)         59.2376         calculate D2E/DX2 analytically  !
 ! D171  D(36,46,71,74)        178.2753         calculate D2E/DX2 analytically  !
 ! D172  D(35,47,50,75)        179.9074         calculate D2E/DX2 analytically  !
 ! D173  D(48,47,50,75)        -60.9816         calculate D2E/DX2 analytically  !
 ! D174  D(49,47,50,75)         59.3994         calculate D2E/DX2 analytically  !
 ! D175  D(47,50,75,76)       -179.9978         calculate D2E/DX2 analytically  !
 ! D176  D(47,50,75,77)        -60.7463         calculate D2E/DX2 analytically  !
 ! D177  D(47,50,75,78)         60.6915         calculate D2E/DX2 analytically  !
 ! D178  D(43,51,52,37)       -146.5509         calculate D2E/DX2 analytically  !
 ! D179  D(53,51,52,37)        -14.9088         calculate D2E/DX2 analytically  !
 ! D180  D(54,51,52,37)         97.3026         calculate D2E/DX2 analytically  !
 ! D181  D(43,51,53,34)        141.7497         calculate D2E/DX2 analytically  !
 ! D182  D(52,51,53,34)          9.7852         calculate D2E/DX2 analytically  !
 ! D183  D(54,51,53,34)       -102.2481         calculate D2E/DX2 analytically  !
 ! D184  D(43,51,54,55)        -36.1634         calculate D2E/DX2 analytically  !
 ! D185  D(43,51,54,56)        147.8249         calculate D2E/DX2 analytically  !
 ! D186  D(52,51,54,55)         85.2943         calculate D2E/DX2 analytically  !
 ! D187  D(52,51,54,56)        -90.7174         calculate D2E/DX2 analytically  !
 ! D188  D(53,51,54,55)       -157.0275         calculate D2E/DX2 analytically  !
 ! D189  D(53,51,54,56)         26.9608         calculate D2E/DX2 analytically  !
 ! D190  D(51,54,55,57)       -175.0513         calculate D2E/DX2 analytically  !
 ! D191  D(51,54,55,58)          5.2862         calculate D2E/DX2 analytically  !
 ! D192  D(56,54,55,57)          0.9101         calculate D2E/DX2 analytically  !
 ! D193  D(56,54,55,58)       -178.7523         calculate D2E/DX2 analytically  !
 ! D194  D(51,54,56,59)        175.395          calculate D2E/DX2 analytically  !
 ! D195  D(51,54,56,60)         -4.3669         calculate D2E/DX2 analytically  !
 ! D196  D(55,54,56,59)         -0.5511         calculate D2E/DX2 analytically  !
 ! D197  D(55,54,56,60)        179.687          calculate D2E/DX2 analytically  !
 ! D198  D(54,55,57,61)         -0.6165         calculate D2E/DX2 analytically  !
 ! D199  D(54,55,57,93)        175.9129         calculate D2E/DX2 analytically  !
 ! D200  D(58,55,57,61)        179.0433         calculate D2E/DX2 analytically  !
 ! D201  D(58,55,57,93)         -4.4273         calculate D2E/DX2 analytically  !
 ! D202  D(54,56,59,61)         -0.1103         calculate D2E/DX2 analytically  !
 ! D203  D(54,56,59,97)        177.8779         calculate D2E/DX2 analytically  !
 ! D204  D(60,56,59,61)        179.65           calculate D2E/DX2 analytically  !
 ! D205  D(60,56,59,97)         -2.3618         calculate D2E/DX2 analytically  !
 ! D206  D(55,57,61,59)         -0.0285         calculate D2E/DX2 analytically  !
 ! D207  D(55,57,61,62)        179.9368         calculate D2E/DX2 analytically  !
 ! D208  D(93,57,61,59)       -176.5442         calculate D2E/DX2 analytically  !
 ! D209  D(93,57,61,62)          3.421          calculate D2E/DX2 analytically  !
 ! D210  D(55,57,93,94)        -84.842          calculate D2E/DX2 analytically  !
 ! D211  D(55,57,93,95)        155.5878         calculate D2E/DX2 analytically  !
 ! D212  D(55,57,93,96)         34.5515         calculate D2E/DX2 analytically  !
 ! D213  D(61,57,93,94)         91.7173         calculate D2E/DX2 analytically  !
 ! D214  D(61,57,93,95)        -27.8529         calculate D2E/DX2 analytically  !
 ! D215  D(61,57,93,96)       -148.8892         calculate D2E/DX2 analytically  !
 ! D216  D(56,59,61,57)          0.3959         calculate D2E/DX2 analytically  !
 ! D217  D(56,59,61,62)       -179.5693         calculate D2E/DX2 analytically  !
 ! D218  D(97,59,61,57)       -177.6085         calculate D2E/DX2 analytically  !
 ! D219  D(97,59,61,62)          2.4263         calculate D2E/DX2 analytically  !
 ! D220  D(56,59,97,98)         20.8602         calculate D2E/DX2 analytically  !
 ! D221  D(56,59,97,99)        -99.0795         calculate D2E/DX2 analytically  !
 ! D222  D(56,59,97,100)       141.6133         calculate D2E/DX2 analytically  !
 ! D223  D(61,59,97,98)       -161.1256         calculate D2E/DX2 analytically  !
 ! D224  D(61,59,97,99)         78.9346         calculate D2E/DX2 analytically  !
 ! D225  D(61,59,97,100)       -40.3726         calculate D2E/DX2 analytically  !
 ! D226  D(19,83,84,85)       -170.0777         calculate D2E/DX2 analytically  !
 ! D227  D(19,83,84,89)         -0.2285         calculate D2E/DX2 analytically  !
 ! D228  D(83,84,85,86)       -129.7785         calculate D2E/DX2 analytically  !
 ! D229  D(83,84,85,87)        -10.4068         calculate D2E/DX2 analytically  !
 ! D230  D(83,84,85,88)        109.0619         calculate D2E/DX2 analytically  !
 ! D231  D(89,84,85,86)         60.4802         calculate D2E/DX2 analytically  !
 ! D232  D(89,84,85,87)        179.8519         calculate D2E/DX2 analytically  !
 ! D233  D(89,84,85,88)        -60.6794         calculate D2E/DX2 analytically  !
 ! D234  D(83,84,89,90)       -112.1536         calculate D2E/DX2 analytically  !
 ! D235  D(83,84,89,91)          7.3236         calculate D2E/DX2 analytically  !
 ! D236  D(83,84,89,92)        126.887          calculate D2E/DX2 analytically  !
 ! D237  D(85,84,89,90)         60.1679         calculate D2E/DX2 analytically  !
 ! D238  D(85,84,89,91)        179.6451         calculate D2E/DX2 analytically  !
 ! D239  D(85,84,89,92)        -60.7915         calculate D2E/DX2 analytically  !
 ! D240  D(84,89,91,18)        -89.5397         calculate D2E/DX2 analytically  !
 ! D241  D(90,89,91,18)         30.6591         calculate D2E/DX2 analytically  !
 ! D242  D(92,89,91,18)        150.3114         calculate D2E/DX2 analytically  !
 --------------------------------------------------------------------------------
 Trust Radius=5.00D-02 FncErr=1.00D-07 GrdErr=1.00D-06 EigMax=2.50D+02 EigMin=1.00D-04
 Number of steps in this run=    548 maximum allowed number of steps=    600.
 Search for a saddle point of order  1.
 GradGradGradGradGradGradGradGradGradGradGradGradGradGradGradGradGradGrad

 Leave Link  103 at Wed Jun  5 12:47:30 2019, MaxMem=  6442450944 cpu:               4.8 elap:               0.2
 (Enter /home/ekwan/sw/g16/l202.exe)
 Stoichiometry    C30H47F6NaO15S
 Framework group  C1[X(C30H47F6NaO15S)]
 Deg. of freedom   294
 Full point group                 C1      NOp   1
 Largest Abelian subgroup         C1      NOp   1
 Largest concise Abelian subgroup C1      NOp   1
                         Standard orientation:                         
 ---------------------------------------------------------------------
 Center     Atomic      Atomic             Coordinates (Angstroms)
 Number     Number       Type             X           Y           Z
 ---------------------------------------------------------------------
      1          6           0       -1.953067    1.692174    2.259757
      2          6           0       -2.283358    2.453873    0.978762
      3          6           0       -1.418820    3.712535    0.889194
      4          6           0        0.377025    2.701218    2.129989
      5          6           0       -0.449851    1.433337    2.364045
      6          1           0       -1.561315    4.206431   -0.084217
      7          1           0       -2.019880    1.828445    0.113159
      8          1           0       -2.264746    2.308002    3.114672
      9          1           0        0.207198    3.374963    2.982836
     10          1           0       -0.178251    0.685855    1.605862
     11          8           0       -0.048477    3.360356    0.920622
     12          8           0       -1.775518    4.573650    1.925208
     13          8           0       -3.645528    2.826579    0.921150
     14          8           0       -2.660113    0.459217    2.265526
     15          8           0       -0.154740    0.943679    3.665706
     16          6           0        1.887616    2.439775    1.988814
     17          1           0        2.176711    1.906119    2.920761
     18          1           0        2.367558    3.443101    2.073786
     19          8           0        2.261894    1.794770    0.838958
     20          6           0       -4.438305    1.985016    0.105273
     21          1           0       -4.099275    2.000365   -0.941761
     22          1           0       -4.431531    0.949349    0.463497
     23          1           0       -5.459069    2.376389    0.147524
     24          6           0       -3.356201    0.193435    3.466905
     25          1           0       -2.681963    0.186635    4.333042
     26          1           0       -4.153465    0.930804    3.642597
     27          1           0       -3.805381   -0.796962    3.354367
     28          6           0        0.311715   -0.390402    3.701275
     29          1           0       -0.412915   -1.082607    3.252190
     30          1           0        1.276840   -0.502350    3.188183
     31          1           0        0.442047   -0.648667    4.756935
     32          6           0        4.035353   -1.377065   -1.273036
     33          6           0        3.262347   -0.103096   -0.923526
     34          6           0        1.984617   -0.413243   -0.204159
     35          6           0        2.707252   -2.595012    0.487307
     36          6           0        4.106251   -2.249213   -0.017322
     37          1           0        1.189170    0.307565   -0.154590
     38          1           0        3.830485    0.466342   -0.165299
     39          1           0        3.506266   -1.910868   -2.074184
     40          1           0        2.204210   -3.225699   -0.254357
     41          1           0        4.646001   -1.695924    0.762066
     42          8           0        1.862787   -1.407228    0.605150
     43          8           0       -0.363977   -0.426132   -3.873535
     44          8           0        2.957588    0.748550   -1.999691
     45          8           0        5.341700   -1.025968   -1.676663
     46          8           0        4.754119   -3.471070   -0.301686
     47          6           0        2.671452   -3.292439    1.826588
     48          1           0        3.127022   -4.287229    1.700263
     49          1           0        1.621447   -3.438773    2.127895
     50          8           0        3.369713   -2.522194    2.771098
     51         16           0       -0.227381   -0.430816   -2.410301
     52          8           0       -0.251877    0.922168   -1.782485
     53          8           0        0.918963   -1.266533   -1.908876
     54          6           0       -1.690279   -1.242588   -1.756736
     55          6           0       -2.914825   -1.048628   -2.386725
     56          6           0       -1.599697   -1.986202   -0.584030
     57          6           0       -4.065080   -1.594459   -1.818345
     58          1           0       -2.966393   -0.483112   -3.311938
     59          6           0       -2.755095   -2.531559   -0.032031
     60          1           0       -0.636729   -2.132618   -0.107588
     61          6           0       -3.992792   -2.336158   -0.641941
     62          1           0       -4.892646   -2.756864   -0.205201
     63          6           0        4.055905    1.505670   -2.500646
     64          1           0        4.683262    1.880525   -1.682417
     65          1           0        4.673621    0.913196   -3.181375
     66          1           0        3.623684    2.352207   -3.039517
     67          6           0        5.823095   -1.764108   -2.788203
     68          1           0        5.832103   -2.840519   -2.583218
     69          1           0        5.216803   -1.573748   -3.685729
     70          1           0        6.844621   -1.420536   -2.970902
     71          6           0        5.954365   -3.672485    0.428933
     72          1           0        6.702871   -2.909342    0.180886
     73          1           0        5.770234   -3.657698    1.511580
     74          1           0        6.332838   -4.656482    0.141248
     75          6           0        3.372768   -3.119493    4.051353
     76          1           0        3.933408   -2.455628    4.713370
     77          1           0        2.350922   -3.238791    4.441145
     78          1           0        3.858875   -4.106563    4.032419
     79          6           0       -1.187591    5.858911    1.820290
     80          1           0       -1.596230    6.460703    2.635248
     81          1           0       -0.095628    5.813865    1.914384
     82          1           0       -1.443684    6.330574    0.859964
     83         11           0        1.231796    2.583274   -1.014194
     84          8           0        2.467398    4.503032   -1.549811
     85          6           0        2.317017    5.581560   -2.450004
     86          1           0        3.232146    5.733914   -3.040589
     87          1           0        1.492083    5.334487   -3.122870
     88          1           0        2.082356    6.513882   -1.915915
     89          6           0        3.519471    4.709457   -0.621844
     90          1           0        3.337877    5.609403   -0.016574
     91          1           0        3.543813    3.827106    0.024454
     92          1           0        4.482703    4.819842   -1.141321
     93          6           0       -5.403132   -1.311475   -2.442663
     94          9           0       -5.910070   -0.140978   -1.999159
     95          9           0       -6.305416   -2.264455   -2.152553
     96          9           0       -5.320497   -1.219588   -3.780747
     97          6           0       -2.671590   -3.377540    1.207677
     98          9           0       -1.538696   -3.152349    1.899716
     99          9           0       -2.697284   -4.691539    0.912199
    100          9           0       -3.707211   -3.146182    2.037333
 ---------------------------------------------------------------------
 Rotational constants (GHZ):           0.0554829           0.0418262           0.0355132
 Leave Link  202 at Wed Jun  5 12:47:30 2019, MaxMem=  6442450944 cpu:               5.0 elap:               0.2
 (Enter /home/ekwan/sw/g16/l301.exe)
 Standard basis: 6-31G(d) (6D, 7F)
 Ernie: Thresh=  0.10000D-02 Tol=  0.10000D-05 Strict=F.
 There are   897 symmetry adapted cartesian basis functions of A   symmetry.
 There are   897 symmetry adapted basis functions of A   symmetry.
   897 basis functions,  1720 primitive gaussians,   897 cartesian basis functions
   214 alpha electrons      214 beta electrons
       nuclear repulsion energy      9568.6555731690 Hartrees.
 IExCor=  909 DFT=T Ex+Corr=mPW3PBE ExCW=0 ScaHFX=  0.200000
 ScaDFX=  0.800000  0.720000  1.000000  0.810000 ScalE2=  1.000000  1.000000
 IRadAn=      5 IRanWt=     -1 IRanGd=            0 ICorTp=0 IEmpDi=  4
 NAtoms=  100 NActive=  100 NUniq=  100 SFac= 1.00D+00 NAtFMM=   60 NAOKFM=T Big=T
 Integral buffers will be    131072 words long.
 Raffenetti 2 integral format.
 Two-electron integral symmetry is turned on.
 Force inversion solution in PCM.
 ------------------------------------------------------------------------------
 Polarizable Continuum Model (PCM)
 =================================
 Model                : PCM.
 Atomic radii         : UFF (Universal Force Field).
 Polarization charges : Total charges.
 Charge compensation  : None.
 Solution method      : Matrix inversion.
 Cavity type          : Scaled VdW (van der Waals Surface) (Alpha=1.100).
 Cavity algorithm     : GePol (No added spheres)
                        Default sphere list used, NSphG=  100.
                        Lebedev-Laikov grids with approx.  5.0 points / Ang**2.
                        Smoothing algorithm: York/Karplus (Gamma=1.0000).
                        Polarization charges: spherical gaussians, with
                                              point-specific exponents (IZeta= 3).
                        Self-potential: point-specific (ISelfS= 7).
                        Self-field    : sphere-specific E.n sum rule (ISelfD= 2).
 1st derivatives      : Analytical E(r).r(x)/FMM algorithm (CHGder, D1EAlg=3).
                        Cavity 1st derivative terms included.
 2nd derivatives      : Analytical E(r).r(xy)/FMM algorithm (CHGder, D2EAlg=3).
                        Cavity 2nd derivative terms included.
 Solvent              : TetraHydroFuran, Eps=   7.425700 Eps(inf)=   1.974025
 ------------------------------------------------------------------------------
 GePol: Number of generator spheres                  =     100
 GePol: Total number of spheres                      =     100
 GePol: Number of exposed spheres                    =     100 (100.00%)
 GePol: Number of points                             =    6525
 GePol: Average weight of points                     =       0.12
 GePol: Minimum weight of points                     =   0.17D-09
 GePol: Maximum weight of points                     =    0.21593
 GePol: Number of points with low weight             =     475
 GePol: Fraction of low-weight points (<1% of avg)   =       7.28%
 GePol: Cavity surface area                          =    804.881 Ang**2
 GePol: Cavity volume                                =    991.677 Ang**3
 Leave Link  301 at Wed Jun  5 12:47:30 2019, MaxMem=  6442450944 cpu:               9.0 elap:               0.4
 (Enter /home/ekwan/sw/g16/l302.exe)
 NPDir=0 NMtPBC=     1 NCelOv=     1 NCel=       1 NClECP=     1 NCelD=      1
         NCelK=      1 NCelE2=     1 NClLst=     1 CellRange=     0.0.
 One-electron integrals computed using PRISM.
 One-electron integral symmetry used in STVInt
 NBasis=   897 RedAO= T EigKep=  3.92D-04  NBF=   897
 NBsUse=   897 1.00D-06 EigRej= -1.00D+00 NBFU=   897
 Precomputing XC quadrature grid using
 IXCGrd= 4 IRadAn=           5 IRanWt=          -1 IRanGd=           0 AccXCQ= 0.00D+00.
 Generated NRdTot=       0 NPtTot=           0 NUsed=           0 NTot=          32
 NSgBfM=   837   837   837   837   837 MxSgAt=   100 MxSgA2=   100.
 Leave Link  302 at Wed Jun  5 12:47:45 2019, MaxMem=  6442450944 cpu:             439.2 elap:              14.7
 (Enter /home/ekwan/sw/g16/l303.exe)
 DipDrv:  MaxL=1.
 Leave Link  303 at Wed Jun  5 12:47:46 2019, MaxMem=  6442450944 cpu:              13.3 elap:               0.6
 (Enter /home/ekwan/sw/g16/l401.exe)
 ExpMin= 2.60D-02 ExpMax= 2.19D+04 ExpMxC= 3.30D+03 IAcc=3 IRadAn=         5 AccDes= 0.00D+00
 Harris functional with IExCor=  909 and IRadAn=       5 diagonalized for initial guess.
 HarFok:  IExCor=  909 AccDes= 0.00D+00 IRadAn=         5 IDoV= 1 UseB2=F ITyADJ=14
 ICtDFT=  3500011 ScaDFX=  1.000000  1.000000  1.000000  1.000000
 FoFCou: FMM=F IPFlag=           0 FMFlag=      100000 FMFlg1=        2001
         NFxFlg=           0 DoJE=T BraDBF=F KetDBF=T FulRan=T
         wScrn=  0.000000 ICntrl=       500 IOpCl=  0 I1Cent=   200000004 NGrid=           0
[...]
 5,-0.00007995,0.00003019,-0.00001010,0.00005266,-0.00008732,0.00003060
 ,-0.00004572,0.00010537,-0.00005411,0.00350332,0.00124151,-0.00115120,
 -0.00083417,-0.00109303,-0.00002051,-0.00162039,0.00010036,-0.00015694
 ,-0.00057842,0.00086151,0.00231340,0.00005106,-0.00079920,0.00046613,0
 .00386726,-0.00113313,0.00100362,0.00001043,0.00070484,0.00210195,0.00
 009653,-0.00019365,-0.00014009,-0.00130974,-0.04404230,0.00200663,0.00
 024652,-0.00074199,-0.00089316,-0.00337780,-0.00036260,0.00005568,0.00
 044445,-0.00087636,-0.00081920,0.00009415,0.00007101,-0.00005519,-0.00
 001886,-0.00000974,-0.00000587,-0.00002343,-0.00000297,0.00001582,0.00
 000169,-0.00000796,0.00000451,0.00002833,-0.00005351,-0.00006294,-0.00
 000459,0.00001517,0.00000201,0.00000133,-0.00000002,0.00000768,-0.0000
 0873,0.00000384,0.00000934,0.00004894,-0.00001593,0.00003623,-0.000003
 07,0.00000211,-0.00000592,-0.00000146,-0.00000767,-0.00000821,-0.00001
 890,0.00001094,0.00000111,0.00003577,-0.00005598,0.00005844,0.00000211
 ,0.00000526,-0.00000478,0.00000610,-0.00001277,0.00000168,-0.00002660,
 0.00002224,-0.00000049,0.00004011,0.00010338,-0.00001288,0.00000061,-0
 .00001873,-0.00000880,-0.00001434,-0.00000694,0.00000372,-0.00000487,-
 0.00001209,0.00001309,0.00015480,0.00019748,0.00003057,-0.00004423,-0.
 00003822,-0.00000433,0.00000508,0.00002828,-0.00002103,-0.00000922,-0.
 00000364,0.00000543,0.00000327,0.00000500,-0.00000476,0.00000151,-0.00
 000621,-0.00000107,0.00002719,0.00001068,0.00001375,-0.00000102,-0.000
 00606,-0.00000223,0.00001870,0.00001442,-0.00000424,-0.00001025,-0.000
 00606,0.00000704,-0.00273363,0.00022729,-0.00099236,0.00077939,-0.0005
 0738,0.00009831,0.00087212,0.00029346,0.00017058,0.00065717,-0.0001590
 7,0.00087748,-0.00096443,-0.26696339,-0.01883264,-0.03409521,-0.031328
 18,-0.02903877,0.00576642,0.37731494,0.00009188,0.00014811,-0.00001945
 ,-0.00002847,-0.00001763,-0.00009928,0.00000187,-0.00000630,-0.0000088
 0,-0.00001264,0.00005188,-0.00004020,-0.00001838,0.00003708,-0.0001380
 0,-0.00000233,-0.00001795,0.00000840,-0.00000105,-0.00000514,0.0000073
 3,-0.00000974,-0.00001375,0.00000506,-0.00000621,-0.00000034,0.0000086
 0,-0.00000238,0.00001570,-0.00000311,0.00001061,-0.00002528,0.00006444
 ,-0.00000006,0.00000381,0.00002700,0.00005040,0.00003305,0.00009516,-0
 .00010746,-0.00021102,0.00011401,-0.00000608,-0.00026494,0.00009414,0.
 00006005,-0.00002114,-0.00010881,0.00000723,-0.00000303,0.00003151,-0.
 00001495,0.00001629,0.00002667,-0.00003107,0.00007042,0.00013166,-0.00
 002279,-0.00004558,-0.00007865,-0.00000903,-0.00003325,0.00004330,0.00
 001931,-0.00001424,-0.00005181,-0.00000396,0.00001433,0.00000715,0.000
 22696,0.00028368,-0.00012122,-0.00002239,-0.00002891,0.00002051,-0.000
 01609,-0.00009008,0.00000327,-0.00020225,0.00010414,0.00022912,0.00019
 168,0.00032823,0.00009089,-0.00004894,0.00003604,0.00007117,-0.0000445
 5,-0.00003466,-0.00001892,-0.00001890,-0.00002281,-0.00001776,-0.00004
 140,0.00000489,-0.00001610,0.00000374,0.00001469,0.00000647,-0.0002393
 9,-0.00010873,-0.00042109,-0.00006966,0.00004696,-0.00007124,0.0000005
 2,-0.00000098,-0.00000135,0.00000353,-0.00000353,-0.00001620,0.0000128
 8,-0.00000266,-0.00001190,-0.00000886,0.00001148,0.00001393,0.00000002
 ,0.00000547,-0.00000308,0.00000818,0.00000233,-0.00000023,0.00006765,-
 0.00010040,0.00017914,0.00039376,0.00022321,-0.00036648,0.00005083,0.0
 0001219,0.00001001,0.00002634,-0.00000363,0.00001351,0.00002638,-0.000
 01980,0.00002342,0.00012434,0.00002806,-0.00006356,-0.00001907,0.00000
 317,0.00001291,0.00000791,-0.00002497,0.00002955,-0.00005545,-0.000015
 22,0.00005304,-0.00150288,-0.00067817,0.00028974,0.00034613,0.00051513
 ,0.00008905,0.00074307,0.00002207,0.00019321,-0.00003929,-0.00079004,-
 0.00119340,0.00016533,0.00052197,-0.00045738,-0.00190110,0.00036614,0.
 00014867,0.00039126,-0.00068678,-0.00050658,-0.00002533,0.00006813,0.0
 0009365,0.00053159,0.02542174,0.00701266,0.00013653,0.00049998,0.00016
 007,0.00124994,0.00040900,0.00021631,-0.00015969,0.00022670,0.00009404
 ,-0.00002596,-0.00002509,0.00001420,0.00000861,0.00000495,0.00000391,0
 .00000380,0.00000190,-0.00000324,-0.00000157,-0.00000018,-0.00000155,-
 0.00000745,0.00000164,-0.00000306,-0.00000134,-0.00000109,-0.00000287,
 0.00000107,-0.00000274,0.00000388,0.00000396,0.00000114,-0.00000073,-0
 .00001732,0.00000316,-0.00002079,0.00000174,0.00000073,0.00000157,0.00
 000386,-0.00000015,0.00000727,0.00000147,-0.00000018,0.00000022,0.0000
 5266,0.00001005,-0.00003704,-0.00000583,-0.00000394,0.00000321,-0.0000
 1373,-0.00000200,0.00001354,-0.00000705,0.00000320,0.00000365,-0.00000
 064,0.00000629,-0.00000421,-0.00000081,0.00000218,0.00000085,0.0000004
 4,0.,-0.00000151,0.00000141,-0.00000269,0.00000341,-0.00005050,-0.0000
 7990,-0.00006250,0.00001593,0.00001090,0.00001714,-0.00000263,-0.00000
 578,-0.00000182,0.00000088,-0.00000022,-0.00000059,0.00000133,-0.00000
 265,0.00000212,-0.00000027,0.00000275,0.00000194,-0.00001195,-0.000003
 21,-0.00001320,0.00000094,0.00000476,0.00000186,-0.00000246,-0.0000043
 6,-0.00000041,0.00000242,0.00000105,0.00000041,0.00116457,-0.00033734,
 0.00036057,-0.00033737,0.00027757,-0.00001413,-0.00036122,-0.00004986,
 -0.00005941,-0.00027442,0.00010326,-0.00028236,-0.00094765,-0.01799997
 ,-0.07553515,-0.02089339,-0.03839373,-0.00641098,0.00068044,0.07500440
 ,0.08789019,-0.00022409,-0.00027258,0.00002598,-0.00003687,0.00007214,
 0.00007038,-0.00012725,0.00003862,-0.00000070,0.00004758,-0.00000295,-
 0.00002776,-0.00009559,0.00018974,-0.00001533,0.00001490,0.00001538,-0
 .00000302,-0.00000716,0.00000663,-0.00001529,0.00001979,0.00000505,-0.
 00000707,0.00000012,-0.00002089,-0.00000717,0.00002911,-0.00002301,-0.
 00003351,0.00007835,-0.00006027,0.00001211,0.00004211,-0.00002271,-0.0
 0003522,0.00012749,0.00002915,-0.00003996,0.00042272,0.00045011,-0.000
 19921,0.00012932,-0.00036980,-0.00001663,-0.00008430,0.00006009,0.0001
 4632,0.00001551,0.00000413,-0.00002468,0.00001299,-0.00005494,-0.00003
 846,0.00003015,-0.00017889,-0.00015332,-0.00004684,-0.00011191,0.00005
 149,0.00001870,0.00005495,-0.00005262,-0.00003036,0.00002426,0.0000513
 5,0.00001252,-0.00001269,0.00000054,-0.00070390,-0.00084668,0.00046119
 ,0.00009208,0.00018885,0.00004426,0.00007381,0.00016638,-0.00001042,0.
 00034903,-0.00042705,-0.00082051,0.00018823,0.00045902,0.00013094,-0.0
 0011177,0.00009706,0.00014861,0.00001084,-0.00000915,-0.00001369,-0.00
 004931,-0.00005023,-0.00005938,0.00006463,0.00001307,-0.00003967,-0.00
 002550,0.00003232,-0.00002842,0.00027649,0.00048409,0.00007708,0.00009
 737,-0.00001211,-0.00000002,0.00009589,-0.00004457,-0.00001049,-0.0000
 2011,0.00002320,-0.00000257,-0.00000442,0.00000838,0.00002301,0.000007
 79,-0.00000990,-0.00001158,0.00003941,-0.00000894,-0.00004519,-0.00001
 685,-0.00000302,0.00000086,-0.00020084,-0.00020932,0.00010063,-0.00028
 265,-0.00018872,0.00049640,-0.00008030,-0.00008297,0.00005709,-0.00010
 496,-0.00000927,0.00006441,-0.00011890,0.00004010,-0.00000644,0.000378
 98,0.00014060,0.00002197,-0.00005209,-0.00000410,0.00000869,0.00005701
 ,-0.00007211,0.00014280,-0.00019035,-0.00006068,-0.00018653,0.00122857
 ,0.00073694,-0.00047237,-0.00027967,-0.00059646,-0.00008759,-0.0005452
 2,-0.00014705,0.00002767,-0.00035138,-0.00068150,-0.00024718,0.0003227
 1,0.00006563,0.00019294,0.00158910,-0.00057253,0.00206680,0.00090119,-
 0.00111488,0.00060180,0.00013390,0.00013122,0.00004116,-0.00848906,0.0
 0229424,0.01622944,0.00049209,0.00066576,-0.00039215,-0.00277514,-0.00
 048651,-0.00240153,0.00176391,0.00084381,0.00065112,0.00006510,0.00005
 812,-0.00002787,-0.00001260,-0.00000472,-0.00000654,-0.00001234,-0.000
 00194,0.00000569,-0.00000074,-0.00000853,0.00000701,0.00002323,-0.0000
 2489,-0.00004377,0.00000486,0.00000481,0.00000372,0.00000225,0.0000048
 9,0.00000618,-0.00001219,-0.00000066,0.00000668,0.00008092,-0.00001177
 ,0.00004123,-0.00001445,-0.00000904,-0.00000137,0.00000239,-0.00000152
 ,-0.00000610,-0.00000619,0.00000741,-0.00000184,0.00004939,-0.00006052
 ,0.00010881,-0.00001915,-0.00000780,-0.00001845,0.00000470,0.00001755,
 0.00000934,-0.00000357,0.00002160,-0.00000862,-0.00000797,0.00000167,0
 .00000109,0.00000071,-0.00000333,-0.00000248,0.00000440,0.00000246,0.0
 0000193,-0.00000105,0.00000117,0.00000004,0.00002876,0.00013069,0.0000
 2457,-0.00000752,-0.00002732,-0.00000288,-0.00000309,0.00001913,-0.000
 01018,-0.00000110,-0.00000175,0.00000214,0.00000022,0.00000310,0.00000
 075,0.00000004,-0.00000661,-0.00000199,0.00000483,0.00000929,0.0000048
 8,0.00000026,-0.00000697,-0.00000103,0.00000948,0.00001089,-0.00000086
 ,-0.00000175,-0.00000200,0.00000171,-0.00118552,0.00004755,0.00005690,
 0.00036748,-0.00025295,-0.00005789,0.00038529,0.00013926,-0.00004881,0
 .00025574,-0.00005976,0.00014984,-0.17266600,0.01326558,0.09872575,-0.
 08086059,0.00089927,0.01379776,-0.00596762,0.02968444,0.02075994,0.265
 38387,0.00017583,0.00026507,-0.00002298,-0.00004794,0.00001177,0.00000
 456,0.00006002,0.00008514,0.00003287,-0.00001365,0.00005307,-0.0000016
 7,0.00003583,-0.00003337,0.00007214,-0.00000920,-0.00002126,0.00000313
 ,0.00001007,0.00001266,-0.00000433,-0.00001792,-0.00002901,-0.00000618
 ,-0.00000123,-0.00001149,-0.00000551,0.00000982,-0.00001160,-0.0000135
 7,-0.00004082,-0.00003571,-0.00001255,-0.00002354,-0.00009115,-0.00001
 921,-0.00001840,-0.00008967,-0.00000861,-0.00016287,-0.00034726,-0.000
 08906,-0.00008973,0.00005742,-0.00005229,0.00001978,-0.00002003,0.0000
 2670,0.00000080,0.00000504,-0.00001184,-0.00001758,-0.00001967,-0.0000
 0524,-0.00004510,-0.00002227,-0.00002246,0.00001460,0.00011559,-0.0000
 0810,-0.00000175,-0.00000010,0.00000366,-0.00002930,-0.00000742,0.0000
 2062,0.00001503,-0.00002492,0.00000019,0.00058459,0.00050936,-0.000176
 28,-0.00008952,-0.00017903,-0.00005308,-0.00010304,-0.00025377,-0.0000
 5804,-0.00058014,-0.00127698,-0.00015707,0.00003819,-0.00006223,0.0000
 2181,0.00001334,-0.00004516,-0.00001114,-0.00001540,-0.00000147,0.0000
 0372,-0.00000467,0.00000157,-0.00001637,0.00002993,-0.00001992,-0.0000
 0405,0.00000083,-0.00000880,-0.00001692,0.00016117,0.00003230,0.000228
 40,0.00006627,-0.00012156,0.00001933,0.00001226,-0.00000774,0.00000439
 ,0.00000793,0.00000227,0.00000057,-0.00000626,-0.00000173,0.00000829,0
 .00000517,-0.00000656,-0.00000501,-0.00000574,-0.00000418,0.00001358,0
 .00000170,0.00000109,0.00000096,-0.00008457,0.00012364,-0.00010350,-0.
 00024869,-0.00006837,0.00032315,-0.00004725,-0.00000443,0.00001040,-0.
 00002803,0.00001851,0.00001113,-0.00002305,0.00003712,-0.00000396,-0.0
 0003942,-0.00002949,-0.00000260,-0.00001197,0.00000920,-0.00000685,0.0
 0001553,-0.00001004,-0.00000472,0.00002266,0.00004515,-0.00000245,0.00
 125434,0.00020289,-0.00039438,-0.00035506,-0.00036378,-0.00002063,-0.0
 0051743,0.00005715,-0.00008139,0.00015454,-0.00133744,0.00035293,-0.00
 060495,-0.00026768,0.00036781,0.00134208,0.00064900,0.00104360,-0.0001
 0737,-0.00001826,-0.00039336,-0.00001574,0.00004863,0.00002164,-0.0116
 2632,0.00883949,0.01413611,-0.00006918,0.00039696,0.00007988,-0.000084
 61,-0.00031395,0.00096495,-0.00011294,-0.00025818,0.00046450,0.0000252
 1,0.00001862,-0.00001619,-0.00000542,-0.00000326,-0.00000154,-0.000006
 49,-0.00000091,0.00000490,0.00000104,-0.00000158,0.00000050,0.00000695
 ,-0.00001375,-0.00001369,-0.00000185,0.00000436,0.00000067,-0.00000003
 ,-0.00000026,0.00000102,-0.00000173,0.00000106,0.00000217,0.00000722,-
 0.00000402,0.00000939,0.00000078,0.00000171,-0.00000203,-0.00000159,-0
 .00000217,-0.00000303,-0.00000521,0.00000246,0.00000056,-0.00000789,-0
 .00001194,0.00001246,0.00000507,0.00000337,0.00000050,0.00000440,-0.00
 000591,-0.00000385,-0.00000590,0.00000355,0.00000029,0.00002038,0.0000
 4744,-0.00000510,-0.00000002,-0.00000829,-0.00000371,-0.00000766,-0.00
 000417,0.00000141,-0.00000243,-0.00000630,0.00000584,0.00006276,0.0000
 5980,0.00000672,-0.00001692,-0.00001055,-0.00000251,0.00000247,0.00000
 805,-0.00000619,-0.00000333,-0.00000098,0.00000186,0.00000112,0.000001
 73,-0.00000202,0.00000066,-0.00000140,-0.00000022,0.00001050,0.0000028
 1,0.00000574,-0.00000044,-0.00000140,-0.00000086,0.00000566,0.00000373
 ,-0.00000147,-0.00000382,-0.00000199,0.00000242,-0.00076451,0.00006186
 ,-0.00042411,0.00021771,-0.00011421,0.00005476,0.00025629,0.00007880,0
 .00006710,0.00015338,-0.00003014,0.00022891,0.01364485,-0.07408675,-0.
 01036385,-0.00022075,0.01196633,0.00187196,0.04228696,-0.03257810,-0.0
 4477996,-0.04440939,0.08846797,0.00025856,0.00038289,-0.00001748,-0.00
 003872,-0.00007158,-0.00017590,0.00009049,-0.00004436,-0.00000739,-0.0
 0005350,0.00006526,-0.00003489,0.00004475,-0.00009531,-0.00014999,-0.0
 0001389,-0.00003349,0.00001240,0.00000732,-0.00001221,0.00002220,-0.00
 002277,-0.00000995,0.00001432,-0.00000792,0.00001461,0.00001670,-0.000
 02256,0.00003726,0.00002034,-0.00003487,0.00001657,0.00007404,-0.00002
 612,0.00002766,0.00005958,0.00000686,0.00004370,0.00015357,-0.00043686
 ,-0.00053126,0.00032163,-0.00010062,-0.00002773,0.00013748,0.00013376,
 -0.00006980,-0.00024224,-0.00000282,-0.00000744,0.00005846,-0.00002710
 ,0.00006172,0.00006127,-0.00005186,0.00021704,0.00027890,-0.00001466,-
 0.00002477,-0.00012466,-0.00002076,-0.00006703,0.00007991,0.00003624,-
 0.00003247,-0.00009914,-0.00001162,0.00002631,0.00000818,0.00113032,0.
 00097703,-0.00049963,-0.00010518,-0.00017024,0.00001239,-0.00013418,-0
 .00033704,-0.00000023,-0.00085948,-0.00023590,0.00036308,0.00003014,0.
 00001216,-0.00000438,0.00004315,-0.00006116,-0.00007128,-0.00005441,-0
 .00003292,-0.00000867,0.00002615,0.00001753,0.00003305,-0.00010011,0.0
 0000613,0.00001107,0.00002133,0.00000320,0.00003230,-0.00053075,-0.000
 46523,-0.00065725,-0.00016785,0.00011504,-0.00008632,-0.00006553,0.000
 02930,0.00000097,0.00001338,-0.00001975,-0.00002452,0.00002165,-0.0000
 0903,-0.00003298,-0.00001756,0.00002282,0.00002560,-0.00002317,0.00001
 427,0.00001962,0.00001881,0.00000384,-0.00000104,0.00024275,-0.0000315
 6,0.00018950,0.00079964,0.00037722,-0.00105708,0.00013415,0.00007015,-
 0.00002793,0.00010887,-0.00000601,-0.00003198,0.00011357,-0.00006122,0
 .00003076,-0.00005920,-0.00004331,-0.00010112,0.00001132,0.00000343,0.
 00001383,0.00000934,0.00001119,-0.00001915,0.00004721,0.00000988,0.000
 17511,-0.00346765,-0.00123864,0.00077098,0.00085200,0.00133234,0.00025
 676,0.00151014,0.00006648,0.00025991,0.00176368,0.00209597,-0.00051522
 ,0.00038121,0.00038448,-0.00064925,-0.00457699,0.00132576,-0.00596621,
 0.00007973,0.00049496,-0.00001231,-0.00004502,-0.00008071,-0.00004513,
 0.03825492,-0.00059394,-0.02698287,-0.00004342,-0.00054290,0.00005247,
 0.00188903,0.00014691,0.00008994,-0.00013931,-0.00006351,-0.00142869,-
 0.00008260,-0.00007538,0.00004287,0.00002092,0.00001043,0.00000889,0.0
 0001575,0.00000404,-0.00000960,-0.00000187,0.00000618,-0.00000669,-0.0
 0002596,0.00002373,0.00003147,-0.00000353,-0.00000610,-0.00000559,-0.0
 0000037,-0.00000575,-0.00000039,0.00001283,0.00000102,-0.00000613,-0.0
 0007254,0.00001148,-0.00005206,0.00001081,0.00000617,0.00000299,0.0000
 0344,0.00000108,0.00001262,0.00000731,-0.00000575,0.00000175,0.0000311
 6,0.00004989,-0.00011067,0.00000522,0.00000034,0.00001476,-0.00001853,
 -0.00001305,0.00001005,-0.00000597,-0.00001005,0.00000997,0.00000239,0
 .00000203,-0.00000514,-0.00000176,0.00000555,0.00000280,-0.00000142,-0
 .00000147,-0.00000333,0.00000245,-0.00000372,0.00000379,-0.00009920,-0
 .00020973,-0.00010234,0.00002792,0.00003447,0.00002263,-0.00000142,-0.
 00002187,0.00000675,0.00000262,0.00000131,-0.00000261,0.00000117,-0.00
 000571,0.00000250,-0.00000038,0.00000819,0.00000352,-0.00002024,-0.000
 01051,-0.00002049,0.00000120,0.00001086,0.00000308,-0.00001074,-0.0000
 1363,0.00000022,0.00000502,0.00000308,-0.00000115,0.00227929,-0.000529
 94,0.00069524,-0.00071837,0.00056227,-0.00000659,-0.00074169,-0.000140
 82,-0.00010221,-0.00047885,0.00015983,-0.00054714,0.09145590,-0.008007
 40,-0.17025095,-0.00097290,0.00167292,0.02176786,0.02248557,-0.0338121
 8,-0.01175852,-0.14991667,0.03690554,0.19576646\\0.00000064,0.00000027
 ,0.00000069,0.00000084,0.00000082,0.00000099,0.00000121,0.00000031,0.0
 0000131,0.00000098,-0.00000044,0.00000065,0.00000061,-0.00000038,0.000
 00049,0.00000120,0.00000082,0.00000149,0.00000047,0.00000091,0.0000008
 0,0.00000098,0.00000002,0.00000099,0.00000134,-0.00000073,0.00000102,0
 .00000027,-0.00000015,0.00000027,0.00000107,0.00000013,0.00000125,0.00
 000179,0.00000023,0.00000173,0.00000073,0.00000113,0.00000126,0.000000
 45,0.00000021,0.00000042,0.00000061,-0.00000086,0.00000036,0.00000081,
 -0.00000082,0.00000066,0.00000087,-0.00000135,0.00000030,0.00000127,-0
 .00000115,0.00000073,0.00000085,-0.00000068,0.00000021,0.00000057,0.00
 000172,0.00000117,0.00000039,0.00000187,0.00000111,0.00000015,0.000001
 44,0.00000079,0.00000065,0.00000198,0.00000140,0.00000036,0.00000026,0
 .00000045,0.00000048,-0.00000020,0.00000037,0.00000059,0.00000050,0.00
 000080,0.00000004,0.00000047,0.00000020,0.00000023,-0.00000100,-0.0000
 0016,-0.00000008,-0.00000051,-0.00000030,0.00000013,-0.00000100,-0.000
 00039,0.00000024,-0.00000134,-0.00000027,-0.00000078,-0.00000056,-0.00
 000095,-0.00000037,-0.00000040,-0.00000044,-0.00000041,-0.00000041,-0.
 00000058,-0.00000092,-0.00000080,-0.00000118,-0.00000082,-0.00000109,-
 0.00000121,-0.00000002,-0.00000006,0.,-0.00000009,-0.00000083,-0.00000
 036,-0.00000097,-0.00000013,-0.00000106,-0.00000116,-0.00000033,-0.000
 00125,-0.00000055,-0.00000147,-0.00000109,-0.00000048,-0.00000047,-0.0
 0000070,-0.00000080,0.00000161,-0.00000041,-0.00000024,-0.00000018,-0.
 00000023,-0.00000066,-0.00000095,-0.00000101,-0.00000127,-0.00000113,-
 0.00000168,-0.00000101,-0.00000116,-0.00000139,-0.00000126,-0.00000128
 ,-0.00000173,-0.00000096,-0.00000086,-0.00000134,-0.00000064,-0.000001
 81,-0.00000120,-0.00000021,0.00000083,0.00000062,-0.00000009,0.0000008
 2,0.00000001,-0.00000097,0.00000083,-0.00000055,-0.00000071,0.00000132
 ,-0.00000009,-0.00000056,0.00000205,0.00000002,-0.00000098,0.00000106,
 -0.00000043,-0.00000093,0.00000206,0.,-0.00000072,0.00000232,0.0000001
 5,-0.00000068,0.00000136,-0.00000050,-0.00000084,0.00000050,-0.0000006
 3,-0.00000088,0.00000167,-0.00000008,-0.00000107,0.00000195,-0.0000003
 2,-0.00000003,-0.00000025,-0.00000008,0.00000025,-0.00000074,0.,-0.000
 00023,-0.00000023,-0.00000029,0.00000025,0.00000009,0.00000028,-0.0000
 0104,-0.00000073,-0.00000128,-0.00000136,-0.00000080,-0.00000163,-0.00
 000107,-0.00000025,-0.00000116,-0.00000095,-0.00000099,-0.00000131,-0.
 00000126,-0.00000177,-0.00000190,-0.00000101,-0.00000192,-0.00000174,-
 0.00000113,-0.00000205,-0.00000188,-0.00000161,-0.00000180,-0.00000225
 ,-0.00000064,-0.00000207,-0.00000142,-0.00000033,-0.00000246,-0.000001
 27,-0.00000064,-0.00000186,-0.00000133,-0.00000095,-0.00000221,-0.0000
 0176,0.00000201,0.00000011,0.00000197,0.00000227,-0.00000003,0.0000022
 1,0.00000198,-0.00000028,0.00000181,0.00000202,0.00000048,0.00000214,0
 .00000020,0.00000022,0.00000056,0.00000154,-0.00000031,0.00000125,0.00
 000141,0.00000026,0.00000150,0.00000135,0.00000020,0.00000136,0.000001
 22,0.00000078,0.00000147,0.00000174,0.00000022,0.00000177,0.00000131,-
 0.00000054,0.00000100,0.00000167,-0.00000079,0.00000132,0.00000102,-0.
 00000091,0.00000067,0.00000129,-0.00000082,0.00000094,-0.00000083,0.00
 000276,0.00000014,-0.00000049,0.00000294,0.00000074,-0.00000117,0.0000
 0294,0.00000009,-0.00000099,0.00000317,0.00000022,-0.00000106,0.000000
 80,-0.00000083,-0.00000102,0.00000022,-0.00000085,-0.00000152,0.000000
 88,-0.00000113,-0.00000089,0.00000083,-0.00000052\\\@


 IT IS UNWORTHY OF EXCELLENT MEN TO LOSE HOURS LIKE SLAVES IN THE LABOR
 OF CALCULATION WHICH COULD BE SAFELY RELEGATED TO ANYONE ELSE
 IF A MACHINE WERE USED.
    -- G.W. VON LEIBNIZ
 Job cpu time:       4 days 11 hours 16 minutes 25.5 seconds.
 Elapsed time:       0 days  3 hours 34 minutes 26.9 seconds.
 File lengths (MBytes):  RWF=   9835 Int=      0 D2E=      0 Chk=    110 Scr=      1
 Normal termination of Gaussian 16 at Wed Jun  5 20:11:11 2019.
