 Entering Gaussian System, Link 0=g16
 Input=clay_new-glu_gluC6-ADUL-Na2_1Me2O-bisCF3-ts-b3lyp_d3bj-631gd-pcm_thf.gjf
 Output=clay_new-glu_gluC6-ADUL-Na2_1Me2O-bisCF3-ts-b3lyp_d3bj-631gd-pcm_thf.out
 Initial command:
 /home/ekwan/sw/g16/l1.exe "/scratch/users/ekwan/clay_new-glu_gluC6-ADUL-Na2_1Me2O-bisCF3-ts-b3lyp_d3bj-631gd-pcm_thf/Gau-21768.inp" -scrdir="/scratch/users/ekwan/clay_new-glu_gluC6-ADUL-Na2_1Me2O-bisCF3-ts-b3lyp_d3bj-631gd-pcm_thf/"
 Entering Link 1 = /home/ekwan/sw/g16/l1.exe PID=     21769.
  
 Copyright (c) 1988,1990,1992,1993,1995,1998,2003,2009,2016,
            Gaussian, Inc.  All Rights Reserved.
  
 This is part of the Gaussian(R) 16 program.  It is based on
 the Gaussian(R) 09 system (copyright 2009, Gaussian, Inc.),
 the Gaussian(R) 03 system (copyright 2003, Gaussian, Inc.),
 the Gaussian(R) 98 system (copyright 1998, Gaussian, Inc.),
 the Gaussian(R) 94 system (copyright 1995, Gaussian, Inc.),
 the Gaussian 92(TM) system (copyright 1992, Gaussian, Inc.),
 the Gaussian 90(TM) system (copyright 1990, Gaussian, Inc.),
 the Gaussian 88(TM) system (copyright 1988, Gaussian, Inc.),
 the Gaussian 86(TM) system (copyright 1986, Carnegie Mellon
 University), and the Gaussian 82(TM) system (copyright 1983,
 Carnegie Mellon University). Gaussian is a federally registered
 trademark of Gaussian, Inc.
  
 This software contains proprietary and confidential information,
 including trade secrets, belonging to Gaussian, Inc.
  
 This software is provided under written license and may be
 used, copied, transmitted, or stored only in accord with that
 written license.
  
 The following legend is applicable only to US Government
 contracts under FAR:
  
                    RESTRICTED RIGHTS LEGEND
  
 Use, reproduction and disclosure by the US Government is
 subject to restrictions as set forth in subparagraphs (a)
 and (c) of the Commercial Computer Software - Restricted
 Rights clause in FAR 52.227-19.
  
 Gaussian, Inc.
 340 Quinnipiac St., Bldg. 40, Wallingford CT 06492
  
  
 ---------------------------------------------------------------
 Warning -- This program may not be used in any manner that
 competes with the business of Gaussian, Inc. or will provide
 assistance to any competitor of Gaussian, Inc.  The licensee
 of this program is prohibited from giving any competitor of
 Gaussian, Inc. access to this program.  By using this program,
 the user acknowledges that Gaussian, Inc. is engaged in the
 business of creating and licensing software in the field of
 computational chemistry and represents and warrants to the
 licensee that it is not a competitor of Gaussian, Inc. and that
 it will not use this program in any manner prohibited above.
 ---------------------------------------------------------------
  

 Cite this work as:
 Gaussian 16, Revision A.03,
 M. J. Frisch, G. W. Trucks, H. B. Schlegel, G. E. Scuseria, 
 M. A. Robb, J. R. Cheeseman, G. Scalmani, V. Barone, 
 G. A. Petersson, H. Nakatsuji, X. Li, M. Caricato, A. V. Marenich, 
 J. Bloino, B. G. Janesko, R. Gomperts, B. Mennucci, H. P. Hratchian, 
 J. V. Ortiz, A. F. Izmaylov, J. L. Sonnenberg, D. Williams-Young, 
 F. Ding, F. Lipparini, F. Egidi, J. Goings, B. Peng, A. Petrone, 
 T. Henderson, D. Ranasinghe, V. G. Zakrzewski, J. Gao, N. Rega, 
 G. Zheng, W. Liang, M. Hada, M. Ehara, K. Toyota, R. Fukuda, 
 J. Hasegawa, M. Ishida, T. Nakajima, Y. Honda, O. Kitao, H. Nakai, 
 T. Vreven, K. Throssell, J. A. Montgomery, Jr., J. E. Peralta, 
 F. Ogliaro, M. J. Bearpark, J. J. Heyd, E. N. Brothers, K. N. Kudin, 
 V. N. Staroverov, T. A. Keith, R. Kobayashi, J. Normand, 
 K. Raghavachari, A. P. Rendell, J. C. Burant, S. S. Iyengar, 
 J. Tomasi, M. Cossi, J. M. Millam, M. Klene, C. Adamo, R. Cammi, 
 J. W. Ochterski, R. L. Martin, K. Morokuma, O. Farkas, 
 J. B. Foresman, and D. J. Fox, Gaussian, Inc., Wallingford CT, 2016.
 
 ******************************************
 Gaussian 16:  AS64L-G16RevA.03 25-Dec-2016
                22-May-2019 
 ******************************************
 %mem=48GB
 %nprocshared=32
 Will use up to   32 processors via shared memory.
 ----------------------------------------------------------------------
 #p opt=(ts,noeigentest,calcfc,maxstep=3,modredundant,recalc=30) freq=n
 oraman b3lyp 6-31g* pop=none scrf=(solvent=tetrahydrofuran,pcm) empiri
 caldispersion=gd3bj
 ----------------------------------------------------------------------
 1/5=1,8=3,10=4,11=1,18=120,26=3,38=1,71=30/1,3;
 2/9=110,12=2,17=6,18=5,40=1/2;
 3/5=1,6=6,7=1,11=2,25=1,30=1,70=2201,71=2,72=20,74=-5,124=41,140=1/1,2,3;
 4//1;
 5/5=2,38=5,53=20/2;
 8/6=4,10=90,11=11/1;
 11/6=1,8=1,9=11,15=111,16=1/1,2,10;
 10/6=1,13=1/2;
 7/10=1,18=20,25=1/1,2,3,16;
 1/5=1,8=3,10=4,11=1,18=20,26=3,71=30/3(2);
 2/9=110/2;
 99//99;
 2/9=110/2;
 3/5=1,6=6,7=1,11=2,25=1,30=1,70=2205,71=1,72=20,74=-5,124=41/1,2,3;
 4/5=5,16=3,69=1/1;
 5/5=2,38=5,53=20/2;
 7//1,2,3,16;
 1/5=1,8=3,11=1,18=20,26=3,71=30/3(-5);
 2/9=110/2;
 99/9=1/99;
 Leave Link    1 at Wed May 22 21:02:36 2019, MaxMem=  6442450944 cpu:               8.6 elap:               0.3
 (Enter /home/ekwan/sw/g16/l101.exe)
 -----
 title
 -----
 Symbolic Z-matrix:
 Charge =  0 Multiplicity = 1
 C                    -4.32215   0.35194  -1.47901 
 C                    -5.27391  -0.61477  -0.77505 
 C                    -4.50633  -1.45804   0.25771 
 C                    -2.91066   0.28993   0.65057 
 C                    -3.50852   1.15518  -0.46506 
 H                    -5.19148  -2.07527   0.85331 
 H                    -6.024    -0.02851  -0.22155 
 H                    -3.62283  -0.22997  -2.09253 
 H                    -2.09696  -0.29515   0.20569 
 H                    -4.15762   1.92558  -0.02381 
 O                    -3.88449  -0.61252   1.20466 
 O                    -3.60227  -2.27594  -0.43807 
 O                    -5.91028  -1.40222  -1.76574 
 O                    -5.03341   1.27864  -2.29471 
 O                    -2.394     1.76491  -1.11915 
 C                    -2.3425    1.1428    1.80691 
 H                    -3.21241   1.3508    2.46939 
 H                    -2.09849   2.13236   1.35427 
 O                    -1.2736    0.58962   2.46063 
 C                    -7.04747  -2.11243  -1.30383 
 H                    -6.77862  -2.92463  -0.61474 
 H                    -7.75911  -1.44288  -0.79881 
 H                    -7.52764  -2.54608  -2.1842 
 C                    -5.13839   0.90423  -3.66172 
 H                    -4.14377   0.77186  -4.11248 
 H                    -5.71199  -0.01997  -3.78335 
 H                    -5.65097   1.72452  -4.17159 
 C                    -2.57341   3.11575  -1.52117 
 H                    -3.40653   3.21568  -2.22358 
 H                    -2.75483   3.76484  -0.65153 
 H                    -1.63805   3.4115   -2.00202 
 C                     1.41933   2.4907   -0.63177 
 C                     0.62193   1.53293   0.26514 
 C                     0.94746   1.76251   1.7145 
 C                     1.598     4.05872   1.35852 
 C                     1.17386   3.90648  -0.10047 
 H                     0.74119   1.01717   2.45868 
 H                    -0.44126   1.79917   0.15083 
 H                     2.48473   2.2389   -0.5883 
 H                     2.68718   3.99111   1.43344 
 H                     0.10166   4.1157   -0.18059 
 O                     1.10908   2.94816   2.19521 
 O                     1.98916  -0.82329   2.88185 
 O                     0.77932   0.15008   0.01177 
 O                     0.92877   2.3952   -1.95684 
 O                     1.91838   4.86019  -0.83988 
 C                     1.13073   5.3617    1.9948 
 H                     1.73664   6.16174   1.56118 
 H                     1.32562   5.32459   3.07586 
 O                    -0.21727   5.68974   1.72634 
 S                     3.18233  -0.32591   2.13183 
 O                     4.47183  -0.50127   2.82093 
 O                     2.98263   1.08973   1.62743 
 C                     3.20794  -1.33491   0.64105 
 C                     2.60075  -2.58312   0.67366 
 C                     3.73368  -0.8244   -0.54421 
 C                     2.46117  -3.30707  -0.51272 
 H                     2.19676  -2.96706   1.60354 
 C                     3.62032  -1.57476  -1.71092 
 H                     4.18016   0.16174  -0.56119 
 C                     2.97178  -2.81354  -1.70838 
 H                     2.84934  -3.37138  -2.62925 
 C                     0.29786  -0.32293  -1.25918 
 H                     0.10557  -1.39063  -1.1263 
 H                    -0.61853   0.19579  -1.5457 
 H                     1.05559  -0.18939  -2.03279 
 C                     1.92626   2.54963  -2.96441 
 H                     2.39842   3.53488  -2.91069 
 H                     2.69805   1.77523  -2.87932 
 H                     1.41408   2.4365   -3.92231 
 C                     1.11092   5.81478  -1.52816 
 H                     0.50028   5.32974  -2.29955 
 H                     0.45624   6.35228  -0.83181 
 H                     1.79916   6.51868  -2.00068 
 C                    -1.17019   5.02737   2.55449 
 H                    -2.13526   5.49793   2.35355 
 H                    -1.24246   3.95661   2.33488 
 H                    -0.91992   5.15262   3.61694 
 C                    -3.04282  -3.30986   0.36683 
 H                    -2.32383  -3.84537  -0.2565 
 H                    -2.52939  -2.9065    1.24432 
 H                    -3.82457  -4.00829   0.6992 
 Na                   -0.12469  -1.18459   1.8665 
 O                    -0.97439  -2.92441   3.04458 
 C                    -1.83575  -2.45543   4.08279 
 H                    -1.41787  -2.69792   5.06869 
 H                    -1.90814  -1.37234   3.95776 
 H                    -2.83115  -2.91014   3.98895 
 C                    -0.78855  -4.33254   3.06652 
 H                    -1.74917  -4.85292   2.94909 
 H                    -0.13503  -4.58805   2.23142 
 H                    -0.32211  -4.65069   4.00828 
 C                     1.60156  -4.53792  -0.49368 
 F                     1.81627  -5.29341   0.60559 
 F                     1.774    -5.31636  -1.57457 
 F                     0.2824   -4.18422  -0.45867 
 C                     4.07663  -1.01004  -3.02703 
 F                     4.83138   0.09769  -2.87746 
 F                     3.01075  -0.6605   -3.79501 
 F                     4.79015  -1.90426  -3.74069 
 
 Add virtual bond connecting atoms H37        and O19        Dist= 3.89D+00.
 Add virtual bond connecting atoms H38        and H18        Dist= 3.92D+00.
 Add virtual bond connecting atoms O43        and H37        Dist= 4.28D+00.
 Add virtual bond connecting atoms O53        and C34        Dist= 4.05D+00.
 The following ModRedundant input section has been read:
 
 ITRead=  0  0  0  0  0  0  0  0  0  0  0  0  0  0  0  0  0  0  0  0
 ITRead=  0  0  0  0  0  0  0  0  0  0  0  0  0  0  0  0  0  0  0  0
 ITRead=  0  0  0  0  0  0  0  0  0  0  0  0  0  0  0  0  0  0  0  0
 ITRead=  0  0  0  0  0  0  0  0  0  0  0  0  0  0  0  0  0  0  0  0
 ITRead=  0  0  0  0  0  0  0  0  0  0  0  0  0  0  0  0  0  0  0  0
 MicOpt= -1 -1 -1 -1 -1 -1 -1 -1 -1 -1 -1 -1 -1 -1 -1 -1 -1 -1 -1 -1
 MicOpt= -1 -1 -1 -1 -1 -1 -1 -1 -1 -1 -1 -1 -1 -1 -1 -1 -1 -1 -1 -1
 MicOpt= -1 -1 -1 -1 -1 -1 -1 -1 -1 -1 -1 -1 -1 -1 -1 -1 -1 -1 -1 -1
 MicOpt= -1 -1 -1 -1 -1 -1 -1 -1 -1 -1 -1 -1 -1 -1 -1 -1 -1 -1 -1 -1
 MicOpt= -1 -1 -1 -1 -1 -1 -1 -1 -1 -1 -1 -1 -1 -1 -1 -1 -1 -1 -1 -1
 NAtoms=    100 NQM=      100 NQMF=       0 NMMI=      0 NMMIF=      0
                NMic=       0 NMicF=      0.
                    Isotopes and Nuclear Properties:
 (Nuclear quadrupole moments (NQMom) in fm**2, nuclear magnetic moments (NMagM)
  in nuclear magnetons)

  Atom         1           2           3           4           5           6           7           8           9          10
 IAtWgt=          12          12          12          12          12           1           1           1           1           1
 AtmWgt=  12.0000000  12.0000000  12.0000000  12.0000000  12.0000000   1.0078250   1.0078250   1.0078250   1.0078250   1.0078250
 NucSpn=           0           0           0           0           0           1           1           1           1           1
 AtZEff=   0.0000000   0.0000000   0.0000000   0.0000000   0.0000000   0.0000000   0.0000000   0.0000000   0.0000000   0.0000000
 NQMom=    0.0000000   0.0000000   0.0000000   0.0000000   0.0000000   0.0000000   0.0000000   0.0000000   0.0000000   0.0000000
 NMagM=    0.0000000   0.0000000   0.0000000   0.0000000   0.0000000   2.7928460   2.7928460   2.7928460   2.7928460   2.7928460
 AtZNuc=   6.0000000   6.0000000   6.0000000   6.0000000   6.0000000   1.0000000   1.0000000   1.0000000   1.0000000   1.0000000

  Atom        11          12          13          14          15          16          17          18          19          20
 IAtWgt=          16          16          16          16          16          12           1           1          16          12
 AtmWgt=  15.9949146  15.9949146  15.9949146  15.9949146  15.9949146  12.0000000   1.0078250   1.0078250  15.9949146  12.0000000
 NucSpn=           0           0           0           0           0           0           1           1           0           0
 AtZEff=   0.0000000   0.0000000   0.0000000   0.0000000   0.0000000   0.0000000   0.0000000   0.0000000   0.0000000   0.0000000
 NQMom=    0.0000000   0.0000000   0.0000000   0.0000000   0.0000000   0.0000000   0.0000000   0.0000000   0.0000000   0.0000000
 NMagM=    0.0000000   0.0000000   0.0000000   0.0000000   0.0000000   0.0000000   2.7928460   2.7928460   0.0000000   0.0000000
 AtZNuc=   8.0000000   8.0000000   8.0000000   8.0000000   8.0000000   6.0000000   1.0000000   1.0000000   8.0000000   6.0000000

  Atom        21          22          23          24          25          26          27          28          29          30
 IAtWgt=           1           1           1          12           1           1           1          12           1           1
 AtmWgt=   1.0078250   1.0078250   1.0078250  12.0000000   1.0078250   1.0078250   1.0078250  12.0000000   1.0078250   1.0078250
 NucSpn=           1           1           1           0           1           1           1           0           1           1
 AtZEff=   0.0000000   0.0000000   0.0000000   0.0000000   0.0000000   0.0000000   0.0000000   0.0000000   0.0000000   0.0000000
 NQMom=    0.0000000   0.0000000   0.0000000   0.0000000   0.0000000   0.0000000   0.0000000   0.0000000   0.0000000   0.0000000
 NMagM=    2.7928460   2.7928460   2.7928460   0.0000000   2.7928460   2.7928460   2.7928460   0.0000000   2.7928460   2.7928460
 AtZNuc=   1.0000000   1.0000000   1.0000000   6.0000000   1.0000000   1.0000000   1.0000000   6.0000000   1.0000000   1.0000000

  Atom        31          32          33          34          35          36          37          38          39          40
 IAtWgt=           1          12          12          12          12          12           1           1           1           1
 AtmWgt=   1.0078250  12.0000000  12.0000000  12.0000000  12.0000000  12.0000000   1.0078250   1.0078250   1.0078250   1.0078250
 NucSpn=           1           0           0           0           0           0           1           1           1           1
 AtZEff=   0.0000000   0.0000000   0.0000000   0.0000000   0.0000000   0.0000000   0.0000000   0.0000000   0.0000000   0.0000000
 NQMom=    0.0000000   0.0000000   0.0000000   0.0000000   0.0000000   0.0000000   0.0000000   0.0000000   0.0000000   0.0000000
 NMagM=    2.7928460   0.0000000   0.0000000   0.0000000   0.0000000   0.0000000   2.7928460   2.7928460   2.7928460   2.7928460
 AtZNuc=   1.0000000   6.0000000   6.0000000   6.0000000   6.0000000   6.0000000   1.0000000   1.0000000   1.0000000   1.0000000

  Atom        41          42          43          44          45          46          47          48          49          50
 IAtWgt=           1          16          16          16          16          16          12           1           1          16
 AtmWgt=   1.0078250  15.9949146  15.9949146  15.9949146  15.9949146  15.9949146  12.0000000   1.0078250   1.0078250  15.9949146
 NucSpn=           1           0           0           0           0           0           0           1           1           0
 AtZEff=   0.0000000   0.0000000   0.0000000   0.0000000   0.0000000   0.0000000   0.0000000   0.0000000   0.0000000   0.0000000
 NQMom=    0.0000000   0.0000000   0.0000000   0.0000000   0.0000000   0.0000000   0.0000000   0.0000000   0.0000000   0.0000000
 NMagM=    2.7928460   0.0000000   0.0000000   0.0000000   0.0000000   0.0000000   0.0000000   2.7928460   2.7928460   0.0000000
 AtZNuc=   1.0000000   8.0000000   8.0000000   8.0000000   8.0000000   8.0000000   6.0000000   1.0000000   1.0000000   8.0000000

  Atom        51          52          53          54          55          56          57          58          59          60
 IAtWgt=          32          16          16          12          12          12          12           1          12           1
 AtmWgt=  31.9720718  15.9949146  15.9949146  12.0000000  12.0000000  12.0000000  12.0000000   1.0078250  12.0000000   1.0078250
 NucSpn=           0           0           0           0           0           0           0           1           0           1
 AtZEff=   0.0000000   0.0000000   0.0000000   0.0000000   0.0000000   0.0000000   0.0000000   0.0000000   0.0000000   0.0000000
 NQMom=    0.0000000   0.0000000   0.0000000   0.0000000   0.0000000   0.0000000   0.0000000   0.0000000   0.0000000   0.0000000
 NMagM=    0.0000000   0.0000000   0.0000000   0.0000000   0.0000000   0.0000000   0.0000000   2.7928460   0.0000000   2.7928460
 AtZNuc=  16.0000000   8.0000000   8.0000000   6.0000000   6.0000000   6.0000000   6.0000000   1.0000000   6.0000000   1.0000000

  Atom        61          62          63          64          65          66          67          68          69          70
 IAtWgt=          12           1          12           1           1           1          12           1           1           1
 AtmWgt=  12.0000000   1.0078250  12.0000000   1.0078250   1.0078250   1.0078250  12.0000000   1.0078250   1.0078250   1.0078250
 NucSpn=           0           1           0           1           1           1           0           1           1           1
 AtZEff=   0.0000000   0.0000000   0.0000000   0.0000000   0.0000000   0.0000000   0.0000000   0.0000000   0.0000000   0.0000000
 NQMom=    0.0000000   0.0000000   0.0000000   0.0000000   0.0000000   0.0000000   0.0000000   0.0000000   0.0000000   0.0000000
 NMagM=    0.0000000   2.7928460   0.0000000   2.7928460   2.7928460   2.7928460   0.0000000   2.7928460   2.7928460   2.7928460
 AtZNuc=   6.0000000   1.0000000   6.0000000   1.0000000   1.0000000   1.0000000   6.0000000   1.0000000   1.0000000   1.0000000

  Atom        71          72          73          74          75          76          77          78          79          80
 IAtWgt=          12           1           1           1          12           1           1           1          12           1
 AtmWgt=  12.0000000   1.0078250   1.0078250   1.0078250  12.0000000   1.0078250   1.0078250   1.0078250  12.0000000   1.0078250
 NucSpn=           0           1           1           1           0           1           1           1           0           1
 AtZEff=   0.0000000   0.0000000   0.0000000   0.0000000   0.0000000   0.0000000   0.0000000   0.0000000   0.0000000   0.0000000
 NQMom=    0.0000000   0.0000000   0.0000000   0.0000000   0.0000000   0.0000000   0.0000000   0.0000000   0.0000000   0.0000000
 NMagM=    0.0000000   2.7928460   2.7928460   2.7928460   0.0000000   2.7928460   2.7928460   2.7928460   0.0000000   2.7928460
 AtZNuc=   6.0000000   1.0000000   1.0000000   1.0000000   6.0000000   1.0000000   1.0000000   1.0000000   6.0000000   1.0000000

  Atom        81          82          83          84          85          86          87          88          89          90
 IAtWgt=           1           1          23          16          12           1           1           1          12           1
 AtmWgt=   1.0078250   1.0078250  22.9897697  15.9949146  12.0000000   1.0078250   1.0078250   1.0078250  12.0000000   1.0078250
 NucSpn=           1           1           3           0           0           1           1           1           0           1
 AtZEff=   0.0000000   0.0000000   0.0000000   0.0000000   0.0000000   0.0000000   0.0000000   0.0000000   0.0000000   0.0000000
 NQMom=    0.0000000   0.0000000  10.4000000   0.0000000   0.0000000   0.0000000   0.0000000   0.0000000   0.0000000   0.0000000
 NMagM=    2.7928460   2.7928460   2.2175200   0.0000000   0.0000000   2.7928460   2.7928460   2.7928460   0.0000000   2.7928460
 AtZNuc=   1.0000000   1.0000000  11.0000000   8.0000000   6.0000000   1.0000000   1.0000000   1.0000000   6.0000000   1.0000000

  Atom        91          92          93          94          95          96          97          98          99         100
 IAtWgt=           1           1          12          19          19          19          12          19          19          19
 AtmWgt=   1.0078250   1.0078250  12.0000000  18.9984033  18.9984033  18.9984033  12.0000000  18.9984033  18.9984033  18.9984033
 NucSpn=           1           1           0           1           1           1           0           1           1           1
 AtZEff=   0.0000000   0.0000000   0.0000000   0.0000000   0.0000000   0.0000000   0.0000000   0.0000000   0.0000000   0.0000000
 NQMom=    0.0000000   0.0000000   0.0000000   0.0000000   0.0000000   0.0000000   0.0000000   0.0000000   0.0000000   0.0000000
 NMagM=    2.7928460   2.7928460   0.0000000   2.6288670   2.6288670   2.6288670   0.0000000   2.6288670   2.6288670   2.6288670
 AtZNuc=   1.0000000   1.0000000   6.0000000   9.0000000   9.0000000   9.0000000   6.0000000   9.0000000   9.0000000   9.0000000
 Leave Link  101 at Wed May 22 21:02:37 2019, MaxMem=  6442450944 cpu:              17.9 elap:               0.7
 (Enter /home/ekwan/sw/g16/l103.exe)

 GradGradGradGradGradGradGradGradGradGradGradGradGradGradGradGradGradGrad
 Berny optimization.
 Initialization pass.
                           ----------------------------
                           !    Initial Parameters    !
                           ! (Angstroms and Degrees)  !
 --------------------------                            --------------------------
 ! Name  Definition              Value          Derivative Info.                !
 --------------------------------------------------------------------------------
 ! R1    R(1,2)                  1.5284         calculate D2E/DX2 analytically  !
 ! R2    R(1,5)                  1.5282         calculate D2E/DX2 analytically  !
 ! R3    R(1,8)                  1.0973         calculate D2E/DX2 analytically  !
 ! R4    R(1,14)                 1.4248         calculate D2E/DX2 analytically  !
 ! R5    R(2,3)                  1.5385         calculate D2E/DX2 analytically  !
 ! R6    R(2,7)                  1.1012         calculate D2E/DX2 analytically  !
 ! R7    R(2,13)                 1.4165         calculate D2E/DX2 analytically  !
 ! R8    R(3,6)                  1.0978         calculate D2E/DX2 analytically  !
 ! R9    R(3,11)                 1.4136         calculate D2E/DX2 analytically  !
 ! R10   R(3,12)                 1.4037         calculate D2E/DX2 analytically  !
 ! R11   R(4,5)                  1.5332         calculate D2E/DX2 analytically  !
 ! R12   R(4,9)                  1.0965         calculate D2E/DX2 analytically  !
 ! R13   R(4,11)                 1.4387         calculate D2E/DX2 analytically  !
 ! R14   R(4,16)                 1.5451         calculate D2E/DX2 analytically  !
 ! R15   R(5,10)                 1.0998         calculate D2E/DX2 analytically  !
 ! R16   R(5,15)                 1.4289         calculate D2E/DX2 analytically  !
 ! R17   R(12,79)                1.4247         calculate D2E/DX2 analytically  !
 ! R18   R(13,20)                1.4181         calculate D2E/DX2 analytically  !
 ! R19   R(14,24)                1.4212         calculate D2E/DX2 analytically  !
 ! R20   R(15,28)                1.4208         calculate D2E/DX2 analytically  !
 ! R21   R(16,17)                1.1131         calculate D2E/DX2 analytically  !
 ! R22   R(16,18)                1.1152         calculate D2E/DX2 analytically  !
 ! R23   R(16,19)                1.3696         calculate D2E/DX2 analytically  !
 ! R24   R(18,38)                2.075          calculate D2E/DX2 analytically  !
 ! R25   R(19,37)                2.0597         calculate D2E/DX2 analytically  !
 ! R26   R(19,83)                2.1956         calculate D2E/DX2 analytically  !
 ! R27   R(20,21)                1.0985         calculate D2E/DX2 analytically  !
 ! R28   R(20,22)                1.0999         calculate D2E/DX2 analytically  !
 ! R29   R(20,23)                1.0925         calculate D2E/DX2 analytically  !
 ! R30   R(24,25)                1.1            calculate D2E/DX2 analytically  !
 ! R31   R(24,26)                1.0945         calculate D2E/DX2 analytically  !
 ! R32   R(24,27)                1.0934         calculate D2E/DX2 analytically  !
 ! R33   R(28,29)                1.0943         calculate D2E/DX2 analytically  !
 ! R34   R(28,30)                1.1002         calculate D2E/DX2 analytically  !
 ! R35   R(28,31)                1.0925         calculate D2E/DX2 analytically  !
 ! R36   R(32,33)                1.5355         calculate D2E/DX2 analytically  !
 ! R37   R(32,36)                1.532          calculate D2E/DX2 analytically  !
 ! R38   R(32,39)                1.0956         calculate D2E/DX2 analytically  !
 ! R39   R(32,45)                1.4162         calculate D2E/DX2 analytically  !
 ! R40   R(33,34)                1.5031         calculate D2E/DX2 analytically  !
 ! R41   R(33,38)                1.102          calculate D2E/DX2 analytically  !
 ! R42   R(33,44)                1.4146         calculate D2E/DX2 analytically  !
 ! R43   R(34,37)                1.0733         calculate D2E/DX2 analytically  !
 ! R44   R(34,42)                1.2896         calculate D2E/DX2 analytically  !
 ! R45   R(34,53)                2.1453         calculate D2E/DX2 analytically  !
 ! R46   R(35,36)                1.527          calculate D2E/DX2 analytically  !
 ! R47   R(35,40)                1.0938         calculate D2E/DX2 analytically  !
 ! R48   R(35,42)                1.4739         calculate D2E/DX2 analytically  !
 ! R49   R(35,47)                1.5235         calculate D2E/DX2 analytically  !
 ! R50   R(36,41)                1.0954         calculate D2E/DX2 analytically  !
 ! R51   R(36,46)                1.418          calculate D2E/DX2 analytically  !
 ! R52   R(37,43)                2.2636         calculate D2E/DX2 analytically  !
 ! R53   R(43,51)                1.4945         calculate D2E/DX2 analytically  !
 ! R54   R(44,63)                1.439          calculate D2E/DX2 analytically  !
 ! R55   R(45,67)                1.4262         calculate D2E/DX2 analytically  !
 ! R56   R(46,71)                1.4272         calculate D2E/DX2 analytically  !
 ! R57   R(47,48)                1.0933         calculate D2E/DX2 analytically  !
 ! R58   R(47,49)                1.0991         calculate D2E/DX2 analytically  !
 ! R59   R(47,50)                1.4131         calculate D2E/DX2 analytically  !
 ! R60   R(50,75)                1.4257         calculate D2E/DX2 analytically  !
 ! R61   R(51,52)                1.4726         calculate D2E/DX2 analytically  !
 ! R62   R(51,53)                1.516          calculate D2E/DX2 analytically  !
 ! R63   R(51,54)                1.8003         calculate D2E/DX2 analytically  !
 ! R64   R(54,55)                1.3884         calculate D2E/DX2 analytically  !
 ! R65   R(54,56)                1.3935         calculate D2E/DX2 analytically  !
 ! R66   R(55,57)                1.3968         calculate D2E/DX2 analytically  !
 ! R67   R(55,58)                1.0841         calculate D2E/DX2 analytically  !
 ! R68   R(56,59)                1.3918         calculate D2E/DX2 analytically  !
 ! R69   R(56,60)                1.0826         calculate D2E/DX2 analytically  !
 ! R70   R(57,61)                1.3906         calculate D2E/DX2 analytically  !
 ! R71   R(57,93)                1.5014         calculate D2E/DX2 analytically  !
 ! R72   R(59,61)                1.3983         calculate D2E/DX2 analytically  !
 ! R73   R(59,97)                1.5031         calculate D2E/DX2 analytically  !
 ! R74   R(61,62)                1.0836         calculate D2E/DX2 analytically  !
 ! R75   R(63,64)                1.093          calculate D2E/DX2 analytically  !
 ! R76   R(63,65)                1.0913         calculate D2E/DX2 analytically  !
 ! R77   R(63,66)                1.0911         calculate D2E/DX2 analytically  !
 ! R78   R(67,68)                1.0939         calculate D2E/DX2 analytically  !
 ! R79   R(67,69)                1.0966         calculate D2E/DX2 analytically  !
 ! R80   R(67,70)                1.0921         calculate D2E/DX2 analytically  !
 ! R81   R(71,72)                1.0969         calculate D2E/DX2 analytically  !
 ! R82   R(71,73)                1.0966         calculate D2E/DX2 analytically  !
 ! R83   R(71,74)                1.092          calculate D2E/DX2 analytically  !
 ! R84   R(75,76)                1.0923         calculate D2E/DX2 analytically  !
 ! R85   R(75,77)                1.0954         calculate D2E/DX2 analytically  !
 ! R86   R(75,78)                1.0987         calculate D2E/DX2 analytically  !
 ! R87   R(79,80)                1.0919         calculate D2E/DX2 analytically  !
 ! R88   R(79,81)                1.0938         calculate D2E/DX2 analytically  !
 ! R89   R(79,82)                1.0997         calculate D2E/DX2 analytically  !
 ! R90   R(83,84)                2.2665         calculate D2E/DX2 analytically  !
 ! R91   R(84,85)                1.4282         calculate D2E/DX2 analytically  !
 ! R92   R(84,89)                1.4205         calculate D2E/DX2 analytically  !
 ! R93   R(85,86)                1.0979         calculate D2E/DX2 analytically  !
 ! R94   R(85,87)                1.0927         calculate D2E/DX2 analytically  !
 ! R95   R(85,88)                1.0984         calculate D2E/DX2 analytically  !
 ! R96   R(89,90)                1.0988         calculate D2E/DX2 analytically  !
 ! R97   R(89,91)                1.0908         calculate D2E/DX2 analytically  !
 ! R98   R(89,92)                1.098          calculate D2E/DX2 analytically  !
 ! R99   R(93,94)                1.351          calculate D2E/DX2 analytically  !
 ! R100  R(93,95)                1.3431         calculate D2E/DX2 analytically  !
 ! R101  R(93,96)                1.3662         calculate D2E/DX2 analytically  !
 ! R102  R(97,98)                1.3487         calculate D2E/DX2 analytically  !
 ! R103  R(97,99)                1.3594         calculate D2E/DX2 analytically  !
 ! R104  R(97,100)               1.3484         calculate D2E/DX2 analytically  !
 ! A1    A(2,1,5)              111.0027         calculate D2E/DX2 analytically  !
 ! A2    A(2,1,8)              108.6005         calculate D2E/DX2 analytically  !
 ! A3    A(2,1,14)             111.3595         calculate D2E/DX2 analytically  !
 ! A4    A(5,1,8)              108.0834         calculate D2E/DX2 analytically  !
 ! A5    A(5,1,14)             107.6848         calculate D2E/DX2 analytically  !
 ! A6    A(8,1,14)             110.0575         calculate D2E/DX2 analytically  !
 ! A7    A(1,2,3)              110.1933         calculate D2E/DX2 analytically  !
 ! A8    A(1,2,7)              108.5986         calculate D2E/DX2 analytically  !
 ! A9    A(1,2,13)             108.0132         calculate D2E/DX2 analytically  !
 ! A10   A(3,2,7)              107.1119         calculate D2E/DX2 analytically  !
 ! A11   A(3,2,13)             112.8883         calculate D2E/DX2 analytically  !
 ! A12   A(7,2,13)             109.9669         calculate D2E/DX2 analytically  !
 ! A13   A(2,3,6)              111.1612         calculate D2E/DX2 analytically  !
 ! A14   A(2,3,11)             109.9571         calculate D2E/DX2 analytically  !
 ! A15   A(2,3,12)             107.9369         calculate D2E/DX2 analytically  !
 ! A16   A(6,3,11)             104.3243         calculate D2E/DX2 analytically  !
 ! A17   A(6,3,12)             110.0766         calculate D2E/DX2 analytically  !
 ! A18   A(11,3,12)            113.4055         calculate D2E/DX2 analytically  !
 ! A19   A(5,4,9)              107.1737         calculate D2E/DX2 analytically  !
 ! A20   A(5,4,11)             111.734          calculate D2E/DX2 analytically  !
 ! A21   A(5,4,16)             112.1135         calculate D2E/DX2 analytically  !
 ! A22   A(9,4,11)             108.8968         calculate D2E/DX2 analytically  !
 ! A23   A(9,4,16)             108.9833         calculate D2E/DX2 analytically  !
 ! A24   A(11,4,16)            107.8737         calculate D2E/DX2 analytically  !
 ! A25   A(1,5,4)              113.1896         calculate D2E/DX2 analytically  !
 ! A26   A(1,5,10)             108.673          calculate D2E/DX2 analytically  !
 ! A27   A(1,5,15)             109.6242         calculate D2E/DX2 analytically  !
 ! A28   A(4,5,10)             109.4826         calculate D2E/DX2 analytically  !
 ! A29   A(4,5,15)             105.6492         calculate D2E/DX2 analytically  !
 ! A30   A(10,5,15)            110.188          calculate D2E/DX2 analytically  !
 ! A31   A(3,11,4)             114.5167         calculate D2E/DX2 analytically  !
 ! A32   A(3,12,79)            113.3109         calculate D2E/DX2 analytically  !
 ! A33   A(2,13,20)            114.2587         calculate D2E/DX2 analytically  !
 ! A34   A(1,14,24)            114.595          calculate D2E/DX2 analytically  !
 ! A35   A(5,15,28)            115.8963         calculate D2E/DX2 analytically  !
 ! A36   A(4,16,17)            105.1408         calculate D2E/DX2 analytically  !
 ! A37   A(4,16,18)            105.4563         calculate D2E/DX2 analytically  !
 ! A38   A(4,16,19)            114.913          calculate D2E/DX2 analytically  !
 ! A39   A(17,16,18)           104.2863         calculate D2E/DX2 analytically  !
 ! A40   A(17,16,19)           113.6617         calculate D2E/DX2 analytically  !
 ! A41   A(18,16,19)           112.4178         calculate D2E/DX2 analytically  !
 ! A42   A(16,18,38)           105.5252         calculate D2E/DX2 analytically  !
 ! A43   A(16,19,37)           132.7757         calculate D2E/DX2 analytically  !
 ! A44   A(16,19,83)           127.2713         calculate D2E/DX2 analytically  !
 ! A45   A(37,19,83)            69.8553         calculate D2E/DX2 analytically  !
 ! A46   A(13,20,21)           112.2311         calculate D2E/DX2 analytically  !
 ! A47   A(13,20,22)           111.3173         calculate D2E/DX2 analytically  !
 ! A48   A(13,20,23)           106.7833         calculate D2E/DX2 analytically  !
 ! A49   A(21,20,22)           108.6866         calculate D2E/DX2 analytically  !
 ! A50   A(21,20,23)           108.6369         calculate D2E/DX2 analytically  !
 ! A51   A(22,20,23)           109.1016         calculate D2E/DX2 analytically  !
 ! A52   A(14,24,25)           111.0424         calculate D2E/DX2 analytically  !
 ! A53   A(14,24,26)           111.595          calculate D2E/DX2 analytically  !
 ! A54   A(14,24,27)           106.5892         calculate D2E/DX2 analytically  !
 ! A55   A(25,24,26)           109.0698         calculate D2E/DX2 analytically  !
 ! A56   A(25,24,27)           108.8489         calculate D2E/DX2 analytically  !
 ! A57   A(26,24,27)           109.6316         calculate D2E/DX2 analytically  !
 ! A58   A(15,28,29)           111.3824         calculate D2E/DX2 analytically  !
 ! A59   A(15,28,30)           110.9825         calculate D2E/DX2 analytically  !
 ! A60   A(15,28,31)           105.891          calculate D2E/DX2 analytically  !
 ! A61   A(29,28,30)           109.1444         calculate D2E/DX2 analytically  !
 ! A62   A(29,28,31)           110.1571         calculate D2E/DX2 analytically  !
 ! A63   A(30,28,31)           109.2298         calculate D2E/DX2 analytically  !
 ! A64   A(33,32,36)           106.8977         calculate D2E/DX2 analytically  !
 ! A65   A(33,32,39)           109.7837         calculate D2E/DX2 analytically  !
 ! A66   A(33,32,45)           108.941          calculate D2E/DX2 analytically  !
 ! A67   A(36,32,39)           110.7596         calculate D2E/DX2 analytically  !
 ! A68   A(36,32,45)           109.3482         calculate D2E/DX2 analytically  !
 ! A69   A(39,32,45)           111.0062         calculate D2E/DX2 analytically  !
 ! A70   A(32,33,34)           110.8239         calculate D2E/DX2 analytically  !
 ! A71   A(32,33,38)           106.8432         calculate D2E/DX2 analytically  !
 ! A72   A(32,33,44)           116.5734         calculate D2E/DX2 analytically  !
 ! A73   A(34,33,38)           105.7877         calculate D2E/DX2 analytically  !
 ! A74   A(34,33,44)           107.3325         calculate D2E/DX2 analytically  !
 ! A75   A(38,33,44)           108.9619         calculate D2E/DX2 analytically  !
 ! A76   A(33,34,37)           121.3923         calculate D2E/DX2 analytically  !
 ! A77   A(33,34,42)           121.8041         calculate D2E/DX2 analytically  !
 ! A78   A(33,34,53)            96.8011         calculate D2E/DX2 analytically  !
 ! A79   A(37,34,42)           113.8361         calculate D2E/DX2 analytically  !
 ! A80   A(37,34,53)            89.5803         calculate D2E/DX2 analytically  !
 ! A81   A(42,34,53)           100.636          calculate D2E/DX2 analytically  !
 ! A82   A(36,35,40)           109.625          calculate D2E/DX2 analytically  !
 ! A83   A(36,35,42)           112.0316         calculate D2E/DX2 analytically  !
 ! A84   A(36,35,47)           113.524          calculate D2E/DX2 analytically  !
 ! A85   A(40,35,42)           104.1722         calculate D2E/DX2 analytically  !
 ! A86   A(40,35,47)           109.2486         calculate D2E/DX2 analytically  !
 ! A87   A(42,35,47)           107.7941         calculate D2E/DX2 analytically  !
 ! A88   A(32,36,35)           112.2713         calculate D2E/DX2 analytically  !
 ! A89   A(32,36,41)           107.9386         calculate D2E/DX2 analytically  !
 ! A90   A(32,36,46)           110.8914         calculate D2E/DX2 analytically  !
 ! A91   A(35,36,41)           108.8285         calculate D2E/DX2 analytically  !
 ! A92   A(35,36,46)           106.5787         calculate D2E/DX2 analytically  !
 ! A93   A(41,36,46)           110.3254         calculate D2E/DX2 analytically  !
 ! A94   A(19,37,34)           109.4398         calculate D2E/DX2 analytically  !
 ! A95   A(19,37,43)           111.7377         calculate D2E/DX2 analytically  !
 ! A96   A(34,37,43)           126.038          calculate D2E/DX2 analytically  !
 ! A97   A(18,38,33)           138.5204         calculate D2E/DX2 analytically  !
 ! A98   A(34,42,35)           121.5155         calculate D2E/DX2 analytically  !
 ! A99   A(37,43,51)            94.3443         calculate D2E/DX2 analytically  !
 ! A100  A(33,44,63)           116.2491         calculate D2E/DX2 analytically  !
 ! A101  A(32,45,67)           114.2958         calculate D2E/DX2 analytically  !
 ! A102  A(36,46,71)           113.846          calculate D2E/DX2 analytically  !
 ! A103  A(35,47,48)           106.8722         calculate D2E/DX2 analytically  !
 ! A104  A(35,47,49)           109.119          calculate D2E/DX2 analytically  !
 ! A105  A(35,47,50)           114.3171         calculate D2E/DX2 analytically  !
 ! A106  A(48,47,49)           108.4545         calculate D2E/DX2 analytically  !
 ! A107  A(48,47,50)           106.4669         calculate D2E/DX2 analytically  !
 ! A108  A(49,47,50)           111.3373         calculate D2E/DX2 analytically  !
 ! A109  A(47,50,75)           114.7964         calculate D2E/DX2 analytically  !
 ! A110  A(43,51,52)           115.1282         calculate D2E/DX2 analytically  !
 ! A111  A(43,51,53)           111.874          calculate D2E/DX2 analytically  !
 ! A112  A(43,51,54)           103.9099         calculate D2E/DX2 analytically  !
 ! A113  A(52,51,53)           112.4728         calculate D2E/DX2 analytically  !
 ! A114  A(52,51,54)           107.9572         calculate D2E/DX2 analytically  !
 ! A115  A(53,51,54)           104.4605         calculate D2E/DX2 analytically  !
 ! A116  A(34,53,51)           113.8478         calculate D2E/DX2 analytically  !
 ! A117  A(51,54,55)           118.5664         calculate D2E/DX2 analytically  !
 ! A118  A(51,54,56)           120.289          calculate D2E/DX2 analytically  !
 ! A119  A(55,54,56)           120.9518         calculate D2E/DX2 analytically  !
 ! A120  A(54,55,57)           119.3202         calculate D2E/DX2 analytically  !
 ! A121  A(54,55,58)           120.099          calculate D2E/DX2 analytically  !
 ! A122  A(57,55,58)           120.5125         calculate D2E/DX2 analytically  !
 ! A123  A(54,56,59)           118.9972         calculate D2E/DX2 analytically  !
 ! A124  A(54,56,60)           120.1738         calculate D2E/DX2 analytically  !
 ! A125  A(59,56,60)           120.7648         calculate D2E/DX2 analytically  !
 ! A126  A(55,57,61)           120.6393         calculate D2E/DX2 analytically  !
 ! A127  A(55,57,93)           118.1204         calculate D2E/DX2 analytically  !
 ! A128  A(61,57,93)           120.8009         calculate D2E/DX2 analytically  !
 ! A129  A(56,59,61)           120.9231         calculate D2E/DX2 analytically  !
 ! A130  A(56,59,97)           120.4455         calculate D2E/DX2 analytically  !
 ! A131  A(61,59,97)           118.3753         calculate D2E/DX2 analytically  !
 ! A132  A(57,61,59)           119.0958         calculate D2E/DX2 analytically  !
 ! A133  A(57,61,62)           120.4296         calculate D2E/DX2 analytically  !
 ! A134  A(59,61,62)           120.461          calculate D2E/DX2 analytically  !
 ! A135  A(44,63,64)           105.8183         calculate D2E/DX2 analytically  !
 ! A136  A(44,63,65)           110.8909         calculate D2E/DX2 analytically  !
 ! A137  A(44,63,66)           110.709          calculate D2E/DX2 analytically  !
 ! A138  A(64,63,65)           110.3968         calculate D2E/DX2 analytically  !
 ! A139  A(64,63,66)           109.1439         calculate D2E/DX2 analytically  !
 ! A140  A(65,63,66)           109.8054         calculate D2E/DX2 analytically  !
 ! A141  A(45,67,68)           111.3908         calculate D2E/DX2 analytically  !
 ! A142  A(45,67,69)           111.1585         calculate D2E/DX2 analytically  !
 ! A143  A(45,67,70)           106.2857         calculate D2E/DX2 analytically  !
 ! A144  A(68,67,69)           109.1749         calculate D2E/DX2 analytically  !
 ! A145  A(68,67,70)           109.8043         calculate D2E/DX2 analytically  !
 ! A146  A(69,67,70)           108.9642         calculate D2E/DX2 analytically  !
 ! A147  A(46,71,72)           110.9982         calculate D2E/DX2 analytically  !
 ! A148  A(46,71,73)           111.0622         calculate D2E/DX2 analytically  !
 ! A149  A(46,71,74)           106.454          calculate D2E/DX2 analytically  !
 ! A150  A(72,71,73)           109.3274         calculate D2E/DX2 analytically  !
 ! A151  A(72,71,74)           109.3662         calculate D2E/DX2 analytically  !
 ! A152  A(73,71,74)           109.5795         calculate D2E/DX2 analytically  !
 ! A153  A(50,75,76)           106.4708         calculate D2E/DX2 analytically  !
 ! A154  A(50,75,77)           112.4435         calculate D2E/DX2 analytically  !
 ! A155  A(50,75,78)           110.8853         calculate D2E/DX2 analytically  !
 ! A156  A(76,75,77)           109.0213         calculate D2E/DX2 analytically  !
 ! A157  A(76,75,78)           109.2709         calculate D2E/DX2 analytically  !
 ! A158  A(77,75,78)           108.6821         calculate D2E/DX2 analytically  !
 ! A159  A(12,79,80)           106.976          calculate D2E/DX2 analytically  !
 ! A160  A(12,79,81)           111.7124         calculate D2E/DX2 analytically  !
 ! A161  A(12,79,82)           110.6405         calculate D2E/DX2 analytically  !
 ! A162  A(80,79,81)           109.2535         calculate D2E/DX2 analytically  !
 ! A163  A(80,79,82)           109.2163         calculate D2E/DX2 analytically  !
 ! A164  A(81,79,82)           108.9914         calculate D2E/DX2 analytically  !
 ! A165  A(19,83,84)           106.4675         calculate D2E/DX2 analytically  !
 ! A166  A(83,84,85)           110.6028         calculate D2E/DX2 analytically  !
 ! A167  A(83,84,89)           136.0487         calculate D2E/DX2 analytically  !
 ! A168  A(85,84,89)           113.1527         calculate D2E/DX2 analytically  !
 ! A169  A(84,85,86)           110.5299         calculate D2E/DX2 analytically  !
 ! A170  A(84,85,87)           106.3956         calculate D2E/DX2 analytically  !
 ! A171  A(84,85,88)           110.3972         calculate D2E/DX2 analytically  !
 ! A172  A(86,85,87)           110.2972         calculate D2E/DX2 analytically  !
 ! A173  A(86,85,88)           109.2819         calculate D2E/DX2 analytically  !
 ! A174  A(87,85,88)           109.9093         calculate D2E/DX2 analytically  !
 ! A175  A(84,89,90)           110.6975         calculate D2E/DX2 analytically  !
 ! A176  A(84,89,91)           107.3833         calculate D2E/DX2 analytically  !
 ! A177  A(84,89,92)           110.8573         calculate D2E/DX2 analytically  !
 ! A178  A(90,89,91)           109.3312         calculate D2E/DX2 analytically  !
 ! A179  A(90,89,92)           109.0149         calculate D2E/DX2 analytically  !
 ! A180  A(91,89,92)           109.5279         calculate D2E/DX2 analytically  !
 ! A181  A(57,93,94)           112.1945         calculate D2E/DX2 analytically  !
 ! A182  A(57,93,95)           113.0422         calculate D2E/DX2 analytically  !
 ! A183  A(57,93,96)           109.9319         calculate D2E/DX2 analytically  !
 ! A184  A(94,93,95)           108.0768         calculate D2E/DX2 analytically  !
 ! A185  A(94,93,96)           106.1039         calculate D2E/DX2 analytically  !
 ! A186  A(95,93,96)           107.1355         calculate D2E/DX2 analytically  !
 ! A187  A(59,97,98)           112.4175         calculate D2E/DX2 analytically  !
 ! A188  A(59,97,99)           110.6849         calculate D2E/DX2 analytically  !
 ! A189  A(59,97,100)          112.0194         calculate D2E/DX2 analytically  !
 ! A190  A(98,97,99)           106.8719         calculate D2E/DX2 analytically  !
 ! A191  A(98,97,100)          107.8939         calculate D2E/DX2 analytically  !
 ! A192  A(99,97,100)          106.6443         calculate D2E/DX2 analytically  !
 ! D1    D(5,1,2,3)            -51.3974         calculate D2E/DX2 analytically  !
 ! D2    D(5,1,2,7)             65.6386         calculate D2E/DX2 analytically  !
 ! D3    D(5,1,2,13)          -175.1332         calculate D2E/DX2 analytically  !
 ! D4    D(8,1,2,3)             67.2895         calculate D2E/DX2 analytically  !
 ! D5    D(8,1,2,7)           -175.6745         calculate D2E/DX2 analytically  !
 ! D6    D(8,1,2,13)           -56.4464         calculate D2E/DX2 analytically  !
 ! D7    D(14,1,2,3)          -171.367          calculate D2E/DX2 analytically  !
 ! D8    D(14,1,2,7)           -54.3309         calculate D2E/DX2 analytically  !
 ! D9    D(14,1,2,13)           64.8972         calculate D2E/DX2 analytically  !
 ! D10   D(2,1,5,4)             46.5272         calculate D2E/DX2 analytically  !
 ! D11   D(2,1,5,10)           -75.3277         calculate D2E/DX2 analytically  !
 ! D12   D(2,1,5,15)           164.192          calculate D2E/DX2 analytically  !
 ! D13   D(8,1,5,4)            -72.4709         calculate D2E/DX2 analytically  !
 ! D14   D(8,1,5,10)           165.6742         calculate D2E/DX2 analytically  !
 ! D15   D(8,1,5,15)            45.1939         calculate D2E/DX2 analytically  !
 ! D16   D(14,1,5,4)           168.6612         calculate D2E/DX2 analytically  !
 ! D17   D(14,1,5,10)           46.8062         calculate D2E/DX2 analytically  !
 ! D18   D(14,1,5,15)          -73.674          calculate D2E/DX2 analytically  !
 ! D19   D(2,1,14,24)          -95.3397         calculate D2E/DX2 analytically  !
 ! D20   D(5,1,14,24)          142.7474         calculate D2E/DX2 analytically  !
 ! D21   D(8,1,14,24)           25.1505         calculate D2E/DX2 analytically  !
 ! D22   D(1,2,3,6)            173.4667         calculate D2E/DX2 analytically  !
 ! D23   D(1,2,3,11)            58.4544         calculate D2E/DX2 analytically  !
 ! D24   D(1,2,3,12)           -65.7224         calculate D2E/DX2 analytically  !
 ! D25   D(7,2,3,6)             55.5104         calculate D2E/DX2 analytically  !
 ! D26   D(7,2,3,11)           -59.5018         calculate D2E/DX2 analytically  !
 ! D27   D(7,2,3,12)           176.3214         calculate D2E/DX2 analytically  !
 ! D28   D(13,2,3,6)           -65.6746         calculate D2E/DX2 analytically  !
 ! D29   D(13,2,3,11)          179.3131         calculate D2E/DX2 analytically  !
 ! D30   D(13,2,3,12)           55.1363         calculate D2E/DX2 analytically  !
 ! D31   D(1,2,13,20)         -165.4294         calculate D2E/DX2 analytically  !
 ! D32   D(3,2,13,20)           72.4785         calculate D2E/DX2 analytically  !
 ! D33   D(7,2,13,20)          -47.0723         calculate D2E/DX2 analytically  !
 ! D34   D(2,3,11,4)           -61.6364         calculate D2E/DX2 analytically  !
 ! D35   D(6,3,11,4)           179.082          calculate D2E/DX2 analytically  !
 ! D36   D(12,3,11,4)           59.3076         calculate D2E/DX2 analytically  !
 ! D37   D(2,3,12,79)         -166.9193         calculate D2E/DX2 analytically  !
 ! D38   D(6,3,12,79)          -45.4331         calculate D2E/DX2 analytically  !
 ! D39   D(11,3,12,79)          71.0053         calculate D2E/DX2 analytically  !
 ! D40   D(9,4,5,1)             72.038          calculate D2E/DX2 analytically  !
 ! D41   D(9,4,5,10)          -166.5617         calculate D2E/DX2 analytically  !
 ! D42   D(9,4,5,15)           -47.9248         calculate D2E/DX2 analytically  !
 ! D43   D(11,4,5,1)           -47.1788         calculate D2E/DX2 analytically  !
 ! D44   D(11,4,5,10)           74.2215         calculate D2E/DX2 analytically  !
 ! D45   D(11,4,5,15)         -167.1416         calculate D2E/DX2 analytically  !
 ! D46   D(16,4,5,1)          -168.4186         calculate D2E/DX2 analytically  !
 ! D47   D(16,4,5,10)          -47.0183         calculate D2E/DX2 analytically  !
 ! D48   D(16,4,5,15)           71.6186         calculate D2E/DX2 analytically  !
 ! D49   D(5,4,11,3)            55.7981         calculate D2E/DX2 analytically  !
 ! D50   D(9,4,11,3)           -62.3941         calculate D2E/DX2 analytically  !
 ! D51   D(16,4,11,3)          179.4644         calculate D2E/DX2 analytically  !
 ! D52   D(5,4,16,17)           85.1599         calculate D2E/DX2 analytically  !
 ! D53   D(5,4,16,18)          -24.7201         calculate D2E/DX2 analytically  !
 ! D54   D(5,4,16,19)         -149.1006         calculate D2E/DX2 analytically  !
 ! D55   D(9,4,16,17)         -156.362          calculate D2E/DX2 analytically  !
 ! D56   D(9,4,16,18)           93.758          calculate D2E/DX2 analytically  !
 ! D57   D(9,4,16,19)          -30.6225         calculate D2E/DX2 analytically  !
 ! D58   D(11,4,16,17)         -38.2761         calculate D2E/DX2 analytically  !
 ! D59   D(11,4,16,18)        -148.1561         calculate D2E/DX2 analytically  !
 ! D60   D(11,4,16,19)          87.4634         calculate D2E/DX2 analytically  !
 ! D61   D(1,5,15,28)           96.6481         calculate D2E/DX2 analytically  !
 ! D62   D(4,5,15,28)         -141.0734         calculate D2E/DX2 analytically  !
 ! D63   D(10,5,15,28)         -22.9071         calculate D2E/DX2 analytically  !
 ! D64   D(3,12,79,80)        -177.1605         calculate D2E/DX2 analytically  !
 ! D65   D(3,12,79,81)         -57.645          calculate D2E/DX2 analytically  !
 ! D66   D(3,12,79,82)          63.976          calculate D2E/DX2 analytically  !
 ! D67   D(2,13,20,21)         -69.677          calculate D2E/DX2 analytically  !
 ! D68   D(2,13,20,22)          52.3987         calculate D2E/DX2 analytically  !
 ! D69   D(2,13,20,23)         171.385          calculate D2E/DX2 analytically  !
 ! D70   D(1,14,24,25)         -58.415          calculate D2E/DX2 analytically  !
 ! D71   D(1,14,24,26)          63.5074         calculate D2E/DX2 analytically  !
 ! D72   D(1,14,24,27)        -176.8264         calculate D2E/DX2 analytically  !
 ! D73   D(5,15,28,29)         -59.8861         calculate D2E/DX2 analytically  !
 ! D74   D(5,15,28,30)          61.9415         calculate D2E/DX2 analytically  !
 ! D75   D(5,15,28,31)        -179.6376         calculate D2E/DX2 analytically  !
 ! D76   D(4,16,18,38)         -71.1315         calculate D2E/DX2 analytically  !
 ! D77   D(17,16,18,38)        178.3781         calculate D2E/DX2 analytically  !
 ! D78   D(19,16,18,38)         54.8017         calculate D2E/DX2 analytically  !
 ! D79   D(4,16,19,37)         106.3594         calculate D2E/DX2 analytically  !
 ! D80   D(4,16,19,83)           9.7845         calculate D2E/DX2 analytically  !
 ! D81   D(17,16,19,37)       -132.4467         calculate D2E/DX2 analytically  !
 ! D82   D(17,16,19,83)        130.9784         calculate D2E/DX2 analytically  !
 ! D83   D(18,16,19,37)        -14.2693         calculate D2E/DX2 analytically  !
 ! D84   D(18,16,19,83)       -110.8442         calculate D2E/DX2 analytically  !
 ! D85   D(16,18,38,33)        -67.3353         calculate D2E/DX2 analytically  !
 ! D86   D(16,19,37,34)         -6.6778         calculate D2E/DX2 analytically  !
 ! D87   D(16,19,37,43)       -151.0058         calculate D2E/DX2 analytically  !
 ! D88   D(83,19,37,34)        115.9644         calculate D2E/DX2 analytically  !
 ! D89   D(83,19,37,43)        -28.3636         calculate D2E/DX2 analytically  !
 ! D90   D(16,19,83,84)        -97.0667         calculate D2E/DX2 analytically  !
 ! D91   D(37,19,83,84)        133.8931         calculate D2E/DX2 analytically  !
 ! D92   D(36,32,33,34)        -52.5195         calculate D2E/DX2 analytically  !
 ! D93   D(36,32,33,38)         62.2696         calculate D2E/DX2 analytically  !
 ! D94   D(36,32,33,44)       -175.6552         calculate D2E/DX2 analytically  !
 ! D95   D(39,32,33,34)         67.6756         calculate D2E/DX2 analytically  !
 ! D96   D(39,32,33,38)       -177.5353         calculate D2E/DX2 analytically  !
 ! D97   D(39,32,33,44)        -55.4601         calculate D2E/DX2 analytically  !
 ! D98   D(45,32,33,34)       -170.5752         calculate D2E/DX2 analytically  !
 ! D99   D(45,32,33,38)        -55.7861         calculate D2E/DX2 analytically  !
 ! D100  D(45,32,33,44)         66.2891         calculate D2E/DX2 analytically  !
 ! D101  D(33,32,36,35)         58.5616         calculate D2E/DX2 analytically  !
 ! D102  D(33,32,36,41)        -61.3828         calculate D2E/DX2 analytically  !
 ! D103  D(33,32,36,46)        177.6627         calculate D2E/DX2 analytically  !
 ! D104  D(39,32,36,35)        -61.0061         calculate D2E/DX2 analytically  !
 ! D105  D(39,32,36,41)        179.0495         calculate D2E/DX2 analytically  !
 ! D106  D(39,32,36,46)         58.0949         calculate D2E/DX2 analytically  !
 ! D107  D(45,32,36,35)        176.3506         calculate D2E/DX2 analytically  !
 ! D108  D(45,32,36,41)         56.4062         calculate D2E/DX2 analytically  !
 ! D109  D(45,32,36,46)        -64.5484         calculate D2E/DX2 analytically  !
 ! D110  D(33,32,45,67)       -145.4318         calculate D2E/DX2 analytically  !
 ! D111  D(36,32,45,67)         98.068          calculate D2E/DX2 analytically  !
 ! D112  D(39,32,45,67)        -24.4279         calculate D2E/DX2 analytically  !
 ! D113  D(32,33,34,37)       -160.662          calculate D2E/DX2 analytically  !
 ! D114  D(32,33,34,42)         40.0333         calculate D2E/DX2 analytically  !
 ! D115  D(32,33,34,53)        -66.9849         calculate D2E/DX2 analytically  !
 ! D116  D(38,33,34,37)         83.8898         calculate D2E/DX2 analytically  !
 ! D117  D(38,33,34,42)        -75.4149         calculate D2E/DX2 analytically  !
 ! D118  D(38,33,34,53)        177.567          calculate D2E/DX2 analytically  !
 ! D119  D(44,33,34,37)        -32.3405         calculate D2E/DX2 analytically  !
 ! D120  D(44,33,34,42)        168.3548         calculate D2E/DX2 analytically  !
 ! D121  D(44,33,34,53)         61.3367         calculate D2E/DX2 analytically  !
 ! D122  D(32,33,38,18)       -133.4905         calculate D2E/DX2 analytically  !
 ! D123  D(34,33,38,18)        -15.353          calculate D2E/DX2 analytically  !
 ! D124  D(44,33,38,18)         99.7663         calculate D2E/DX2 analytically  !
 ! D125  D(32,33,44,63)        -65.3178         calculate D2E/DX2 analytically  !
 ! D126  D(34,33,44,63)        169.7578         calculate D2E/DX2 analytically  !
 ! D127  D(38,33,44,63)         55.6411         calculate D2E/DX2 analytically  !
 ! D128  D(33,34,37,19)        -58.8813         calculate D2E/DX2 analytically  !
 ! D129  D(33,34,37,43)         79.0616         calculate D2E/DX2 analytically  !
 ! D130  D(42,34,37,19)        101.9505         calculate D2E/DX2 analytically  !
 ! D131  D(42,34,37,43)       -120.1066         calculate D2E/DX2 analytically  !
 ! D132  D(53,34,37,19)       -156.5974         calculate D2E/DX2 analytically  !
 ! D133  D(53,34,37,43)        -18.6545         calculate D2E/DX2 analytically  !
 ! D134  D(33,34,42,35)        -28.6287         calculate D2E/DX2 analytically  !
 ! D135  D(37,34,42,35)        170.6278         calculate D2E/DX2 analytically  !
 ! D136  D(53,34,42,35)         76.3369         calculate D2E/DX2 analytically  !
 ! D137  D(33,34,53,51)       -100.0724         calculate D2E/DX2 analytically  !
 ! D138  D(37,34,53,51)         21.5102         calculate D2E/DX2 analytically  !
 ! D139  D(42,34,53,51)        135.7038         calculate D2E/DX2 analytically  !
 ! D140  D(40,35,36,32)         68.4468         calculate D2E/DX2 analytically  !
 ! D141  D(40,35,36,41)       -172.1276         calculate D2E/DX2 analytically  !
 ! D142  D(40,35,36,46)        -53.153          calculate D2E/DX2 analytically  !
 ! D143  D(42,35,36,32)        -46.6854         calculate D2E/DX2 analytically  !
 ! D144  D(42,35,36,41)         72.7402         calculate D2E/DX2 analytically  !
 ! D145  D(42,35,36,46)       -168.2852         calculate D2E/DX2 analytically  !
 ! D146  D(47,35,36,32)       -169.0773         calculate D2E/DX2 analytically  !
 ! D147  D(47,35,36,41)        -49.6517         calculate D2E/DX2 analytically  !
 ! D148  D(47,35,36,46)         69.3228         calculate D2E/DX2 analytically  !
 ! D149  D(36,35,42,34)         30.8081         calculate D2E/DX2 analytically  !
 ! D150  D(40,35,42,34)        -87.6087         calculate D2E/DX2 analytically  !
 ! D151  D(47,35,42,34)        156.4055         calculate D2E/DX2 analytically  !
 ! D152  D(36,35,47,48)        -72.222          calculate D2E/DX2 analytically  !
 ! D153  D(36,35,47,49)        170.6976         calculate D2E/DX2 analytically  !
 ! D154  D(36,35,47,50)         45.3008         calculate D2E/DX2 analytically  !
 ! D155  D(40,35,47,48)         50.4617         calculate D2E/DX2 analytically  !
 ! D156  D(40,35,47,49)        -66.6186         calculate D2E/DX2 analytically  !
 ! D157  D(40,35,47,50)        167.9846         calculate D2E/DX2 analytically  !
 ! D158  D(42,35,47,48)        163.0705         calculate D2E/DX2 analytically  !
 ! D159  D(42,35,47,49)         45.9902         calculate D2E/DX2 analytically  !
 ! D160  D(42,35,47,50)        -79.4067         calculate D2E/DX2 analytically  !
 ! D161  D(32,36,46,71)        117.7108         calculate D2E/DX2 analytically  !
 ! D162  D(35,36,46,71)       -119.817          calculate D2E/DX2 analytically  !
 ! D163  D(41,36,46,71)         -1.8235         calculate D2E/DX2 analytically  !
 ! D164  D(19,37,43,51)        152.6229         calculate D2E/DX2 analytically  !
 ! D165  D(34,37,43,51)         15.4697         calculate D2E/DX2 analytically  !
 ! D166  D(37,43,51,52)        134.694          calculate D2E/DX2 analytically  !
 ! D167  D(37,43,51,53)          4.6586         calculate D2E/DX2 analytically  !
 ! D168  D(37,43,51,54)       -107.4673         calculate D2E/DX2 analytically  !
 ! D169  D(33,44,63,64)       -156.7769         calculate D2E/DX2 analytically  !
 ! D170  D(33,44,63,65)        -37.0502         calculate D2E/DX2 analytically  !
 ! D171  D(33,44,63,66)         85.0914         calculate D2E/DX2 analytically  !
 ! D172  D(32,45,67,68)        -61.3974         calculate D2E/DX2 analytically  !
 ! D173  D(32,45,67,69)         60.5986         calculate D2E/DX2 analytically  !
 ! D174  D(32,45,67,70)        179.0302         calculate D2E/DX2 analytically  !
 ! D175  D(36,46,71,72)        -64.4806         calculate D2E/DX2 analytically  !
 ! D176  D(36,46,71,73)         57.3699         calculate D2E/DX2 analytically  !
 ! D177  D(36,46,71,74)        176.5908         calculate D2E/DX2 analytically  !
 ! D178  D(35,47,50,75)         81.4885         calculate D2E/DX2 analytically  !
 ! D179  D(48,47,50,75)       -160.7569         calculate D2E/DX2 analytically  !
 ! D180  D(49,47,50,75)        -42.7325         calculate D2E/DX2 analytically  !
 ! D181  D(47,50,75,76)        170.5996         calculate D2E/DX2 analytically  !
 ! D182  D(47,50,75,77)        -70.0701         calculate D2E/DX2 analytically  !
 ! D183  D(47,50,75,78)         51.8374         calculate D2E/DX2 analytically  !
 ! D184  D(43,51,53,34)        -13.8689         calculate D2E/DX2 analytically  !
 ! D185  D(52,51,53,34)       -145.2654         calculate D2E/DX2 analytically  !
 ! D186  D(54,51,53,34)         97.9117         calculate D2E/DX2 analytically  !
 ! D187  D(43,51,54,55)        -24.6098         calculate D2E/DX2 analytically  !
 ! D188  D(43,51,54,56)        150.3926         calculate D2E/DX2 analytically  !
 ! D189  D(52,51,54,55)         98.0834         calculate D2E/DX2 analytically  !
 ! D190  D(52,51,54,56)        -86.9142         calculate D2E/DX2 analytically  !
 ! D191  D(53,51,54,55)       -142.0129         calculate D2E/DX2 analytically  !
 ! D192  D(53,51,54,56)         32.9895         calculate D2E/DX2 analytically  !
 ! D193  D(51,54,55,57)        171.9505         calculate D2E/DX2 analytically  !
 ! D194  D(51,54,55,58)         -5.0595         calculate D2E/DX2 analytically  !
 ! D195  D(56,54,55,57)         -3.0174         calculate D2E/DX2 analytically  !
 ! D196  D(56,54,55,58)        179.9725         calculate D2E/DX2 analytically  !
 ! D197  D(51,54,56,59)       -173.6715         calculate D2E/DX2 analytically  !
 ! D198  D(51,54,56,60)          3.4373         calculate D2E/DX2 analytically  !
 ! D199  D(55,54,56,59)          1.2102         calculate D2E/DX2 analytically  !
 ! D200  D(55,54,56,60)        178.319          calculate D2E/DX2 analytically  !
 ! D201  D(54,55,57,61)          2.6393         calculate D2E/DX2 analytically  !
 ! D202  D(54,55,57,93)       -169.8149         calculate D2E/DX2 analytically  !
 ! D203  D(58,55,57,61)        179.6367         calculate D2E/DX2 analytically  !
 ! D204  D(58,55,57,93)          7.1825         calculate D2E/DX2 analytically  !
 ! D205  D(54,56,59,61)          1.0111         calculate D2E/DX2 analytically  !
 ! D206  D(54,56,59,97)        175.1021         calculate D2E/DX2 analytically  !
 ! D207  D(60,56,59,61)       -176.08           calculate D2E/DX2 analytically  !
 ! D208  D(60,56,59,97)         -1.989          calculate D2E/DX2 analytically  !
 ! D209  D(55,57,61,59)         -0.4725         calculate D2E/DX2 analytically  !
 ! D210  D(55,57,61,62)       -179.1337         calculate D2E/DX2 analytically  !
 ! D211  D(93,57,61,59)        171.7783         calculate D2E/DX2 analytically  !
 ! D212  D(93,57,61,62)         -6.8829         calculate D2E/DX2 analytically  !
 ! D213  D(55,57,93,94)        -43.2109         calculate D2E/DX2 analytically  !
 ! D214  D(55,57,93,95)       -165.7388         calculate D2E/DX2 analytically  !
 ! D215  D(55,57,93,96)         74.6034         calculate D2E/DX2 analytically  !
 ! D216  D(61,57,93,94)        144.3476         calculate D2E/DX2 analytically  !
 ! D217  D(61,57,93,95)         21.8198         calculate D2E/DX2 analytically  !
 ! D218  D(61,57,93,96)        -97.838          calculate D2E/DX2 analytically  !
 ! D219  D(56,59,61,57)         -1.3713         calculate D2E/DX2 analytically  !
 ! D220  D(56,59,61,62)        177.2895         calculate D2E/DX2 analytically  !
 ! D221  D(97,59,61,57)       -175.5818         calculate D2E/DX2 analytically  !
 ! D222  D(97,59,61,62)          3.079          calculate D2E/DX2 analytically  !
 ! D223  D(56,59,97,98)         13.6136         calculate D2E/DX2 analytically  !
 ! D224  D(56,59,97,99)       -105.8156         calculate D2E/DX2 analytically  !
 ! D225  D(56,59,97,100)       135.306          calculate D2E/DX2 analytically  !
 ! D226  D(61,59,97,98)       -172.1472         calculate D2E/DX2 analytically  !
 ! D227  D(61,59,97,99)         68.4236         calculate D2E/DX2 analytically  !
 ! D228  D(61,59,97,100)       -50.4548         calculate D2E/DX2 analytically  !
 ! D229  D(19,83,84,85)        -12.1956         calculate D2E/DX2 analytically  !
 ! D230  D(19,83,84,89)        173.4391         calculate D2E/DX2 analytically  !
 ! D231  D(83,84,85,86)       -114.981          calculate D2E/DX2 analytically  !
 ! D232  D(83,84,85,87)          4.7746         calculate D2E/DX2 analytically  !
 ! D233  D(83,84,85,88)        123.9917         calculate D2E/DX2 analytically  !
 ! D234  D(89,84,85,86)         60.7686         calculate D2E/DX2 analytically  !
 ! D235  D(89,84,85,87)       -179.4758         calculate D2E/DX2 analytically  !
 ! D236  D(89,84,85,88)        -60.2587         calculate D2E/DX2 analytically  !
 ! D237  D(83,84,89,90)       -125.9649         calculate D2E/DX2 analytically  !
 ! D238  D(83,84,89,91)         -6.6846         calculate D2E/DX2 analytically  !
 ! D239  D(83,84,89,92)        112.926          calculate D2E/DX2 analytically  !
 ! D240  D(85,84,89,90)         59.7718         calculate D2E/DX2 analytically  !
 ! D241  D(85,84,89,91)        179.0521         calculate D2E/DX2 analytically  !
 ! D242  D(85,84,89,92)        -61.3373         calculate D2E/DX2 analytically  !
 --------------------------------------------------------------------------------
 Trust Radius=3.00D-02 FncErr=1.00D-07 GrdErr=1.00D-06 EigMax=2.50D+02 EigMin=1.00D-04
 Number of steps in this run=    548 maximum allowed number of steps=    600.
 Search for a saddle point of order  1.
 Step   0 in ReCalcFC=30 IGetFC= 4 compute analytic Hessian.
 GradGradGradGradGradGradGradGradGradGradGradGradGradGradGradGradGradGrad

 Leave Link  103 at Wed May 22 21:02:37 2019, MaxMem=  6442450944 cpu:               4.5 elap:               0.2
 (Enter /home/ekwan/sw/g16/l202.exe)
 Stoichiometry    C30H47F6NaO15S
 Framework group  C1[X(C30H47F6NaO15S)]
 Deg. of freedom   294
 Full point group                 C1      NOp   1
 Largest Abelian subgroup         C1      NOp   1
 Largest concise Abelian subgroup C1      NOp   1
                         Standard orientation:                         
 ---------------------------------------------------------------------
 Center     Atomic      Atomic             Coordinates (Angstroms)
 Number     Number       Type             X           Y           Z
 ---------------------------------------------------------------------
      1          6           0        4.322151    0.351940    1.479006
      2          6           0        5.273914   -0.614775    0.775045
      3          6           0        4.506332   -1.458037   -0.257713
      4          6           0        2.910660    0.289927   -0.650566
      5          6           0        3.508518    1.155182    0.465060
      6          1           0        5.191483   -2.075270   -0.853307
      7          1           0        6.024002   -0.028514    0.221547
      8          1           0        3.622826   -0.229974    2.092529
      9          1           0        2.096961   -0.295152   -0.205687
     10          1           0        4.157619    1.925579    0.023806
     11          8           0        3.884490   -0.612522   -1.204657
     12          8           0        3.602274   -2.275941    0.438065
     13          8           0        5.910277   -1.402221    1.765744
     14          8           0        5.033406    1.278634    2.294713
     15          8           0        2.394002    1.764905    1.119146
     16          6           0        2.342497    1.142801   -1.806908
     17          1           0        3.212409    1.350794   -2.469386
     18          1           0        2.098488    2.132363   -1.354272
     19          8           0        1.273603    0.589619   -2.460630
     20          6           0        7.047470   -2.112435    1.303833
     21          1           0        6.778616   -2.924627    0.614740
     22          1           0        7.759110   -1.442882    0.798810
     23          1           0        7.527636   -2.546077    2.184197
     24          6           0        5.138391    0.904229    3.661723
     25          1           0        4.143775    0.771858    4.112481
     26          1           0        5.711994   -0.019966    3.783353
     27          1           0        5.650971    1.724522    4.171589
     28          6           0        2.573411    3.115752    1.521171
     29          1           0        3.406534    3.215678    2.223576
     30          1           0        2.754826    3.764835    0.651533
     31          1           0        1.638054    3.411495    2.002016
     32          6           0       -1.419331    2.490698    0.631767
     33          6           0       -0.621927    1.532926   -0.265141
     34          6           0       -0.947460    1.762511   -1.714499
     35          6           0       -1.598001    4.058725   -1.358518
     36          6           0       -1.173856    3.906478    0.100467
     37          1           0       -0.741193    1.017169   -2.458680
     38          1           0        0.441258    1.799167   -0.150833
     39          1           0       -2.484728    2.238898    0.588295
     40          1           0       -2.687179    3.991108   -1.433444
     41          1           0       -0.101661    4.115700    0.180589
     42          8           0       -1.109084    2.948162   -2.195208
     43          8           0       -1.989157   -0.823289   -2.881846
     44          8           0       -0.779319    0.150082   -0.011765
     45          8           0       -0.928771    2.395198    1.956842
     46          8           0       -1.918377    4.860186    0.839878
     47          6           0       -1.130730    5.361704   -1.994804
     48          1           0       -1.736638    6.161744   -1.561184
     49          1           0       -1.325622    5.324592   -3.075858
     50          8           0        0.217268    5.689741   -1.726337
     51         16           0       -3.182334   -0.325910   -2.131827
     52          8           0       -4.471829   -0.501265   -2.820927
     53          8           0       -2.982632    1.089735   -1.627429
     54          6           0       -3.207942   -1.334909   -0.641048
     55          6           0       -2.600753   -2.583117   -0.673663
     56          6           0       -3.733679   -0.824403    0.544210
     57          6           0       -2.461172   -3.307066    0.512716
     58          1           0       -2.196764   -2.967055   -1.603542
     59          6           0       -3.620315   -1.574758    1.710918
     60          1           0       -4.180165    0.161744    0.561192
     61          6           0       -2.971783   -2.813536    1.708378
     62          1           0       -2.849344   -3.371383    2.629245
     63          6           0       -0.297858   -0.322933    1.259176
     64          1           0       -0.105573   -1.390632    1.126300
     65          1           0        0.618530    0.195790    1.545702
     66          1           0       -1.055591   -0.189385    2.032790
     67          6           0       -1.926263    2.549626    2.964412
     68          1           0       -2.398420    3.534875    2.910692
     69          1           0       -2.698050    1.775228    2.879319
     70          1           0       -1.414081    2.436502    3.922307
     71          6           0       -1.110920    5.814777    1.528158
     72          1           0       -0.500277    5.329739    2.299545
     73          1           0       -0.456236    6.352281    0.831806
     74          1           0       -1.799161    6.518677    2.000677
     75          6           0        1.170189    5.027373   -2.554491
     76          1           0        2.135259    5.497934   -2.353552
     77          1           0        1.242460    3.956607   -2.334884
     78          1           0        0.919917    5.152619   -3.616937
     79          6           0        3.042822   -3.309860   -0.366828
     80          1           0        2.323827   -3.845371    0.256498
     81          1           0        2.529393   -2.906503   -1.244317
     82          1           0        3.824565   -4.008295   -0.699203
     83         11           0        0.124685   -1.184587   -1.866504
     84          8           0        0.974387   -2.924412   -3.044580
     85          6           0        1.835746   -2.455433   -4.082787
     86          1           0        1.417870   -2.697922   -5.068691
     87          1           0        1.908143   -1.372336   -3.957757
     88          1           0        2.831147   -2.910139   -3.988947
     89          6           0        0.788545   -4.332542   -3.066522
     90          1           0        1.749165   -4.852923   -2.949088
     91          1           0        0.135029   -4.588049   -2.231419
     92          1           0        0.322108   -4.650691   -4.008276
     93          6           0       -1.601556   -4.537920    0.493676
     94          9           0       -1.816270   -5.293410   -0.605591
     95          9           0       -1.773998   -5.316362    1.574570
     96          9           0       -0.282404   -4.184220    0.458670
     97          6           0       -4.076627   -1.010038    3.027033
     98          9           0       -4.831384    0.097688    2.877461
     99          9           0       -3.010754   -0.660495    3.795010
    100          9           0       -4.790148   -1.904263    3.740687
 ---------------------------------------------------------------------
 Rotational constants (GHZ):           0.0515319           0.0464105           0.0359591
 Leave Link  202 at Wed May 22 21:02:37 2019, MaxMem=  6442450944 cpu:               5.0 elap:               0.2
 (Enter /home/ekwan/sw/g16/l301.exe)
 Standard basis: 6-31G(d) (6D, 7F)
 Ernie: Thresh=  0.10000D-02 Tol=  0.10000D-05 Strict=F.
 There are   897 symmetry adapted cartesian basis functions of A   symmetry.
 There are   897 symmetry adapted basis functions of A   symmetry.
   897 basis functions,  1720 primitive gaussians,   897 cartesian basis functions
   214 alpha electrons      214 beta electrons
       nuclear repulsion energy      9644.9511339707 Hartrees.
 IExCor=  402 DFT=T Ex+Corr=B3LYP ExCW=0 ScaHFX=  0.200000
 ScaDFX=  0.800000  0.720000  1.000000  0.810000 ScalE2=  1.000000  1.000000
 IRadAn=      5 IRanWt=     -1 IRanGd=            0 ICorTp=0 IEmpDi=141
 NAtoms=  100 NActive=  100 NUniq=  100 SFac= 1.00D+00 NAtFMM=   60 NAOKFM=T Big=T
 Integral buffers will be    131072 words long.
 Raffenetti 2 integral format.
 Two-electron integral symmetry is turned on.
 R6Disp:  Grimme-D3(BJ) Dispersion energy=       -0.2364984857 Hartrees.
 Nuclear repulsion after empirical dispersion term =     9644.7146354850 Hartrees.
 Force inversion solution in PCM.
 ------------------------------------------------------------------------------
 Polarizable Continuum Model (PCM)
 =================================
 Model                : PCM.
 Atomic radii         : UFF (Universal Force Field).
 Polarization charges : Total charges.
 Charge compensation  : None.
 Solution method      : Matrix inversion.
 Cavity type          : Scaled VdW (van der Waals Surface) (Alpha=1.100).
 Cavity algorithm     : GePol (No added spheres)
                        Default sphere list used, NSphG=  100.
                        Lebedev-Laikov grids with approx.  5.0 points / Ang**2.
                        Smoothing algorithm: York/Karplus (Gamma=1.0000).
                        Polarization charges: spherical gaussians, with
                                              point-specific exponents (IZeta= 3).
                        Self-potential: point-specific (ISelfS= 7).
                        Self-field    : sphere-specific E.n sum rule (ISelfD= 2).
 1st derivatives      : Analytical E(r).r(x)/FMM algorithm (CHGder, D1EAlg=3).
                        Cavity 1st derivative terms included.
 2nd derivatives      : Analytical E(r).r(xy)/FMM algorithm (CHGder, D2EAlg=3).
                        Cavity 2nd derivative terms included.
 Solvent              : TetraHydroFuran, Eps=   7.425700 Eps(inf)=   1.974025
 ------------------------------------------------------------------------------
 GePol: Number of generator spheres                  =     100
 GePol: Total number of spheres                      =     100
 GePol: Number of exposed spheres                    =     100 (100.00%)
 GePol: Number of points                             =    6105
 GePol: Average weight of points                     =       0.12
 GePol: Minimum weight of points                     =   0.51D-11
 GePol: Maximum weight of points                     =    0.21371
 GePol: Number of points with low weight             =     435
 GePol: Fraction of low-weight points (<1% of avg)   =       7.13%
 GePol: Cavity surface area                          =    748.550 Ang**2
 GePol: Cavity volume                                =    971.582 Ang**3
 Leave Link  301 at Wed May 22 21:02:38 2019, MaxMem=  6442450944 cpu:               8.9 elap:               0.3
 (Enter /home/ekwan/sw/g16/l302.exe)
 NPDir=0 NMtPBC=     1 NCelOv=     1 NCel=       1 NClECP=     1 NCelD=      1
         NCelK=      1 NCelE2=     1 NClLst=     1 CellRange=     0.0.
 One-electron integrals computed using PRISM.
 One-electron integral symmetry used in STVInt
 NBasis=   897 RedAO= T EigKep=  4.03D-04  NBF=   897
 NBsUse=   897 1.00D-06 EigRej= -1.00D+00 NBFU=   897
 Precomputing XC quadrature grid using
 IXCGrd= 4 IRadAn=           5 IRanWt=          -1 IRanGd=           0 AccXCQ= 0.00D+00.
 Generated NRdTot=       0 NPtTot=           0 NUsed=           0 NTot=          32
 NSgBfM=   832   826   826   828   832 MxSgAt=   100 MxSgA2=   100.
 Leave Link  302 at Wed May 22 21:02:53 2019, MaxMem=  6442450944 cpu:             463.2 elap:              15.5
 (Enter /home/ekwan/sw/g16/l303.exe)
 DipDrv:  MaxL=1.
 Leave Link  303 at Wed May 22 21:02:54 2019, MaxMem=  6442450944 cpu:              12.6 elap:               0.5
 (Enter /home/ekwan/sw/g16/l401.exe)
 ExpMin= 2.60D-02 ExpMax= 2.19D+04 ExpMxC= 3.30D+03 IAcc=3 IRadAn=         5 AccDes= 0.00D+00
 Harris functional with IExCor=  402 and IRadAn=       5 diagonalized for initial guess.
 HarFok:  IExCor=  402 AccDes= 0.00D+00 IRadAn=         5 IDoV= 1 UseB2=F ITyADJ=14
[...]
 0029411,0.00031304,0.00062882,-0.00020755,0.00000906,-0.00043822,0.000
 71770,-0.00018211,-0.00106820,0.00004899,-0.00010272,-0.00011722,-0.00
 001907,0.00002949,-0.00002173,0.00000117,0.00000882,0.00000673,0.00000
 861,-0.00001509,-0.00001611,0.00002478,-0.00000543,-0.00003355,-0.0002
 8274,-0.00149842,-0.00110431,0.00025067,0.00026220,0.00037499,-0.00028
 458,0.00082140,0.00005858,-0.00111563,0.00023999,0.00130005,0.00009354
 ,0.00062752,0.00079744,0.00005829,-0.00343803,0.00032858,0.00042785,0.
 00018983,-0.00063866,-0.00001144,0.00000834,-0.00000330,0.01368830,0.0
 0508979,0.01838225,0.00025558,0.00000385,0.00021281,-0.00047676,0.0005
 9535,-0.00017676,0.00015076,0.00038164,-0.00010465,-0.00028177,0.00010
 822,0.00081242,0.00018344,0.00006643,-0.00012740,0.00004603,0.00005248
 ,-0.00008838,-0.00000462,-0.00014938,-0.00007932,-0.00258145,0.0003893
 7,-0.00006135,0.00054554,-0.00050670,0.00002508,0.00158910,-0.00110062
 ,0.00020454,0.00002358,0.00011293,0.00001889,-0.00002995,0.00008932,-0
 .00000550,-0.00002593,0.00001281,-0.00000462,0.00000777,-0.00001496,-0
 .00001335,-0.00000287,-0.00000208,0.00000650,-0.00002351,-0.00001307,0
 .00002254,0.00000226,0.00000180,-0.00000013,0.00000332,0.00000222,0.00
 000351,-0.00000023,-0.00000036,-0.00000774,0.00002114,-0.00002821,0.00
 001236,0.00000623,0.00000265,0.00000873,0.00000188,-0.00000265,-0.0000
 0228,-0.00000316,0.00000364,-0.00000290,0.00022524,-0.00012226,0.00002
 503,-0.00004494,0.00001433,0.00002682,0.00002643,-0.00001395,-0.000024
 83,-0.00000193,0.00000139,0.00000328,0.00000111,0.00000004,0.00000411,
 -0.00000867,-0.00000256,0.00000372,0.00002272,-0.00000821,-0.00001984,
 -0.00001153,-0.00000015,0.00000421,0.00001280,0.00000928,-0.00000646,-
 0.00000021,0.00000299,0.00000205,0.00071235,0.00079528,-0.00003378,-0.
 00013248,-0.00028414,0.00014639,-0.00012782,-0.00025839,-0.00009243,-0
 .00037962,-0.00010270,0.00001429,0.03269783,-0.08594845,0.03386913,-0.
 03415740,0.00837705,-0.02208820,-0.05929994,0.09369253,0.00000770,-0.0
 0000671,-0.00006079,-0.00001688,-0.00000567,-0.00001990,-0.00004304,-0
 .00003048,-0.00004929,-0.00004483,-0.00000016,0.00001883,0.00000664,0.
 00001416,-0.00003346,0.00000402,0.00000323,0.00000533,-0.00000393,-0.0
 0000079,0.00000647,-0.00000041,0.00000392,0.00000135,0.00000791,-0.000
 01366,-0.00003371,0.00000301,0.00000017,0.00000443,0.00007192,0.000030
 03,0.00004072,0.00003412,-0.00001379,0.00005095,0.00000833,0.00000648,
 0.00003580,0.00000359,-0.00000405,0.00009696,0.00004150,-0.00003915,0.
 00008197,-0.00018245,0.00007101,-0.00012721,0.00006701,-0.00001337,0.0
 0000633,0.00001168,-0.00003486,0.00002744,0.00029907,-0.00001865,0.000
 01873,0.00000499,0.00000566,-0.00000784,-0.00000005,-0.00000437,0.0000
 0147,-0.00000247,0.00000212,0.00000136,0.00000410,0.00000130,0.0000020
 1,0.00004060,-0.00002121,-0.00007304,-0.00002071,0.00000405,0.00001257
 ,-0.00000267,0.00000285,0.00000288,-0.00000088,0.00000286,0.00000639,0
 .00001210,0.00004715,-0.00004004,0.00001686,-0.00001281,0.00000534,-0.
 00000721,-0.00000197,0.00001469,-0.00001197,-0.00001890,-0.00001153,-0
 .00022379,0.00000480,-0.00045718,0.00005231,0.00030742,0.00016637,-0.0
 0083037,0.00047990,0.00011726,0.00000696,0.00020180,-0.00010639,0.0000
 3857,0.00008713,-0.00000335,0.00001063,0.00002505,0.00004507,-0.000018
 62,-0.00004585,-0.00001975,0.00004799,0.00006106,-0.00001662,-0.000000
 75,0.00000353,0.00002151,0.00000529,-0.00001885,-0.00000265,0.00007941
 ,-0.00044637,-0.00005483,0.00055345,-0.00051133,-0.00125934,0.00045469
 ,-0.00028293,0.00016451,-0.00003741,0.00006970,0.00053068,-0.00000746,
 -0.00012194,0.00014644,-0.00004426,0.00003435,0.00002720,0.00000443,-0
 .00001571,-0.00000292,0.00000294,0.00000493,0.00000388,0.00004535,-0.0
 0003054,-0.00000096,0.00044625,0.00254786,0.00258084,-0.00055727,-0.00
 044675,-0.00087460,0.00053922,-0.00145640,-0.00037143,0.00231846,-0.00
 066268,-0.00056638,0.00034511,0.00035132,-0.00098612,0.00014844,0.0044
 0653,0.00042355,0.00152416,-0.00018285,-0.00075480,-0.00009456,0.00010
 236,0.00002461,-0.03103797,0.01682391,-0.03211612,-0.00100217,0.000337
 77,0.00006758,-0.00132059,-0.00253650,-0.00147087,-0.00069824,0.000955
 34,-0.00018360,0.00019030,-0.00005730,-0.00026915,-0.00014829,0.000006
 66,-0.00001775,0.00007758,-0.00002528,-0.00005615,0.00070682,-0.000143
 54,-0.00142567,0.00018667,-0.00004663,-0.00018767,-0.00006813,0.000083
 86,0.00010527,-0.00019014,-0.00075978,-0.00077182,0.00016439,-0.000182
 06,0.00011607,-0.00006367,0.00004075,-0.00006941,0.00002538,0.00000107
 ,0.00001287,0.00000859,-0.00000101,0.00000819,0.00000107,-0.00001440,0
 .00000482,-0.00000802,0.00001857,0.00001072,0.00000810,-0.00000885,-0.
 00000182,-0.00000829,-0.00000053,0.00000007,0.00000043,0.00000126,-0.0
 0000050,-0.00004398,0.00002699,-0.00002623,-0.00002405,-0.00000483,-0.
 00002517,-0.00000688,0.00000922,0.00001246,0.00001474,-0.00000218,0.00
 000359,-0.00055999,0.00014144,0.00012497,0.00010924,0.00000729,-0.0000
 7020,-0.00006443,0.00002883,0.00005495,0.00000312,-0.00000053,-0.00001
 071,-0.00001023,-0.00000459,0.00000088,0.00002406,0.00000971,-0.000008
 51,-0.00004926,-0.00001826,0.00004398,0.00003285,0.00000587,-0.0000117
 9,-0.00003498,-0.00002519,0.00002133,0.00000030,-0.00000206,-0.0000082
 0,-0.00155609,-0.00227508,-0.00043885,0.00031017,0.00072115,-0.0002976
 4,0.00028668,0.00070866,0.00039044,0.00100021,0.00038160,0.00007475,-0
 .07840833,0.03580429,-0.14668085,-0.02895494,-0.01349271,-0.00213433,0
 .13029283,-0.03914370,0.16560165,0.00003384,-0.00001765,0.00000842,0.0
 0002620,0.00001209,0.00000386,0.00005486,0.00001674,0.00000935,0.00008
 990,0.00000538,-0.00004793,0.00004865,0.00001670,-0.00001720,-0.000010
 29,-0.00000957,0.00000491,-0.00000832,0.00000079,0.00000131,-0.0000004
 2,0.00000682,0.00000569,-0.00001229,0.00003261,0.00001825,-0.00001705,
 0.00000884,0.00000658,-0.00008522,-0.00004016,0.00001344,-0.00003895,-
 0.00001573,0.00001079,-0.00004297,-0.00002040,-0.00000671,-0.00003863,
 0.00000995,-0.00001863,-0.00009755,0.00005877,-0.00000013,0.00009649,-
 0.00004212,0.00003829,-0.00005159,0.00001170,0.00000912,-0.00000274,0.
 00000780,-0.00001358,-0.00017445,-0.00000506,0.00006721,0.00002921,0.0
 0001054,-0.00001020,-0.00000221,-0.00000112,0.00000245,-0.00000474,0.0
 0000194,0.00000444,-0.00000298,-0.00000287,-0.00000166,0.00002393,0.00
 000034,0.00000724,-0.00000772,-0.00000110,0.00000347,-0.00000278,-0.00
 000404,-0.00000351,-0.00000449,0.00000517,-0.00000403,0.00001289,-0.00
 006361,0.00001367,-0.00000935,0.00000811,-0.00000644,-0.00000518,0.000
 01217,0.00000984,0.00000984,-0.00001794,0.00001000,-0.00001835,-0.0000
 4252,-0.00013373,0.00006512,-0.00035110,-0.00006845,0.00029516,-0.0002
 5409,-0.00020546,-0.00004060,-0.00008120,0.00002375,-0.00001298,-0.000
 10275,-0.00000561,0.00000692,0.00000028,-0.00001853,0.00000913,0.00004
 252,0.00000901,-0.00001850,-0.00003869,-0.00001031,0.00000554,-0.00000
 058,-0.00001114,0.00000229,0.00000789,0.00000034,-0.00000376,0.0002794
 1,0.00010575,-0.00034665,0.00021353,0.00069209,-0.00017239,0.00032992,
 0.00032701,-0.00013888,0.00018274,0.00020415,0.00000034,0.00016385,-0.
 00002953,0.00003749,-0.00004631,-0.00001069,-0.00000496,0.00000945,-0.
 00000393,-0.00000922,0.00000667,0.00001216,-0.00003551,0.00002996,0.00
 002953,-0.00032462,-0.00139766,-0.00149083,0.00049441,0.00024791,0.000
 57963,-0.00016616,0.00066874,0.00027562,0.00048801,0.00073051,0.001343
 79,-0.00022238,0.00002441,0.00031703,-0.00282553,-0.00313452,0.0017231
 3,0.00010179,-0.00011837,0.00014711,-0.00006081,-0.00000085,-0.0000118
 9,-0.00331078,0.01633055,0.01890540,-0.00005951,0.00004205,-0.00013361
 ,0.00069525,0.00078322,0.00007825,-0.00058208,-0.00001236,0.00016798,0
 .00025161,0.00002248,-0.00048105,0.00001828,-0.00002003,0.00005809,-0.
 00006837,-0.00000885,0.00009454,0.00017777,-0.00016250,-0.00005480,0.0
 0053265,-0.00014771,0.00002162,-0.00012963,0.00016697,0.00000215,-0.00
 042970,-0.00023765,-0.00018291,0.00000807,-0.00004963,0.00000740,0.000
 04944,-0.00008208,0.00003763,0.00000177,-0.00000417,0.00000009,-0.0000
 1050,0.00001036,0.00000447,0.00000131,0.00001466,-0.00001078,0.0000159
 5,-0.00001299,-0.00002522,-0.00000596,0.00000498,0.00000053,0.00000303
 ,0.00000168,-0.00000447,0.00000140,0.00000147,0.00000803,0.00002436,0.
 00001016,-0.00001788,0.00000937,0.00001222,0.00000854,0.00000185,-0.00
 000209,-0.00000701,-0.00001831,-0.00000432,0.00000406,0.00025698,0.000
 00709,-0.00016823,-0.00004248,-0.00002274,0.00005462,0.00003124,-0.000
 01647,-0.00003528,-0.00000003,-0.00000214,0.00001112,0.00000750,0.0000
 0419,-0.00000660,-0.00001158,-0.00000458,0.00000385,0.00001274,0.00003
 145,-0.00002364,-0.00001307,-0.00000475,0.00000460,0.00001152,0.000012
 18,-0.00001581,0.00000028,-0.00000269,0.00001272,0.00054760,0.00121577
 ,0.00003322,-0.00010100,-0.00040199,0.00021427,-0.00010018,-0.00038209
 ,-0.00017919,-0.00038755,-0.00022653,0.00001225,-0.12844976,0.05665658
 ,0.06764422,0.01985788,-0.00580022,-0.00776831,-0.05149396,0.04761363,
 0.00569837,0.16578578,-0.00001507,0.00000241,-0.00000658,-0.00001612,-
 0.00001311,-0.00000261,-0.00002022,-0.00003590,-0.00002524,-0.00005601
 ,-0.00001451,0.00003171,-0.00004600,-0.00002347,0.00001719,0.00000529,
 0.00000732,-0.00000094,0.00000292,0.00000150,-0.00000018,-0.00000121,-
 0.00000503,-0.00000226,0.00000484,-0.00002083,-0.00001012,0.00001201,-
 0.00000308,-0.00000446,0.00005808,0.00004549,-0.00000334,0.00000332,0.
 00003323,0.00000214,0.00002601,0.00002142,0.00000675,0.00002296,0.0000
 0526,0.00001226,0.00007869,-0.00001428,-0.00000992,-0.00005550,0.00001
 310,-0.00001574,0.00003014,-0.00000489,-0.00000596,0.00000098,0.000005
 05,0.00000481,0.00009920,0.00002787,-0.00005049,-0.00001517,-0.0000098
 7,0.00000650,0.00000121,0.00000185,-0.00000339,0.00000168,0.00000072,-
 0.00000170,0.00000322,0.00000150,0.00000143,-0.00001483,-0.00000395,-0
 .00000716,0.00000378,-0.00000191,-0.00000204,0.00000459,0.00000327,0.0
 0000189,0.00000097,-0.00000189,0.00000212,-0.00001702,0.00002060,0.000
 00237,0.00000799,-0.00000362,0.00000289,0.00000325,-0.00000522,-0.0000
 0627,-0.00000958,0.00001912,-0.00001355,-0.00003141,0.00006560,0.00025
 037,-0.00007029,0.00011685,0.00001808,-0.00005948,0.00006120,0.0001343
 2,0.00000617,-0.00001833,0.00002719,0.00000710,0.00007083,0.00001837,-
 0.00000828,-0.00001467,0.00000186,-0.00000960,-0.00001227,-0.00001220,
 0.00000935,0.00000821,0.00003412,-0.00000049,0.00000410,0.00000809,0.0
 0000441,-0.00000991,-0.00000118,0.,-0.00006358,-0.00006930,0.00009338,
 0.00002128,-0.00020773,0.00006765,-0.00010662,-0.00026334,0.00034693,-
 0.00015714,-0.00041776,0.00003977,-0.00012802,-0.00001649,-0.00003898,
 0.00004467,0.00000148,0.00000335,0.00000037,0.00000448,0.00000861,-0.0
 0000986,-0.00001271,0.00004919,-0.00002125,-0.00003494,0.00014225,0.00
 002386,0.00051022,-0.00013087,0.00002625,-0.00014091,0.00003444,-0.000
 04231,-0.00019171,-0.00019937,-0.00024552,0.00033515,0.00024849,0.0004
 2023,0.00039815,-0.00000614,0.00034317,-0.00053539,0.00007494,0.001204
 57,-0.00092361,0.00010769,0.00004609,0.00007009,0.00422988,0.00438325,
 -0.00340055,0.00004705,0.00022889,0.00067229,-0.00200017,-0.00173635,0
 .00003458,0.00100579,0.00063129,0.00072120,-0.00019461,-0.00004889,0.0
 0040647,0.00003197,0.00003764,-0.00006361,0.00004496,0.00001360,-0.000
 07404,-0.00008835,0.00010151,0.00002194,-0.00082267,0.00042017,0.00013
 332,0.00013354,-0.00015325,0.00001577,0.00008082,0.00015771,0.00005184
 ,0.00005747,-0.00001448,0.00001055,-0.00005128,0.00008406,-0.00003404,
 -0.00000602,0.00000683,0.00000180,0.00001245,-0.00001284,-0.00000786,-
 0.00000243,-0.00000528,0.00000794,-0.00002688,-0.00000303,0.00002952,0
 .00000627,-0.00000265,-0.00000079,-0.00000066,0.00000178,0.00000331,-0
 .00000055,-0.00000004,-0.00000859,-0.00000157,-0.00002119,0.00000833,-
 0.00000469,-0.00000341,-0.00000168,-0.00000093,0.00000175,0.00000348,0
 .00000776,0.00000403,-0.00000315,-0.00007565,-0.00005420,0.00008309,0.
 00000855,0.00002804,-0.00001424,-0.00000614,0.00000171,0.00000522,-0.0
 0000072,0.00000127,-0.00000353,-0.00000537,-0.00000224,0.00000585,0.00
 000379,0.00000237,-0.00000046,0.00000240,-0.00002840,0.00000250,0.0000
 0494,0.00000383,-0.00000170,-0.00000338,-0.00000418,0.00000521,-0.0000
 0009,0.00000309,-0.00000508,0.00000305,-0.00041997,-0.00031632,0.00003
 460,0.00014906,-0.00002678,-0.00002573,0.00015360,0.00016410,0.0000540
 8,0.00010211,0.00003331,0.06035959,-0.13693880,-0.06814984,0.00626234,
 -0.06497920,-0.03814317,0.04282073,-0.01842127,-0.00178914,-0.11268735
 ,0.21465618,-0.00002050,0.00000754,-0.00003802,-0.00002912,-0.00001434
 ,-0.00001483,-0.00006113,-0.00003406,-0.00003738,-0.00008406,-0.000009
 91,0.00004400,-0.00003443,-0.00000574,-0.00000360,0.00000955,0.0000092
 1,-0.00000059,0.00000376,-0.00000044,0.00000275,-0.00000064,-0.0000032
 3,-0.00000280,0.00001123,-0.00002818,-0.00003037,0.00001351,-0.0000057
 7,-0.00000283,0.00010095,0.00005016,0.00001555,0.00004409,0.00000880,0
 .00002209,0.00003720,0.00002167,0.00002550,0.00003145,-0.00000686,0.00
 006544,0.00009549,-0.00005360,0.00004159,-0.00017761,0.00007005,-0.000
 10351,0.00007685,-0.00001580,-0.00000225,0.00000904,-0.00002444,0.0000
 2554,0.00030236,-0.00000020,-0.00003495,-0.00001905,-0.00000616,0.0000
 0331,0.00000168,-0.00000125,-0.00000164,0.00000195,0.00000031,-0.00000
 239,0.00000497,0.00000283,0.00000258,0.00000176,-0.00001233,-0.0000439
 7,-0.00000503,0.00000214,0.00000367,0.00000191,0.00000486,0.00000396,0
 .00000270,-0.00000222,0.00000624,-0.00000709,0.00006592,-0.00002785,0.
 00001567,-0.00001150,0.00000738,-0.00000015,-0.00000841,0.00000007,-0.
 00001347,0.00000559,-0.00001466,-0.00014284,0.00003503,-0.00013382,-0.
 00000975,0.00035653,0.00013784,-0.00071463,0.00046567,0.00021333,0.000
 02800,0.00016417,-0.00007242,0.00003777,0.00012770,-0.00000239,0.00000
 213,0.00001148,0.00003830,-0.00002063,-0.00005264,-0.00001878,0.000048
 49,0.00006201,0.00000356,-0.00000390,0.00000417,0.00002124,0.00000272,
 -0.00001948,-0.00000198,0.00005749,-0.00044965,-0.00010547,0.00059971,
 -0.00042269,-0.00111769,0.00039980,-0.00029047,0.00005000,0.00011652,-
 0.00013584,0.00010482,0.00000342,-0.00019072,0.00010060,-0.00005672,0.
 00005822,0.00002287,0.00000630,-0.00001495,0.00000164,0.00000906,-0.00
 000316,-0.00000780,0.00005882,-0.00004075,-0.00002620,0.00031910,0.002
 61044,0.00256422,-0.00072040,-0.00049388,-0.00096127,0.00045500,-0.001
 31614,-0.00044824,-0.00134551,0.00030378,-0.00222316,0.00058038,-0.000
 18010,-0.00091381,0.00393575,0.00432556,-0.00133471,-0.00072752,0.0008
 1198,-0.00048316,0.00022047,-0.00004123,0.00008471,0.02686173,-0.02848
 037,-0.02644308,0.00058167,-0.00028700,0.00073144,-0.00109034,-0.00160
 663,-0.00121963,0.00119079,0.00035342,-0.00024507,-0.00008056,-0.00006
 101,-0.00012584,-0.00013934,-0.00000134,-0.00002376,0.00004994,-0.0000
 3524,-0.00004604,-0.00007978,0.00008460,-0.00015509,-0.00012998,0.0002
 1061,-0.00004203,0.00002445,-0.00005763,0.00002566,-0.00005326,-0.0000
 3767,-0.00019187,0.00005494,-0.00004043,0.00004149,-0.00007497,0.00008
 957,-0.00006823,0.00001247,0.00000350,0.00000712,0.00001380,-0.0000094
 3,0.00000006,-0.00000094,-0.00001804,0.00001100,-0.00002013,0.00001786
 ,0.00002812,0.00000968,-0.00000876,-0.00000150,-0.00000680,-0.00000098
 ,0.00000333,-0.00000077,-0.00000007,-0.00000706,-0.00004071,0.00000416
 ,-0.00000252,-0.00002055,-0.00001167,-0.00001941,-0.00000510,0.0000074
 3,0.00001192,0.00002163,0.00000239,-0.00000129,-0.00052650,0.00008812,
 0.00019816,0.00009370,0.00002514,-0.00007863,-0.00005883,0.00002835,0.
 00005523,0.00000151,0.00000081,-0.00001391,-0.00001164,-0.00000578,0.0
 0000521,0.00002254,0.00000882,-0.00000756,-0.00003642,-0.00003779,0.00
 004104,0.00002889,0.00000740,-0.00001018,-0.00002970,-0.00002430,0.000
 02381,-0.00000035,0.00000115,-0.00001333,-0.00128662,-0.00210623,-0.00
 025474,0.00027652,0.00070274,-0.00030754,0.00021959,0.00068237,0.00036
 375,0.00077599,0.00036713,0.00000552,0.06748272,-0.06378286,-0.1473828
 0,-0.00224808,-0.03000477,-0.00036206,-0.00735256,0.00752458,0.0208686
 4,-0.08788151,0.11071812,0.15920134\\-0.00000122,0.00000250,0.00000346
 ,-0.00000011,0.00000110,0.00000328,0.00000062,0.00000183,0.00000167,0.
 00000095,-0.00000091,0.00000243,-0.00000074,0.00000008,0.00000254,-0.0
 0000011,-0.00000036,0.00000088,-0.00000009,0.00000153,0.00000377,-0.00
 000199,0.00000313,0.00000138,0.00000074,0.00000132,0.00000103,0.000000
 82,0.00000153,0.00000418,0.00000037,-0.00000121,0.00000171,-0.00000246
 ,-0.00000054,-0.00000090,-0.00000249,0.00000265,0.00000247,-0.00000134
 ,0.00000294,0.00000454,0.00000087,0.00000159,0.00000261,0.00000084,-0.
 00000036,0.00000098,0.00000150,-0.00000137,0.00000260,0.00000072,-0.00
 000064,0.00000515,-0.00000062,-0.00000239,0.00000088,-0.00000131,0.000
 00275,0.00000248,-0.00000092,0.00000197,0.00000198,-0.00000127,0.00000
 218,0.00000376,-0.00000233,0.00000329,0.00000277,-0.00000287,0.0000047
 4,0.00000429,-0.00000307,0.00000456,0.00000308,-0.00000314,0.00000409,
 0.00000357,-0.00000310,0.00000495,0.00000518,-0.00000147,0.00000133,0.
 00000406,-0.00000092,0.00000283,0.00000516,0.00000040,0.00000098,0.000
 00462,-0.00000078,0.00000192,0.00000362,-0.00000078,-0.00000025,-0.000
 00005,-0.00000074,0.00000035,0.00000067,0.00000928,-0.00000339,0.00000
 133,0.00000206,-0.00000122,0.00000246,0.00000032,-0.00000072,0.0000023
 6,-0.00000189,-0.00000077,0.00000038,0.00000101,-0.00000217,-0.0000004
 1,-0.00000018,0.00000029,-0.00000081,0.00000150,-0.00000138,0.00000051
 ,0.00000082,0.00000042,0.00000242,0.00000191,-0.00000262,0.00000034,0.
 00000196,-0.00000385,-0.00000376,0.00000019,-0.00000030,-0.00000055,-0
 .00000214,0.00000100,0.00000182,0.00000105,-0.00000044,0.00000223,0.00
 000200,-0.00000203,0.00000300,0.00000299,-0.00000168,0.00000373,0.0000
 0327,-0.00000346,0.00000336,0.00000249,-0.00000261,0.00000332,0.000002
 17,-0.00000208,-0.00000381,0.00000167,-0.00000386,-0.00000502,0.000000
 46,-0.00000233,-0.00000189,0.00000074,-0.00000083,-0.00000492,0.000000
 42,-0.00000207,-0.00000518,-0.00000053,0.00000021,-0.00000411,-0.00000
 139,0.00000030,-0.00000591,0.00000160,-0.00000107,-0.00000630,-0.00000
 161,0.00000108,-0.00000520,-0.00000067,-0.00000109,-0.00000393,-0.0000
 0257,0.00000103,-0.00000607,-0.00000257,0.00000207,-0.00000618,-0.0000
 0048,0.00000014,-0.00000136,-0.00000125,0.00000155,-0.00000331,-0.0000
 0199,0.00000166,-0.00000012,-0.00000209,0.00000171,-0.00000186,-0.0000
 0116,0.00000205,0.00000059,-0.00000159,0.00000209,0.00000049,-0.000001
 61,0.00000296,-0.00000177,-0.00000298,0.00000352,-0.00000038,-0.000000
 01,0.00000122,0.00000350,-0.00000072,0.00000227,0.00000392,0.00000040,
 0.00000041,0.00000492,-0.00000051,0.00000130,0.00000402,0.00000299,-0.
 00000153,0.00000507,0.00000322,-0.00000170,0.00000645,0.00000242,-0.00
 000223,0.00000391,0.00000444,-0.00000349,0.00000527,0.00000049,0.00000
 089,-0.00000173,-0.00000082,0.00000075,-0.00000250,0.00000075,-0.00000
 085,-0.00000021,-0.00000004,-0.00000007,-0.00000186,0.00000379,-0.0000
 0540,-0.00000242,0.00000163,-0.00000206,-0.00000392,0.00000304,-0.0000
 0337,-0.00000211,0.00000350,-0.00000460,-0.00000236,0.00000280,-0.0000
 0400,-0.00000110,0.00000214,-0.00000353,-0.00000110,0.00000093,-0.0000
 0234,-0.00000338,0.00000141,-0.00000250,-0.00000366,-0.00000014,-0.000
 00302,-0.00000451,0.00000260,-0.00000386,-0.00000535,-0.00000069,-0.00
 000001,-0.00000626,-0.00000091,-0.00000107,-0.00000727,-0.00000234,0.0
 0000084,-0.00000705,-0.00000324,0.00000005,-0.00000556,-0.00000337,0.0
 0000191,-0.00000463,-0.00000254,0.00000104,-0.00000502,-0.00000290,0.0
 0000247,-0.00000356,-0.00000350,0.00000227,-0.00000682\\\@


 HE THAT FOLLOWS NATURE IS NEVER LOST.

                             -- BACON
 Job cpu time:       4 days 16 hours  8 minutes 48.0 seconds.
 Elapsed time:       0 days  3 hours 41 minutes  8.9 seconds.
 File lengths (MBytes):  RWF=   9761 Int=      0 D2E=      0 Chk=     85 Scr=      1
 Normal termination of Gaussian 16 at Thu May 23 04:27:01 2019.
