 Entering Gaussian System, Link 0=g16
 Input=clay_new-glu_gluC6-DDUR-Na2_1Me2O-bisCF3-ts-b3lyp_d3bj-631gd-pcm_thf.gjf
 Output=clay_new-glu_gluC6-DDUR-Na2_1Me2O-bisCF3-ts-b3lyp_d3bj-631gd-pcm_thf.out
 Initial command:
 /home/ekwan/sw/g16/l1.exe "/scratch/users/ekwan/clay_new-glu_gluC6-DDUR-Na2_1Me2O-bisCF3-ts-b3lyp_d3bj-631gd-pcm_thf/Gau-43848.inp" -scrdir="/scratch/users/ekwan/clay_new-glu_gluC6-DDUR-Na2_1Me2O-bisCF3-ts-b3lyp_d3bj-631gd-pcm_thf/"
 Entering Link 1 = /home/ekwan/sw/g16/l1.exe PID=     43849.
  
 Copyright (c) 1988,1990,1992,1993,1995,1998,2003,2009,2016,
            Gaussian, Inc.  All Rights Reserved.
  
 This is part of the Gaussian(R) 16 program.  It is based on
 the Gaussian(R) 09 system (copyright 2009, Gaussian, Inc.),
 the Gaussian(R) 03 system (copyright 2003, Gaussian, Inc.),
 the Gaussian(R) 98 system (copyright 1998, Gaussian, Inc.),
 the Gaussian(R) 94 system (copyright 1995, Gaussian, Inc.),
 the Gaussian 92(TM) system (copyright 1992, Gaussian, Inc.),
 the Gaussian 90(TM) system (copyright 1990, Gaussian, Inc.),
 the Gaussian 88(TM) system (copyright 1988, Gaussian, Inc.),
 the Gaussian 86(TM) system (copyright 1986, Carnegie Mellon
 University), and the Gaussian 82(TM) system (copyright 1983,
 Carnegie Mellon University). Gaussian is a federally registered
 trademark of Gaussian, Inc.
  
 This software contains proprietary and confidential information,
 including trade secrets, belonging to Gaussian, Inc.
  
 This software is provided under written license and may be
 used, copied, transmitted, or stored only in accord with that
 written license.
  
 The following legend is applicable only to US Government
 contracts under FAR:
  
                    RESTRICTED RIGHTS LEGEND
  
 Use, reproduction and disclosure by the US Government is
 subject to restrictions as set forth in subparagraphs (a)
 and (c) of the Commercial Computer Software - Restricted
 Rights clause in FAR 52.227-19.
  
 Gaussian, Inc.
 340 Quinnipiac St., Bldg. 40, Wallingford CT 06492
  
  
 ---------------------------------------------------------------
 Warning -- This program may not be used in any manner that
 competes with the business of Gaussian, Inc. or will provide
 assistance to any competitor of Gaussian, Inc.  The licensee
 of this program is prohibited from giving any competitor of
 Gaussian, Inc. access to this program.  By using this program,
 the user acknowledges that Gaussian, Inc. is engaged in the
 business of creating and licensing software in the field of
 computational chemistry and represents and warrants to the
 licensee that it is not a competitor of Gaussian, Inc. and that
 it will not use this program in any manner prohibited above.
 ---------------------------------------------------------------
  

 Cite this work as:
 Gaussian 16, Revision A.03,
 M. J. Frisch, G. W. Trucks, H. B. Schlegel, G. E. Scuseria, 
 M. A. Robb, J. R. Cheeseman, G. Scalmani, V. Barone, 
 G. A. Petersson, H. Nakatsuji, X. Li, M. Caricato, A. V. Marenich, 
 J. Bloino, B. G. Janesko, R. Gomperts, B. Mennucci, H. P. Hratchian, 
 J. V. Ortiz, A. F. Izmaylov, J. L. Sonnenberg, D. Williams-Young, 
 F. Ding, F. Lipparini, F. Egidi, J. Goings, B. Peng, A. Petrone, 
 T. Henderson, D. Ranasinghe, V. G. Zakrzewski, J. Gao, N. Rega, 
 G. Zheng, W. Liang, M. Hada, M. Ehara, K. Toyota, R. Fukuda, 
 J. Hasegawa, M. Ishida, T. Nakajima, Y. Honda, O. Kitao, H. Nakai, 
 T. Vreven, K. Throssell, J. A. Montgomery, Jr., J. E. Peralta, 
 F. Ogliaro, M. J. Bearpark, J. J. Heyd, E. N. Brothers, K. N. Kudin, 
 V. N. Staroverov, T. A. Keith, R. Kobayashi, J. Normand, 
 K. Raghavachari, A. P. Rendell, J. C. Burant, S. S. Iyengar, 
 J. Tomasi, M. Cossi, J. M. Millam, M. Klene, C. Adamo, R. Cammi, 
 J. W. Ochterski, R. L. Martin, K. Morokuma, O. Farkas, 
 J. B. Foresman, and D. J. Fox, Gaussian, Inc., Wallingford CT, 2016.
 
 ******************************************
 Gaussian 16:  AS64L-G16RevA.03 25-Dec-2016
                30-May-2019 
 ******************************************
 %mem=48GB
 %nprocshared=32
 Will use up to   32 processors via shared memory.
 ----------------------------------------------------------------------
 #p opt=(ts,noeigentest,calcfc,maxstep=5,modredundant,recalc=30) freq=n
 oraman b3lyp 6-31g* pop=none scrf=(solvent=tetrahydrofuran,pcm) empiri
 caldispersion=gd3bj
 ----------------------------------------------------------------------
 1/5=1,8=5,10=4,11=1,18=120,26=3,38=1,71=30/1,3;
 2/9=110,12=2,17=6,18=5,40=1/2;
 3/5=1,6=6,7=1,11=2,25=1,30=1,70=2201,71=2,72=20,74=-5,124=41,140=1/1,2,3;
 4//1;
 5/5=2,38=5,53=20/2;
 8/6=4,10=90,11=11/1;
 11/6=1,8=1,9=11,15=111,16=1/1,2,10;
 10/6=1,13=1/2;
 7/10=1,18=20,25=1/1,2,3,16;
 1/5=1,8=5,10=4,11=1,18=20,26=3,71=30/3(2);
 2/9=110/2;
 99//99;
 2/9=110/2;
 3/5=1,6=6,7=1,11=2,25=1,30=1,70=2205,71=1,72=20,74=-5,124=41/1,2,3;
 4/5=5,16=3,69=1/1;
 5/5=2,38=5,53=20/2;
 7//1,2,3,16;
 1/5=1,8=5,11=1,18=20,26=3,71=30/3(-5);
 2/9=110/2;
 99/9=1/99;
 Leave Link    1 at Thu May 30 18:50:08 2019, MaxMem=  6442450944 cpu:               4.9 elap:               0.2
 (Enter /home/ekwan/sw/g16/l101.exe)
 -----
 title
 -----
 Symbolic Z-matrix:
 Charge =  0 Multiplicity = 1
 C                     4.98231   0.83026   1.06795 
 C                     4.78683   0.4406   -0.39791 
 C                     4.07748  -0.91747  -0.47937 
 C                     2.85568  -0.50816   1.57536 
 C                     3.64825   0.78268   1.8161 
 H                     3.82866  -1.19085  -1.51347 
 H                     4.13175   1.18563  -0.8719 
 H                     5.67557   0.12215   1.53793 
 H                     3.34184  -1.33177   2.11416 
 H                     3.04872   1.63277   1.47521 
 O                     2.81594  -0.83947   0.16569 
 O                     4.93308  -1.87259   0.08313 
 O                     6.04981   0.42958  -1.03761 
 O                     5.48499   2.15796   1.17806 
 O                     3.86904   0.87732   3.22133 
 C                     1.38859  -0.38368   2.02815 
 H                     0.98966   0.51623   1.49923 
 H                     1.43304  -0.09368   3.09792 
 O                     0.6335   -1.50794   1.79071 
 C                     5.97948   0.50393  -2.45274 
 H                     5.53532  -0.39809  -2.89569 
 H                     5.39636   1.37822  -2.77693 
 H                     7.0054    0.60249  -2.8149 
 C                     6.895     2.24174   1.32909 
 H                     7.22915   1.70579   2.22965 
 H                     7.41796   1.83638   0.45691 
 H                     7.13506   3.30274   1.43994 
 C                     3.66444   2.17831   3.755 
 H                     4.3707    2.90037   3.33139 
 H                     2.64029   2.52974   3.56521 
 H                     3.81997   2.10253   4.83474 
 C                    -3.49508  -2.34392   0.72963 
 C                    -1.98614  -2.2662    0.96139 
 C                    -1.46393  -0.92851   0.54142 
 C                    -3.57376   0.19516   0.95947 
 C                    -4.17087  -1.14485   1.4047 
 H                    -0.42634  -0.79322   0.29847 
 H                    -1.78633  -2.30254   2.04203 
 H                    -3.68551  -2.31411  -0.34709 
 H                    -3.96307   0.43708  -0.03209 
 H                    -4.05889  -1.25547   2.49096 
 O                    -2.11228   0.1603    0.76249 
 O                    -1.08978  -0.77667  -3.89033 
 O                    -1.25492  -3.28358   0.31007 
 O                    -3.99569  -3.54094   1.30033 
 O                    -5.54323  -1.12309   1.04497 
 C                    -3.76859   1.35453   1.94809 
 H                    -3.347     2.2682    1.50302 
 H                    -3.20785   1.12526   2.85988 
 O                    -5.10703   1.54561   2.33614 
 S                    -0.80959  -0.71511  -2.44521 
 O                     0.53117  -1.22622  -2.03602 
 O                    -1.92458  -1.30039  -1.60826 
 C                    -0.83722   1.01079  -1.94029 
 C                     0.26579   1.59485  -1.32875 
 C                    -2.05317   1.68716  -2.0401 
 C                     0.14114   2.89116  -0.81788 
 H                     1.1867    1.03274  -1.22144 
 C                    -2.16797   2.96214  -1.49777 
 H                    -2.90856   1.20446  -2.4974 
 C                    -1.06976   3.5741   -0.88879 
 H                    -1.16319   4.56557  -0.46192 
 C                    -0.96463  -4.40174   1.16038 
 H                    -0.30397  -4.08996   1.97834 
 H                    -1.88642  -4.82979   1.56113 
 H                    -0.45709  -5.13248   0.52952 
 C                    -4.84414  -4.28451   0.4298 
 H                    -5.716    -3.69425   0.12651 
 H                    -4.3      -4.61371  -0.46518 
 H                    -5.1747   -5.1604    0.99252 
 C                    -6.43731  -1.38095   2.12599 
 H                    -6.24792  -2.36748   2.56443 
 H                    -6.34797  -0.60483   2.89374 
 H                    -7.44369  -1.35968   1.70204 
 C                    -5.9363    2.09396   1.31422 
 H                    -6.87954   2.36342   1.79404 
 H                    -5.48028   2.99066   0.87704 
 H                    -6.13394   1.36216   0.52287 
 C                     4.45698  -3.20816  -0.00441 
 H                     5.30921  -3.86396   0.18572 
 H                     3.68517  -3.40607   0.75042 
 H                     4.04653  -3.42105  -1.00042 
 Na                    1.1234   -2.5046   -0.18044 
 O                     1.53348  -4.45918  -1.32188 
 C                     0.99544  -4.56751  -2.6378 
 H                     0.15265  -5.27158  -2.65444 
 H                     0.65184  -3.57244  -2.92178 
 H                     1.76525  -4.91066  -3.34197 
 C                     2.04126  -5.69399  -0.83664 
 H                     2.86805  -6.05113  -1.46515 
 H                     2.40506  -5.52038   0.17825 
 H                     1.25422  -6.46026  -0.81385 
 C                    -3.48495   3.68561  -1.54988 
 F                    -3.54849   4.56911  -2.56659 
 F                    -3.70425   4.38265  -0.40718 
 F                    -4.51944   2.82685  -1.69768 
 C                     1.29442   3.52575  -0.09206 
 F                     1.25496   3.24068   1.23542 
 F                     1.28504   4.86917  -0.20126 
 F                     2.48624   3.08636  -0.55316 
 
 Add virtual bond connecting atoms H37        and O19        Dist= 3.71D+00.
 Add virtual bond connecting atoms O52        and Na83       Dist= 4.40D+00.
 Add virtual bond connecting atoms O53        and C34        Dist= 4.21D+00.
 The following ModRedundant input section has been read:
 
 ITRead=  0  0  0  0  0  0  0  0  0  0  0  0  0  0  0  0  0  0  0  0
 ITRead=  0  0  0  0  0  0  0  0  0  0  0  0  0  0  0  0  0  0  0  0
 ITRead=  0  0  0  0  0  0  0  0  0  0  0  0  0  0  0  0  0  0  0  0
 ITRead=  0  0  0  0  0  0  0  0  0  0  0  0  0  0  0  0  0  0  0  0
 ITRead=  0  0  0  0  0  0  0  0  0  0  0  0  0  0  0  0  0  0  0  0
 MicOpt= -1 -1 -1 -1 -1 -1 -1 -1 -1 -1 -1 -1 -1 -1 -1 -1 -1 -1 -1 -1
 MicOpt= -1 -1 -1 -1 -1 -1 -1 -1 -1 -1 -1 -1 -1 -1 -1 -1 -1 -1 -1 -1
 MicOpt= -1 -1 -1 -1 -1 -1 -1 -1 -1 -1 -1 -1 -1 -1 -1 -1 -1 -1 -1 -1
 MicOpt= -1 -1 -1 -1 -1 -1 -1 -1 -1 -1 -1 -1 -1 -1 -1 -1 -1 -1 -1 -1
 MicOpt= -1 -1 -1 -1 -1 -1 -1 -1 -1 -1 -1 -1 -1 -1 -1 -1 -1 -1 -1 -1
 NAtoms=    100 NQM=      100 NQMF=       0 NMMI=      0 NMMIF=      0
                NMic=       0 NMicF=      0.
                    Isotopes and Nuclear Properties:
 (Nuclear quadrupole moments (NQMom) in fm**2, nuclear magnetic moments (NMagM)
  in nuclear magnetons)

  Atom         1           2           3           4           5           6           7           8           9          10
 IAtWgt=          12          12          12          12          12           1           1           1           1           1
 AtmWgt=  12.0000000  12.0000000  12.0000000  12.0000000  12.0000000   1.0078250   1.0078250   1.0078250   1.0078250   1.0078250
 NucSpn=           0           0           0           0           0           1           1           1           1           1
 AtZEff=   0.0000000   0.0000000   0.0000000   0.0000000   0.0000000   0.0000000   0.0000000   0.0000000   0.0000000   0.0000000
 NQMom=    0.0000000   0.0000000   0.0000000   0.0000000   0.0000000   0.0000000   0.0000000   0.0000000   0.0000000   0.0000000
 NMagM=    0.0000000   0.0000000   0.0000000   0.0000000   0.0000000   2.7928460   2.7928460   2.7928460   2.7928460   2.7928460
 AtZNuc=   6.0000000   6.0000000   6.0000000   6.0000000   6.0000000   1.0000000   1.0000000   1.0000000   1.0000000   1.0000000

  Atom        11          12          13          14          15          16          17          18          19          20
 IAtWgt=          16          16          16          16          16          12           1           1          16          12
 AtmWgt=  15.9949146  15.9949146  15.9949146  15.9949146  15.9949146  12.0000000   1.0078250   1.0078250  15.9949146  12.0000000
 NucSpn=           0           0           0           0           0           0           1           1           0           0
 AtZEff=   0.0000000   0.0000000   0.0000000   0.0000000   0.0000000   0.0000000   0.0000000   0.0000000   0.0000000   0.0000000
 NQMom=    0.0000000   0.0000000   0.0000000   0.0000000   0.0000000   0.0000000   0.0000000   0.0000000   0.0000000   0.0000000
 NMagM=    0.0000000   0.0000000   0.0000000   0.0000000   0.0000000   0.0000000   2.7928460   2.7928460   0.0000000   0.0000000
 AtZNuc=   8.0000000   8.0000000   8.0000000   8.0000000   8.0000000   6.0000000   1.0000000   1.0000000   8.0000000   6.0000000

  Atom        21          22          23          24          25          26          27          28          29          30
 IAtWgt=           1           1           1          12           1           1           1          12           1           1
 AtmWgt=   1.0078250   1.0078250   1.0078250  12.0000000   1.0078250   1.0078250   1.0078250  12.0000000   1.0078250   1.0078250
 NucSpn=           1           1           1           0           1           1           1           0           1           1
 AtZEff=   0.0000000   0.0000000   0.0000000   0.0000000   0.0000000   0.0000000   0.0000000   0.0000000   0.0000000   0.0000000
 NQMom=    0.0000000   0.0000000   0.0000000   0.0000000   0.0000000   0.0000000   0.0000000   0.0000000   0.0000000   0.0000000
 NMagM=    2.7928460   2.7928460   2.7928460   0.0000000   2.7928460   2.7928460   2.7928460   0.0000000   2.7928460   2.7928460
 AtZNuc=   1.0000000   1.0000000   1.0000000   6.0000000   1.0000000   1.0000000   1.0000000   6.0000000   1.0000000   1.0000000

  Atom        31          32          33          34          35          36          37          38          39          40
 IAtWgt=           1          12          12          12          12          12           1           1           1           1
 AtmWgt=   1.0078250  12.0000000  12.0000000  12.0000000  12.0000000  12.0000000   1.0078250   1.0078250   1.0078250   1.0078250
 NucSpn=           1           0           0           0           0           0           1           1           1           1
 AtZEff=   0.0000000   0.0000000   0.0000000   0.0000000   0.0000000   0.0000000   0.0000000   0.0000000   0.0000000   0.0000000
 NQMom=    0.0000000   0.0000000   0.0000000   0.0000000   0.0000000   0.0000000   0.0000000   0.0000000   0.0000000   0.0000000
 NMagM=    2.7928460   0.0000000   0.0000000   0.0000000   0.0000000   0.0000000   2.7928460   2.7928460   2.7928460   2.7928460
 AtZNuc=   1.0000000   6.0000000   6.0000000   6.0000000   6.0000000   6.0000000   1.0000000   1.0000000   1.0000000   1.0000000

  Atom        41          42          43          44          45          46          47          48          49          50
 IAtWgt=           1          16          16          16          16          16          12           1           1          16
 AtmWgt=   1.0078250  15.9949146  15.9949146  15.9949146  15.9949146  15.9949146  12.0000000   1.0078250   1.0078250  15.9949146
 NucSpn=           1           0           0           0           0           0           0           1           1           0
 AtZEff=   0.0000000   0.0000000   0.0000000   0.0000000   0.0000000   0.0000000   0.0000000   0.0000000   0.0000000   0.0000000
 NQMom=    0.0000000   0.0000000   0.0000000   0.0000000   0.0000000   0.0000000   0.0000000   0.0000000   0.0000000   0.0000000
 NMagM=    2.7928460   0.0000000   0.0000000   0.0000000   0.0000000   0.0000000   0.0000000   2.7928460   2.7928460   0.0000000
 AtZNuc=   1.0000000   8.0000000   8.0000000   8.0000000   8.0000000   8.0000000   6.0000000   1.0000000   1.0000000   8.0000000

  Atom        51          52          53          54          55          56          57          58          59          60
 IAtWgt=          32          16          16          12          12          12          12           1          12           1
 AtmWgt=  31.9720718  15.9949146  15.9949146  12.0000000  12.0000000  12.0000000  12.0000000   1.0078250  12.0000000   1.0078250
 NucSpn=           0           0           0           0           0           0           0           1           0           1
 AtZEff=   0.0000000   0.0000000   0.0000000   0.0000000   0.0000000   0.0000000   0.0000000   0.0000000   0.0000000   0.0000000
 NQMom=    0.0000000   0.0000000   0.0000000   0.0000000   0.0000000   0.0000000   0.0000000   0.0000000   0.0000000   0.0000000
 NMagM=    0.0000000   0.0000000   0.0000000   0.0000000   0.0000000   0.0000000   0.0000000   2.7928460   0.0000000   2.7928460
 AtZNuc=  16.0000000   8.0000000   8.0000000   6.0000000   6.0000000   6.0000000   6.0000000   1.0000000   6.0000000   1.0000000

  Atom        61          62          63          64          65          66          67          68          69          70
 IAtWgt=          12           1          12           1           1           1          12           1           1           1
 AtmWgt=  12.0000000   1.0078250  12.0000000   1.0078250   1.0078250   1.0078250  12.0000000   1.0078250   1.0078250   1.0078250
 NucSpn=           0           1           0           1           1           1           0           1           1           1
 AtZEff=   0.0000000   0.0000000   0.0000000   0.0000000   0.0000000   0.0000000   0.0000000   0.0000000   0.0000000   0.0000000
 NQMom=    0.0000000   0.0000000   0.0000000   0.0000000   0.0000000   0.0000000   0.0000000   0.0000000   0.0000000   0.0000000
 NMagM=    0.0000000   2.7928460   0.0000000   2.7928460   2.7928460   2.7928460   0.0000000   2.7928460   2.7928460   2.7928460
 AtZNuc=   6.0000000   1.0000000   6.0000000   1.0000000   1.0000000   1.0000000   6.0000000   1.0000000   1.0000000   1.0000000

  Atom        71          72          73          74          75          76          77          78          79          80
 IAtWgt=          12           1           1           1          12           1           1           1          12           1
 AtmWgt=  12.0000000   1.0078250   1.0078250   1.0078250  12.0000000   1.0078250   1.0078250   1.0078250  12.0000000   1.0078250
 NucSpn=           0           1           1           1           0           1           1           1           0           1
 AtZEff=   0.0000000   0.0000000   0.0000000   0.0000000   0.0000000   0.0000000   0.0000000   0.0000000   0.0000000   0.0000000
 NQMom=    0.0000000   0.0000000   0.0000000   0.0000000   0.0000000   0.0000000   0.0000000   0.0000000   0.0000000   0.0000000
 NMagM=    0.0000000   2.7928460   2.7928460   2.7928460   0.0000000   2.7928460   2.7928460   2.7928460   0.0000000   2.7928460
 AtZNuc=   6.0000000   1.0000000   1.0000000   1.0000000   6.0000000   1.0000000   1.0000000   1.0000000   6.0000000   1.0000000

  Atom        81          82          83          84          85          86          87          88          89          90
 IAtWgt=           1           1          23          16          12           1           1           1          12           1
 AtmWgt=   1.0078250   1.0078250  22.9897697  15.9949146  12.0000000   1.0078250   1.0078250   1.0078250  12.0000000   1.0078250
 NucSpn=           1           1           3           0           0           1           1           1           0           1
 AtZEff=   0.0000000   0.0000000   0.0000000   0.0000000   0.0000000   0.0000000   0.0000000   0.0000000   0.0000000   0.0000000
 NQMom=    0.0000000   0.0000000  10.4000000   0.0000000   0.0000000   0.0000000   0.0000000   0.0000000   0.0000000   0.0000000
 NMagM=    2.7928460   2.7928460   2.2175200   0.0000000   0.0000000   2.7928460   2.7928460   2.7928460   0.0000000   2.7928460
 AtZNuc=   1.0000000   1.0000000  11.0000000   8.0000000   6.0000000   1.0000000   1.0000000   1.0000000   6.0000000   1.0000000

  Atom        91          92          93          94          95          96          97          98          99         100
 IAtWgt=           1           1          12          19          19          19          12          19          19          19
 AtmWgt=   1.0078250   1.0078250  12.0000000  18.9984033  18.9984033  18.9984033  12.0000000  18.9984033  18.9984033  18.9984033
 NucSpn=           1           1           0           1           1           1           0           1           1           1
 AtZEff=   0.0000000   0.0000000   0.0000000   0.0000000   0.0000000   0.0000000   0.0000000   0.0000000   0.0000000   0.0000000
 NQMom=    0.0000000   0.0000000   0.0000000   0.0000000   0.0000000   0.0000000   0.0000000   0.0000000   0.0000000   0.0000000
 NMagM=    2.7928460   2.7928460   0.0000000   2.6288670   2.6288670   2.6288670   0.0000000   2.6288670   2.6288670   2.6288670
 AtZNuc=   1.0000000   1.0000000   6.0000000   9.0000000   9.0000000   9.0000000   6.0000000   9.0000000   9.0000000   9.0000000
 Leave Link  101 at Thu May 30 18:50:09 2019, MaxMem=  6442450944 cpu:              17.6 elap:               0.7
 (Enter /home/ekwan/sw/g16/l103.exe)

 GradGradGradGradGradGradGradGradGradGradGradGradGradGradGradGradGradGrad
 Berny optimization.
 Initialization pass.
                           ----------------------------
                           !    Initial Parameters    !
                           ! (Angstroms and Degrees)  !
 --------------------------                            --------------------------
 ! Name  Definition              Value          Derivative Info.                !
 --------------------------------------------------------------------------------
 ! R1    R(1,2)                  1.5293         calculate D2E/DX2 analytically  !
 ! R2    R(1,5)                  1.5303         calculate D2E/DX2 analytically  !
 ! R3    R(1,8)                  1.0968         calculate D2E/DX2 analytically  !
 ! R4    R(1,14)                 1.4239         calculate D2E/DX2 analytically  !
 ! R5    R(2,3)                  1.5343         calculate D2E/DX2 analytically  !
 ! R6    R(2,7)                  1.0995         calculate D2E/DX2 analytically  !
 ! R7    R(2,13)                 1.4158         calculate D2E/DX2 analytically  !
 ! R8    R(3,6)                  1.0982         calculate D2E/DX2 analytically  !
 ! R9    R(3,11)                 1.419          calculate D2E/DX2 analytically  !
 ! R10   R(3,12)                 1.4003         calculate D2E/DX2 analytically  !
 ! R11   R(4,5)                  1.5337         calculate D2E/DX2 analytically  !
 ! R12   R(4,9)                  1.0977         calculate D2E/DX2 analytically  !
 ! R13   R(4,11)                 1.4486         calculate D2E/DX2 analytically  !
 ! R14   R(4,16)                 1.5404         calculate D2E/DX2 analytically  !
 ! R15   R(5,10)                 1.0947         calculate D2E/DX2 analytically  !
 ! R16   R(5,15)                 1.4256         calculate D2E/DX2 analytically  !
 ! R17   R(12,79)                1.4206         calculate D2E/DX2 analytically  !
 ! R18   R(13,20)                1.4188         calculate D2E/DX2 analytically  !
 ! R19   R(14,24)                1.4205         calculate D2E/DX2 analytically  !
 ! R20   R(15,28)                1.421          calculate D2E/DX2 analytically  !
 ! R21   R(16,17)                1.1175         calculate D2E/DX2 analytically  !
 ! R22   R(16,18)                1.1093         calculate D2E/DX2 analytically  !
 ! R23   R(16,19)                1.375          calculate D2E/DX2 analytically  !
 ! R24   R(19,37)                1.9649         calculate D2E/DX2 analytically  !
 ! R25   R(19,83)                2.2625         calculate D2E/DX2 analytically  !
 ! R26   R(20,21)                1.0987         calculate D2E/DX2 analytically  !
 ! R27   R(20,22)                1.0998         calculate D2E/DX2 analytically  !
 ! R28   R(20,23)                1.0924         calculate D2E/DX2 analytically  !
 ! R29   R(24,25)                1.1            calculate D2E/DX2 analytically  !
 ! R30   R(24,26)                1.0948         calculate D2E/DX2 analytically  !
 ! R31   R(24,27)                1.0935         calculate D2E/DX2 analytically  !
 ! R32   R(28,29)                1.0953         calculate D2E/DX2 analytically  !
 ! R33   R(28,30)                1.0993         calculate D2E/DX2 analytically  !
 ! R34   R(28,31)                1.0935         calculate D2E/DX2 analytically  !
 ! R35   R(32,33)                1.5286         calculate D2E/DX2 analytically  !
 ! R36   R(32,36)                1.533          calculate D2E/DX2 analytically  !
 ! R37   R(32,39)                1.0938         calculate D2E/DX2 analytically  !
 ! R38   R(32,45)                1.4175         calculate D2E/DX2 analytically  !
 ! R39   R(33,34)                1.4962         calculate D2E/DX2 analytically  !
 ! R40   R(33,38)                1.0996         calculate D2E/DX2 analytically  !
 ! R41   R(33,44)                1.4121         calculate D2E/DX2 analytically  !
 ! R42   R(34,37)                1.0742         calculate D2E/DX2 analytically  !
 ! R43   R(34,42)                1.2864         calculate D2E/DX2 analytically  !
 ! R44   R(34,53)                2.2297         calculate D2E/DX2 analytically  !
 ! R45   R(35,36)                1.5331         calculate D2E/DX2 analytically  !
 ! R46   R(35,40)                1.0924         calculate D2E/DX2 analytically  !
 ! R47   R(35,42)                1.4751         calculate D2E/DX2 analytically  !
 ! R48   R(35,47)                1.5361         calculate D2E/DX2 analytically  !
 ! R49   R(36,41)                1.0976         calculate D2E/DX2 analytically  !
 ! R50   R(36,46)                1.4189         calculate D2E/DX2 analytically  !
 ! R51   R(43,51)                1.4733         calculate D2E/DX2 analytically  !
 ! R52   R(44,63)                1.4344         calculate D2E/DX2 analytically  !
 ! R53   R(45,67)                1.425          calculate D2E/DX2 analytically  !
 ! R54   R(46,71)                1.4264         calculate D2E/DX2 analytically  !
 ! R55   R(47,48)                1.1003         calculate D2E/DX2 analytically  !
 ! R56   R(47,49)                1.0947         calculate D2E/DX2 analytically  !
 ! R57   R(47,50)                1.4066         calculate D2E/DX2 analytically  !
 ! R58   R(50,75)                1.4257         calculate D2E/DX2 analytically  !
 ! R59   R(51,52)                1.4921         calculate D2E/DX2 analytically  !
 ! R60   R(51,53)                1.512          calculate D2E/DX2 analytically  !
 ! R61   R(51,54)                1.7985         calculate D2E/DX2 analytically  !
 ! R62   R(52,83)                2.3298         calculate D2E/DX2 analytically  !
 ! R63   R(54,55)                1.3899         calculate D2E/DX2 analytically  !
 ! R64   R(54,56)                1.395          calculate D2E/DX2 analytically  !
 ! R65   R(55,57)                1.3989         calculate D2E/DX2 analytically  !
 ! R66   R(55,58)                1.0842         calculate D2E/DX2 analytically  !
 ! R67   R(56,59)                1.3903         calculate D2E/DX2 analytically  !
 ! R68   R(56,60)                1.0834         calculate D2E/DX2 analytically  !
 ! R69   R(57,61)                1.392          calculate D2E/DX2 analytically  !
 ! R70   R(57,97)                1.5032         calculate D2E/DX2 analytically  !
 ! R71   R(59,61)                1.3969         calculate D2E/DX2 analytically  !
 ! R72   R(59,93)                1.5035         calculate D2E/DX2 analytically  !
 ! R73   R(61,62)                1.0835         calculate D2E/DX2 analytically  !
 ! R74   R(63,64)                1.0967         calculate D2E/DX2 analytically  !
 ! R75   R(63,65)                1.0925         calculate D2E/DX2 analytically  !
 ! R76   R(63,66)                1.0907         calculate D2E/DX2 analytically  !
 ! R77   R(67,68)                1.0957         calculate D2E/DX2 analytically  !
 ! R78   R(67,69)                1.0979         calculate D2E/DX2 analytically  !
 ! R79   R(67,70)                1.0923         calculate D2E/DX2 analytically  !
 ! R80   R(71,72)                1.0961         calculate D2E/DX2 analytically  !
 ! R81   R(71,73)                1.0953         calculate D2E/DX2 analytically  !
 ! R82   R(71,74)                1.0922         calculate D2E/DX2 analytically  !
 ! R83   R(75,76)                1.092          calculate D2E/DX2 analytically  !
 ! R84   R(75,77)                1.0969         calculate D2E/DX2 analytically  !
 ! R85   R(75,78)                1.0958         calculate D2E/DX2 analytically  !
 ! R86   R(79,80)                1.092          calculate D2E/DX2 analytically  !
 ! R87   R(79,81)                1.0975         calculate D2E/DX2 analytically  !
 ! R88   R(79,82)                1.0981         calculate D2E/DX2 analytically  !
 ! R89   R(83,84)                2.3003         calculate D2E/DX2 analytically  !
 ! R90   R(84,85)                1.4258         calculate D2E/DX2 analytically  !
 ! R91   R(84,89)                1.4206         calculate D2E/DX2 analytically  !
 ! R92   R(85,86)                1.0983         calculate D2E/DX2 analytically  !
 ! R93   R(85,87)                1.0904         calculate D2E/DX2 analytically  !
 ! R94   R(85,88)                1.0983         calculate D2E/DX2 analytically  !
 ! R95   R(89,90)                1.0982         calculate D2E/DX2 analytically  !
 ! R96   R(89,91)                1.092          calculate D2E/DX2 analytically  !
 ! R97   R(89,92)                1.0987         calculate D2E/DX2 analytically  !
 ! R98   R(93,94)                1.3484         calculate D2E/DX2 analytically  !
 ! R99   R(93,95)                1.3564         calculate D2E/DX2 analytically  !
 ! R100  R(93,96)                1.3526         calculate D2E/DX2 analytically  !
 ! R101  R(97,98)                1.3583         calculate D2E/DX2 analytically  !
 ! R102  R(97,99)                1.3479         calculate D2E/DX2 analytically  !
 ! R103  R(97,100)               1.3513         calculate D2E/DX2 analytically  !
 ! A1    A(2,1,5)              110.4418         calculate D2E/DX2 analytically  !
 ! A2    A(2,1,8)              109.0881         calculate D2E/DX2 analytically  !
 ! A3    A(2,1,14)             110.9049         calculate D2E/DX2 analytically  !
 ! A4    A(5,1,8)              108.752          calculate D2E/DX2 analytically  !
 ! A5    A(5,1,14)             107.3943         calculate D2E/DX2 analytically  !
 ! A6    A(8,1,14)             110.2261         calculate D2E/DX2 analytically  !
 ! A7    A(1,2,3)              109.6038         calculate D2E/DX2 analytically  !
 ! A8    A(1,2,7)              108.4652         calculate D2E/DX2 analytically  !
 ! A9    A(1,2,13)             108.726          calculate D2E/DX2 analytically  !
 ! A10   A(3,2,7)              107.544          calculate D2E/DX2 analytically  !
 ! A11   A(3,2,13)             112.4286         calculate D2E/DX2 analytically  !
 ! A12   A(7,2,13)             109.9977         calculate D2E/DX2 analytically  !
 ! A13   A(2,3,6)              112.0301         calculate D2E/DX2 analytically  !
 ! A14   A(2,3,11)             109.7682         calculate D2E/DX2 analytically  !
 ! A15   A(2,3,12)             107.4534         calculate D2E/DX2 analytically  !
 ! A16   A(6,3,11)             103.9042         calculate D2E/DX2 analytically  !
 ! A17   A(6,3,12)             110.2983         calculate D2E/DX2 analytically  !
 ! A18   A(11,3,12)            113.4594         calculate D2E/DX2 analytically  !
 ! A19   A(5,4,9)              108.9999         calculate D2E/DX2 analytically  !
 ! A20   A(5,4,11)             111.0636         calculate D2E/DX2 analytically  !
 ! A21   A(5,4,16)             112.2099         calculate D2E/DX2 analytically  !
 ! A22   A(9,4,11)             108.5537         calculate D2E/DX2 analytically  !
 ! A23   A(9,4,16)             109.7644         calculate D2E/DX2 analytically  !
 ! A24   A(11,4,16)            106.1639         calculate D2E/DX2 analytically  !
 ! A25   A(1,5,4)              113.5733         calculate D2E/DX2 analytically  !
 ! A26   A(1,5,10)             107.5214         calculate D2E/DX2 analytically  !
 ! A27   A(1,5,15)             110.171          calculate D2E/DX2 analytically  !
 ! A28   A(4,5,10)             108.7653         calculate D2E/DX2 analytically  !
 ! A29   A(4,5,15)             106.895          calculate D2E/DX2 analytically  !
 ! A30   A(10,5,15)            109.8914         calculate D2E/DX2 analytically  !
 ! A31   A(3,11,4)             115.5011         calculate D2E/DX2 analytically  !
 ! A32   A(3,12,79)            114.3147         calculate D2E/DX2 analytically  !
 ! A33   A(2,13,20)            113.9555         calculate D2E/DX2 analytically  !
 ! A34   A(1,14,24)            114.4319         calculate D2E/DX2 analytically  !
 ! A35   A(5,15,28)            114.121          calculate D2E/DX2 analytically  !
 ! A36   A(4,16,17)            105.4234         calculate D2E/DX2 analytically  !
 ! A37   A(4,16,18)            105.4521         calculate D2E/DX2 analytically  !
 ! A38   A(4,16,19)            113.966          calculate D2E/DX2 analytically  !
 ! A39   A(17,16,18)           105.0846         calculate D2E/DX2 analytically  !
 ! A40   A(17,16,19)           112.3766         calculate D2E/DX2 analytically  !
 ! A41   A(18,16,19)           113.7225         calculate D2E/DX2 analytically  !
 ! A42   A(16,19,37)            97.4659         calculate D2E/DX2 analytically  !
 ! A43   A(16,19,83)           113.0627         calculate D2E/DX2 analytically  !
 ! A44   A(37,19,83)            67.3794         calculate D2E/DX2 analytically  !
 ! A45   A(13,20,21)           112.2798         calculate D2E/DX2 analytically  !
 ! A46   A(13,20,22)           111.2199         calculate D2E/DX2 analytically  !
 ! A47   A(13,20,23)           106.7877         calculate D2E/DX2 analytically  !
 ! A48   A(21,20,22)           108.6316         calculate D2E/DX2 analytically  !
 ! A49   A(21,20,23)           108.6674         calculate D2E/DX2 analytically  !
 ! A50   A(22,20,23)           109.1769         calculate D2E/DX2 analytically  !
 ! A51   A(14,24,25)           111.0905         calculate D2E/DX2 analytically  !
 ! A52   A(14,24,26)           111.5683         calculate D2E/DX2 analytically  !
 ! A53   A(14,24,27)           106.6135         calculate D2E/DX2 analytically  !
 ! A54   A(25,24,26)           109.0706         calculate D2E/DX2 analytically  !
 ! A55   A(25,24,27)           108.8502         calculate D2E/DX2 analytically  !
 ! A56   A(26,24,27)           109.5832         calculate D2E/DX2 analytically  !
 ! A57   A(15,28,29)           111.4365         calculate D2E/DX2 analytically  !
 ! A58   A(15,28,30)           111.2225         calculate D2E/DX2 analytically  !
 ! A59   A(15,28,31)           106.6725         calculate D2E/DX2 analytically  !
 ! A60   A(29,28,30)           108.8584         calculate D2E/DX2 analytically  !
 ! A61   A(29,28,31)           109.6253         calculate D2E/DX2 analytically  !
 ! A62   A(30,28,31)           108.9746         calculate D2E/DX2 analytically  !
 ! A63   A(33,32,36)           109.1846         calculate D2E/DX2 analytically  !
 ! A64   A(33,32,39)           108.6455         calculate D2E/DX2 analytically  !
 ! A65   A(33,32,45)           109.3005         calculate D2E/DX2 analytically  !
 ! A66   A(36,32,39)           109.5968         calculate D2E/DX2 analytically  !
 ! A67   A(36,32,45)           109.1194         calculate D2E/DX2 analytically  !
 ! A68   A(39,32,45)           110.9686         calculate D2E/DX2 analytically  !
 ! A69   A(32,33,34)           110.3311         calculate D2E/DX2 analytically  !
 ! A70   A(32,33,38)           109.0689         calculate D2E/DX2 analytically  !
 ! A71   A(32,33,44)           113.8659         calculate D2E/DX2 analytically  !
 ! A72   A(34,33,38)           104.0043         calculate D2E/DX2 analytically  !
 ! A73   A(34,33,44)           109.5093         calculate D2E/DX2 analytically  !
 ! A74   A(38,33,44)           109.5972         calculate D2E/DX2 analytically  !
 ! A75   A(33,34,37)           120.8793         calculate D2E/DX2 analytically  !
 ! A76   A(33,34,42)           122.1823         calculate D2E/DX2 analytically  !
 ! A77   A(33,34,53)            92.8313         calculate D2E/DX2 analytically  !
 ! A78   A(37,34,42)           114.7776         calculate D2E/DX2 analytically  !
 ! A79   A(37,34,53)            90.1437         calculate D2E/DX2 analytically  !
 ! A80   A(42,34,53)           101.6962         calculate D2E/DX2 analytically  !
 ! A81   A(36,35,40)           108.5646         calculate D2E/DX2 analytically  !
 ! A82   A(36,35,42)           113.8292         calculate D2E/DX2 analytically  !
 ! A83   A(36,35,47)           115.0496         calculate D2E/DX2 analytically  !
 ! A84   A(40,35,42)           103.7164         calculate D2E/DX2 analytically  !
 ! A85   A(40,35,47)           111.8298         calculate D2E/DX2 analytically  !
 ! A86   A(42,35,47)           103.2643         calculate D2E/DX2 analytically  !
 ! A87   A(32,36,35)           112.5863         calculate D2E/DX2 analytically  !
 ! A88   A(32,36,41)           108.1796         calculate D2E/DX2 analytically  !
 ! A89   A(32,36,46)           109.0697         calculate D2E/DX2 analytically  !
 ! A90   A(35,36,41)           109.6189         calculate D2E/DX2 analytically  !
 ! A91   A(35,36,46)           106.8386         calculate D2E/DX2 analytically  !
 ! A92   A(41,36,46)           110.5563         calculate D2E/DX2 analytically  !
 ! A93   A(19,37,34)           107.663          calculate D2E/DX2 analytically  !
 ! A94   A(34,42,35)           122.841          calculate D2E/DX2 analytically  !
 ! A95   A(33,44,63)           113.141          calculate D2E/DX2 analytically  !
 ! A96   A(32,45,67)           113.8896         calculate D2E/DX2 analytically  !
 ! A97   A(36,46,71)           114.2898         calculate D2E/DX2 analytically  !
 ! A98   A(35,47,48)           108.5314         calculate D2E/DX2 analytically  !
 ! A99   A(35,47,49)           108.2418         calculate D2E/DX2 analytically  !
 ! A100  A(35,47,50)           113.6271         calculate D2E/DX2 analytically  !
 ! A101  A(48,47,49)           108.3343         calculate D2E/DX2 analytically  !
 ! A102  A(48,47,50)           111.3084         calculate D2E/DX2 analytically  !
 ! A103  A(49,47,50)           106.6231         calculate D2E/DX2 analytically  !
 ! A104  A(47,50,75)           114.077          calculate D2E/DX2 analytically  !
 ! A105  A(43,51,52)           115.187          calculate D2E/DX2 analytically  !
 ! A106  A(43,51,53)           112.7377         calculate D2E/DX2 analytically  !
 ! A107  A(43,51,54)           108.2128         calculate D2E/DX2 analytically  !
 ! A108  A(52,51,53)           112.2245         calculate D2E/DX2 analytically  !
 ! A109  A(52,51,54)           105.3993         calculate D2E/DX2 analytically  !
 ! A110  A(53,51,54)           101.814          calculate D2E/DX2 analytically  !
 ! A111  A(51,52,83)           129.4043         calculate D2E/DX2 analytically  !
 ! A112  A(34,53,51)           108.4665         calculate D2E/DX2 analytically  !
 ! A113  A(51,54,55)           120.971          calculate D2E/DX2 analytically  !
 ! A114  A(51,54,56)           117.297          calculate D2E/DX2 analytically  !
 ! A115  A(55,54,56)           121.2982         calculate D2E/DX2 analytically  !
 ! A116  A(54,55,57)           118.6444         calculate D2E/DX2 analytically  !
 ! A117  A(54,55,58)           119.9837         calculate D2E/DX2 analytically  !
 ! A118  A(57,55,58)           121.3292         calculate D2E/DX2 analytically  !
 ! A119  A(54,56,59)           119.256          calculate D2E/DX2 analytically  !
 ! A120  A(54,56,60)           120.1576         calculate D2E/DX2 analytically  !
 ! A121  A(59,56,60)           120.5332         calculate D2E/DX2 analytically  !
 ! A122  A(55,57,61)           120.8998         calculate D2E/DX2 analytically  !
 ! A123  A(55,57,97)           119.945          calculate D2E/DX2 analytically  !
 ! A124  A(61,57,97)           119.0045         calculate D2E/DX2 analytically  !
 ! A125  A(56,59,61)           120.456          calculate D2E/DX2 analytically  !
 ! A126  A(56,59,93)           120.0059         calculate D2E/DX2 analytically  !
 ! A127  A(61,59,93)           119.5342         calculate D2E/DX2 analytically  !
 ! A128  A(57,61,59)           119.4168         calculate D2E/DX2 analytically  !
 ! A129  A(57,61,62)           120.2573         calculate D2E/DX2 analytically  !
 ! A130  A(59,61,62)           120.3194         calculate D2E/DX2 analytically  !
 ! A131  A(44,63,64)           110.0252         calculate D2E/DX2 analytically  !
 ! A132  A(44,63,65)           110.6175         calculate D2E/DX2 analytically  !
 ! A133  A(44,63,66)           105.8765         calculate D2E/DX2 analytically  !
 ! A134  A(64,63,65)           110.2484         calculate D2E/DX2 analytically  !
 ! A135  A(64,63,66)           109.9707         calculate D2E/DX2 analytically  !
 ! A136  A(65,63,66)           110.0167         calculate D2E/DX2 analytically  !
 ! A137  A(45,67,68)           111.2094         calculate D2E/DX2 analytically  !
 ! A138  A(45,67,69)           111.0598         calculate D2E/DX2 analytically  !
 ! A139  A(45,67,70)           106.4927         calculate D2E/DX2 analytically  !
 ! A140  A(68,67,69)           109.2838         calculate D2E/DX2 analytically  !
 ! A141  A(68,67,70)           109.4989         calculate D2E/DX2 analytically  !
 ! A142  A(69,67,70)           109.238          calculate D2E/DX2 analytically  !
 ! A143  A(46,71,72)           110.9516         calculate D2E/DX2 analytically  !
 ! A144  A(46,71,73)           110.6099         calculate D2E/DX2 analytically  !
 ! A145  A(46,71,74)           106.2516         calculate D2E/DX2 analytically  !
 ! A146  A(72,71,73)           110.0771         calculate D2E/DX2 analytically  !
 ! A147  A(72,71,74)           109.39           calculate D2E/DX2 analytically  !
 ! A148  A(73,71,74)           109.4763         calculate D2E/DX2 analytically  !
 ! A149  A(50,75,76)           106.4014         calculate D2E/DX2 analytically  !
 ! A150  A(50,75,77)           110.9951         calculate D2E/DX2 analytically  !
 ! A151  A(50,75,78)           111.4495         calculate D2E/DX2 analytically  !
 ! A152  A(76,75,77)           109.4201         calculate D2E/DX2 analytically  !
 ! A153  A(76,75,78)           109.0444         calculate D2E/DX2 analytically  !
 ! A154  A(77,75,78)           109.456          calculate D2E/DX2 analytically  !
 ! A155  A(12,79,80)           106.9969         calculate D2E/DX2 analytically  !
 ! A156  A(12,79,81)           111.2739         calculate D2E/DX2 analytically  !
 ! A157  A(12,79,82)           111.3106         calculate D2E/DX2 analytically  !
 ! A158  A(80,79,81)           108.7093         calculate D2E/DX2 analytically  !
 ! A159  A(80,79,82)           109.463          calculate D2E/DX2 analytically  !
 ! A160  A(81,79,82)           109.0255         calculate D2E/DX2 analytically  !
 ! A161  A(19,83,52)           113.3991         calculate D2E/DX2 analytically  !
 ! A162  A(19,83,84)           147.6966         calculate D2E/DX2 analytically  !
 ! A163  A(52,83,84)            96.681          calculate D2E/DX2 analytically  !
 ! A164  A(83,84,85)           117.0821         calculate D2E/DX2 analytically  !
 ! A165  A(83,84,89)           129.2577         calculate D2E/DX2 analytically  !
 ! A166  A(85,84,89)           112.5878         calculate D2E/DX2 analytically  !
 ! A167  A(84,85,86)           110.6262         calculate D2E/DX2 analytically  !
 ! A168  A(84,85,87)           106.8552         calculate D2E/DX2 analytically  !
 ! A169  A(84,85,88)           110.5478         calculate D2E/DX2 analytically  !
 ! A170  A(86,85,87)           109.8322         calculate D2E/DX2 analytically  !
 ! A171  A(86,85,88)           109.1384         calculate D2E/DX2 analytically  !
 ! A172  A(87,85,88)           109.8175         calculate D2E/DX2 analytically  !
 ! A173  A(84,89,90)           110.8725         calculate D2E/DX2 analytically  !
 ! A174  A(84,89,91)           107.3583         calculate D2E/DX2 analytically  !
 ! A175  A(84,89,92)           110.9322         calculate D2E/DX2 analytically  !
 ! A176  A(90,89,91)           109.4365         calculate D2E/DX2 analytically  !
 ! A177  A(90,89,92)           108.9262         calculate D2E/DX2 analytically  !
 ! A178  A(91,89,92)           109.2836         calculate D2E/DX2 analytically  !
 ! A179  A(59,93,94)           112.4995         calculate D2E/DX2 analytically  !
 ! A180  A(59,93,95)           111.082          calculate D2E/DX2 analytically  !
 ! A181  A(59,93,96)           111.6057         calculate D2E/DX2 analytically  !
 ! A182  A(94,93,95)           106.9112         calculate D2E/DX2 analytically  !
 ! A183  A(94,93,96)           107.3112         calculate D2E/DX2 analytically  !
 ! A184  A(95,93,96)           107.1383         calculate D2E/DX2 analytically  !
 ! A185  A(57,97,98)           111.1618         calculate D2E/DX2 analytically  !
 ! A186  A(57,97,99)           112.1047         calculate D2E/DX2 analytically  !
 ! A187  A(57,97,100)          112.0012         calculate D2E/DX2 analytically  !
 ! A188  A(98,97,99)           106.7475         calculate D2E/DX2 analytically  !
 ! A189  A(98,97,100)          106.909          calculate D2E/DX2 analytically  !
 ! A190  A(99,97,100)          107.6125         calculate D2E/DX2 analytically  !
 ! D1    D(5,1,2,3)            -53.764          calculate D2E/DX2 analytically  !
 ! D2    D(5,1,2,7)             63.3834         calculate D2E/DX2 analytically  !
 ! D3    D(5,1,2,13)          -177.0199         calculate D2E/DX2 analytically  !
 ! D4    D(8,1,2,3)             65.7094         calculate D2E/DX2 analytically  !
 ! D5    D(8,1,2,7)           -177.1431         calculate D2E/DX2 analytically  !
 ! D6    D(8,1,2,13)           -57.5465         calculate D2E/DX2 analytically  !
 ! D7    D(14,1,2,3)          -172.7034         calculate D2E/DX2 analytically  !
 ! D8    D(14,1,2,7)           -55.5559         calculate D2E/DX2 analytically  !
 ! D9    D(14,1,2,13)           64.0407         calculate D2E/DX2 analytically  !
 ! D10   D(2,1,5,4)             48.3625         calculate D2E/DX2 analytically  !
 ! D11   D(2,1,5,10)           -72.0229         calculate D2E/DX2 analytically  !
 ! D12   D(2,1,5,15)           168.2359         calculate D2E/DX2 analytically  !
 ! D13   D(8,1,5,4)            -71.314          calculate D2E/DX2 analytically  !
 ! D14   D(8,1,5,10)           168.3007         calculate D2E/DX2 analytically  !
 ! D15   D(8,1,5,15)            48.5595         calculate D2E/DX2 analytically  !
 ! D16   D(14,1,5,4)           169.4141         calculate D2E/DX2 analytically  !
 ! D17   D(14,1,5,10)           49.0287         calculate D2E/DX2 analytically  !
 ! D18   D(14,1,5,15)          -70.7124         calculate D2E/DX2 analytically  !
 ! D19   D(2,1,14,24)          -96.4962         calculate D2E/DX2 analytically  !
 ! D20   D(5,1,14,24)          142.744          calculate D2E/DX2 analytically  !
 ! D21   D(8,1,14,24)           24.4212         calculate D2E/DX2 analytically  !
 ! D22   D(1,2,3,6)            174.4195         calculate D2E/DX2 analytically  !
 ! D23   D(1,2,3,11)            59.529          calculate D2E/DX2 analytically  !
 ! D24   D(1,2,3,12)           -64.281          calculate D2E/DX2 analytically  !
 ! D25   D(7,2,3,6)             56.6953         calculate D2E/DX2 analytically  !
 ! D26   D(7,2,3,11)           -58.1952         calculate D2E/DX2 analytically  !
 ! D27   D(7,2,3,12)           177.9948         calculate D2E/DX2 analytically  !
 ! D28   D(13,2,3,6)           -64.5368         calculate D2E/DX2 analytically  !
 ! D29   D(13,2,3,11)         -179.4273         calculate D2E/DX2 analytically  !
 ! D30   D(13,2,3,12)           56.7627         calculate D2E/DX2 analytically  !
 ! D31   D(1,2,13,20)         -161.0636         calculate D2E/DX2 analytically  !
 ! D32   D(3,2,13,20)           77.3908         calculate D2E/DX2 analytically  !
 ! D33   D(7,2,13,20)          -42.4269         calculate D2E/DX2 analytically  !
 ! D34   D(2,3,11,4)           -60.9533         calculate D2E/DX2 analytically  !
 ! D35   D(6,3,11,4)           179.0742         calculate D2E/DX2 analytically  !
 ! D36   D(12,3,11,4)           59.2717         calculate D2E/DX2 analytically  !
 ! D37   D(2,3,12,79)         -175.6755         calculate D2E/DX2 analytically  !
 ! D38   D(6,3,12,79)          -53.2962         calculate D2E/DX2 analytically  !
 ! D39   D(11,3,12,79)          62.7957         calculate D2E/DX2 analytically  !
 ! D40   D(9,4,5,1)             73.0261         calculate D2E/DX2 analytically  !
 ! D41   D(9,4,5,10)          -167.2937         calculate D2E/DX2 analytically  !
 ! D42   D(9,4,5,15)           -48.6905         calculate D2E/DX2 analytically  !
 ! D43   D(11,4,5,1)           -46.5275         calculate D2E/DX2 analytically  !
 ! D44   D(11,4,5,10)           73.1527         calculate D2E/DX2 analytically  !
 ! D45   D(11,4,5,15)         -168.2441         calculate D2E/DX2 analytically  !
 ! D46   D(16,4,5,1)          -165.1787         calculate D2E/DX2 analytically  !
 ! D47   D(16,4,5,10)          -45.4984         calculate D2E/DX2 analytically  !
 ! D48   D(16,4,5,15)           73.1048         calculate D2E/DX2 analytically  !
 ! D49   D(5,4,11,3)            53.8786         calculate D2E/DX2 analytically  !
 ! D50   D(9,4,11,3)           -65.9411         calculate D2E/DX2 analytically  !
 ! D51   D(16,4,11,3)          176.1118         calculate D2E/DX2 analytically  !
 ! D52   D(5,4,16,17)           54.3995         calculate D2E/DX2 analytically  !
 ! D53   D(5,4,16,18)          -56.4769         calculate D2E/DX2 analytically  !
 ! D54   D(5,4,16,19)          178.0972         calculate D2E/DX2 analytically  !
 ! D55   D(9,4,16,17)          175.7572         calculate D2E/DX2 analytically  !
 ! D56   D(9,4,16,18)           64.8807         calculate D2E/DX2 analytically  !
 ! D57   D(9,4,16,19)          -60.5452         calculate D2E/DX2 analytically  !
 ! D58   D(11,4,16,17)         -67.1023         calculate D2E/DX2 analytically  !
 ! D59   D(11,4,16,18)        -177.9787         calculate D2E/DX2 analytically  !
 ! D60   D(11,4,16,19)          56.5954         calculate D2E/DX2 analytically  !
 ! D61   D(1,5,15,28)           99.3884         calculate D2E/DX2 analytically  !
 ! D62   D(4,5,15,28)         -136.7736         calculate D2E/DX2 analytically  !
 ! D63   D(10,5,15,28)         -18.9059         calculate D2E/DX2 analytically  !
 ! D64   D(3,12,79,80)         163.6067         calculate D2E/DX2 analytically  !
 ! D65   D(3,12,79,81)         -77.7757         calculate D2E/DX2 analytically  !
 ! D66   D(3,12,79,82)          44.0536         calculate D2E/DX2 analytically  !
 ! D67   D(2,13,20,21)         -67.324          calculate D2E/DX2 analytically  !
 ! D68   D(2,13,20,22)          54.6444         calculate D2E/DX2 analytically  !
 ! D69   D(2,13,20,23)         173.67           calculate D2E/DX2 analytically  !
 ! D70   D(1,14,24,25)         -59.3853         calculate D2E/DX2 analytically  !
 ! D71   D(1,14,24,26)          62.5534         calculate D2E/DX2 analytically  !
 ! D72   D(1,14,24,27)        -177.8392         calculate D2E/DX2 analytically  !
 ! D73   D(5,15,28,29)         -62.9037         calculate D2E/DX2 analytically  !
 ! D74   D(5,15,28,30)          58.7636         calculate D2E/DX2 analytically  !
 ! D75   D(5,15,28,31)         177.4759         calculate D2E/DX2 analytically  !
 ! D76   D(4,16,19,37)        -107.1451         calculate D2E/DX2 analytically  !
 ! D77   D(4,16,19,83)         -38.6029         calculate D2E/DX2 analytically  !
 ! D78   D(17,16,19,37)         12.7059         calculate D2E/DX2 analytically  !
 ! D79   D(17,16,19,83)         81.2481         calculate D2E/DX2 analytically  !
 ! D80   D(18,16,19,37)        131.9364         calculate D2E/DX2 analytically  !
 ! D81   D(18,16,19,83)       -159.5214         calculate D2E/DX2 analytically  !
 ! D82   D(16,19,37,34)       -125.9721         calculate D2E/DX2 analytically  !
 ! D83   D(83,19,37,34)        122.102          calculate D2E/DX2 analytically  !
 ! D84   D(16,19,83,52)        -67.2094         calculate D2E/DX2 analytically  !
 ! D85   D(16,19,83,84)        135.6266         calculate D2E/DX2 analytically  !
 ! D86   D(37,19,83,52)         21.3916         calculate D2E/DX2 analytically  !
 ! D87   D(37,19,83,84)       -135.7725         calculate D2E/DX2 analytically  !
 ! D88   D(36,32,33,34)        -52.7533         calculate D2E/DX2 analytically  !
 ! D89   D(36,32,33,38)         60.896          calculate D2E/DX2 analytically  !
 ! D90   D(36,32,33,44)       -176.3525         calculate D2E/DX2 analytically  !
 ! D91   D(39,32,33,34)         66.7315         calculate D2E/DX2 analytically  !
 ! D92   D(39,32,33,38)       -179.6191         calculate D2E/DX2 analytically  !
 ! D93   D(39,32,33,44)        -56.8677         calculate D2E/DX2 analytically  !
 ! D94   D(45,32,33,34)       -172.0478         calculate D2E/DX2 analytically  !
 ! D95   D(45,32,33,38)        -58.3984         calculate D2E/DX2 analytically  !
 ! D96   D(45,32,33,44)         64.3531         calculate D2E/DX2 analytically  !
 ! D97   D(33,32,36,35)         54.1196         calculate D2E/DX2 analytically  !
 ! D98   D(33,32,36,41)        -67.17           calculate D2E/DX2 analytically  !
 ! D99   D(33,32,36,46)        172.5282         calculate D2E/DX2 analytically  !
 ! D100  D(39,32,36,35)        -64.7749         calculate D2E/DX2 analytically  !
 ! D101  D(39,32,36,41)        173.9355         calculate D2E/DX2 analytically  !
 ! D102  D(39,32,36,46)         53.6337         calculate D2E/DX2 analytically  !
 ! D103  D(45,32,36,35)        173.5262         calculate D2E/DX2 analytically  !
 ! D104  D(45,32,36,41)         52.2366         calculate D2E/DX2 analytically  !
 ! D105  D(45,32,36,46)        -68.0652         calculate D2E/DX2 analytically  !
 ! D106  D(33,32,45,67)       -131.6109         calculate D2E/DX2 analytically  !
 ! D107  D(36,32,45,67)        109.0543         calculate D2E/DX2 analytically  !
 ! D108  D(39,32,45,67)        -11.8101         calculate D2E/DX2 analytically  !
 ! D109  D(32,33,34,37)       -158.2086         calculate D2E/DX2 analytically  !
 ! D110  D(32,33,34,42)         39.374          calculate D2E/DX2 analytically  !
 ! D111  D(32,33,34,53)        -66.3462         calculate D2E/DX2 analytically  !
 ! D112  D(38,33,34,37)         84.9516         calculate D2E/DX2 analytically  !
 ! D113  D(38,33,34,42)        -77.4657         calculate D2E/DX2 analytically  !
 ! D114  D(38,33,34,53)        176.8141         calculate D2E/DX2 analytically  !
 ! D115  D(44,33,34,37)        -32.1198         calculate D2E/DX2 analytically  !
 ! D116  D(44,33,34,42)        165.4629         calculate D2E/DX2 analytically  !
 ! D117  D(44,33,34,53)         59.7427         calculate D2E/DX2 analytically  !
 ! D118  D(32,33,44,63)        -96.2128         calculate D2E/DX2 analytically  !
 ! D119  D(34,33,44,63)        139.7435         calculate D2E/DX2 analytically  !
 ! D120  D(38,33,44,63)         26.2489         calculate D2E/DX2 analytically  !
 ! D121  D(33,34,37,19)        -51.7889         calculate D2E/DX2 analytically  !
 ! D122  D(42,34,37,19)        111.8558         calculate D2E/DX2 analytically  !
 ! D123  D(53,34,37,19)       -145.1745         calculate D2E/DX2 analytically  !
 ! D124  D(33,34,42,35)        -23.7218         calculate D2E/DX2 analytically  !
 ! D125  D(37,34,42,35)        172.8698         calculate D2E/DX2 analytically  !
 ! D126  D(53,34,42,35)         77.2239         calculate D2E/DX2 analytically  !
 ! D127  D(33,34,53,51)       -141.674          calculate D2E/DX2 analytically  !
 ! D128  D(37,34,53,51)        -20.7444         calculate D2E/DX2 analytically  !
 ! D129  D(42,34,53,51)         94.6282         calculate D2E/DX2 analytically  !
 ! D130  D(40,35,36,32)         77.3509         calculate D2E/DX2 analytically  !
 ! D131  D(40,35,36,41)       -162.1837         calculate D2E/DX2 analytically  !
 ! D132  D(40,35,36,46)        -42.359          calculate D2E/DX2 analytically  !
 ! D133  D(42,35,36,32)        -37.5956         calculate D2E/DX2 analytically  !
 ! D134  D(42,35,36,41)         82.8698         calculate D2E/DX2 analytically  !
 ! D135  D(42,35,36,46)       -157.3055         calculate D2E/DX2 analytically  !
 ! D136  D(47,35,36,32)       -156.4956         calculate D2E/DX2 analytically  !
 ! D137  D(47,35,36,41)        -36.0302         calculate D2E/DX2 analytically  !
 ! D138  D(47,35,36,46)         83.7946         calculate D2E/DX2 analytically  !
 ! D139  D(36,35,42,34)         21.9777         calculate D2E/DX2 analytically  !
 ! D140  D(40,35,42,34)        -95.801          calculate D2E/DX2 analytically  !
 ! D141  D(47,35,42,34)        147.4043         calculate D2E/DX2 analytically  !
 ! D142  D(36,35,47,48)       -177.2114         calculate D2E/DX2 analytically  !
 ! D143  D(36,35,47,49)         65.4145         calculate D2E/DX2 analytically  !
 ! D144  D(36,35,47,50)        -52.8117         calculate D2E/DX2 analytically  !
 ! D145  D(40,35,47,48)        -52.7544         calculate D2E/DX2 analytically  !
 ! D146  D(40,35,47,49)       -170.1285         calculate D2E/DX2 analytically  !
 ! D147  D(40,35,47,50)         71.6453         calculate D2E/DX2 analytically  !
 ! D148  D(42,35,47,48)         58.1532         calculate D2E/DX2 analytically  !
 ! D149  D(42,35,47,49)        -59.2209         calculate D2E/DX2 analytically  !
 ! D150  D(42,35,47,50)       -177.4471         calculate D2E/DX2 analytically  !
 ! D151  D(32,36,46,71)        112.831          calculate D2E/DX2 analytically  !
 ! D152  D(35,36,46,71)       -125.2174         calculate D2E/DX2 analytically  !
 ! D153  D(41,36,46,71)         -5.998          calculate D2E/DX2 analytically  !
 ! D154  D(33,44,63,64)        -64.5344         calculate D2E/DX2 analytically  !
 ! D155  D(33,44,63,65)         57.5176         calculate D2E/DX2 analytically  !
 ! D156  D(33,44,63,66)        176.676          calculate D2E/DX2 analytically  !
 ! D157  D(32,45,67,68)        -59.5585         calculate D2E/DX2 analytically  !
 ! D158  D(32,45,67,69)         62.3812         calculate D2E/DX2 analytically  !
 ! D159  D(32,45,67,70)       -178.7874         calculate D2E/DX2 analytically  !
 ! D160  D(36,46,71,72)        -59.7022         calculate D2E/DX2 analytically  !
 ! D161  D(36,46,71,73)         62.7584         calculate D2E/DX2 analytically  !
 ! D162  D(36,46,71,74)       -178.5126         calculate D2E/DX2 analytically  !
 ! D163  D(35,47,50,75)        -71.836          calculate D2E/DX2 analytically  !
 ! D164  D(48,47,50,75)         51.0513         calculate D2E/DX2 analytically  !
 ! D165  D(49,47,50,75)        169.009          calculate D2E/DX2 analytically  !
 ! D166  D(47,50,75,76)       -169.5922         calculate D2E/DX2 analytically  !
 ! D167  D(47,50,75,77)        -50.6321         calculate D2E/DX2 analytically  !
 ! D168  D(47,50,75,78)         71.6506         calculate D2E/DX2 analytically  !
 ! D169  D(43,51,52,83)       -140.1057         calculate D2E/DX2 analytically  !
 ! D170  D(53,51,52,83)         -9.2956         calculate D2E/DX2 analytically  !
 ! D171  D(54,51,52,83)        100.6996         calculate D2E/DX2 analytically  !
 ! D172  D(43,51,53,34)       -173.6837         calculate D2E/DX2 analytically  !
 ! D173  D(52,51,53,34)         54.2725         calculate D2E/DX2 analytically  !
 ! D174  D(54,51,53,34)        -57.9699         calculate D2E/DX2 analytically  !
 ! D175  D(43,51,54,55)       -122.6344         calculate D2E/DX2 analytically  !
 ! D176  D(43,51,54,56)         64.8284         calculate D2E/DX2 analytically  !
 ! D177  D(52,51,54,55)          1.0989         calculate D2E/DX2 analytically  !
 ! D178  D(52,51,54,56)       -171.4383         calculate D2E/DX2 analytically  !
 ! D179  D(53,51,54,55)        118.3842         calculate D2E/DX2 analytically  !
 ! D180  D(53,51,54,56)        -54.1529         calculate D2E/DX2 analytically  !
 ! D181  D(51,52,83,19)        -59.6196         calculate D2E/DX2 analytically  !
 ! D182  D(51,52,83,84)        108.3274         calculate D2E/DX2 analytically  !
 ! D183  D(51,54,55,57)       -172.7572         calculate D2E/DX2 analytically  !
 ! D184  D(51,54,55,58)          4.8974         calculate D2E/DX2 analytically  !
 ! D185  D(56,54,55,57)         -0.5203         calculate D2E/DX2 analytically  !
 ! D186  D(56,54,55,58)        177.1344         calculate D2E/DX2 analytically  !
 ! D187  D(51,54,56,59)        171.4788         calculate D2E/DX2 analytically  !
 ! D188  D(51,54,56,60)         -5.8812         calculate D2E/DX2 analytically  !
 ! D189  D(55,54,56,59)         -1.0324         calculate D2E/DX2 analytically  !
 ! D190  D(55,54,56,60)       -178.3924         calculate D2E/DX2 analytically  !
 ! D191  D(54,55,57,61)          1.5519         calculate D2E/DX2 analytically  !
 ! D192  D(54,55,57,97)        177.0458         calculate D2E/DX2 analytically  !
 ! D193  D(58,55,57,61)       -176.0698         calculate D2E/DX2 analytically  !
 ! D194  D(58,55,57,97)         -0.576          calculate D2E/DX2 analytically  !
 ! D195  D(54,56,59,61)          1.5839         calculate D2E/DX2 analytically  !
 ! D196  D(54,56,59,93)       -177.6962         calculate D2E/DX2 analytically  !
 ! D197  D(60,56,59,61)        178.9338         calculate D2E/DX2 analytically  !
 ! D198  D(60,56,59,93)         -0.3464         calculate D2E/DX2 analytically  !
 ! D199  D(55,57,61,59)         -1.0148         calculate D2E/DX2 analytically  !
 ! D200  D(55,57,61,62)        178.0647         calculate D2E/DX2 analytically  !
 ! D201  D(97,57,61,59)       -176.5504         calculate D2E/DX2 analytically  !
 ! D202  D(97,57,61,62)          2.5292         calculate D2E/DX2 analytically  !
 ! D203  D(55,57,97,98)        -88.9225         calculate D2E/DX2 analytically  !
 ! D204  D(55,57,97,99)        151.6889         calculate D2E/DX2 analytically  !
 ! D205  D(55,57,97,100)        30.6018         calculate D2E/DX2 analytically  !
 ! D206  D(61,57,97,98)         86.6566         calculate D2E/DX2 analytically  !
 ! D207  D(61,57,97,99)        -32.732          calculate D2E/DX2 analytically  !
 ! D208  D(61,57,97,100)      -153.8191         calculate D2E/DX2 analytically  !
 ! D209  D(56,59,61,57)         -0.5769         calculate D2E/DX2 analytically  !
 ! D210  D(56,59,61,62)       -179.6559         calculate D2E/DX2 analytically  !
 ! D211  D(93,59,61,57)        178.7067         calculate D2E/DX2 analytically  !
 ! D212  D(93,59,61,62)         -0.3724         calculate D2E/DX2 analytically  !
 ! D213  D(56,59,93,94)        -98.5728         calculate D2E/DX2 analytically  !
 ! D214  D(56,59,93,95)        141.6175         calculate D2E/DX2 analytically  !
 ! D215  D(56,59,93,96)         22.1215         calculate D2E/DX2 analytically  !
 ! D216  D(61,59,93,94)         82.1403         calculate D2E/DX2 analytically  !
 ! D217  D(61,59,93,95)        -37.6693         calculate D2E/DX2 analytically  !
 ! D218  D(61,59,93,96)       -157.1653         calculate D2E/DX2 analytically  !
 ! D219  D(19,83,84,85)        141.2465         calculate D2E/DX2 analytically  !
 ! D220  D(19,83,84,89)        -25.9235         calculate D2E/DX2 analytically  !
 ! D221  D(52,83,84,85)        -17.7385         calculate D2E/DX2 analytically  !
 ! D222  D(52,83,84,89)        175.0915         calculate D2E/DX2 analytically  !
 ! D223  D(83,84,85,86)       -107.8228         calculate D2E/DX2 analytically  !
 ! D224  D(83,84,85,87)         11.7028         calculate D2E/DX2 analytically  !
 ! D225  D(83,84,85,88)        131.1667         calculate D2E/DX2 analytically  !
 ! D226  D(89,84,85,86)         61.4445         calculate D2E/DX2 analytically  !
 ! D227  D(89,84,85,87)       -179.0298         calculate D2E/DX2 analytically  !
 ! D228  D(89,84,85,88)        -59.5659         calculate D2E/DX2 analytically  !
 ! D229  D(83,84,89,90)       -130.4127         calculate D2E/DX2 analytically  !
 ! D230  D(83,84,89,91)        -10.9197         calculate D2E/DX2 analytically  !
 ! D231  D(83,84,89,92)        108.4218         calculate D2E/DX2 analytically  !
 ! D232  D(85,84,89,90)         61.9522         calculate D2E/DX2 analytically  !
 ! D233  D(85,84,89,91)       -178.5548         calculate D2E/DX2 analytically  !
 ! D234  D(85,84,89,92)        -59.2133         calculate D2E/DX2 analytically  !
 --------------------------------------------------------------------------------
 Trust Radius=5.00D-02 FncErr=1.00D-07 GrdErr=1.00D-06 EigMax=2.50D+02 EigMin=1.00D-04
 Number of steps in this run=    537 maximum allowed number of steps=    600.
 Search for a saddle point of order  1.
 Step   0 in ReCalcFC=30 IGetFC= 4 compute analytic Hessian.
 GradGradGradGradGradGradGradGradGradGradGradGradGradGradGradGradGradGrad

 Leave Link  103 at Thu May 30 18:50:09 2019, MaxMem=  6442450944 cpu:               4.6 elap:               0.2
 (Enter /home/ekwan/sw/g16/l202.exe)
 Stoichiometry    C30H47F6NaO15S
 Framework group  C1[X(C30H47F6NaO15S)]
 Deg. of freedom   294
 Full point group                 C1      NOp   1
 Largest Abelian subgroup         C1      NOp   1
 Largest concise Abelian subgroup C1      NOp   1
                         Standard orientation:                         
 ---------------------------------------------------------------------
 Center     Atomic      Atomic             Coordinates (Angstroms)
 Number     Number       Type             X           Y           Z
 ---------------------------------------------------------------------
      1          6           0        4.982311   -0.830264   -1.067955
      2          6           0        4.786826   -0.440603    0.397905
      3          6           0        4.077483    0.917467    0.479372
      4          6           0        2.855684    0.508160   -1.575360
      5          6           0        3.648245   -0.782684   -1.816102
      6          1           0        3.828660    1.190854    1.513469
      7          1           0        4.131753   -1.185632    0.871904
      8          1           0        5.675566   -0.122149   -1.537932
      9          1           0        3.341836    1.331766   -2.114159
     10          1           0        3.048721   -1.632770   -1.475206
     11          8           0        2.815939    0.839468   -0.165686
     12          8           0        4.933081    1.872587   -0.083125
     13          8           0        6.049809   -0.429576    1.037607
     14          8           0        5.484990   -2.157961   -1.178062
     15          8           0        3.869041   -0.877315   -3.221325
     16          6           0        1.388588    0.383676   -2.028148
     17          1           0        0.989664   -0.516225   -1.499229
     18          1           0        1.433040    0.093684   -3.097920
     19          8           0        0.633500    1.507941   -1.790709
     20          6           0        5.979476   -0.503926    2.452738
     21          1           0        5.535322    0.398087    2.895685
     22          1           0        5.396357   -1.378220    2.776925
     23          1           0        7.005404   -0.602494    2.814895
     24          6           0        6.895001   -2.241736   -1.329091
     25          1           0        7.229151   -1.705786   -2.229646
     26          1           0        7.417957   -1.836377   -0.456912
     27          1           0        7.135061   -3.302743   -1.439942
     28          6           0        3.664438   -2.178314   -3.755004
     29          1           0        4.370700   -2.900366   -3.331393
     30          1           0        2.640292   -2.529739   -3.565208
     31          1           0        3.819970   -2.102527   -4.834742
     32          6           0       -3.495078    2.343922   -0.729625
     33          6           0       -1.986136    2.266198   -0.961390
     34          6           0       -1.463925    0.928512   -0.541423
     35          6           0       -3.573764   -0.195156   -0.959471
     36          6           0       -4.170872    1.144845   -1.404695
     37          1           0       -0.426336    0.793216   -0.298470
     38          1           0       -1.786330    2.302541   -2.042032
     39          1           0       -3.685507    2.314114    0.347092
     40          1           0       -3.963074   -0.437078    0.032088
     41          1           0       -4.058895    1.255465   -2.490961
     42          8           0       -2.112279   -0.160303   -0.762487
     43          8           0       -1.089783    0.776668    3.890331
     44          8           0       -1.254920    3.283578   -0.310066
     45          8           0       -3.995687    3.540941   -1.300333
     46          8           0       -5.543231    1.123085   -1.044966
     47          6           0       -3.768590   -1.354528   -1.948085
     48          1           0       -3.347001   -2.268199   -1.503020
     49          1           0       -3.207849   -1.125262   -2.859879
     50          8           0       -5.107027   -1.545608   -2.336141
     51         16           0       -0.809585    0.715111    2.445205
     52          8           0        0.531165    1.226217    2.036018
     53          8           0       -1.924576    1.300389    1.608264
     54          6           0       -0.837221   -1.010794    1.940292
     55          6           0        0.265789   -1.594849    1.328751
     56          6           0       -2.053171   -1.687156    2.040102
     57          6           0        0.141137   -2.891161    0.817882
     58          1           0        1.186695   -1.032743    1.221437
     59          6           0       -2.167973   -2.962143    1.497772
     60          1           0       -2.908558   -1.204459    2.497403
     61          6           0       -1.069758   -3.574095    0.888788
     62          1           0       -1.163190   -4.565565    0.461917
     63          6           0       -0.964633    4.401736   -1.160385
     64          1           0       -0.303969    4.089961   -1.978339
     65          1           0       -1.886418    4.829794   -1.561131
     66          1           0       -0.457088    5.132485   -0.529522
     67          6           0       -4.844144    4.284509   -0.429804
     68          1           0       -5.715995    3.694248   -0.126510
     69          1           0       -4.300000    4.613708    0.465177
     70          1           0       -5.174697    5.160401   -0.992523
     71          6           0       -6.437311    1.380949   -2.125991
     72          1           0       -6.247924    2.367484   -2.564430
     73          1           0       -6.347975    0.604833   -2.893743
     74          1           0       -7.443689    1.359683   -1.702036
     75          6           0       -5.936296   -2.093957   -1.314219
     76          1           0       -6.879535   -2.363422   -1.794035
     77          1           0       -5.480279   -2.990659   -0.877036
     78          1           0       -6.133935   -1.362164   -0.522867
     79          6           0        4.456981    3.208158    0.004406
     80          1           0        5.309210    3.863960   -0.185721
     81          1           0        3.685173    3.406066   -0.750418
     82          1           0        4.046526    3.421046    1.000418
     83         11           0        1.123403    2.504599    0.180440
     84          8           0        1.533476    4.459177    1.321884
     85          6           0        0.995438    4.567513    2.637796
     86          1           0        0.152649    5.271577    2.654442
     87          1           0        0.651839    3.572435    2.921781
     88          1           0        1.765248    4.910659    3.341965
     89          6           0        2.041264    5.693985    0.836644
     90          1           0        2.868052    6.051130    1.465145
     91          1           0        2.405061    5.520376   -0.178246
     92          1           0        1.254218    6.460262    0.813850
     93          6           0       -3.484953   -3.685613    1.549882
     94          9           0       -3.548488   -4.569111    2.566588
     95          9           0       -3.704251   -4.382646    0.407183
     96          9           0       -4.519442   -2.826854    1.697683
     97          6           0        1.294424   -3.525752    0.092055
     98          9           0        1.254964   -3.240676   -1.235420
     99          9           0        1.285036   -4.869169    0.201256
    100          9           0        2.486236   -3.086357    0.553157
 ---------------------------------------------------------------------
 Rotational constants (GHZ):           0.0633077           0.0412531           0.0321398
 Leave Link  202 at Thu May 30 18:50:09 2019, MaxMem=  6442450944 cpu:               4.4 elap:               0.2
 (Enter /home/ekwan/sw/g16/l301.exe)
 Standard basis: 6-31G(d) (6D, 7F)
 Ernie: Thresh=  0.10000D-02 Tol=  0.10000D-05 Strict=F.
 There are   897 symmetry adapted cartesian basis functions of A   symmetry.
 There are   897 symmetry adapted basis functions of A   symmetry.
   897 basis functions,  1720 primitive gaussians,   897 cartesian basis functions
   214 alpha electrons      214 beta electrons
       nuclear repulsion energy      9605.1778547299 Hartrees.
 IExCor=  402 DFT=T Ex+Corr=B3LYP ExCW=0 ScaHFX=  0.200000
 ScaDFX=  0.800000  0.720000  1.000000  0.810000 ScalE2=  1.000000  1.000000
 IRadAn=      5 IRanWt=     -1 IRanGd=            0 ICorTp=0 IEmpDi=141
 NAtoms=  100 NActive=  100 NUniq=  100 SFac= 1.00D+00 NAtFMM=   60 NAOKFM=T Big=T
 Integral buffers will be    131072 words long.
 Raffenetti 2 integral format.
 Two-electron integral symmetry is turned on.
 R6Disp:  Grimme-D3(BJ) Dispersion energy=       -0.2313343428 Hartrees.
 Nuclear repulsion after empirical dispersion term =     9604.9465203871 Hartrees.
 Force inversion solution in PCM.
 ------------------------------------------------------------------------------
 Polarizable Continuum Model (PCM)
 =================================
 Model                : PCM.
 Atomic radii         : UFF (Universal Force Field).
 Polarization charges : Total charges.
 Charge compensation  : None.
 Solution method      : Matrix inversion.
 Cavity type          : Scaled VdW (van der Waals Surface) (Alpha=1.100).
 Cavity algorithm     : GePol (No added spheres)
                        Default sphere list used, NSphG=  100.
                        Lebedev-Laikov grids with approx.  5.0 points / Ang**2.
                        Smoothing algorithm: York/Karplus (Gamma=1.0000).
                        Polarization charges: spherical gaussians, with
                                              point-specific exponents (IZeta= 3).
                        Self-potential: point-specific (ISelfS= 7).
                        Self-field    : sphere-specific E.n sum rule (ISelfD= 2).
 1st derivatives      : Analytical E(r).r(x)/FMM algorithm (CHGder, D1EAlg=3).
                        Cavity 1st derivative terms included.
 2nd derivatives      : Analytical E(r).r(xy)/FMM algorithm (CHGder, D2EAlg=3).
                        Cavity 2nd derivative terms included.
 Solvent              : TetraHydroFuran, Eps=   7.425700 Eps(inf)=   1.974025
 ------------------------------------------------------------------------------
 GePol: Number of generator spheres                  =     100
 GePol: Total number of spheres                      =     100
 GePol: Number of exposed spheres                    =     100 (100.00%)
 GePol: Number of points                             =    6167
 GePol: Average weight of points                     =       0.12
 GePol: Minimum weight of points                     =   0.32D-10
 GePol: Maximum weight of points                     =    0.21371
 GePol: Number of points with low weight             =     492
 GePol: Fraction of low-weight points (<1% of avg)   =       7.98%
 GePol: Cavity surface area                          =    762.199 Ang**2
 GePol: Cavity volume                                =    979.358 Ang**3
 Leave Link  301 at Thu May 30 18:50:10 2019, MaxMem=  6442450944 cpu:               7.4 elap:               0.3
 (Enter /home/ekwan/sw/g16/l302.exe)
 NPDir=0 NMtPBC=     1 NCelOv=     1 NCel=       1 NClECP=     1 NCelD=      1
         NCelK=      1 NCelE2=     1 NClLst=     1 CellRange=     0.0.
 One-electron integrals computed using PRISM.
 One-electron integral symmetry used in STVInt
 NBasis=   897 RedAO= T EigKep=  4.00D-04  NBF=   897
 NBsUse=   897 1.00D-06 EigRej= -1.00D+00 NBFU=   897
 Precomputing XC quadrature grid using
 IXCGrd= 4 IRadAn=           5 IRanWt=          -1 IRanGd=           0 AccXCQ= 0.00D+00.
 Generated NRdTot=       0 NPtTot=           0 NUsed=           0 NTot=          32
 NSgBfM=   852   851   852   852   852 MxSgAt=   100 MxSgA2=   100.
 Leave Link  302 at Thu May 30 18:50:24 2019, MaxMem=  6442450944 cpu:             442.7 elap:              14.9
 (Enter /home/ekwan/sw/g16/l303.exe)
 DipDrv:  MaxL=1.
 Leave Link  303 at Thu May 30 18:50:25 2019, MaxMem=  6442450944 cpu:              16.2 elap:               0.6
 (Enter /home/ekwan/sw/g16/l401.exe)
 ExpMin= 2.60D-02 ExpMax= 2.19D+04 ExpMxC= 3.30D+03 IAcc=3 IRadAn=         5 AccDes= 0.00D+00
 Harris functional with IExCor=  402 and IRadAn=       5 diagonalized for initial guess.
 HarFok:  IExCor=  402 AccDes= 0.00D+00 IRadAn=         5 IDoV= 1 UseB2=F ITyADJ=14
 ICtDFT=  3500011 ScaDFX=  1.000000  1.000000  1.000000  1.000000
 FoFCou: FMM=F IPFlag=           0 FMFlag=      100000 FMFlg1=        2001
         NFxFlg=           0 DoJE=T BraDBF=F KetDBF=T FulRan=T
         wScrn=  0.000000 ICntrl=       500 IOpCl=  0 I1Cent=   200000004 NGrid=           0
         NMat0=    1 NMatS0=      1 NMatT0=    0 NMatD0=    1 NMtDS0=    0 NMtDT0=    0
 Petite list used in FoFCou.
 Harris En= -3459.37861682171    
 JPrj=0 DoOrth=F DoCkMO=F.
 Leave Link  401 at Thu May 30 18:50:44 2019, MaxMem=  6442450944 cpu:             582.8 elap:              18.9
 (Enter /home/ekwan/sw/g16/l502.exe)
 Integral symmetry usage will be decided dynamically.
 Closed shell SCF:
 Using DIIS extrapolation, IDIIS=  1040.
 NGot=  6442450944 LenX=  6440803163 LenY=  6439997657
 Requested convergence on RMS density matrix=1.00D-08 within 128 cycles.
 Requested convergence on MAX density matrix=1.00D-06.
 Requested convergence on             energy=1.00D-06.
 No special actions if energy rises.
[...]
 6,-0.00004458,0.00007599,0.00015490,-0.00005504,-0.00012598,0.00001254
 ,-0.00003652,-0.00005533,-0.00000256,-0.00000498,0.00000964,-0.0002049
 3,0.00007619,0.00005842,-0.00011979,0.00299305,0.00085572,0.00033812,-
 0.00096732,-0.00018474,-0.00056462,-0.00106478,0.00034026,0.00051164,-
 0.00162439,-0.00140149,-0.00691376,0.00039566,-0.00098563,-0.00041967,
 -0.00016985,-0.00004575,-0.00370428,-0.04005007,-0.00053234,0.00006151
 ,0.00066139,0.00056979,-0.00101461,0.00033091,-0.00090578,-0.00010244,
 0.00007051,0.00017236,0.00376182,-0.00175910,-0.00077132,-0.00220031,0
 .00075583,0.00089510,-0.00004178,0.00013946,-0.00007689,0.00000980,0.0
 0000708,0.00000566,-0.00001122,-0.00002276,0.00001680,0.00001275,-0.00
 001923,-0.00000232,0.00007216,0.00006649,0.00007074,-0.00001024,0.0000
 0120,-0.00001461,-0.00000500,-0.00000166,-0.00001136,-0.00001238,-0.00
 002033,-0.00000009,0.00008735,0.00001643,-0.00010439,-0.00000367,-0.00
 001076,0.00001571,-0.00000042,0.00000474,0.00001388,-0.00002251,-0.000
 00342,0.00000535,0.00006071,-0.00003371,0.00004181,-0.00002833,0.00000
 123,0.00001252,0.00001783,-0.00001284,-0.00003562,0.00001554,0.0000137
 6,-0.00001150,0.00004589,0.00019181,0.00004656,0.00002092,-0.00004192,
 0.00000099,-0.00002705,-0.00001711,-0.00000420,-0.00002512,-0.00000908
 ,-0.00001225,-0.00005105,0.00036968,-0.00003364,0.00002322,-0.00011201
 ,-0.00000665,0.00000172,0.00003345,0.00001784,-0.00000840,-0.00001680,
 0.00000127,-0.00000243,0.00002940,0.00003988,0.00001560,-0.00001660,-0
 .00000659,-0.00003452,0.00007717,-0.00002727,0.00001217,-0.00001190,-0
 .00000453,0.00000157,0.00000544,0.00000417,-0.00000546,-0.00001601,0.0
 0000128,0.00147894,-0.00162978,0.00005862,-0.00039025,0.00064353,-0.00
 037260,-0.00041578,0.00050563,0.00032170,-0.00059330,0.00016980,-0.000
 05223,-0.02489379,-0.26511631,0.00021242,-0.00068645,-0.03744294,0.043
 65730,-0.00297957,0.38958067,0.00000916,0.00012715,-0.00015027,-0.0001
 0209,0.00006830,-0.00013825,0.00005015,0.00000624,-0.00004905,-0.00000
 152,-0.00003014,-0.00023629,0.00020905,-0.00036837,0.00022968,-0.00000
 670,0.00002010,0.00002646,-0.00001368,-0.00001367,0.00007198,-0.000046
 21,0.00000026,0.00003469,-0.00001639,0.00006826,0.00003615,0.00022689,
 -0.00003630,-0.00017403,0.00000474,0.00002077,0.00019722,-0.00000384,-
 0.00000557,0.00003876,0.00003192,-0.00003671,0.00009113,-0.00005292,-0
 .00000638,0.00006089,-0.00016357,0.00020061,-0.00001460,-0.00001397,-0
 .00059432,0.00021211,-0.00013442,0.00005887,-0.00022175,0.00000409,0.0
 0001968,0.00003147,0.00028861,0.00031121,0.00015160,-0.00002572,0.0000
 3316,-0.00004086,0.00000078,0.00000199,0.00000631,0.00000258,-0.000015
 41,0.00000764,0.00000383,-0.00000264,0.00000699,0.00006342,0.00000118,
 0.00000543,-0.00000492,0.00000014,0.00000083,-0.00002072,0.00000622,0.
 00000377,-0.00000249,-0.00000311,-0.00000541,0.00031414,-0.00018084,-0
 .00002420,-0.00000362,-0.00000398,-0.00000229,-0.00012203,0.00001398,0
 .00013346,-0.00006739,0.00003501,-0.00003765,0.00000779,0.00001524,-0.
 00001414,-0.00002177,0.00000656,-0.00001541,-0.00019609,0.00010365,-0.
 00039823,0.00003010,-0.00000171,-0.00008012,0.00001972,0.00001724,-0.0
 0000409,-0.00004934,0.00003992,-0.00002241,-0.00000067,-0.00000840,0.0
 0000751,0.00001759,0.00001025,0.00000575,0.00004145,0.00002951,0.00000
 164,-0.00000731,-0.00000999,0.00001062,0.00002115,-0.00008433,0.000118
 36,-0.00005579,-0.00040799,-0.00028192,0.00001657,-0.00002661,0.000038
 26,-0.00001068,-0.00002093,0.00001980,-0.00002610,-0.00000788,0.000026
 90,-0.00000053,-0.00000908,-0.00004404,-0.00000404,-0.00000272,-0.0000
 4109,-0.00000478,-0.00001612,0.00002688,0.00001296,0.00000277,0.000043
 18,0.00004373,0.00132475,0.00000691,0.00017647,-0.00037580,0.00004118,
 -0.00022075,-0.00040068,0.00031796,-0.00048707,-0.00026446,-0.00116934
 ,-0.00193264,0.00031672,0.00084102,0.00003212,-0.00064266,-0.00020222,
 -0.00350343,-0.01766599,0.00807500,0.00001566,0.00008182,0.00031109,0.
 00026895,0.00011872,-0.00004092,-0.00001098,-0.00002567,0.00005544,-0.
 00070884,-0.00058512,-0.00031060,-0.00044808,-0.00025717,-0.00016881,-
 0.00001705,0.00002321,-0.00002425,0.00000465,-0.00000510,0.00000936,0.
 00000040,-0.00000383,0.00000394,0.00000126,-0.00000071,0.00000138,0.00
 000426,0.00000363,-0.00000231,0.00000121,-0.00000021,-0.00000179,-0.00
 000219,0.00000183,0.00000097,-0.00000163,-0.00000315,0.00000113,0.0000
 1522,0.00000120,-0.00002471,-0.00000125,-0.00000327,0.00000272,-0.0000
 0116,0.00000268,0.00000372,-0.00000137,-0.00000022,0.00000165,-0.00000
 725,0.00001675,-0.00003031,-0.00000331,-0.00000358,0.00000691,0.000006
 14,-0.00001086,-0.00001222,0.00000786,0.00000713,0.00000276,0.00000477
 ,-0.00001315,-0.00001427,-0.00000074,-0.00000110,0.00000086,-0.0000048
 1,-0.00000306,0.00000117,-0.00000030,0.00000252,0.00000734,-0.00004532
 ,0.00003344,-0.00010619,0.00001464,-0.00002445,0.00002523,-0.00000992,
 0.00001240,-0.00002218,0.00000002,-0.00000391,0.00000366,0.00000095,0.
 00000823,0.00001188,0.00000324,-0.00000282,0.00000278,-0.00000911,0.00
 001849,-0.00001361,0.00000132,-0.00000324,0.00000027,0.00000247,-0.000
 00150,0.00000425,-0.00000006,-0.00000390,0.00000039,0.00074457,-0.0004
 6438,-0.00005140,-0.00017201,0.00017354,-0.00007957,-0.00019971,0.0001
 7270,0.00015584,-0.00025895,0.00002774,0.00000045,-0.00229007,0.003387
 72,-0.07074058,0.00224247,0.05965368,-0.02423880,0.00048023,-0.0285968
 2,0.07787725,0.00053427,-0.00032826,0.00064329,0.00213964,-0.00129849,
 0.00104746,-0.00075931,-0.00093290,-0.00011258,-0.00026682,-0.00023041
 ,0.00015327,0.00100603,-0.00107390,0.00055905,0.00002830,0.00010510,0.
 00002269,-0.00064052,0.00089304,-0.00106679,-0.00023397,0.00002078,-0.
 00021384,0.00011423,0.00017919,-0.00005254,-0.00110332,0.00067581,0.00
 069724,0.00044251,0.00046672,-0.00020927,0.00010856,0.00089602,-0.0000
 5201,-0.00128206,0.00072995,0.00052513,-0.00096634,0.00006168,-0.00029
 713,-0.00010420,0.00004958,-0.00112093,-0.00055409,0.00024073,-0.00012
 557,0.00006537,-0.00010090,0.00017222,0.00007472,-0.00000276,0.0000197
 8,0.00062314,-0.00011941,0.00014399,0.00011230,-0.00029434,-0.00061607
 ,0.00004196,0.00008746,0.00009007,0.00003563,0.00006065,0.00000074,-0.
 00007908,0.00002089,0.00008110,0.00078264,0.00021673,0.00008429,-0.000
 18039,0.00007426,-0.00010073,-0.00008482,0.00002260,0.00002386,-0.0000
 4050,-0.00004955,0.00000472,-0.00040522,0.00058416,0.00033221,0.000084
 52,-0.00001901,0.00006822,0.00012710,-0.00008396,-0.00007049,0.0000611
 3,-0.00004128,-0.00009092,0.00005469,0.00010173,-0.00001471,-0.0000909
 1,0.00010268,0.00002247,-0.00044247,0.00056067,-0.00058278,0.00014978,
 0.00000992,-0.00014232,0.00013103,0.00007290,-0.00001254,-0.00012813,0
 .00011937,-0.00001306,0.00000666,-0.00001437,-0.00000283,0.00003081,0.
 00001956,0.00000871,0.00010540,0.00008267,-0.00000300,-0.00001541,-0.0
 0002078,0.00001683,0.00005462,-0.00045278,0.00012501,-0.00001196,-0.00
 076008,-0.00078871,0.00007801,-0.00018812,0.00005206,-0.00008709,-0.00
 016967,0.00001451,-0.00014862,-0.00006738,0.00006140,0.00020277,0.0000
 9769,-0.00014080,0.00001577,-0.00006525,-0.00006427,-0.00000431,-0.000
 00472,0.00001818,-0.00021009,-0.00002359,0.00006891,-0.00051541,0.0030
 7953,0.00101993,0.00078535,-0.00099425,-0.00003002,-0.00032261,-0.0011
 2440,0.00032526,-0.00016439,-0.00018203,-0.00096424,-0.00069110,0.0026
 7389,0.00065503,-0.00059871,-0.00025715,-0.00014757,-0.04635139,0.0163
 1434,0.01375363,-0.00095130,-0.00150626,0.00001510,-0.00202061,0.00191
 963,-0.00097167,0.00000713,-0.00012295,0.00010771,-0.00329135,-0.00784
 615,-0.00313187,0.00064738,-0.00011141,0.00054604,-0.00004595,0.000105
 78,-0.00007245,0.00000195,-0.00000289,0.00002104,-0.00000177,-0.000012
 02,0.00001459,0.00000627,-0.00002010,-0.00000081,0.00005060,0.00005522
 ,0.00005453,-0.00000251,0.00000108,-0.00001002,-0.00000416,-0.00000190
 ,-0.00001293,-0.00001043,-0.00001614,0.00000106,0.00007503,0.00002439,
 -0.00008173,-0.00000398,-0.00001517,0.00001488,0.00000272,0.00000662,0
 .00000263,-0.00001733,-0.00000119,0.00000299,0.00007694,0.00004407,0.0
 0001052,-0.00002949,-0.00000295,0.00002076,0.00002127,-0.00003383,-0.0
 0003756,0.00001362,0.00000779,-0.00001852,-0.00017462,-0.00029609,-0.0
 0006571,-0.00000155,0.00008407,-0.00000537,0.00005366,0.00005524,-0.00
 002475,0.00002187,0.00002530,0.00003126,-0.00033372,0.00007251,-0.0000
 8518,0.00007577,-0.00001325,0.00001083,-0.00003406,0.00001771,-0.00003
 420,0.00000885,0.00000355,0.00000410,-0.00001680,0.00001965,0.00003525
 ,0.00001520,-0.00002140,-0.00000082,-0.00002670,0.00001611,-0.00001228
 ,0.00000666,-0.00001118,-0.00000619,-0.00000514,-0.00000789,0.00001217
 ,0.00000882,0.00000270,0.00000461,0.00220187,-0.00203687,-0.00014544,-
 0.00056193,0.00085034,-0.00051687,-0.00058474,0.00044422,0.00028357,-0
 .00127335,-0.00002108,-0.00004806,-0.23687205,0.03604288,0.03887624,-0
 .01228039,0.00201880,0.04053019,-0.00982233,0.03922795,0.00606802,0.31
 355690,-0.00039598,-0.00021010,-0.00015998,-0.00091512,0.00060469,-0.0
 0045096,-0.00002608,0.00046622,0.00019753,0.00011893,0.00015634,-0.000
 07757,-0.00092274,0.00109558,-0.00030610,0.00000686,-0.00003033,-0.000
 00984,0.00123284,-0.00132157,0.00026851,0.00016931,0.00003369,0.000061
 21,-0.00002480,-0.00015089,0.00003213,0.00093457,-0.00111183,0.0004173
 3,0.00006303,-0.00040590,0.00001872,0.00006922,-0.00045329,0.00002668,
 0.00068266,-0.00027707,-0.00028462,0.00053563,0.00007518,-0.00002597,0
 .00030113,-0.00007924,0.00081811,0.00017664,0.00027370,-0.00016115,-0.
 00000363,-0.00010677,0.00006646,0.00001478,-0.00002612,0.00005771,-0.0
 0026590,-0.00020261,0.00003512,-0.00002843,0.00006826,0.00031925,-0.00
 002497,-0.00001625,-0.00004189,-0.00003421,-0.00001316,-0.00002335,0.0
 0003826,-0.00000703,-0.00004395,-0.00031578,-0.00008915,-0.00003712,0.
 00005981,-0.00001973,0.00002525,0.00003269,-0.00001603,-0.00000785,0.0
 0004481,0.00004035,0.00000870,0.00007368,-0.00046930,-0.00025900,0.000
 01169,0.00004583,-0.00000770,-0.00006258,0.00004548,0.00002817,-0.0000
 0807,0.00004556,0.00005409,0.00003767,0.00001256,-0.00001167,-0.000010
 44,0.00002016,0.00001639,0.00018201,-0.00010346,-0.00006440,0.00008761
 ,-0.00001145,-0.00002922,0.00001793,0.00000455,-0.00000642,0.00002381,
 0.00001244,-0.00002166,-0.00000290,-0.00001311,-0.00000705,0.00000270,
 0.00000451,0.00000099,-0.00000644,0.00000400,0.00000470,-0.00000114,-0
 .00000297,0.00000327,-0.00013043,0.00012284,0.00007778,-0.00008073,-0.
 00005744,-0.00014225,-0.00001866,-0.00003620,0.00001620,-0.00003332,-0
 .00002658,0.00000450,-0.00004288,-0.00000084,0.00001621,0.00000212,-0.
 00003831,-0.00001945,-0.00000096,0.00000295,-0.00001408,-0.00000074,-0
 .00000598,0.00000435,-0.00001499,0.00002812,0.00001422,0.00039853,0.00
 035096,0.00025249,-0.00013273,-0.00017227,-0.00011051,-0.00015812,-0.0
 0010464,0.00003826,-0.00006026,0.00084171,0.00059477,-0.00098175,-0.00
 276000,-0.00002993,-0.00026638,0.00008184,-0.00007860,-0.00502502,0.01
 015827,-0.00058916,-0.00167229,0.00092674,-0.00033660,-0.00075420,0.00
 036737,0.00002208,-0.00007549,0.00008963,-0.00002793,-0.00061739,-0.00
 103647,-0.00074555,-0.00054469,0.00019817,-0.00007553,-0.00000559,0.00
 002787,-0.00001271,0.00000442,0.00000312,-0.00000306,-0.00000404,-0.00
 000592,0.00000284,0.00000350,-0.00000170,-0.00000054,0.00001388,0.0000
 1105,0.00001196,-0.00000292,0.00000014,-0.00000310,-0.00000098,0.00000
 012,-0.00000071,-0.00000211,-0.00000385,-0.00000013,0.00001477,0.00000
 050,-0.00002045,-0.00000040,-0.00000079,0.00000230,-0.00000097,0.00000
 062,0.00000453,-0.00000383,-0.00000082,0.00000137,0.00000136,-0.000012
 16,0.00000234,-0.00000352,-0.00000032,0.00000163,0.00000303,-0.0000006
 0,-0.00000715,0.00000373,0.00000417,0.00000085,0.00006683,0.00016617,0
 .00003763,0.00000969,-0.00004052,0.00000130,-0.00002592,-0.00002087,0.
 00000383,-0.00001666,-0.00000985,-0.00001270,0.00008256,0.00014835,-0.
 00000316,-0.00001077,-0.00004598,-0.00000425,0.00000921,0.00000964,0.0
 0001603,-0.00000594,-0.00000816,-0.00000047,0.00000401,0.00000771,0.00
 000807,0.00000256,-0.00000129,-0.00000246,-0.00000814,0.00002950,-0.00
 000905,0.00000339,-0.00000225,-0.00000021,0.00000236,0.00000458,-0.000
 00147,-0.00000467,-0.00000785,-0.00000083,0.00020592,-0.00038336,-0.00
 006510,-0.00007660,0.00013768,-0.00006156,-0.00005384,0.00011789,0.000
 08010,-0.00013010,0.00003944,-0.00000312,0.04267270,-0.08474995,-0.013
 82203,0.00062933,0.01264349,-0.00510063,0.05363051,-0.04621452,-0.0153
 4719,-0.08866547,0.11135711,0.00008543,0.00020476,-0.00038910,-0.00062
 766,0.00034505,-0.00046635,0.00028803,0.00016651,-0.00011206,-0.000148
 06,-0.00001302,-0.00049594,0.00098661,-0.00101800,0.00026574,-0.000016
 59,0.00002428,0.00004347,0.00009126,-0.00004333,0.00058128,-0.00009122
 ,0.00000536,0.00011901,0.00002077,0.00014952,0.00005580,-0.00042199,0.
 00124667,-0.00116790,-0.00009874,0.00000591,0.00042453,-0.00004254,-0.
 00016351,0.00008339,0.00030748,-0.00020912,0.00009689,0.00004309,-0.00
 023027,0.00007331,-0.00042981,0.00039746,-0.00034222,-0.00008336,-0.00
 063954,0.00021153,-0.00007910,0.00011003,-0.00022117,-0.00001486,0.000
 02442,0.00003901,0.00028930,0.00036844,0.00015102,-0.00008771,0.000145
 75,0.00002629,-0.00000761,-0.00001385,-0.00000223,-0.00000157,-0.00004
 500,0.00001648,0.00002381,-0.00001166,0.00000200,0.00005182,0.00000262
 ,0.00000439,0.00000540,-0.00000442,0.00001247,-0.00003856,0.00000701,0
 .00000150,-0.00000720,-0.00000544,-0.00000997,0.00037389,-0.00004897,0
 .00008660,0.00000248,-0.00003091,0.00000201,-0.00011827,-0.00003351,0.
 00015843,-0.00007279,0.00002942,-0.00005260,-0.00000624,-0.00000295,-0
 .00001119,-0.00000592,-0.00001249,-0.00002614,-0.00015671,0.00001186,-
 0.00032928,-0.00001265,-0.00000044,-0.00006051,-0.00000200,0.00000538,
 -0.00000072,-0.00003279,0.00002336,-0.00002691,-0.00000145,-0.00000497
 ,0.00001139,0.00001408,0.00000746,0.00000481,0.00002722,0.00002093,0.0
 0000554,-0.00000557,-0.00000739,0.00000870,0.00002823,-0.00002319,0.00
 008775,-0.00008042,-0.00016260,-0.00005915,0.00000658,0.00000864,0.000
 03399,0.00000770,0.00001024,0.00001933,0.00000214,0.00000334,0.0000176
 3,-0.00003313,-0.00001939,-0.00002529,-0.00000683,0.00000725,-0.000037
 42,-0.00000452,-0.00001746,0.00002677,0.00005115,0.00000256,0.00003632
 ,0.00037101,0.00071783,0.00002842,-0.00003961,-0.00024227,0.00002260,-
 0.00020238,-0.00022996,0.00029088,0.00024569,0.00051112,0.00033444,-0.
 00087307,-0.00171343,-0.00052351,-0.00058401,0.00033967,0.00001424,-0.
 00940386,0.00066589,0.00975142,-0.00082859,0.00040741,-0.00027911,-0.0
 0056919,-0.00013321,-0.00096277,-0.00004474,0.00004131,0.00001688,0.00
 003874,-0.00111391,0.00057015,-0.00013555,0.00003921,0.00024717,-0.000
 01093,0.00000381,-0.00001418,0.00000486,-0.00000580,0.00000722,0.00000
 119,-0.00000152,0.00000163,-0.00000002,0.00000334,0.00000178,-0.000005
 92,-0.00000752,-0.00001444,0.00000216,-0.00000039,0.00000017,-0.000001
 70,0.00000248,0.00000374,0.00000029,-0.00000023,0.00000114,0.00000249,
 -0.00000295,-0.00001115,-0.00000069,-0.00000095,0.00000015,-0.00000161
 ,0.00000187,0.00000316,0.00000196,0.,0.00000111,-0.00002100,0.00001438
 ,-0.00003718,0.00000127,-0.00000406,0.00000476,0.00000378,-0.00000765,
 -0.00000781,0.00000656,0.00000684,0.00000594,0.00004166,0.00002028,-0.
 00001153,-0.00000312,-0.00001633,0.00000319,-0.00001650,-0.00001764,0.
 00000685,-0.00000313,0.00000109,0.00000605,0.00000219,0.00002034,-0.00
 012773,0.00000320,-0.00002443,0.00003287,-0.00000588,0.00001166,-0.000
 02391,-0.00000166,-0.00000546,0.00000462,0.00000598,0.00000589,0.00000
 592,0.00000004,0.00000233,0.00000442,-0.00000536,0.00001817,-0.0000150
 2,-0.00000027,-0.00000156,0.00000173,0.00000374,-0.00000061,0.00000367
 ,-0.00000150,-0.00000499,-0.00000012,0.00050654,-0.00040890,-0.0002902
 8,-0.00014102,0.00017905,-0.00003389,-0.00011733,0.00014659,0.00014902
 ,-0.00014288,0.00002357,0.00002917,0.04584858,-0.01373015,-0.08365183,
 0.05485092,-0.00927921,-0.04792552,0.00640922,-0.01181697,0.00983018,-
 0.09516118,0.03501318,0.11367406\\-0.00000048,-0.00000021,0.00000331,0
 .00000066,-0.00000062,0.00000338,0.00000047,-0.00000069,0.00000321,-0.
 00000101,0.00000015,0.00000203,-0.00000113,0.00000009,0.00000231,0.000
 00135,-0.00000091,0.00000306,0.00000105,-0.00000078,0.00000262,-0.0000
 0097,-0.00000015,0.00000415,-0.00000150,0.00000026,0.00000276,-0.00000
 070,0.00000006,0.00000167,0.00000008,-0.00000021,0.00000224,0.00000014
 ,-0.00000059,0.00000401,0.00000089,-0.00000092,0.00000445,-0.00000056,
 -0.00000029,0.00000343,-0.00000217,0.00000055,0.00000253,-0.00000141,0
 .00000035,0.00000096,-0.00000085,0.00000035,0.00000033,-0.00000220,0.0
 0000072,0.00000090,-0.00000138,0.00000024,0.00000080,0.00000219,-0.000
 00142,0.00000431,0.00000244,-0.00000150,0.00000417,0.00000253,-0.00000
 144,0.00000351,0.00000248,-0.00000162,0.00000500,-0.00000058,-0.000000
 36,0.00000439,-0.00000132,-0.00000011,0.00000485,0.00000011,-0.0000007
 0,0.00000497,-0.00000055,-0.00000035,0.00000429,-0.00000244,0.00000071
 ,0.00000195,-0.00000204,0.00000048,0.00000225,-0.00000227,0.00000074,0
 .00000104,-0.00000330,0.00000101,0.00000208,-0.00000070,0.00000056,-0.
 00000225,-0.00000065,0.00000034,-0.00000111,-0.00000012,0.00000022,-0.
 00000119,-0.00000060,0.00000061,-0.00000309,-0.00000105,0.00000089,-0.
 00000316,-0.00000006,0.00000008,-0.00000030,-0.00000155,0.00000081,-0.
 00000090,0.00000030,0.00000021,-0.00000242,0.00000030,0.00000037,-0.00
 000351,-0.00000185,0.00000101,-0.00000308,-0.00000040,0.00000045,-0.00
 000189,0.00000314,-0.00000107,-0.00000101,-0.00000023,0.00000007,-0.00
 000028,-0.00000112,0.00000070,-0.00000226,-0.00000059,0.00000079,-0.00
 000416,-0.00000124,0.00000087,-0.00000352,-0.00000069,0.00000077,-0.00
 000351,-0.00000181,0.00000119,-0.00000302,-0.00000134,0.00000113,-0.00
 000470,0.00000218,-0.00000084,-0.00000043,0.00000162,-0.00000087,0.000
 00037,0.00000121,-0.00000035,-0.00000133,0.00000175,-0.00000055,-0.000
 00128,0.00000150,-0.00000062,-0.00000057,0.00000195,-0.00000039,-0.000
 00233,0.00000123,-0.00000026,-0.00000098,0.00000132,-0.00000055,0.0000
 0036,0.00000162,-0.00000039,-0.00000283,0.00000230,-0.00000057,-0.0000
 0288,0.00000112,-0.00000016,-0.00000223,0.00000106,-0.00000008,-0.0000
 0254,-0.00000107,0.00000036,0.00000024,-0.00000180,0.00000063,0.000000
 78,-0.00000147,0.00000059,-0.00000023,-0.00000073,0.00000015,0.0000009
 5,-0.00000052,0.00000059,-0.00000269,-0.00000025,0.00000055,-0.0000035
 6,0.00000011,0.00000024,-0.00000221,-0.00000106,0.00000077,-0.00000271
 ,-0.00000154,0.00000125,-0.00000483,-0.00000199,0.00000135,-0.00000438
 ,-0.00000207,0.00000146,-0.00000499,-0.00000122,0.00000121,-0.00000561
 ,-0.00000050,0.00000088,-0.00000542,-0.00000093,0.00000119,-0.00000630
 ,-0.00000013,0.00000077,-0.00000543,-0.00000007,0.00000077,-0.00000545
 ,0.00000012,-0.00000063,0.00000415,-0.00000031,-0.00000054,0.00000504,
 -0.00000054,-0.00000017,0.00000374,0.00000060,-0.00000076,0.00000386,-
 0.00000021,-0.00000018,0.00000128,0.00000092,-0.00000024,0.00000256,0.
 00000181,-0.00000093,0.00000191,0.00000176,-0.00000087,0.00000147,0.00
 000215,-0.00000102,0.00000133,0.00000233,-0.00000126,0.00000261,0.0000
 0034,-0.00000050,0.00000309,0.00000075,-0.00000078,0.00000381,-0.00000
 049,-0.00000033,0.00000323,0.00000024,-0.00000043,0.00000268,0.0000018
 5,-0.00000019,-0.00000411,0.00000270,-0.00000047,-0.00000436,0.0000009
 7,0.00000019,-0.00000442,0.00000188,-0.00000010,-0.00000456,0.00000073
 ,-0.00000018,-0.00000023,-0.00000040,0.00000014,-0.00000019,0.00000086
 ,-0.00000030,-0.00000073,0.00000103,-0.00000047,0.00000070\\\@


 Everywhere is walking distance if you have the time.
                                    -- Steven Wright
 Job cpu time:       4 days  9 hours 57 minutes 21.3 seconds.
 Elapsed time:       0 days  3 hours 25 minutes 28.2 seconds.
 File lengths (MBytes):  RWF=   9759 Int=      0 D2E=      0 Chk=    107 Scr=      1
 Normal termination of Gaussian 16 at Fri May 31 01:53:53 2019.
