 Entering Gaussian System, Link 0=g16
 Input=clay_new-glu_gluC6-BCDR-Na2_1Me2O-bisCF3-ts-b3lyp_d3bj-631gd-pcm_thf.gjf
 Output=clay_new-glu_gluC6-BCDR-Na2_1Me2O-bisCF3-ts-b3lyp_d3bj-631gd-pcm_thf.out
 Initial command:
 /home/ekwan/sw/g16/l1.exe "/scratch/users/ekwan/clay_new-glu_gluC6-BCDR-Na2_1Me2O-bisCF3-ts-b3lyp_d3bj-631gd-pcm_thf/Gau-32267.inp" -scrdir="/scratch/users/ekwan/clay_new-glu_gluC6-BCDR-Na2_1Me2O-bisCF3-ts-b3lyp_d3bj-631gd-pcm_thf/"
 Entering Link 1 = /home/ekwan/sw/g16/l1.exe PID=     32268.
  
 Copyright (c) 1988,1990,1992,1993,1995,1998,2003,2009,2016,
            Gaussian, Inc.  All Rights Reserved.
  
 This is part of the Gaussian(R) 16 program.  It is based on
 the Gaussian(R) 09 system (copyright 2009, Gaussian, Inc.),
 the Gaussian(R) 03 system (copyright 2003, Gaussian, Inc.),
 the Gaussian(R) 98 system (copyright 1998, Gaussian, Inc.),
 the Gaussian(R) 94 system (copyright 1995, Gaussian, Inc.),
 the Gaussian 92(TM) system (copyright 1992, Gaussian, Inc.),
 the Gaussian 90(TM) system (copyright 1990, Gaussian, Inc.),
 the Gaussian 88(TM) system (copyright 1988, Gaussian, Inc.),
 the Gaussian 86(TM) system (copyright 1986, Carnegie Mellon
 University), and the Gaussian 82(TM) system (copyright 1983,
 Carnegie Mellon University). Gaussian is a federally registered
 trademark of Gaussian, Inc.
  
 This software contains proprietary and confidential information,
 including trade secrets, belonging to Gaussian, Inc.
  
 This software is provided under written license and may be
 used, copied, transmitted, or stored only in accord with that
 written license.
  
 The following legend is applicable only to US Government
 contracts under FAR:
  
                    RESTRICTED RIGHTS LEGEND
  
 Use, reproduction and disclosure by the US Government is
 subject to restrictions as set forth in subparagraphs (a)
 and (c) of the Commercial Computer Software - Restricted
 Rights clause in FAR 52.227-19.
  
 Gaussian, Inc.
 340 Quinnipiac St., Bldg. 40, Wallingford CT 06492
  
  
 ---------------------------------------------------------------
 Warning -- This program may not be used in any manner that
 competes with the business of Gaussian, Inc. or will provide
 assistance to any competitor of Gaussian, Inc.  The licensee
 of this program is prohibited from giving any competitor of
 Gaussian, Inc. access to this program.  By using this program,
 the user acknowledges that Gaussian, Inc. is engaged in the
 business of creating and licensing software in the field of
 computational chemistry and represents and warrants to the
 licensee that it is not a competitor of Gaussian, Inc. and that
 it will not use this program in any manner prohibited above.
 ---------------------------------------------------------------
  

 Cite this work as:
 Gaussian 16, Revision A.03,
 M. J. Frisch, G. W. Trucks, H. B. Schlegel, G. E. Scuseria, 
 M. A. Robb, J. R. Cheeseman, G. Scalmani, V. Barone, 
 G. A. Petersson, H. Nakatsuji, X. Li, M. Caricato, A. V. Marenich, 
 J. Bloino, B. G. Janesko, R. Gomperts, B. Mennucci, H. P. Hratchian, 
 J. V. Ortiz, A. F. Izmaylov, J. L. Sonnenberg, D. Williams-Young, 
 F. Ding, F. Lipparini, F. Egidi, J. Goings, B. Peng, A. Petrone, 
 T. Henderson, D. Ranasinghe, V. G. Zakrzewski, J. Gao, N. Rega, 
 G. Zheng, W. Liang, M. Hada, M. Ehara, K. Toyota, R. Fukuda, 
 J. Hasegawa, M. Ishida, T. Nakajima, Y. Honda, O. Kitao, H. Nakai, 
 T. Vreven, K. Throssell, J. A. Montgomery, Jr., J. E. Peralta, 
 F. Ogliaro, M. J. Bearpark, J. J. Heyd, E. N. Brothers, K. N. Kudin, 
 V. N. Staroverov, T. A. Keith, R. Kobayashi, J. Normand, 
 K. Raghavachari, A. P. Rendell, J. C. Burant, S. S. Iyengar, 
 J. Tomasi, M. Cossi, J. M. Millam, M. Klene, C. Adamo, R. Cammi, 
 J. W. Ochterski, R. L. Martin, K. Morokuma, O. Farkas, 
 J. B. Foresman, and D. J. Fox, Gaussian, Inc., Wallingford CT, 2016.
 
 ******************************************
 Gaussian 16:  AS64L-G16RevA.03 25-Dec-2016
                23-May-2019 
 ******************************************
 %mem=48GB
 %nprocshared=32
 Will use up to   32 processors via shared memory.
 ----------------------------------------------------------------------
 #p opt=(ts,noeigentest,calcfc,maxstep=3,modredundant,recalc=30) freq=n
 oraman b3lyp 6-31g* pop=none scrf=(solvent=tetrahydrofuran,pcm) empiri
 caldispersion=gd3bj
 ----------------------------------------------------------------------
 1/5=1,8=3,10=4,11=1,18=120,26=3,38=1,71=30/1,3;
 2/9=110,12=2,17=6,18=5,40=1/2;
 3/5=1,6=6,7=1,11=2,25=1,30=1,70=2201,71=2,72=20,74=-5,124=41,140=1/1,2,3;
 4//1;
 5/5=2,38=5,53=20/2;
 8/6=4,10=90,11=11/1;
 11/6=1,8=1,9=11,15=111,16=1/1,2,10;
 10/6=1,13=1/2;
 7/10=1,18=20,25=1/1,2,3,16;
 1/5=1,8=3,10=4,11=1,18=20,26=3,71=30/3(2);
 2/9=110/2;
 99//99;
 2/9=110/2;
 3/5=1,6=6,7=1,11=2,25=1,30=1,70=2205,71=1,72=20,74=-5,124=41/1,2,3;
 4/5=5,16=3,69=1/1;
 5/5=2,38=5,53=20/2;
 7//1,2,3,16;
 1/5=1,8=3,11=1,18=20,26=3,71=30/3(-5);
 2/9=110/2;
 99/9=1/99;
 Leave Link    1 at Thu May 23 02:10:51 2019, MaxMem=  6442450944 cpu:               7.7 elap:               0.3
 (Enter /home/ekwan/sw/g16/l101.exe)
 -----
 title
 -----
 Symbolic Z-matrix:
 Charge =  0 Multiplicity = 1
 C                    -1.82193   1.49829   2.21785 
 C                    -2.1183    2.32176   0.96302 
 C                    -1.24267   3.57672   0.92527 
 C                     0.49849   2.5156    2.21275 
 C                    -0.32113   1.22432   2.32557 
 H                    -1.34845   4.08781  -0.04141 
 H                    -1.85115   1.72946   0.0798 
 H                    -2.15184   2.06956   3.0952 
 H                     0.25711   3.14818   3.07668 
 H                    -0.05251   0.5471    1.50889 
 O                     0.13046   3.22145   1.00132 
 O                    -1.62524   4.42511   1.9701 
 O                    -3.47903   2.72031   0.9035 
 O                    -2.55462   0.27916   2.12843 
 O                    -0.04328   0.60561   3.58046 
 C                     2.01829   2.29693   2.15374 
 H                     2.28471   1.79987   3.10989 
 H                     2.46301   3.31649   2.22426 
 O                     2.4537    1.62501   1.03512 
 C                    -4.28295   1.89074   0.07674 
 H                    -3.93459   1.90725  -0.96584 
 H                    -4.2876    0.85573   0.43086 
 H                    -5.29779   2.29525   0.11389 
 C                    -3.08888  -0.17119   3.36526 
 H                    -2.2973   -0.37777   4.09287 
 H                    -3.77973   0.57188   3.78956 
 H                    -3.63922  -1.08881   3.15197 
 C                     0.74985  -0.57092   3.47513 
 H                     0.20315  -1.36549   2.95424 
 H                     1.68807  -0.38515   2.94285 
 H                     0.97031  -0.89499   4.49585 
 C                     3.82233  -1.51686  -1.33121 
 C                     3.19716  -0.19867  -0.86533 
 C                     1.84596  -0.4134   -0.25426 
 C                     2.2107   -2.75118   0.1733 
 C                     3.67764  -2.53971  -0.19823 
 H                     1.16343   0.40355  -0.13712 
 H                     3.7842    0.20059  -0.02232 
 H                     3.3019   -1.8685   -2.22979 
 H                     1.67494  -3.18417  -0.67632 
 H                     4.2176   -2.1634    0.67706 
 O                     1.54076  -1.46622   0.4256 
 O                    -0.51691   0.19648  -3.88183 
 O                     3.07203   0.8096   -1.84751 
 O                     5.19785  -1.2972   -1.59254 
 O                     4.19001  -3.7984   -0.60042 
 C                     1.97634  -3.59929   1.40237 
 H                     2.30001  -4.62576   1.17638 
 H                     0.89921  -3.62206   1.62465 
 O                     2.70627  -3.05373   2.48038 
 S                    -0.29162   0.03778  -2.43473 
 O                    -0.17851   1.32244  -1.67516 
 O                     0.83454  -0.91379  -2.09799 
 C                    -1.75152  -0.76808  -1.75948 
 C                    -2.99266  -0.5618   -2.35535 
 C                    -1.62489  -1.55659  -0.62012 
 C                    -4.12149  -1.1533   -1.78772 
 H                    -3.07065   0.04164  -3.25196 
 C                    -2.75909  -2.15265  -0.07463 
 H                    -0.65684  -1.70778  -0.16252 
 C                    -4.01218  -1.95412  -0.65025 
 H                    -4.89246  -2.41677  -0.22116 
 C                     4.30005   1.45289  -2.2068 
 H                     4.92945   1.61163  -1.3248 
 H                     4.85321   0.86311  -2.94166 
 H                     4.02393   2.41939  -2.63126 
 C                     5.68694  -1.97972  -2.74339 
 H                     5.54636  -3.06164  -2.65497 
 H                     5.18744  -1.62291  -3.65499 
 H                     6.7534   -1.75224  -2.80813 
 C                     5.2637   -4.26748   0.21288 
 H                     6.12905  -3.59728   0.14356 
 H                     4.95612  -4.35345   1.26266 
 H                     5.53534  -5.2536   -0.16943 
 C                     2.48379  -3.75719   3.69288 
 H                     3.08188  -3.2635    4.46118 
 H                     1.42359  -3.72449   3.98125 
 H                     2.79551  -4.80814   3.60735 
 C                    -0.97448   5.69054   1.93425 
 H                    -1.41171   6.29185   2.73361 
 H                     0.10472   5.59174   2.09825 
 H                    -1.14421   6.18931   0.96915 
 Na                    1.53645   2.64922  -0.81642 
 O                     3.07186   4.33251  -1.04943 
 C                     3.17161   5.49674  -1.85396 
 H                     4.11777   5.5067   -2.41299 
 H                     2.33566   5.47852  -2.55692 
 H                     3.11213   6.40616  -1.24009 
 C                     4.11216   4.23197  -0.07869 
 H                     4.07858   5.08485   0.61285 
 H                     3.93353   3.29741   0.45971 
 H                     5.09507   4.20868  -0.56965 
 C                    -5.47956  -0.86779  -2.36629 
 F                    -6.03057   0.23948  -1.80744 
 F                    -6.34326  -1.88261  -2.15211 
 F                    -5.42508  -0.64805  -3.69595 
 C                    -2.60313  -3.08602   1.09258 
 F                    -1.59208  -2.71339   1.91275 
 F                    -2.32014  -4.34504   0.68361 
 F                    -3.72657  -3.15946   1.83998 
 
 Add virtual bond connecting atoms H37        and H10        Dist= 3.88D+00.
 Add virtual bond connecting atoms H37        and O19        Dist= 4.02D+00.
 Add virtual bond connecting atoms O52        and H37        Dist= 4.23D+00.
 Add virtual bond connecting atoms O53        and C34        Dist= 4.08D+00.
 Add virtual bond connecting atoms H60        and O42        Dist= 4.32D+00.
 Add virtual bond connecting atoms Na83       and O11        Dist= 4.48D+00.
 Add virtual bond connecting atoms Na83       and O19        Dist= 4.36D+00.
 Add virtual bond connecting atoms Na83       and H37        Dist= 4.49D+00.
 Add virtual bond connecting atoms Na83       and O52        Dist= 4.41D+00.
 Add virtual bond connecting atoms H91        and H18        Dist= 4.34D+00.
 The following ModRedundant input section has been read:
 
 ITRead=  0  0  0  0  0  0  0  0  0  0  0  0  0  0  0  0  0  0  0  0
 ITRead=  0  0  0  0  0  0  0  0  0  0  0  0  0  0  0  0  0  0  0  0
 ITRead=  0  0  0  0  0  0  0  0  0  0  0  0  0  0  0  0  0  0  0  0
 ITRead=  0  0  0  0  0  0  0  0  0  0  0  0  0  0  0  0  0  0  0  0
 ITRead=  0  0  0  0  0  0  0  0  0  0  0  0  0  0  0  0  0  0  0  0
 MicOpt= -1 -1 -1 -1 -1 -1 -1 -1 -1 -1 -1 -1 -1 -1 -1 -1 -1 -1 -1 -1
 MicOpt= -1 -1 -1 -1 -1 -1 -1 -1 -1 -1 -1 -1 -1 -1 -1 -1 -1 -1 -1 -1
 MicOpt= -1 -1 -1 -1 -1 -1 -1 -1 -1 -1 -1 -1 -1 -1 -1 -1 -1 -1 -1 -1
 MicOpt= -1 -1 -1 -1 -1 -1 -1 -1 -1 -1 -1 -1 -1 -1 -1 -1 -1 -1 -1 -1
 MicOpt= -1 -1 -1 -1 -1 -1 -1 -1 -1 -1 -1 -1 -1 -1 -1 -1 -1 -1 -1 -1
 NAtoms=    100 NQM=      100 NQMF=       0 NMMI=      0 NMMIF=      0
                NMic=       0 NMicF=      0.
                    Isotopes and Nuclear Properties:
 (Nuclear quadrupole moments (NQMom) in fm**2, nuclear magnetic moments (NMagM)
  in nuclear magnetons)

  Atom         1           2           3           4           5           6           7           8           9          10
 IAtWgt=          12          12          12          12          12           1           1           1           1           1
 AtmWgt=  12.0000000  12.0000000  12.0000000  12.0000000  12.0000000   1.0078250   1.0078250   1.0078250   1.0078250   1.0078250
 NucSpn=           0           0           0           0           0           1           1           1           1           1
 AtZEff=   0.0000000   0.0000000   0.0000000   0.0000000   0.0000000   0.0000000   0.0000000   0.0000000   0.0000000   0.0000000
 NQMom=    0.0000000   0.0000000   0.0000000   0.0000000   0.0000000   0.0000000   0.0000000   0.0000000   0.0000000   0.0000000
 NMagM=    0.0000000   0.0000000   0.0000000   0.0000000   0.0000000   2.7928460   2.7928460   2.7928460   2.7928460   2.7928460
 AtZNuc=   6.0000000   6.0000000   6.0000000   6.0000000   6.0000000   1.0000000   1.0000000   1.0000000   1.0000000   1.0000000

  Atom        11          12          13          14          15          16          17          18          19          20
 IAtWgt=          16          16          16          16          16          12           1           1          16          12
 AtmWgt=  15.9949146  15.9949146  15.9949146  15.9949146  15.9949146  12.0000000   1.0078250   1.0078250  15.9949146  12.0000000
 NucSpn=           0           0           0           0           0           0           1           1           0           0
 AtZEff=   0.0000000   0.0000000   0.0000000   0.0000000   0.0000000   0.0000000   0.0000000   0.0000000   0.0000000   0.0000000
 NQMom=    0.0000000   0.0000000   0.0000000   0.0000000   0.0000000   0.0000000   0.0000000   0.0000000   0.0000000   0.0000000
 NMagM=    0.0000000   0.0000000   0.0000000   0.0000000   0.0000000   0.0000000   2.7928460   2.7928460   0.0000000   0.0000000
 AtZNuc=   8.0000000   8.0000000   8.0000000   8.0000000   8.0000000   6.0000000   1.0000000   1.0000000   8.0000000   6.0000000

  Atom        21          22          23          24          25          26          27          28          29          30
 IAtWgt=           1           1           1          12           1           1           1          12           1           1
 AtmWgt=   1.0078250   1.0078250   1.0078250  12.0000000   1.0078250   1.0078250   1.0078250  12.0000000   1.0078250   1.0078250
 NucSpn=           1           1           1           0           1           1           1           0           1           1
 AtZEff=   0.0000000   0.0000000   0.0000000   0.0000000   0.0000000   0.0000000   0.0000000   0.0000000   0.0000000   0.0000000
 NQMom=    0.0000000   0.0000000   0.0000000   0.0000000   0.0000000   0.0000000   0.0000000   0.0000000   0.0000000   0.0000000
 NMagM=    2.7928460   2.7928460   2.7928460   0.0000000   2.7928460   2.7928460   2.7928460   0.0000000   2.7928460   2.7928460
 AtZNuc=   1.0000000   1.0000000   1.0000000   6.0000000   1.0000000   1.0000000   1.0000000   6.0000000   1.0000000   1.0000000

  Atom        31          32          33          34          35          36          37          38          39          40
 IAtWgt=           1          12          12          12          12          12           1           1           1           1
 AtmWgt=   1.0078250  12.0000000  12.0000000  12.0000000  12.0000000  12.0000000   1.0078250   1.0078250   1.0078250   1.0078250
 NucSpn=           1           0           0           0           0           0           1           1           1           1
 AtZEff=   0.0000000   0.0000000   0.0000000   0.0000000   0.0000000   0.0000000   0.0000000   0.0000000   0.0000000   0.0000000
 NQMom=    0.0000000   0.0000000   0.0000000   0.0000000   0.0000000   0.0000000   0.0000000   0.0000000   0.0000000   0.0000000
 NMagM=    2.7928460   0.0000000   0.0000000   0.0000000   0.0000000   0.0000000   2.7928460   2.7928460   2.7928460   2.7928460
 AtZNuc=   1.0000000   6.0000000   6.0000000   6.0000000   6.0000000   6.0000000   1.0000000   1.0000000   1.0000000   1.0000000

  Atom        41          42          43          44          45          46          47          48          49          50
 IAtWgt=           1          16          16          16          16          16          12           1           1          16
 AtmWgt=   1.0078250  15.9949146  15.9949146  15.9949146  15.9949146  15.9949146  12.0000000   1.0078250   1.0078250  15.9949146
 NucSpn=           1           0           0           0           0           0           0           1           1           0
 AtZEff=   0.0000000   0.0000000   0.0000000   0.0000000   0.0000000   0.0000000   0.0000000   0.0000000   0.0000000   0.0000000
 NQMom=    0.0000000   0.0000000   0.0000000   0.0000000   0.0000000   0.0000000   0.0000000   0.0000000   0.0000000   0.0000000
 NMagM=    2.7928460   0.0000000   0.0000000   0.0000000   0.0000000   0.0000000   0.0000000   2.7928460   2.7928460   0.0000000
 AtZNuc=   1.0000000   8.0000000   8.0000000   8.0000000   8.0000000   8.0000000   6.0000000   1.0000000   1.0000000   8.0000000

  Atom        51          52          53          54          55          56          57          58          59          60
 IAtWgt=          32          16          16          12          12          12          12           1          12           1
 AtmWgt=  31.9720718  15.9949146  15.9949146  12.0000000  12.0000000  12.0000000  12.0000000   1.0078250  12.0000000   1.0078250
 NucSpn=           0           0           0           0           0           0           0           1           0           1
 AtZEff=   0.0000000   0.0000000   0.0000000   0.0000000   0.0000000   0.0000000   0.0000000   0.0000000   0.0000000   0.0000000
 NQMom=    0.0000000   0.0000000   0.0000000   0.0000000   0.0000000   0.0000000   0.0000000   0.0000000   0.0000000   0.0000000
 NMagM=    0.0000000   0.0000000   0.0000000   0.0000000   0.0000000   0.0000000   0.0000000   2.7928460   0.0000000   2.7928460
 AtZNuc=  16.0000000   8.0000000   8.0000000   6.0000000   6.0000000   6.0000000   6.0000000   1.0000000   6.0000000   1.0000000

  Atom        61          62          63          64          65          66          67          68          69          70
 IAtWgt=          12           1          12           1           1           1          12           1           1           1
 AtmWgt=  12.0000000   1.0078250  12.0000000   1.0078250   1.0078250   1.0078250  12.0000000   1.0078250   1.0078250   1.0078250
 NucSpn=           0           1           0           1           1           1           0           1           1           1
 AtZEff=   0.0000000   0.0000000   0.0000000   0.0000000   0.0000000   0.0000000   0.0000000   0.0000000   0.0000000   0.0000000
 NQMom=    0.0000000   0.0000000   0.0000000   0.0000000   0.0000000   0.0000000   0.0000000   0.0000000   0.0000000   0.0000000
 NMagM=    0.0000000   2.7928460   0.0000000   2.7928460   2.7928460   2.7928460   0.0000000   2.7928460   2.7928460   2.7928460
 AtZNuc=   6.0000000   1.0000000   6.0000000   1.0000000   1.0000000   1.0000000   6.0000000   1.0000000   1.0000000   1.0000000

  Atom        71          72          73          74          75          76          77          78          79          80
 IAtWgt=          12           1           1           1          12           1           1           1          12           1
 AtmWgt=  12.0000000   1.0078250   1.0078250   1.0078250  12.0000000   1.0078250   1.0078250   1.0078250  12.0000000   1.0078250
 NucSpn=           0           1           1           1           0           1           1           1           0           1
 AtZEff=   0.0000000   0.0000000   0.0000000   0.0000000   0.0000000   0.0000000   0.0000000   0.0000000   0.0000000   0.0000000
 NQMom=    0.0000000   0.0000000   0.0000000   0.0000000   0.0000000   0.0000000   0.0000000   0.0000000   0.0000000   0.0000000
 NMagM=    0.0000000   2.7928460   2.7928460   2.7928460   0.0000000   2.7928460   2.7928460   2.7928460   0.0000000   2.7928460
 AtZNuc=   6.0000000   1.0000000   1.0000000   1.0000000   6.0000000   1.0000000   1.0000000   1.0000000   6.0000000   1.0000000

  Atom        81          82          83          84          85          86          87          88          89          90
 IAtWgt=           1           1          23          16          12           1           1           1          12           1
 AtmWgt=   1.0078250   1.0078250  22.9897697  15.9949146  12.0000000   1.0078250   1.0078250   1.0078250  12.0000000   1.0078250
 NucSpn=           1           1           3           0           0           1           1           1           0           1
 AtZEff=   0.0000000   0.0000000   0.0000000   0.0000000   0.0000000   0.0000000   0.0000000   0.0000000   0.0000000   0.0000000
 NQMom=    0.0000000   0.0000000  10.4000000   0.0000000   0.0000000   0.0000000   0.0000000   0.0000000   0.0000000   0.0000000
 NMagM=    2.7928460   2.7928460   2.2175200   0.0000000   0.0000000   2.7928460   2.7928460   2.7928460   0.0000000   2.7928460
 AtZNuc=   1.0000000   1.0000000  11.0000000   8.0000000   6.0000000   1.0000000   1.0000000   1.0000000   6.0000000   1.0000000

  Atom        91          92          93          94          95          96          97          98          99         100
 IAtWgt=           1           1          12          19          19          19          12          19          19          19
 AtmWgt=   1.0078250   1.0078250  12.0000000  18.9984033  18.9984033  18.9984033  12.0000000  18.9984033  18.9984033  18.9984033
 NucSpn=           1           1           0           1           1           1           0           1           1           1
 AtZEff=   0.0000000   0.0000000   0.0000000   0.0000000   0.0000000   0.0000000   0.0000000   0.0000000   0.0000000   0.0000000
 NQMom=    0.0000000   0.0000000   0.0000000   0.0000000   0.0000000   0.0000000   0.0000000   0.0000000   0.0000000   0.0000000
 NMagM=    2.7928460   2.7928460   0.0000000   2.6288670   2.6288670   2.6288670   0.0000000   2.6288670   2.6288670   2.6288670
 AtZNuc=   1.0000000   1.0000000   6.0000000   9.0000000   9.0000000   9.0000000   6.0000000   9.0000000   9.0000000   9.0000000
 Leave Link  101 at Thu May 23 02:10:52 2019, MaxMem=  6442450944 cpu:              18.9 elap:               0.7
 (Enter /home/ekwan/sw/g16/l103.exe)

 GradGradGradGradGradGradGradGradGradGradGradGradGradGradGradGradGradGrad
 Berny optimization.
 Initialization pass.
                           ----------------------------
                           !    Initial Parameters    !
                           ! (Angstroms and Degrees)  !
 --------------------------                            --------------------------
 ! Name  Definition              Value          Derivative Info.                !
 --------------------------------------------------------------------------------
 ! R1    R(1,2)                  1.5299         calculate D2E/DX2 analytically  !
 ! R2    R(1,5)                  1.5294         calculate D2E/DX2 analytically  !
 ! R3    R(1,8)                  1.0977         calculate D2E/DX2 analytically  !
 ! R4    R(1,14)                 1.4252         calculate D2E/DX2 analytically  !
 ! R5    R(2,3)                  1.5307         calculate D2E/DX2 analytically  !
 ! R6    R(2,7)                  1.0965         calculate D2E/DX2 analytically  !
 ! R7    R(2,13)                 1.4191         calculate D2E/DX2 analytically  !
 ! R8    R(3,6)                  1.0986         calculate D2E/DX2 analytically  !
 ! R9    R(3,11)                 1.4204         calculate D2E/DX2 analytically  !
 ! R10   R(3,12)                 1.3992         calculate D2E/DX2 analytically  !
 ! R11   R(4,5)                  1.5336         calculate D2E/DX2 analytically  !
 ! R12   R(4,9)                  1.0976         calculate D2E/DX2 analytically  !
 ! R13   R(4,11)                 1.4496         calculate D2E/DX2 analytically  !
 ! R14   R(4,16)                 1.5366         calculate D2E/DX2 analytically  !
 ! R15   R(5,10)                 1.0944         calculate D2E/DX2 analytically  !
 ! R16   R(5,15)                 1.4264         calculate D2E/DX2 analytically  !
 ! R17   R(10,37)                2.0515         calculate D2E/DX2 analytically  !
 ! R18   R(11,83)                2.3682         calculate D2E/DX2 analytically  !
 ! R19   R(12,79)                1.4234         calculate D2E/DX2 analytically  !
 ! R20   R(13,20)                1.4206         calculate D2E/DX2 analytically  !
 ! R21   R(14,24)                1.4206         calculate D2E/DX2 analytically  !
 ! R22   R(15,28)                1.4228         calculate D2E/DX2 analytically  !
 ! R23   R(16,17)                1.1101         calculate D2E/DX2 analytically  !
 ! R24   R(16,18)                1.1146         calculate D2E/DX2 analytically  !
 ! R25   R(16,19)                1.3756         calculate D2E/DX2 analytically  !
 ! R26   R(18,91)                2.297          calculate D2E/DX2 analytically  !
 ! R27   R(19,37)                2.1286         calculate D2E/DX2 analytically  !
 ! R28   R(19,83)                2.3062         calculate D2E/DX2 analytically  !
 ! R29   R(20,21)                1.0994         calculate D2E/DX2 analytically  !
 ! R30   R(20,22)                1.0939         calculate D2E/DX2 analytically  !
 ! R31   R(20,23)                1.0931         calculate D2E/DX2 analytically  !
 ! R32   R(24,25)                1.0948         calculate D2E/DX2 analytically  !
 ! R33   R(24,26)                1.0997         calculate D2E/DX2 analytically  !
 ! R34   R(24,27)                1.0911         calculate D2E/DX2 analytically  !
 ! R35   R(28,29)                1.0962         calculate D2E/DX2 analytically  !
 ! R36   R(28,30)                1.0946         calculate D2E/DX2 analytically  !
 ! R37   R(28,31)                1.0934         calculate D2E/DX2 analytically  !
 ! R38   R(32,33)                1.5315         calculate D2E/DX2 analytically  !
 ! R39   R(32,36)                1.5332         calculate D2E/DX2 analytically  !
 ! R40   R(32,39)                1.0963         calculate D2E/DX2 analytically  !
 ! R41   R(32,45)                1.4172         calculate D2E/DX2 analytically  !
 ! R42   R(33,34)                1.4984         calculate D2E/DX2 analytically  !
 ! R43   R(33,38)                1.1021         calculate D2E/DX2 analytically  !
 ! R44   R(33,44)                1.4131         calculate D2E/DX2 analytically  !
 ! R45   R(34,37)                1.071          calculate D2E/DX2 analytically  !
 ! R46   R(34,42)                1.2899         calculate D2E/DX2 analytically  !
 ! R47   R(34,53)                2.1616         calculate D2E/DX2 analytically  !
 ! R48   R(35,36)                1.528          calculate D2E/DX2 analytically  !
 ! R49   R(35,40)                1.0938         calculate D2E/DX2 analytically  !
 ! R50   R(35,42)                1.4709         calculate D2E/DX2 analytically  !
 ! R51   R(35,47)                1.5116         calculate D2E/DX2 analytically  !
 ! R52   R(36,41)                1.0951         calculate D2E/DX2 analytically  !
 ! R53   R(36,46)                1.4172         calculate D2E/DX2 analytically  !
 ! R54   R(37,52)                2.2385         calculate D2E/DX2 analytically  !
 ! R55   R(37,83)                2.3756         calculate D2E/DX2 analytically  !
 ! R56   R(42,60)                2.2877         calculate D2E/DX2 analytically  !
 ! R57   R(43,51)                1.4731         calculate D2E/DX2 analytically  !
 ! R58   R(44,63)                1.4321         calculate D2E/DX2 analytically  !
 ! R59   R(45,67)                1.4246         calculate D2E/DX2 analytically  !
 ! R60   R(46,71)                1.4263         calculate D2E/DX2 analytically  !
 ! R61   R(47,48)                1.0998         calculate D2E/DX2 analytically  !
 ! R62   R(47,49)                1.1001         calculate D2E/DX2 analytically  !
 ! R63   R(47,50)                1.4116         calculate D2E/DX2 analytically  !
 ! R64   R(50,75)                1.4193         calculate D2E/DX2 analytically  !
 ! R65   R(51,52)                1.4967         calculate D2E/DX2 analytically  !
 ! R66   R(51,53)                1.5123         calculate D2E/DX2 analytically  !
 ! R67   R(51,54)                1.7991         calculate D2E/DX2 analytically  !
 ! R68   R(52,83)                2.3321         calculate D2E/DX2 analytically  !
 ! R69   R(54,55)                1.3921         calculate D2E/DX2 analytically  !
 ! R70   R(54,56)                1.3914         calculate D2E/DX2 analytically  !
 ! R71   R(55,57)                1.3951         calculate D2E/DX2 analytically  !
 ! R72   R(55,58)                1.0836         calculate D2E/DX2 analytically  !
 ! R73   R(56,59)                1.3926         calculate D2E/DX2 analytically  !
 ! R74   R(56,60)                1.0814         calculate D2E/DX2 analytically  !
 ! R75   R(57,61)                1.3954         calculate D2E/DX2 analytically  !
 ! R76   R(57,93)                1.5035         calculate D2E/DX2 analytically  !
 ! R77   R(59,61)                1.3932         calculate D2E/DX2 analytically  !
 ! R78   R(59,97)                1.5026         calculate D2E/DX2 analytically  !
 ! R79   R(61,62)                1.0831         calculate D2E/DX2 analytically  !
 ! R80   R(63,64)                1.0951         calculate D2E/DX2 analytically  !
 ! R81   R(63,65)                1.0926         calculate D2E/DX2 analytically  !
 ! R82   R(63,66)                1.0911         calculate D2E/DX2 analytically  !
 ! R83   R(67,68)                1.0946         calculate D2E/DX2 analytically  !
 ! R84   R(67,69)                1.099          calculate D2E/DX2 analytically  !
 ! R85   R(67,70)                1.0924         calculate D2E/DX2 analytically  !
 ! R86   R(71,72)                1.0967         calculate D2E/DX2 analytically  !
 ! R87   R(71,73)                1.0973         calculate D2E/DX2 analytically  !
 ! R88   R(71,74)                1.092          calculate D2E/DX2 analytically  !
 ! R89   R(75,76)                1.0917         calculate D2E/DX2 analytically  !
 ! R90   R(75,77)                1.0992         calculate D2E/DX2 analytically  !
 ! R91   R(75,78)                1.0995         calculate D2E/DX2 analytically  !
 ! R92   R(79,80)                1.0917         calculate D2E/DX2 analytically  !
 ! R93   R(79,81)                1.0961         calculate D2E/DX2 analytically  !
 ! R94   R(79,82)                1.0995         calculate D2E/DX2 analytically  !
 ! R95   R(83,84)                2.2903         calculate D2E/DX2 analytically  !
 ! R96   R(84,85)                1.4187         calculate D2E/DX2 analytically  !
 ! R97   R(84,89)                1.4264         calculate D2E/DX2 analytically  !
 ! R98   R(85,86)                1.099          calculate D2E/DX2 analytically  !
 ! R99   R(85,87)                1.0924         calculate D2E/DX2 analytically  !
 ! R100  R(85,88)                1.0988         calculate D2E/DX2 analytically  !
 ! R101  R(89,90)                1.0985         calculate D2E/DX2 analytically  !
 ! R102  R(89,91)                1.0932         calculate D2E/DX2 analytically  !
 ! R103  R(89,92)                1.099          calculate D2E/DX2 analytically  !
 ! R104  R(93,94)                1.3572         calculate D2E/DX2 analytically  !
 ! R105  R(93,95)                1.3497         calculate D2E/DX2 analytically  !
 ! R106  R(93,96)                1.3488         calculate D2E/DX2 analytically  !
 ! R107  R(97,98)                1.3542         calculate D2E/DX2 analytically  !
 ! R108  R(97,99)                1.3537         calculate D2E/DX2 analytically  !
 ! R109  R(97,100)               1.3513         calculate D2E/DX2 analytically  !
 ! A1    A(2,1,5)              110.1381         calculate D2E/DX2 analytically  !
 ! A2    A(2,1,8)              108.4956         calculate D2E/DX2 analytically  !
 ! A3    A(2,1,14)             108.0222         calculate D2E/DX2 analytically  !
 ! A4    A(5,1,8)              109.382          calculate D2E/DX2 analytically  !
 ! A5    A(5,1,14)             110.8342         calculate D2E/DX2 analytically  !
 ! A6    A(8,1,14)             109.9271         calculate D2E/DX2 analytically  !
 ! A7    A(1,2,3)              110.5303         calculate D2E/DX2 analytically  !
 ! A8    A(1,2,7)              108.8283         calculate D2E/DX2 analytically  !
 ! A9    A(1,2,13)             111.796          calculate D2E/DX2 analytically  !
 ! A10   A(3,2,7)              106.4775         calculate D2E/DX2 analytically  !
 ! A11   A(3,2,13)             108.4942         calculate D2E/DX2 analytically  !
 ! A12   A(7,2,13)             110.5816         calculate D2E/DX2 analytically  !
 ! A13   A(2,3,6)              110.3677         calculate D2E/DX2 analytically  !
 ! A14   A(2,3,11)             110.2811         calculate D2E/DX2 analytically  !
 ! A15   A(2,3,12)             108.8016         calculate D2E/DX2 analytically  !
 ! A16   A(6,3,11)             104.8656         calculate D2E/DX2 analytically  !
 ! A17   A(6,3,12)             110.4053         calculate D2E/DX2 analytically  !
 ! A18   A(11,3,12)            112.086          calculate D2E/DX2 analytically  !
 ! A19   A(5,4,9)              108.0486         calculate D2E/DX2 analytically  !
 ! A20   A(5,4,11)             109.6206         calculate D2E/DX2 analytically  !
 ! A21   A(5,4,16)             114.3057         calculate D2E/DX2 analytically  !
 ! A22   A(9,4,11)             108.7426         calculate D2E/DX2 analytically  !
 ! A23   A(9,4,16)             109.2535         calculate D2E/DX2 analytically  !
 ! A24   A(11,4,16)            106.7577         calculate D2E/DX2 analytically  !
 ! A25   A(1,5,4)              111.619          calculate D2E/DX2 analytically  !
 ! A26   A(1,5,10)             107.4066         calculate D2E/DX2 analytically  !
 ! A27   A(1,5,15)             109.3176         calculate D2E/DX2 analytically  !
 ! A28   A(4,5,10)             109.5694         calculate D2E/DX2 analytically  !
 ! A29   A(4,5,15)             109.0152         calculate D2E/DX2 analytically  !
 ! A30   A(10,5,15)            109.8936         calculate D2E/DX2 analytically  !
 ! A31   A(5,10,37)            141.9548         calculate D2E/DX2 analytically  !
 ! A32   A(3,11,4)             114.3295         calculate D2E/DX2 analytically  !
 ! A33   A(3,11,83)            126.3905         calculate D2E/DX2 analytically  !
 ! A34   A(4,11,83)            111.9049         calculate D2E/DX2 analytically  !
 ! A35   A(3,12,79)            113.2808         calculate D2E/DX2 analytically  !
 ! A36   A(2,13,20)            113.7677         calculate D2E/DX2 analytically  !
 ! A37   A(1,14,24)            114.1992         calculate D2E/DX2 analytically  !
 ! A38   A(5,15,28)            113.7109         calculate D2E/DX2 analytically  !
 ! A39   A(4,16,17)            105.5467         calculate D2E/DX2 analytically  !
 ! A40   A(4,16,18)            105.1908         calculate D2E/DX2 analytically  !
 ! A41   A(4,16,19)            114.4431         calculate D2E/DX2 analytically  !
 ! A42   A(17,16,18)           105.0315         calculate D2E/DX2 analytically  !
 ! A43   A(17,16,19)           113.938          calculate D2E/DX2 analytically  !
 ! A44   A(18,16,19)           111.8368         calculate D2E/DX2 analytically  !
 ! A45   A(16,18,91)           101.4921         calculate D2E/DX2 analytically  !
 ! A46   A(16,19,37)           122.4287         calculate D2E/DX2 analytically  !
 ! A47   A(16,19,83)           108.0623         calculate D2E/DX2 analytically  !
 ! A48   A(13,20,21)           111.3363         calculate D2E/DX2 analytically  !
 ! A49   A(13,20,22)           111.5011         calculate D2E/DX2 analytically  !
 ! A50   A(13,20,23)           106.829          calculate D2E/DX2 analytically  !
 ! A51   A(21,20,22)           108.8172         calculate D2E/DX2 analytically  !
 ! A52   A(21,20,23)           108.7152         calculate D2E/DX2 analytically  !
 ! A53   A(22,20,23)           109.5827         calculate D2E/DX2 analytically  !
 ! A54   A(14,24,25)           111.5007         calculate D2E/DX2 analytically  !
 ! A55   A(14,24,26)           110.9758         calculate D2E/DX2 analytically  !
 ! A56   A(14,24,27)           106.6261         calculate D2E/DX2 analytically  !
 ! A57   A(25,24,26)           108.9818         calculate D2E/DX2 analytically  !
 ! A58   A(25,24,27)           109.6287         calculate D2E/DX2 analytically  !
 ! A59   A(26,24,27)           109.0762         calculate D2E/DX2 analytically  !
 ! A60   A(15,28,29)           110.8893         calculate D2E/DX2 analytically  !
 ! A61   A(15,28,30)           111.9297         calculate D2E/DX2 analytically  !
 ! A62   A(15,28,31)           106.7612         calculate D2E/DX2 analytically  !
 ! A63   A(29,28,30)           108.6289         calculate D2E/DX2 analytically  !
 ! A64   A(29,28,31)           109.2281         calculate D2E/DX2 analytically  !
 ! A65   A(30,28,31)           109.3568         calculate D2E/DX2 analytically  !
 ! A66   A(33,32,36)           108.1129         calculate D2E/DX2 analytically  !
 ! A67   A(33,32,39)           109.3672         calculate D2E/DX2 analytically  !
 ! A68   A(33,32,45)           108.5948         calculate D2E/DX2 analytically  !
 ! A69   A(36,32,39)           110.2973         calculate D2E/DX2 analytically  !
 ! A70   A(36,32,45)           109.3443         calculate D2E/DX2 analytically  !
 ! A71   A(39,32,45)           111.0575         calculate D2E/DX2 analytically  !
 ! A72   A(32,33,34)           111.6423         calculate D2E/DX2 analytically  !
 ! A73   A(32,33,38)           109.09           calculate D2E/DX2 analytically  !
 ! A74   A(32,33,44)           116.0295         calculate D2E/DX2 analytically  !
 ! A75   A(34,33,38)           102.7263         calculate D2E/DX2 analytically  !
 ! A76   A(34,33,44)           107.809          calculate D2E/DX2 analytically  !
 ! A77   A(38,33,44)           108.6826         calculate D2E/DX2 analytically  !
 ! A78   A(33,34,37)           120.6624         calculate D2E/DX2 analytically  !
 ! A79   A(33,34,42)           123.0439         calculate D2E/DX2 analytically  !
 ! A80   A(33,34,53)            96.1577         calculate D2E/DX2 analytically  !
 ! A81   A(37,34,42)           114.4673         calculate D2E/DX2 analytically  !
 ! A82   A(37,34,53)            88.377          calculate D2E/DX2 analytically  !
 ! A83   A(42,34,53)            98.6216         calculate D2E/DX2 analytically  !
 ! A84   A(36,35,40)           109.6436         calculate D2E/DX2 analytically  !
 ! A85   A(36,35,42)           110.982          calculate D2E/DX2 analytically  !
 ! A86   A(36,35,47)           115.1013         calculate D2E/DX2 analytically  !
 ! A87   A(40,35,42)           104.8303         calculate D2E/DX2 analytically  !
 ! A88   A(40,35,47)           109.4842         calculate D2E/DX2 analytically  !
 ! A89   A(42,35,47)           106.2639         calculate D2E/DX2 analytically  !
 ! A90   A(32,36,35)           111.2604         calculate D2E/DX2 analytically  !
 ! A91   A(32,36,41)           108.3518         calculate D2E/DX2 analytically  !
 ! A92   A(32,36,46)           110.406          calculate D2E/DX2 analytically  !
 ! A93   A(35,36,41)           109.0613         calculate D2E/DX2 analytically  !
 ! A94   A(35,36,46)           107.0481         calculate D2E/DX2 analytically  !
 ! A95   A(41,36,46)           110.716          calculate D2E/DX2 analytically  !
 ! A96   A(10,37,19)            82.9497         calculate D2E/DX2 analytically  !
 ! A97   A(10,37,34)           121.2572         calculate D2E/DX2 analytically  !
 ! A98   A(10,37,52)            99.6277         calculate D2E/DX2 analytically  !
 ! A99   A(10,37,83)           104.8538         calculate D2E/DX2 analytically  !
 ! A100  A(19,37,34)            96.4107         calculate D2E/DX2 analytically  !
 ! A101  A(19,37,52)           120.4123         calculate D2E/DX2 analytically  !
 ! A102  A(34,37,52)           128.3189         calculate D2E/DX2 analytically  !
 ! A103  A(34,37,83)           126.1382         calculate D2E/DX2 analytically  !
 ! A104  A(34,42,35)           120.9875         calculate D2E/DX2 analytically  !
 ! A105  A(34,42,60)           100.2518         calculate D2E/DX2 analytically  !
 ! A106  A(35,42,60)           107.5286         calculate D2E/DX2 analytically  !
 ! A107  A(33,44,63)           114.7675         calculate D2E/DX2 analytically  !
 ! A108  A(32,45,67)           114.0737         calculate D2E/DX2 analytically  !
 ! A109  A(36,46,71)           113.7298         calculate D2E/DX2 analytically  !
 ! A110  A(35,47,48)           108.1179         calculate D2E/DX2 analytically  !
 ! A111  A(35,47,49)           109.1307         calculate D2E/DX2 analytically  !
 ! A112  A(35,47,50)           108.9018         calculate D2E/DX2 analytically  !
 ! A113  A(48,47,49)           108.0817         calculate D2E/DX2 analytically  !
 ! A114  A(48,47,50)           111.4368         calculate D2E/DX2 analytically  !
 ! A115  A(49,47,50)           111.1008         calculate D2E/DX2 analytically  !
 ! A116  A(47,50,75)           112.3215         calculate D2E/DX2 analytically  !
 ! A117  A(43,51,52)           114.6851         calculate D2E/DX2 analytically  !
 ! A118  A(43,51,53)           113.6037         calculate D2E/DX2 analytically  !
 ! A119  A(43,51,54)           107.0293         calculate D2E/DX2 analytically  !
 ! A120  A(52,51,53)           111.7644         calculate D2E/DX2 analytically  !
 ! A121  A(52,51,54)           104.7919         calculate D2E/DX2 analytically  !
 ! A122  A(53,51,54)           103.8189         calculate D2E/DX2 analytically  !
 ! A123  A(37,52,51)            92.3878         calculate D2E/DX2 analytically  !
 ! A124  A(51,52,83)           136.9501         calculate D2E/DX2 analytically  !
 ! A125  A(34,53,51)           113.122          calculate D2E/DX2 analytically  !
 ! A126  A(51,54,55)           119.7641         calculate D2E/DX2 analytically  !
 ! A127  A(51,54,56)           119.1662         calculate D2E/DX2 analytically  !
 ! A128  A(55,54,56)           121.0385         calculate D2E/DX2 analytically  !
 ! A129  A(54,55,57)           118.973          calculate D2E/DX2 analytically  !
 ! A130  A(54,55,58)           120.0569         calculate D2E/DX2 analytically  !
 ! A131  A(57,55,58)           120.967          calculate D2E/DX2 analytically  !
 ! A132  A(54,56,59)           119.2887         calculate D2E/DX2 analytically  !
 ! A133  A(54,56,60)           120.479          calculate D2E/DX2 analytically  !
 ! A134  A(59,56,60)           120.2323         calculate D2E/DX2 analytically  !
 ! A135  A(55,57,61)           120.7706         calculate D2E/DX2 analytically  !
 ! A136  A(55,57,93)           119.5892         calculate D2E/DX2 analytically  !
 ! A137  A(61,57,93)           119.5656         calculate D2E/DX2 analytically  !
 ! A138  A(56,59,61)           120.6449         calculate D2E/DX2 analytically  !
 ! A139  A(56,59,97)           119.0528         calculate D2E/DX2 analytically  !
 ! A140  A(61,59,97)           120.1864         calculate D2E/DX2 analytically  !
 ! A141  A(42,60,56)           162.5463         calculate D2E/DX2 analytically  !
 ! A142  A(57,61,59)           119.278          calculate D2E/DX2 analytically  !
 ! A143  A(57,61,62)           120.2934         calculate D2E/DX2 analytically  !
 ! A144  A(59,61,62)           120.4286         calculate D2E/DX2 analytically  !
 ! A145  A(44,63,64)           110.848          calculate D2E/DX2 analytically  !
 ! A146  A(44,63,65)           111.1238         calculate D2E/DX2 analytically  !
 ! A147  A(44,63,66)           106.1702         calculate D2E/DX2 analytically  !
 ! A148  A(64,63,65)           109.2048         calculate D2E/DX2 analytically  !
 ! A149  A(64,63,66)           109.2907         calculate D2E/DX2 analytically  !
 ! A150  A(65,63,66)           110.1577         calculate D2E/DX2 analytically  !
 ! A151  A(45,67,68)           111.3584         calculate D2E/DX2 analytically  !
 ! A152  A(45,67,69)           111.0076         calculate D2E/DX2 analytically  !
 ! A153  A(45,67,70)           106.4565         calculate D2E/DX2 analytically  !
 ! A154  A(68,67,69)           109.2405         calculate D2E/DX2 analytically  !
 ! A155  A(68,67,70)           109.6342         calculate D2E/DX2 analytically  !
 ! A156  A(69,67,70)           109.0834         calculate D2E/DX2 analytically  !
 ! A157  A(46,71,72)           110.9132         calculate D2E/DX2 analytically  !
 ! A158  A(46,71,73)           111.1181         calculate D2E/DX2 analytically  !
 ! A159  A(46,71,74)           106.5371         calculate D2E/DX2 analytically  !
 ! A160  A(72,71,73)           109.2394         calculate D2E/DX2 analytically  !
 ! A161  A(72,71,74)           109.4778         calculate D2E/DX2 analytically  !
 ! A162  A(73,71,74)           109.5075         calculate D2E/DX2 analytically  !
 ! A163  A(50,75,76)           106.9305         calculate D2E/DX2 analytically  !
 ! A164  A(50,75,77)           111.1339         calculate D2E/DX2 analytically  !
 ! A165  A(50,75,78)           111.2741         calculate D2E/DX2 analytically  !
 ! A166  A(76,75,77)           109.2895         calculate D2E/DX2 analytically  !
 ! A167  A(76,75,78)           109.3712         calculate D2E/DX2 analytically  !
 ! A168  A(77,75,78)           108.8011         calculate D2E/DX2 analytically  !
 ! A169  A(12,79,80)           106.7466         calculate D2E/DX2 analytically  !
 ! A170  A(12,79,81)           111.4845         calculate D2E/DX2 analytically  !
 ! A171  A(12,79,82)           110.7815         calculate D2E/DX2 analytically  !
 ! A172  A(80,79,81)           109.5389         calculate D2E/DX2 analytically  !
 ! A173  A(80,79,82)           109.3307         calculate D2E/DX2 analytically  !
 ! A174  A(81,79,82)           108.918          calculate D2E/DX2 analytically  !
 ! A175  A(11,83,19)            74.1694         calculate D2E/DX2 analytically  !
 ! A176  A(11,83,37)            85.1648         calculate D2E/DX2 analytically  !
 ! A177  A(11,83,52)            89.0555         calculate D2E/DX2 analytically  !
 ! A178  A(11,83,84)           107.3684         calculate D2E/DX2 analytically  !
 ! A179  A(19,83,52)           109.5993         calculate D2E/DX2 analytically  !
 ! A180  A(19,83,84)            98.1318         calculate D2E/DX2 analytically  !
 ! A181  A(37,83,84)           146.0099         calculate D2E/DX2 analytically  !
 ! A182  A(52,83,84)           150.8882         calculate D2E/DX2 analytically  !
 ! A183  A(83,84,85)           135.0716         calculate D2E/DX2 analytically  !
 ! A184  A(83,84,89)           111.5856         calculate D2E/DX2 analytically  !
 ! A185  A(85,84,89)           113.1105         calculate D2E/DX2 analytically  !
 ! A186  A(84,85,86)           110.8812         calculate D2E/DX2 analytically  !
 ! A187  A(84,85,87)           107.3042         calculate D2E/DX2 analytically  !
 ! A188  A(84,85,88)           111.0119         calculate D2E/DX2 analytically  !
 ! A189  A(86,85,87)           109.3686         calculate D2E/DX2 analytically  !
 ! A190  A(86,85,88)           108.8611         calculate D2E/DX2 analytically  !
 ! A191  A(87,85,88)           109.3829         calculate D2E/DX2 analytically  !
 ! A192  A(84,89,90)           110.5724         calculate D2E/DX2 analytically  !
 ! A193  A(84,89,91)           106.0359         calculate D2E/DX2 analytically  !
 ! A194  A(84,89,92)           110.4721         calculate D2E/DX2 analytically  !
 ! A195  A(90,89,91)           110.4065         calculate D2E/DX2 analytically  !
 ! A196  A(90,89,92)           108.9676         calculate D2E/DX2 analytically  !
 ! A197  A(91,89,92)           110.3681         calculate D2E/DX2 analytically  !
 ! A198  A(18,91,89)           118.4123         calculate D2E/DX2 analytically  !
 ! A199  A(57,93,94)           111.2965         calculate D2E/DX2 analytically  !
 ! A200  A(57,93,95)           111.9727         calculate D2E/DX2 analytically  !
 ! A201  A(57,93,96)           111.9497         calculate D2E/DX2 analytically  !
 ! A202  A(94,93,95)           106.7551         calculate D2E/DX2 analytically  !
 ! A203  A(94,93,96)           106.8229         calculate D2E/DX2 analytically  !
 ! A204  A(95,93,96)           107.7444         calculate D2E/DX2 analytically  !
 ! A205  A(59,97,98)           112.1507         calculate D2E/DX2 analytically  !
 ! A206  A(59,97,99)           111.3914         calculate D2E/DX2 analytically  !
 ! A207  A(59,97,100)          112.1537         calculate D2E/DX2 analytically  !
 ! A208  A(98,97,99)           106.4291         calculate D2E/DX2 analytically  !
 ! A209  A(98,97,100)          107.4988         calculate D2E/DX2 analytically  !
 ! A210  A(99,97,100)          106.878          calculate D2E/DX2 analytically  !
 ! D1    D(5,1,2,3)            -52.6451         calculate D2E/DX2 analytically  !
 ! D2    D(5,1,2,7)             63.9505         calculate D2E/DX2 analytically  !
 ! D3    D(5,1,2,13)          -173.6129         calculate D2E/DX2 analytically  !
 ! D4    D(8,1,2,3)             67.0504         calculate D2E/DX2 analytically  !
 ! D5    D(8,1,2,7)           -176.3539         calculate D2E/DX2 analytically  !
 ! D6    D(8,1,2,13)           -53.9173         calculate D2E/DX2 analytically  !
 ! D7    D(14,1,2,3)          -173.8216         calculate D2E/DX2 analytically  !
 ! D8    D(14,1,2,7)           -57.226          calculate D2E/DX2 analytically  !
 ! D9    D(14,1,2,13)           65.2107         calculate D2E/DX2 analytically  !
 ! D10   D(2,1,5,4)             52.0416         calculate D2E/DX2 analytically  !
 ! D11   D(2,1,5,10)           -68.0796         calculate D2E/DX2 analytically  !
 ! D12   D(2,1,5,15)           172.7259         calculate D2E/DX2 analytically  !
 ! D13   D(8,1,5,4)            -67.1147         calculate D2E/DX2 analytically  !
 ! D14   D(8,1,5,10)           172.7641         calculate D2E/DX2 analytically  !
 ! D15   D(8,1,5,15)            53.5695         calculate D2E/DX2 analytically  !
 ! D16   D(14,1,5,4)           171.5225         calculate D2E/DX2 analytically  !
 ! D17   D(14,1,5,10)           51.4013         calculate D2E/DX2 analytically  !
 ! D18   D(14,1,5,15)          -67.7932         calculate D2E/DX2 analytically  !
 ! D19   D(2,1,14,24)         -142.1712         calculate D2E/DX2 analytically  !
 ! D20   D(5,1,14,24)           97.0859         calculate D2E/DX2 analytically  !
 ! D21   D(8,1,14,24)          -23.9555         calculate D2E/DX2 analytically  !
 ! D22   D(1,2,3,6)            171.7016         calculate D2E/DX2 analytically  !
 ! D23   D(1,2,3,11)            56.3012         calculate D2E/DX2 analytically  !
 ! D24   D(1,2,3,12)           -67.0149         calculate D2E/DX2 analytically  !
 ! D25   D(7,2,3,6)             53.6576         calculate D2E/DX2 analytically  !
 ! D26   D(7,2,3,11)           -61.7428         calculate D2E/DX2 analytically  !
 ! D27   D(7,2,3,12)           174.9411         calculate D2E/DX2 analytically  !
 ! D28   D(13,2,3,6)           -65.3874         calculate D2E/DX2 analytically  !
 ! D29   D(13,2,3,11)          179.2122         calculate D2E/DX2 analytically  !
 ! D30   D(13,2,3,12)           55.8962         calculate D2E/DX2 analytically  !
 ! D31   D(1,2,13,20)          -98.3242         calculate D2E/DX2 analytically  !
 ! D32   D(3,2,13,20)          139.5331         calculate D2E/DX2 analytically  !
 ! D33   D(7,2,13,20)           23.1048         calculate D2E/DX2 analytically  !
 ! D34   D(2,3,11,4)           -60.7675         calculate D2E/DX2 analytically  !
 ! D35   D(2,3,11,83)           86.5675         calculate D2E/DX2 analytically  !
 ! D36   D(6,3,11,4)          -179.5826         calculate D2E/DX2 analytically  !
 ! D37   D(6,3,11,83)          -32.2477         calculate D2E/DX2 analytically  !
 ! D38   D(12,3,11,4)           60.6152         calculate D2E/DX2 analytically  !
 ! D39   D(12,3,11,83)        -152.0498         calculate D2E/DX2 analytically  !
 ! D40   D(2,3,12,79)         -173.3031         calculate D2E/DX2 analytically  !
 ! D41   D(6,3,12,79)          -52.0426         calculate D2E/DX2 analytically  !
 ! D42   D(11,3,12,79)          64.4675         calculate D2E/DX2 analytically  !
 ! D43   D(9,4,5,1)             64.6994         calculate D2E/DX2 analytically  !
 ! D44   D(9,4,5,10)          -176.4585         calculate D2E/DX2 analytically  !
 ! D45   D(9,4,5,15)           -56.1613         calculate D2E/DX2 analytically  !
 ! D46   D(11,4,5,1)           -53.6561         calculate D2E/DX2 analytically  !
 ! D47   D(11,4,5,10)           65.1859         calculate D2E/DX2 analytically  !
 ! D48   D(11,4,5,15)         -174.5168         calculate D2E/DX2 analytically  !
 ! D49   D(16,4,5,1)          -173.4495         calculate D2E/DX2 analytically  !
 ! D50   D(16,4,5,10)          -54.6075         calculate D2E/DX2 analytically  !
 ! D51   D(16,4,5,15)           65.6898         calculate D2E/DX2 analytically  !
 ! D52   D(5,4,11,3)            59.1231         calculate D2E/DX2 analytically  !
 ! D53   D(5,4,11,83)          -92.9539         calculate D2E/DX2 analytically  !
 ! D54   D(9,4,11,3)           -58.8009         calculate D2E/DX2 analytically  !
 ! D55   D(9,4,11,83)          149.122          calculate D2E/DX2 analytically  !
 ! D56   D(16,4,11,3)         -176.5647         calculate D2E/DX2 analytically  !
 ! D57   D(16,4,11,83)          31.3583         calculate D2E/DX2 analytically  !
 ! D58   D(5,4,16,17)          -61.241          calculate D2E/DX2 analytically  !
 ! D59   D(5,4,16,18)         -172.0028         calculate D2E/DX2 analytically  !
 ! D60   D(5,4,16,19)           64.85           calculate D2E/DX2 analytically  !
 ! D61   D(9,4,16,17)           59.9469         calculate D2E/DX2 analytically  !
 ! D62   D(9,4,16,18)          -50.8149         calculate D2E/DX2 analytically  !
 ! D63   D(9,4,16,19)         -173.962          calculate D2E/DX2 analytically  !
 ! D64   D(11,4,16,17)         177.3741         calculate D2E/DX2 analytically  !
 ! D65   D(11,4,16,18)          66.6124         calculate D2E/DX2 analytically  !
 ! D66   D(11,4,16,19)         -56.5348         calculate D2E/DX2 analytically  !
 ! D67   D(1,5,10,37)          120.9089         calculate D2E/DX2 analytically  !
 ! D68   D(4,5,10,37)           -0.5061         calculate D2E/DX2 analytically  !
 ! D69   D(15,5,10,37)        -120.2666         calculate D2E/DX2 analytically  !
 ! D70   D(1,5,15,28)          130.1314         calculate D2E/DX2 analytically  !
 ! D71   D(4,5,15,28)         -107.6093         calculate D2E/DX2 analytically  !
 ! D72   D(10,5,15,28)          12.4882         calculate D2E/DX2 analytically  !
 ! D73   D(5,10,37,19)          31.6605         calculate D2E/DX2 analytically  !
 ! D74   D(5,10,37,34)         124.9017         calculate D2E/DX2 analytically  !
 ! D75   D(5,10,37,52)         -88.1005         calculate D2E/DX2 analytically  !
 ! D76   D(5,10,37,83)         -26.1084         calculate D2E/DX2 analytically  !
 ! D77   D(3,11,83,19)        -154.7405         calculate D2E/DX2 analytically  !
 ! D78   D(3,11,83,37)        -100.7746         calculate D2E/DX2 analytically  !
 ! D79   D(3,11,83,52)         -44.0459         calculate D2E/DX2 analytically  !
 ! D80   D(3,11,83,84)         111.5117         calculate D2E/DX2 analytically  !
 ! D81   D(4,11,83,19)          -6.7502         calculate D2E/DX2 analytically  !
 ! D82   D(4,11,83,37)          47.2157         calculate D2E/DX2 analytically  !
 ! D83   D(4,11,83,52)         103.9444         calculate D2E/DX2 analytically  !
 ! D84   D(4,11,83,84)        -100.498          calculate D2E/DX2 analytically  !
 ! D85   D(3,12,79,80)         175.0904         calculate D2E/DX2 analytically  !
 ! D86   D(3,12,79,81)         -65.3208         calculate D2E/DX2 analytically  !
 ! D87   D(3,12,79,82)          56.1483         calculate D2E/DX2 analytically  !
 ! D88   D(2,13,20,21)         -61.521          calculate D2E/DX2 analytically  !
 ! D89   D(2,13,20,22)          60.2186         calculate D2E/DX2 analytically  !
 ! D90   D(2,13,20,23)         179.9218         calculate D2E/DX2 analytically  !
 ! D91   D(1,14,24,25)         -61.708          calculate D2E/DX2 analytically  !
 ! D92   D(1,14,24,26)          59.9891         calculate D2E/DX2 analytically  !
 ! D93   D(1,14,24,27)         178.6597         calculate D2E/DX2 analytically  !
 ! D94   D(5,15,28,29)         -66.2748         calculate D2E/DX2 analytically  !
 ! D95   D(5,15,28,30)          55.2073         calculate D2E/DX2 analytically  !
 ! D96   D(5,15,28,31)         174.8383         calculate D2E/DX2 analytically  !
 ! D97   D(4,16,18,91)        -130.2988         calculate D2E/DX2 analytically  !
 ! D98   D(17,16,18,91)        118.5715         calculate D2E/DX2 analytically  !
 ! D99   D(19,16,18,91)         -5.4985         calculate D2E/DX2 analytically  !
 ! D100  D(4,16,19,37)         -20.7379         calculate D2E/DX2 analytically  !
 ! D101  D(4,16,19,83)          50.1971         calculate D2E/DX2 analytically  !
 ! D102  D(17,16,19,37)        100.8561         calculate D2E/DX2 analytically  !
 ! D103  D(17,16,19,83)        171.7911         calculate D2E/DX2 analytically  !
 ! D104  D(18,16,19,37)       -140.2243         calculate D2E/DX2 analytically  !
 ! D105  D(18,16,19,83)        -69.2894         calculate D2E/DX2 analytically  !
 ! D106  D(16,18,91,89)        146.8012         calculate D2E/DX2 analytically  !
 ! D107  D(16,19,37,10)        -15.1876         calculate D2E/DX2 analytically  !
 ! D108  D(16,19,37,34)       -135.9999         calculate D2E/DX2 analytically  !
 ! D109  D(16,19,37,52)         81.8668         calculate D2E/DX2 analytically  !
 ! D110  D(16,19,83,11)        -22.4229         calculate D2E/DX2 analytically  !
 ! D111  D(16,19,83,52)       -105.5799         calculate D2E/DX2 analytically  !
 ! D112  D(16,19,83,84)         83.4151         calculate D2E/DX2 analytically  !
 ! D113  D(36,32,33,34)        -47.512          calculate D2E/DX2 analytically  !
 ! D114  D(36,32,33,38)         65.3251         calculate D2E/DX2 analytically  !
 ! D115  D(36,32,33,44)       -171.565          calculate D2E/DX2 analytically  !
 ! D116  D(39,32,33,34)         72.6104         calculate D2E/DX2 analytically  !
 ! D117  D(39,32,33,38)       -174.5525         calculate D2E/DX2 analytically  !
 ! D118  D(39,32,33,44)        -51.4426         calculate D2E/DX2 analytically  !
 ! D119  D(45,32,33,34)       -166.051          calculate D2E/DX2 analytically  !
 ! D120  D(45,32,33,38)        -53.2139         calculate D2E/DX2 analytically  !
 ! D121  D(45,32,33,44)         69.896          calculate D2E/DX2 analytically  !
 ! D122  D(33,32,36,35)         58.7521         calculate D2E/DX2 analytically  !
 ! D123  D(33,32,36,41)        -61.1339         calculate D2E/DX2 analytically  !
 ! D124  D(33,32,36,46)        177.4633         calculate D2E/DX2 analytically  !
 ! D125  D(39,32,36,35)        -60.7853         calculate D2E/DX2 analytically  !
 ! D126  D(39,32,36,41)        179.3287         calculate D2E/DX2 analytically  !
 ! D127  D(39,32,36,46)         57.926          calculate D2E/DX2 analytically  !
 ! D128  D(45,32,36,35)        176.8126         calculate D2E/DX2 analytically  !
 ! D129  D(45,32,36,41)         56.9267         calculate D2E/DX2 analytically  !
 ! D130  D(45,32,36,46)        -64.4761         calculate D2E/DX2 analytically  !
 ! D131  D(33,32,45,67)       -140.547          calculate D2E/DX2 analytically  !
 ! D132  D(36,32,45,67)        101.6943         calculate D2E/DX2 analytically  !
 ! D133  D(39,32,45,67)        -20.2517         calculate D2E/DX2 analytically  !
 ! D134  D(32,33,34,37)       -162.348          calculate D2E/DX2 analytically  !
 ! D135  D(32,33,34,42)         33.9003         calculate D2E/DX2 analytically  !
 ! D136  D(32,33,34,53)        -70.5803         calculate D2E/DX2 analytically  !
 ! D137  D(38,33,34,37)         80.8873         calculate D2E/DX2 analytically  !
 ! D138  D(38,33,34,42)        -82.8645         calculate D2E/DX2 analytically  !
 ! D139  D(38,33,34,53)        172.655          calculate D2E/DX2 analytically  !
 ! D140  D(44,33,34,37)        -33.7876         calculate D2E/DX2 analytically  !
 ! D141  D(44,33,34,42)        162.4606         calculate D2E/DX2 analytically  !
 ! D142  D(44,33,34,53)         57.9801         calculate D2E/DX2 analytically  !
 ! D143  D(32,33,44,63)        -74.097          calculate D2E/DX2 analytically  !
 ! D144  D(34,33,44,63)        159.889          calculate D2E/DX2 analytically  !
 ! D145  D(38,33,44,63)         49.2257         calculate D2E/DX2 analytically  !
 ! D146  D(33,34,37,10)       -142.9731         calculate D2E/DX2 analytically  !
 ! D147  D(33,34,37,19)        -57.3482         calculate D2E/DX2 analytically  !
 ! D148  D(33,34,37,52)         80.2193         calculate D2E/DX2 analytically  !
 ! D149  D(33,34,37,83)          1.5718         calculate D2E/DX2 analytically  !
 ! D150  D(42,34,37,10)         22.0943         calculate D2E/DX2 analytically  !
 ! D151  D(42,34,37,19)        107.7192         calculate D2E/DX2 analytically  !
 ! D152  D(42,34,37,52)       -114.7133         calculate D2E/DX2 analytically  !
 ! D153  D(42,34,37,83)        166.6391         calculate D2E/DX2 analytically  !
 ! D154  D(53,34,37,10)        120.8297         calculate D2E/DX2 analytically  !
 ! D155  D(53,34,37,19)       -153.5455         calculate D2E/DX2 analytically  !
 ! D156  D(53,34,37,52)        -15.978          calculate D2E/DX2 analytically  !
 ! D157  D(53,34,37,83)        -94.6255         calculate D2E/DX2 analytically  !
 ! D158  D(33,34,42,35)        -27.7083         calculate D2E/DX2 analytically  !
 ! D159  D(33,34,42,60)       -145.4601         calculate D2E/DX2 analytically  !
 ! D160  D(37,34,42,35)        167.6245         calculate D2E/DX2 analytically  !
 ! D161  D(37,34,42,60)         49.8727         calculate D2E/DX2 analytically  !
 ! D162  D(53,34,42,35)         75.4742         calculate D2E/DX2 analytically  !
 ! D163  D(53,34,42,60)        -42.2776         calculate D2E/DX2 analytically  !
 ! D164  D(33,34,53,51)       -119.3664         calculate D2E/DX2 analytically  !
 ! D165  D(37,34,53,51)          1.3032         calculate D2E/DX2 analytically  !
 ! D166  D(42,34,53,51)        115.8086         calculate D2E/DX2 analytically  !
 ! D167  D(40,35,36,32)         63.9403         calculate D2E/DX2 analytically  !
 ! D168  D(40,35,36,41)       -176.5954         calculate D2E/DX2 analytically  !
 ! D169  D(40,35,36,46)        -56.7663         calculate D2E/DX2 analytically  !
 ! D170  D(42,35,36,32)        -51.398          calculate D2E/DX2 analytically  !
 ! D171  D(42,35,36,41)         68.0663         calculate D2E/DX2 analytically  !
 ! D172  D(42,35,36,46)       -172.1046         calculate D2E/DX2 analytically  !
 ! D173  D(47,35,36,32)       -172.121          calculate D2E/DX2 analytically  !
 ! D174  D(47,35,36,41)        -52.6567         calculate D2E/DX2 analytically  !
 ! D175  D(47,35,36,46)         67.1724         calculate D2E/DX2 analytically  !
 ! D176  D(36,35,42,34)         35.3769         calculate D2E/DX2 analytically  !
 ! D177  D(36,35,42,60)        149.4185         calculate D2E/DX2 analytically  !
 ! D178  D(40,35,42,34)        -82.9167         calculate D2E/DX2 analytically  !
 ! D179  D(40,35,42,60)         31.1249         calculate D2E/DX2 analytically  !
 ! D180  D(47,35,42,34)        161.1918         calculate D2E/DX2 analytically  !
 ! D181  D(47,35,42,60)        -84.7666         calculate D2E/DX2 analytically  !
 ! D182  D(36,35,47,48)        -67.0739         calculate D2E/DX2 analytically  !
 ! D183  D(36,35,47,49)        175.5938         calculate D2E/DX2 analytically  !
 ! D184  D(36,35,47,50)         54.1575         calculate D2E/DX2 analytically  !
 ! D185  D(40,35,47,48)         56.9489         calculate D2E/DX2 analytically  !
 ! D186  D(40,35,47,49)        -60.3835         calculate D2E/DX2 analytically  !
 ! D187  D(40,35,47,50)        178.1802         calculate D2E/DX2 analytically  !
 ! D188  D(42,35,47,48)        169.6572         calculate D2E/DX2 analytically  !
 ! D189  D(42,35,47,49)         52.3249         calculate D2E/DX2 analytically  !
 ! D190  D(42,35,47,50)        -69.1114         calculate D2E/DX2 analytically  !
 ! D191  D(32,36,46,71)        120.0321         calculate D2E/DX2 analytically  !
 ! D192  D(35,36,46,71)       -118.7197         calculate D2E/DX2 analytically  !
 ! D193  D(41,36,46,71)          0.0424         calculate D2E/DX2 analytically  !
 ! D194  D(10,37,52,51)       -114.9486         calculate D2E/DX2 analytically  !
 ! D195  D(19,37,52,51)        157.6182         calculate D2E/DX2 analytically  !
 ! D196  D(34,37,52,51)         28.6486         calculate D2E/DX2 analytically  !
 ! D197  D(10,37,83,11)         -0.7839         calculate D2E/DX2 analytically  !
 ! D198  D(10,37,83,84)        113.4471         calculate D2E/DX2 analytically  !
 ! D199  D(34,37,83,11)       -149.9193         calculate D2E/DX2 analytically  !
 ! D200  D(34,37,83,84)        -35.6883         calculate D2E/DX2 analytically  !
 ! D201  D(34,42,60,56)          0.8274         calculate D2E/DX2 analytically  !
 ! D202  D(35,42,60,56)       -126.4595         calculate D2E/DX2 analytically  !
 ! D203  D(33,44,63,64)        -39.3327         calculate D2E/DX2 analytically  !
 ! D204  D(33,44,63,65)         82.3003         calculate D2E/DX2 analytically  !
 ! D205  D(33,44,63,66)       -157.9196         calculate D2E/DX2 analytically  !
 ! D206  D(32,45,67,68)        -58.7349         calculate D2E/DX2 analytically  !
 ! D207  D(32,45,67,69)         63.2166         calculate D2E/DX2 analytically  !
 ! D208  D(32,45,67,70)       -178.1884         calculate D2E/DX2 analytically  !
 ! D209  D(36,46,71,72)        -63.379          calculate D2E/DX2 analytically  !
 ! D210  D(36,46,71,73)         58.3391         calculate D2E/DX2 analytically  !
 ! D211  D(36,46,71,74)        177.5547         calculate D2E/DX2 analytically  !
 ! D212  D(35,47,50,75)        176.9864         calculate D2E/DX2 analytically  !
 ! D213  D(48,47,50,75)        -63.8326         calculate D2E/DX2 analytically  !
 ! D214  D(49,47,50,75)         56.7591         calculate D2E/DX2 analytically  !
 ! D215  D(47,50,75,76)       -179.7808         calculate D2E/DX2 analytically  !
 ! D216  D(47,50,75,77)        -60.5798         calculate D2E/DX2 analytically  !
 ! D217  D(47,50,75,78)         60.8396         calculate D2E/DX2 analytically  !
 ! D218  D(43,51,52,37)       -150.9312         calculate D2E/DX2 analytically  !
 ! D219  D(43,51,52,83)        -99.9998         calculate D2E/DX2 analytically  !
 ! D220  D(53,51,52,37)        -19.7827         calculate D2E/DX2 analytically  !
 ! D221  D(53,51,52,83)         31.1486         calculate D2E/DX2 analytically  !
 ! D222  D(54,51,52,37)         92.0211         calculate D2E/DX2 analytically  !
 ! D223  D(54,51,52,83)        142.9524         calculate D2E/DX2 analytically  !
 ! D224  D(43,51,53,34)        149.6527         calculate D2E/DX2 analytically  !
 ! D225  D(52,51,53,34)         17.9548         calculate D2E/DX2 analytically  !
 ! D226  D(54,51,53,34)        -94.4597         calculate D2E/DX2 analytically  !
 ! D227  D(43,51,54,55)        -30.0888         calculate D2E/DX2 analytically  !
 ! D228  D(43,51,54,56)        151.9224         calculate D2E/DX2 analytically  !
 ! D229  D(52,51,54,55)         92.0947         calculate D2E/DX2 analytically  !
 ! D230  D(52,51,54,56)        -85.8942         calculate D2E/DX2 analytically  !
 ! D231  D(53,51,54,55)       -150.5258         calculate D2E/DX2 analytically  !
 ! D232  D(53,51,54,56)         31.4854         calculate D2E/DX2 analytically  !
 ! D233  D(51,52,83,11)       -145.7397         calculate D2E/DX2 analytically  !
 ! D234  D(51,52,83,19)        -72.9261         calculate D2E/DX2 analytically  !
 ! D235  D(51,52,83,84)         88.524          calculate D2E/DX2 analytically  !
 ! D236  D(51,54,55,57)       -177.5552         calculate D2E/DX2 analytically  !
 ! D237  D(51,54,55,58)          3.0783         calculate D2E/DX2 analytically  !
 ! D238  D(56,54,55,57)          0.3951         calculate D2E/DX2 analytically  !
 ! D239  D(56,54,55,58)       -178.9713         calculate D2E/DX2 analytically  !
 ! D240  D(51,54,56,59)        178.3023         calculate D2E/DX2 analytically  !
 ! D241  D(51,54,56,60)         -1.8092         calculate D2E/DX2 analytically  !
 ! D242  D(55,54,56,59)          0.3399         calculate D2E/DX2 analytically  !
 ! D243  D(55,54,56,60)       -179.7716         calculate D2E/DX2 analytically  !
 ! D244  D(54,55,57,61)         -0.8058         calculate D2E/DX2 analytically  !
 ! D245  D(54,55,57,93)        176.0407         calculate D2E/DX2 analytically  !
 ! D246  D(58,55,57,61)        178.5547         calculate D2E/DX2 analytically  !
 ! D247  D(58,55,57,93)         -4.5988         calculate D2E/DX2 analytically  !
 ! D248  D(54,56,59,61)         -0.6801         calculate D2E/DX2 analytically  !
 ! D249  D(54,56,59,97)        175.4143         calculate D2E/DX2 analytically  !
 ! D250  D(60,56,59,61)        179.4312         calculate D2E/DX2 analytically  !
 ! D251  D(60,56,59,97)         -4.4744         calculate D2E/DX2 analytically  !
 ! D252  D(54,56,60,42)         18.0504         calculate D2E/DX2 analytically  !
 ! D253  D(59,56,60,42)       -162.0622         calculate D2E/DX2 analytically  !
 ! D254  D(55,57,61,59)          0.4747         calculate D2E/DX2 analytically  !
 ! D255  D(55,57,61,62)       -179.4509         calculate D2E/DX2 analytically  !
 ! D256  D(93,57,61,59)       -176.3726         calculate D2E/DX2 analytically  !
 ! D257  D(93,57,61,62)          3.7019         calculate D2E/DX2 analytically  !
 ! D258  D(55,57,93,94)        -87.9344         calculate D2E/DX2 analytically  !
 ! D259  D(55,57,93,95)        152.6644         calculate D2E/DX2 analytically  !
 ! D260  D(55,57,93,96)         31.5378         calculate D2E/DX2 analytically  !
 ! D261  D(61,57,93,94)         88.9505         calculate D2E/DX2 analytically  !
 ! D262  D(61,57,93,95)        -30.4508         calculate D2E/DX2 analytically  !
 ! D263  D(61,57,93,96)       -151.5773         calculate D2E/DX2 analytically  !
 ! D264  D(56,59,61,57)          0.2776         calculate D2E/DX2 analytically  !
 ! D265  D(56,59,61,62)       -179.797          calculate D2E/DX2 analytically  !
 ! D266  D(97,59,61,57)       -175.7725         calculate D2E/DX2 analytically  !
 ! D267  D(97,59,61,62)          4.1529         calculate D2E/DX2 analytically  !
 ! D268  D(56,59,97,98)         33.9375         calculate D2E/DX2 analytically  !
 ! D269  D(56,59,97,99)        -85.234          calculate D2E/DX2 analytically  !
 ! D270  D(56,59,97,100)       155.0198         calculate D2E/DX2 analytically  !
 ! D271  D(61,59,97,98)       -149.9498         calculate D2E/DX2 analytically  !
 ! D272  D(61,59,97,99)         90.8788         calculate D2E/DX2 analytically  !
 ! D273  D(61,59,97,100)       -28.8675         calculate D2E/DX2 analytically  !
 ! D274  D(11,83,84,85)        -95.7381         calculate D2E/DX2 analytically  !
 ! D275  D(11,83,84,89)         78.1556         calculate D2E/DX2 analytically  !
 ! D276  D(19,83,84,85)       -171.6131         calculate D2E/DX2 analytically  !
 ! D277  D(19,83,84,89)          2.2806         calculate D2E/DX2 analytically  !
 ! D278  D(37,83,84,85)        156.4493         calculate D2E/DX2 analytically  !
 ! D279  D(37,83,84,89)        -29.657          calculate D2E/DX2 analytically  !
 ! D280  D(52,83,84,85)         26.0093         calculate D2E/DX2 analytically  !
 ! D281  D(52,83,84,89)       -160.097          calculate D2E/DX2 analytically  !
 ! D282  D(83,84,85,86)       -125.5063         calculate D2E/DX2 analytically  !
 ! D283  D(83,84,85,87)         -6.1239         calculate D2E/DX2 analytically  !
 ! D284  D(83,84,85,88)        113.3508         calculate D2E/DX2 analytically  !
 ! D285  D(89,84,85,86)         60.6675         calculate D2E/DX2 analytically  !
 ! D286  D(89,84,85,87)       -179.9502         calculate D2E/DX2 analytically  !
 ! D287  D(89,84,85,88)        -60.4755         calculate D2E/DX2 analytically  !
 ! D288  D(83,84,89,90)       -114.1966         calculate D2E/DX2 analytically  !
 ! D289  D(83,84,89,91)          5.4986         calculate D2E/DX2 analytically  !
 ! D290  D(83,84,89,92)        125.0932         calculate D2E/DX2 analytically  !
 ! D291  D(85,84,89,90)         61.1184         calculate D2E/DX2 analytically  !
 ! D292  D(85,84,89,91)       -179.1864         calculate D2E/DX2 analytically  !
 ! D293  D(85,84,89,92)        -59.5919         calculate D2E/DX2 analytically  !
 ! D294  D(84,89,91,18)        -84.8327         calculate D2E/DX2 analytically  !
 ! D295  D(90,89,91,18)         34.9709         calculate D2E/DX2 analytically  !
 ! D296  D(92,89,91,18)        155.5047         calculate D2E/DX2 analytically  !
 --------------------------------------------------------------------------------
 Trust Radius=3.00D-02 FncErr=1.00D-07 GrdErr=1.00D-06 EigMax=2.50D+02 EigMin=1.00D-04
 Number of steps in this run=    600 maximum allowed number of steps=    600.
 Search for a saddle point of order  1.
 Step   0 in ReCalcFC=30 IGetFC= 4 compute analytic Hessian.
 GradGradGradGradGradGradGradGradGradGradGradGradGradGradGradGradGradGrad

 Leave Link  103 at Thu May 23 02:10:52 2019, MaxMem=  6442450944 cpu:               5.4 elap:               0.2
 (Enter /home/ekwan/sw/g16/l202.exe)
 Stoichiometry    C30H47F6NaO15S
 Framework group  C1[X(C30H47F6NaO15S)]
 Deg. of freedom   294
 Full point group                 C1      NOp   1
 Largest Abelian subgroup         C1      NOp   1
 Largest concise Abelian subgroup C1      NOp   1
                         Standard orientation:                         
 ---------------------------------------------------------------------
 Center     Atomic      Atomic             Coordinates (Angstroms)
 Number     Number       Type             X           Y           Z
 ---------------------------------------------------------------------
      1          6           0       -1.821933    1.498293    2.217852
      2          6           0       -2.118296    2.321757    0.963016
      3          6           0       -1.242674    3.576718    0.925271
      4          6           0        0.498493    2.515600    2.212748
      5          6           0       -0.321129    1.224316    2.325567
      6          1           0       -1.348447    4.087811   -0.041410
      7          1           0       -1.851145    1.729456    0.079800
      8          1           0       -2.151842    2.069559    3.095200
      9          1           0        0.257113    3.148181    3.076677
     10          1           0       -0.052510    0.547102    1.508891
     11          8           0        0.130457    3.221454    1.001316
     12          8           0       -1.625240    4.425111    1.970095
     13          8           0       -3.479026    2.720309    0.903502
     14          8           0       -2.554618    0.279155    2.128432
     15          8           0       -0.043275    0.605614    3.580456
     16          6           0        2.018294    2.296927    2.153743
     17          1           0        2.284710    1.799871    3.109895
     18          1           0        2.463010    3.316494    2.224256
     19          8           0        2.453696    1.625014    1.035118
     20          6           0       -4.282951    1.890744    0.076735
     21          1           0       -3.934592    1.907251   -0.965837
     22          1           0       -4.287601    0.855726    0.430860
     23          1           0       -5.297790    2.295246    0.113891
     24          6           0       -3.088884   -0.171189    3.365262
     25          1           0       -2.297300   -0.377766    4.092866
     26          1           0       -3.779728    0.571875    3.789561
     27          1           0       -3.639223   -1.088808    3.151971
     28          6           0        0.749849   -0.570918    3.475132
     29          1           0        0.203149   -1.365488    2.954244
     30          1           0        1.688067   -0.385152    2.942846
     31          1           0        0.970310   -0.894993    4.495854
     32          6           0        3.822330   -1.516860   -1.331213
     33          6           0        3.197158   -0.198669   -0.865330
     34          6           0        1.845962   -0.413402   -0.254261
     35          6           0        2.210703   -2.751177    0.173303
     36          6           0        3.677643   -2.539708   -0.198231
     37          1           0        1.163425    0.403551   -0.137120
     38          1           0        3.784201    0.200588   -0.022316
     39          1           0        3.301901   -1.868501   -2.229794
     40          1           0        1.674943   -3.184165   -0.676320
     41          1           0        4.217604   -2.163403    0.677057
     42          8           0        1.540760   -1.466220    0.425602
     43          8           0       -0.516912    0.196475   -3.881830
     44          8           0        3.072027    0.809600   -1.847514
     45          8           0        5.197847   -1.297195   -1.592540
     46          8           0        4.190014   -3.798398   -0.600416
     47          6           0        1.976343   -3.599286    1.402371
     48          1           0        2.300014   -4.625762    1.176381
     49          1           0        0.899206   -3.622059    1.624649
     50          8           0        2.706266   -3.053734    2.480384
     51         16           0       -0.291619    0.037776   -2.434733
     52          8           0       -0.178511    1.322437   -1.675156
     53          8           0        0.834537   -0.913787   -2.097991
     54          6           0       -1.751521   -0.768078   -1.759475
     55          6           0       -2.992657   -0.561802   -2.355351
     56          6           0       -1.624890   -1.556591   -0.620124
     57          6           0       -4.121489   -1.153303   -1.787724
     58          1           0       -3.070646    0.041643   -3.251962
     59          6           0       -2.759089   -2.152653   -0.074631
     60          1           0       -0.656836   -1.707776   -0.162522
     61          6           0       -4.012175   -1.954116   -0.650253
     62          1           0       -4.892461   -2.416765   -0.221159
     63          6           0        4.300047    1.452892   -2.206797
     64          1           0        4.929449    1.611628   -1.324803
     65          1           0        4.853212    0.863112   -2.941659
     66          1           0        4.023932    2.419392   -2.631262
     67          6           0        5.686944   -1.979723   -2.743386
     68          1           0        5.546356   -3.061636   -2.654967
     69          1           0        5.187443   -1.622911   -3.654993
     70          1           0        6.753403   -1.752243   -2.808130
     71          6           0        5.263695   -4.267479    0.212880
     72          1           0        6.129052   -3.597278    0.143563
     73          1           0        4.956119   -4.353447    1.262657
     74          1           0        5.535343   -5.253601   -0.169426
[...]
 4890,0.00030884,-0.00011877,-0.00081241,-0.00042335,0.00109556,-0.0001
 8860,-0.00004465,0.00005078,-0.00012645,0.00006936,0.00007128,-0.00010
 768,0.00016994,0.00001011,0.00014293,-0.00000145,-0.00004229,-0.000156
 57,0.00006072,-0.00000218,0.00017486,-0.00039130,-0.00007952,-0.000021
 60,0.00019723,-0.00003712,0.00343282,0.00115525,-0.00133074,-0.0009079
 2,-0.00099089,-0.00001932,-0.00156291,0.00023623,-0.00004842,-0.000222
 85,0.00088870,0.00189212,0.00043700,-0.00079817,0.00049573,0.00308034,
 0.00020467,0.00031972,0.00012065,0.00052504,0.00271594,0.00007941,-0.0
 0016575,-0.00016358,0.01256990,-0.04386055,-0.00149771,0.00021054,-0.0
 0068752,-0.00084426,-0.00381671,-0.00193958,0.00010604,0.00027385,-0.0
 0077099,-0.00085455,0.00011791,0.00006333,-0.00005334,-0.00001835,-0.0
 0000531,-0.00000352,-0.00002687,-0.00000116,0.00001787,-0.00000192,-0.
 00001078,0.00000994,0.00002768,-0.00005693,-0.00007208,-0.00000425,0.0
 0001769,0.00000476,0.00000031,0.00000039,0.00000726,-0.00000895,0.0000
 0529,0.00001065,0.00004276,-0.00003345,0.00004490,-0.00000069,0.000007
 97,-0.00000785,-0.00000163,-0.00000991,-0.00001187,-0.00002328,0.00001
 485,0.00000241,0.00004372,-0.00010059,0.00007940,0.00001167,0.00001352
 ,-0.00000317,-0.00000426,-0.00004470,-0.00000130,-0.00004692,0.0000442
 5,-0.00000210,0.00006517,0.00014824,-0.00001334,-0.00000051,-0.0000285
 7,-0.00001280,-0.00002080,-0.00001079,0.00000419,-0.00000868,-0.000019
 67,0.00001720,0.00019554,0.00018767,-0.00001604,-0.00004549,-0.0000447
 4,0.00000265,0.00001402,0.00003735,-0.00002635,-0.00001080,-0.00000421
 ,0.00000664,0.00000254,0.00000375,-0.00000329,-0.00000051,-0.00000837,
 -0.00000120,0.00002453,0.00000123,0.00001108,-0.00000154,-0.00000756,-
 0.00000093,0.00003754,0.00002093,-0.00000448,-0.00001333,-0.00000601,0
 .00000963,-0.00293588,0.00029308,-0.00089013,0.00080923,-0.00049036,0.
 00004199,0.00090268,0.00031838,0.00019784,0.00075312,-0.00025639,0.000
 93363,0.03694770,-0.24071335,-0.03059606,-0.02259782,-0.03794652,-0.03
 841753,-0.05781931,0.33497091,0.00022026,0.00033384,-0.00002444,-0.000
 09327,-0.00000308,-0.00016092,-0.00000479,0.00000585,0.00000623,-0.000
 02231,0.00009948,-0.00006542,-0.00002669,0.00010483,-0.00017814,-0.000
 00624,-0.00002989,0.00001144,0.00000855,-0.00001790,0.00000050,-0.0000
 2789,-0.00005219,-0.00000190,-0.00000928,-0.00000629,0.00000919,0.0000
 0603,0.00002614,-0.00001344,0.00002155,-0.00005477,0.00009407,0.000003
 92,-0.00001655,0.00002771,0.00013375,0.00006929,0.00017124,0.00001577,
 -0.00065744,0.00013757,0.00002658,-0.00035321,0.00009588,0.00007190,-0
 .00002790,-0.00010951,0.00001280,0.00000161,0.00003919,-0.00002344,0.0
 0000457,0.00002892,-0.00004863,0.00004865,0.00015097,-0.00005412,-0.00
 009864,-0.00016349,-0.00001557,-0.00005222,0.00007941,0.00000489,-0.00
 000133,-0.00008100,-0.00000689,0.00002223,0.00001886,0.00024443,0.0004
 8723,0.00000031,-0.00000469,-0.00001046,0.00007083,-0.00003320,-0.0001
 9138,-0.00000418,-0.00031665,0.00012949,0.00025471,0.00006746,0.000552
 80,0.00025632,0.00015824,-0.00015771,-0.00004448,-0.00008704,-0.000095
 69,-0.00007040,-0.00004166,-0.00005398,-0.00005384,-0.00004031,0.00000
 713,-0.00002706,0.00000880,0.00000863,0.00000479,-0.00022766,-0.000048
 63,-0.00042185,-0.00008366,0.00002207,-0.00014791,0.00001124,-0.000012
 83,0.00001674,-0.00000168,-0.00000986,-0.00001925,0.00001226,-0.000005
 29,-0.00001378,-0.00000658,0.00000454,0.00001460,-0.00001756,0.0000003
 5,0.00002802,0.00001852,0.00000455,-0.00000064,0.00008787,-0.00009170,
 0.00019612,0.00029805,0.00019041,-0.00024712,0.00003919,0.00000889,0.0
 0002372,0.00001595,-0.00000190,0.00002470,0.00001864,-0.00001372,0.000
 03127,0.00028676,0.00003325,-0.00010226,-0.00006906,0.00001827,0.00002
 182,0.00012812,-0.00007115,0.00001454,-0.00010081,0.00001044,0.0000761
 3,-0.00118594,-0.00058122,0.00026019,0.00029653,0.00040862,0.00011059,
 0.00061361,0.00001354,0.00015577,-0.00011632,-0.00074157,-0.00049900,-
 0.00019503,0.00041590,-0.00041661,-0.00124888,0.00013130,0.00017990,0.
 00042025,-0.00053109,-0.00085620,-0.00002851,0.00003311,0.00008437,-0.
 00443519,0.02062845,0.00868887,0.00002812,0.00033463,-0.00000231,0.001
 35997,0.00058140,0.00047662,-0.00026370,0.00027974,0.00007145,-0.00002
 205,-0.00001861,0.00000671,0.00000781,0.00000241,0.00000384,0.00000201
 ,0.00000167,-0.00000137,-0.00000116,-0.00000017,-0.00000350,-0.0000056
 2,-0.00000384,-0.00001087,-0.00000206,0.00000215,-0.00000319,0.0000004
 4,-0.00000405,0.00000538,0.00000410,0.00000156,0.00000062,-0.00001416,
 0.00000726,-0.00002808,0.00000285,0.00000145,0.00000266,0.00000541,-0.
 00000458,0.00000890,-0.00000179,0.00000128,0.00000181,0.00011892,-0.00
 001139,-0.00004121,-0.00001387,-0.00000358,0.00000363,-0.00004142,-0.0
 0001068,0.00002833,-0.00001931,0.00001327,0.00000671,0.00000338,0.0000
 1907,-0.00000504,-0.00000067,0.00000069,-0.00000016,0.00000010,-0.0000
 0007,-0.00000104,0.00000043,-0.00000525,0.00000575,-0.00004370,-0.0000
 5648,-0.00006470,0.00001061,0.00000550,0.00001888,-0.00000237,-0.00000
 233,-0.00000480,-0.00000054,-0.00000049,-0.00000004,0.00000182,-0.0000
 0273,0.00000158,0.00000026,0.00000229,0.00000221,-0.00000981,0.0000008
 8,-0.00001334,0.00000166,0.00000463,0.00000224,-0.00000075,-0.00000286
 ,-0.00000161,0.00000109,-0.00000036,0.00000190,0.00101205,-0.00029556,
 0.00020752,-0.00028740,0.00021680,0.00002007,-0.00029861,-0.00005092,-
 0.00003576,-0.00024850,0.00011075,-0.00021066,0.00691320,-0.03022153,-
 0.07794625,-0.01412010,-0.04751120,-0.01733810,-0.01987211,0.09183615,
 0.10081660,-0.00017460,-0.00011980,-0.00001658,-0.00004131,0.00008932,
 0.00006094,-0.00013859,0.00011229,0.00001067,0.00006123,0.00005769,-0.
 00005354,-0.00012317,0.00031452,-0.00002523,0.00001666,0.00000165,0.00
 000152,-0.00001164,0.00001619,-0.00001769,0.00001919,-0.00003368,-0.00
 002928,-0.00000464,-0.00003870,-0.00001307,0.00006015,0.00000352,-0.00
 005529,0.00008176,-0.00012393,0.00003255,0.00004020,-0.00008359,-0.000
 04862,0.00013287,-0.00003763,-0.00005543,0.00072031,0.00008362,-0.0004
 2824,0.00028889,-0.00057575,-0.00005705,-0.00006924,0.00008270,0.00014
 580,0.00002393,0.00000735,-0.00002089,-0.00000317,-0.00007602,-0.00003
 300,-0.00002561,-0.00022170,-0.00014738,-0.00005223,-0.00006658,0.0000
 8133,0.00002606,0.00006969,-0.00007170,-0.00002661,0.00001676,0.000084
 52,0.00002816,-0.00002897,-0.00000144,-0.00098436,-0.00097339,0.000570
 35,0.00015264,0.00027948,0.00014872,0.00012381,0.00017050,0.00002385,0
 .00012871,-0.00069623,-0.00086413,0.00006052,0.00098381,0.00042441,0.0
 0012416,-0.00019326,0.00004531,-0.00007091,-0.00011576,-0.00009551,-0.
 00008999,-0.00010937,-0.00012309,0.00007937,0.00002363,-0.00007148,-0.
 00001806,0.00005959,-0.00004012,0.00032819,0.00064144,-0.00008938,0.00
 010995,-0.00000984,-0.00011999,0.00016147,-0.00010348,0.00000518,-0.00
 000008,0.00003317,-0.00000341,0.00000018,0.00000688,0.00003459,0.00000
 175,-0.00000121,-0.00000304,0.00002890,-0.00000830,-0.00003978,-0.0000
 1859,0.00000279,-0.00000220,-0.00030699,-0.00041482,0.00025626,-0.0002
 4747,-0.00022591,0.00052507,-0.00012319,-0.00011774,0.00007234,-0.0001
 6188,-0.00000931,0.00010268,-0.00016876,0.00008611,0.00000403,0.000877
 14,0.00021000,0.00008600,-0.00017895,0.00002278,0.00004137,0.00001807,
 -0.00037680,0.00014067,-0.00041082,-0.00001145,-0.00037597,0.00109787,
 0.00072630,-0.00047282,-0.00027030,-0.00053012,-0.00008591,-0.00042477
 ,-0.00013111,0.00011546,-0.00063994,-0.00039212,-0.00028469,0.00037142
 ,0.00007050,0.00007503,0.00175506,-0.00112688,0.00250524,0.00114318,-0
 .00079931,0.00068457,0.00016403,0.00010331,0.00000974,-0.01017752,-0.0
 0187822,0.01339439,0.00049259,0.00059465,-0.00044885,-0.00339170,0.000
 10902,-0.00305479,0.00218176,0.00089935,0.00016108,0.00010061,0.000062
 14,-0.00002860,-0.00001283,0.00000025,-0.00000428,-0.00001838,-0.00000
 041,0.00000787,-0.00000522,-0.00001403,0.00001118,0.00003502,-0.000039
 42,-0.00007635,0.00000646,0.00000557,0.00000405,0.00000287,0.00000449,
 0.00001192,-0.00001688,0.00000138,0.00001037,0.00011465,-0.00004297,0.
 00005797,-0.00002433,-0.00000816,-0.00000563,0.00000993,-0.00000597,-0
 .00000433,-0.00001086,0.00001529,-0.00000041,0.00009697,-0.00017572,0.
 00021650,-0.00003281,-0.00000139,-0.00003816,-0.00001914,0.00000753,0.
 00002851,-0.00001433,0.00005175,-0.00000820,0.00000149,0.00003328,-0.0
 0000225,0.00000124,-0.00000905,-0.00000502,0.00000156,0.00000049,0.000
 00339,-0.00000218,-0.00000330,0.00000370,0.00004633,0.00014558,-0.0000
 0960,-0.00000984,-0.00004149,0.00000419,0.00000191,0.00003138,-0.00001
 752,-0.00000300,-0.00000341,0.00000353,0.00000130,0.00000194,0.0000020
 6,-0.00000146,-0.00000863,-0.00000217,0.00000289,0.00000782,0.00000216
 ,-0.00000024,-0.00000918,-0.00000026,0.00002652,0.00001856,-0.00000230
 ,-0.00000367,-0.00000316,0.00000438,-0.00109616,-0.00008692,0.00012824
 ,0.00034455,-0.00018854,-0.00007358,0.00036386,0.00017790,-0.00005730,
 0.00023848,-0.00004823,0.00010778,-0.18124156,-0.02033208,0.09309542,-
 0.07594138,-0.01771707,0.00319029,-0.02562622,0.03032322,0.03112309,0.
 29013878,0.00020510,0.00036204,0.00006762,-0.00009947,0.00003485,0.000
 01838,0.00005905,0.00015178,0.00006193,-0.00001249,0.00008460,-0.00000
 217,0.00003339,-0.00000373,0.00009002,-0.00001066,-0.00003207,0.000004
 02,0.00000534,0.00002045,-0.00000723,-0.00001723,-0.00003300,-0.000019
 53,-0.00000117,-0.00002042,-0.00001181,0.00003067,-0.00000384,-0.00001
 379,-0.00003925,-0.00007685,-0.00002309,-0.00002603,-0.00014755,-0.000
 04224,0.00000891,-0.00013609,-0.00005496,-0.00009798,-0.00038735,-0.00
 010067,-0.00014095,-0.00001165,-0.00007361,0.00001485,-0.00000623,0.00
 007233,0.00000230,0.00000818,-0.00002347,-0.00002525,-0.00004057,-0.00
 001453,-0.00007278,-0.00007389,-0.00006841,0.00000159,0.00013198,0.000
 03681,0.00000697,0.00004479,-0.00002956,-0.00005561,-0.00002008,0.0000
 3205,0.00003281,-0.00004128,-0.00000711,0.00117811,0.00063149,-0.00054
 206,-0.00015550,-0.00023444,-0.00009644,-0.00026060,-0.00048310,-0.000
 15098,-0.00117066,-0.00275371,-0.00079449,0.00010864,0.00000674,0.0000
 6826,0.00001477,-0.00001532,0.00001753,-0.00001859,-0.00000149,-0.0000
 0243,-0.00002535,-0.00000579,-0.00004185,0.00005699,-0.00002956,-0.000
 01685,0.00000019,0.00000547,-0.00003548,0.00027241,0.00014585,0.000282
 22,0.00010606,-0.00021893,-0.00001042,0.00004683,-0.00002631,0.0000066
 9,0.00002516,0.00001676,-0.00000293,-0.00000963,-0.00000192,0.00002010
 ,0.00000463,-0.00000616,-0.00000624,-0.00000069,-0.00001170,0.00001015
 ,-0.00000269,0.00000173,0.00000080,-0.00020342,0.00010081,-0.00006980,
 -0.00037908,-0.00017373,0.00056153,-0.00009256,-0.00002926,0.00002295,
 -0.00006776,0.00002575,0.00003270,-0.00006097,0.00007366,-0.00000320,0
 .00008760,0.00002140,0.00001561,-0.00005489,0.00001918,-0.00000265,0.0
 0001881,-0.00015333,0.00000208,-0.00003008,0.00006365,-0.00007680,0.00
 182752,0.00042262,-0.00060834,-0.00052029,-0.00054716,-0.00006780,-0.0
 0073784,0.00009154,-0.00004790,-0.00045380,-0.00153652,0.00033967,-0.0
 0048892,-0.00032295,0.00040602,0.00208418,-0.00004018,0.00293901,-0.00
 010312,-0.00006879,-0.00012218,0.00001075,0.00003939,0.00001708,-0.020
 03100,0.00400532,0.01788972,0.00009898,0.00045702,-0.00006252,-0.00035
 385,-0.00056686,0.00069409,0.00001343,-0.00039943,0.00085278,0.0000600
 3,0.00003479,-0.00002544,-0.00000977,-0.00000259,-0.00000239,-0.000012
 70,-0.00000070,0.00000805,-0.00000079,-0.00000572,0.00000544,0.0000153
 0,-0.00002451,-0.00003329,-0.00000043,0.00000672,0.00000292,0.00000038
 ,0.00000140,0.00000297,-0.00000605,0.00000174,0.00000498,0.00003112,-0
 .00001820,0.00002856,-0.00000352,0.00000145,-0.00000401,-0.00000083,-0
 .00000301,-0.00000659,-0.00000894,0.00000678,0.00000031,-0.00000711,-0
 .00005278,0.00006499,0.00000424,0.00000472,-0.00000609,0.00000733,-0.0
 0001062,-0.00000430,-0.00001129,0.00001771,-0.00000326,0.00003262,0.00
 007373,-0.00000527,-0.00000033,-0.00001451,-0.00000668,-0.00001041,-0.
 00000571,0.00000228,-0.00000488,-0.00001011,0.00000829,0.00009747,0.00
 010010,-0.00000300,-0.00002172,-0.00002329,-0.00000084,0.00000624,0.00
 001905,-0.00001234,-0.00000474,-0.00000202,0.00000322,0.00000100,0.000
 00220,-0.00000138,-0.00000031,-0.00000458,-0.00000099,0.00001215,0.000
 00108,0.00000694,-0.00000079,-0.00000445,-0.00000078,0.00001805,0.0000
 1042,-0.00000181,-0.00000616,-0.00000270,0.00000425,-0.00119378,0.0001
 3466,-0.00048901,0.00035299,-0.00019654,0.00002954,0.00039521,0.000127
 32,0.00008241,0.00025411,-0.00007865,0.00030963,-0.01729419,-0.0761937
 8,0.01890572,-0.01803382,0.00787202,0.00168831,0.04320550,-0.00912813,
 -0.03505282,0.01160292,0.07906090,0.00029676,0.00044539,0.00008603,-0.
 00011659,-0.00007212,-0.00024015,0.00008471,-0.00008938,0.00000241,-0.
 00007610,0.00007551,-0.00004485,0.00005715,-0.00011248,-0.00019686,-0.
 00001921,-0.00003637,0.00001234,0.00002419,-0.00003726,0.00001537,-0.0
 0002820,0.00000652,0.00003031,-0.00000648,0.00002069,0.00002169,-0.000
 03821,0.00003275,0.00002714,-0.00001840,0.00003070,0.00009589,-0.00001
 612,0.00005339,0.00006926,0.00009535,0.00013310,0.00024107,-0.00059317
 ,-0.00067688,0.00061370,-0.00017842,-0.00001334,0.00016166,0.00012460,
 -0.00008865,-0.00022535,-0.00000150,-0.00000413,0.00006053,-0.00002277
 ,0.00005954,0.00005519,-0.00002154,0.00020412,0.00027834,-0.00004734,-
 0.00011839,-0.00021841,-0.00002773,-0.00010531,0.00012059,0.00001728,-
 0.00000643,-0.00014499,-0.00002431,0.00004534,0.00002261,0.00196251,0.
 00133767,-0.00076277,-0.00016276,-0.00024805,-0.00002218,-0.00032017,-
 0.00061135,-0.00006286,-0.00127975,-0.00100285,-0.00001512,0.00006247,
 -0.00010462,-0.00005162,0.00001429,0.00000959,-0.00001601,-0.00003807,
 -0.00000790,0.00000035,0.00002078,0.00001858,0.00003076,-0.00010436,0.
 00001524,0.00001487,0.00002127,-0.00001437,0.00004465,-0.00054071,-0.0
 0041949,-0.00059666,-0.00017922,0.00017355,-0.00007691,-0.00008191,0.0
 0004156,0.00000676,-0.00001241,-0.00003500,-0.00002353,0.00002009,-0.0
 0000973,-0.00004216,-0.00001007,0.00001054,0.00001956,-0.00002110,0.00
 001302,0.00003065,0.00002485,0.00000172,0.00000011,0.00035084,0.000014
 77,0.00014635,0.00073356,0.00044028,-0.00101140,0.00014739,0.00007548,
 -0.00001711,0.00012098,-0.00001332,-0.00003814,0.00011926,-0.00008781,
 0.00002762,-0.00010283,-0.00002261,-0.00014176,0.00001762,-0.00000186,
 0.00001249,0.00008035,0.00001537,-0.00002365,0.00007057,-0.00001156,0.
 00023627,-0.00314889,-0.00116989,0.00068483,0.00080703,0.00110845,0.00
 028293,0.00135166,-0.00003444,0.00017537,0.00207581,0.00153783,-0.0004
 3833,0.00013390,0.00038539,-0.00052746,-0.00440261,0.00268669,-0.00574
 854,0.00019085,0.00048295,-0.00017675,-0.00003602,-0.00005192,-0.00003
 416,0.03729824,0.00810630,-0.01994806,-0.00013889,-0.00039821,0.000072
 85,0.00144968,0.00019749,-0.00038554,-0.00003455,0.00050996,-0.0019302
 3,-0.00009881,-0.00006562,0.00003478,0.00001972,0.00000404,0.00000672,
 0.00001764,0.00000247,-0.00000932,0.00000143,0.00000908,-0.00001158,-0
 .00002842,0.00002674,0.00004136,-0.00000392,-0.00000430,-0.00000606,-0
 .00000107,-0.00000599,-0.00000191,0.00001412,-0.00000038,-0.00000667,-
 0.00007524,0.00003204,-0.00006322,0.00001449,0.00000444,0.00000630,0.0
 0000156,-0.00000094,0.00001276,0.00000724,-0.00000862,0.00000247,0.000
 06204,0.00007453,-0.00013813,0.00000381,-0.00000248,0.00002009,-0.0000
 3117,-0.00001110,0.00000674,-0.00001040,-0.00001406,0.00001048,-0.0000
 0250,-0.00000958,-0.00000336,-0.00000180,0.00000819,0.00000351,0.00000
 107,0.00000018,-0.00000367,0.00000232,-0.00000274,0.00000318,-0.000114
 08,-0.00018309,-0.00007779,0.00002451,0.00003610,0.00001880,-0.0000057
 6,-0.00002559,0.00000852,0.00000277,0.00000208,-0.00000293,0.00000088,
 -0.00000491,0.00000119,0.00000133,0.00000867,0.00000374,-0.00001678,-0
 .00000310,-0.00001825,0.00000245,0.00001150,0.00000288,-0.00002081,-0.
 00001664,-0.00000003,0.00000530,0.00000219,-0.00000151,0.00208425,-0.0
 0044554,0.00060288,-0.00067357,0.00047483,0.00004489,-0.00067104,-0.00
 014869,-0.00010359,-0.00044927,0.00017063,-0.00049285,0.08301277,0.020
 68381,-0.14986834,-0.01036106,-0.00121767,0.02216033,0.03163710,-0.025
 25717,-0.01364406,-0.14027470,-0.00680712,0.17092263\\-0.00000005,0.00
 000009,-0.00000011,0.00000010,0.00000022,-0.00000012,0.00000041,0.0000
 0011,-0.00000012,0.00000007,0.00000004,-0.00000004,0.00000001,0.000000
 12,0.00000003,0.00000033,0.00000017,-0.00000007,0.00000014,0.00000019,
 -0.00000010,0.00000007,0.00000026,-0.00000012,0.00000012,0.,0.00000004
 ,0.00000004,0.00000007,-0.00000005,0.00000026,0.00000002,-0.00000003,0
 .00000016,0.00000025,-0.00000004,0.00000024,0.00000029,-0.00000017,-0.
 00000010,0.00000029,-0.00000014,-0.00000011,0.00000005,-0.00000002,0.0
 0000014,-0.00000018,0.00000001,0.,-0.00000019,0.00000011,0.00000016,-0
 .00000018,0.00000012,0.00000012,-0.00000011,0.00000010,0.00000018,0.00
 000044,-0.00000021,0.00000020,0.00000040,-0.00000017,0.00000004,0.0000
 0040,-0.00000023,0.00000019,0.00000051,-0.00000025,-0.00000010,0.00000
 035,-0.00000025,-0.00000022,0.00000022,-0.00000012,-0.00000014,0.00000
 036,-0.00000019,-0.00000025,0.00000033,-0.00000020,-0.00000026,0.00000
 003,0.00000006,-0.00000031,-0.00000004,-0.00000006,-0.00000015,-0.0000
 0011,0.00000006,-0.00000028,-0.00000007,0.,0.00000008,-0.00000029,0.00
 000012,0.00000005,-0.00000007,-0.00000002,0.00000008,0.00000048,-0.000
 00023,-0.00000008,-0.00000043,0.00000008,-0.00000012,-0.00000039,0.000
 00009,-0.00000005,0.,0.00000006,0.00000002,-0.00000027,0.00000022,-0.0
 0000010,-0.00000022,0.00000011,-0.00000025,-0.00000005,-0.00000002,-0.
 00000021,-0.00000028,0.00000016,-0.00000029,-0.00000049,0.00000030,0.0
 0000032,0.00000008,0.00000041,0.00000023,-0.00000019,0.00000011,-0.000
 00008,-0.00000039,0.00000021,-0.00000034,-0.00000027,0.00000017,-0.000
 00040,-0.00000013,-0.00000001,-0.00000044,-0.00000013,0.00000004,-0.00
 000044,0.,0.,-0.00000033,-0.00000020,0.00000009,-0.00000048,0.00000017
 ,-0.00000081,0.00000024,0.00000024,0.00000009,0.00000024,-0.00000006,0
 .00000014,-0.00000024,0.00000025,-0.00000012,0.00000030,0.00000023,-0.
 00000005,-0.00000001,0.00000043,-0.00000043,0.00000021,0.00000070,-0.0
 0000060,0.00000014,0.00000025,-0.00000007,0.00000002,0.00000021,0.0000
 0006,-0.00000019,0.00000005,0.,-0.00000044,0.00000035,-0.00000025,-0.0
 0000025,0.00000043,-0.00000023,0.00000010,-0.00000038,0.00000023,0.000
 00022,-0.00000037,0.00000019,0.00000022,-0.00000033,0.00000021,0.00000
 034,-0.00000036,0.00000018,-0.00000008,-0.00000040,0.00000027,-0.00000
 014,-0.00000041,0.00000020,0.00000003,-0.00000037,0.00000019,-0.000000
 03,-0.00000051,0.00000027,-0.00000044,-0.00000036,0.00000014,-0.000000
 31,-0.00000047,0.00000023,-0.00000043,-0.00000039,0.00000019,-0.000000
 44,-0.00000042,0.00000020,-0.00000051,-0.00000023,0.00000012,-0.000000
 48,-0.00000023,0.00000009,-0.00000050,-0.00000009,0.,-0.00000058,-0.00
 000020,0.00000005,0.00000042,0.00000016,-0.00000003,0.00000041,0.00000
 015,-0.00000005,0.00000037,0.00000002,0.00000002,0.00000048,0.00000013
 ,-0.00000003,0.00000031,-0.00000018,0.00000013,0.00000039,-0.00000012,
 0.00000012,0.00000056,-0.00000037,0.00000029,0.00000060,-0.00000025,0.
 00000017,0.00000060,-0.00000011,0.00000011,0.00000061,-0.00000017,0.00
 000014,0.00000024,-0.00000027,0.00000006,0.00000044,-0.00000030,0.0000
 0022,0.00000027,-0.00000031,0.00000016,0.00000041,-0.00000038,0.000000
 26,-0.00000006,0.00000055,-0.00000014,0.00000014,0.00000060,-0.0000003
 3,-0.00000008,0.00000059,-0.00000035,0.00000014,0.00000056,-0.00000033
 ,-0.00000040,0.00000013,-0.00000012,-0.00000018,0.00000018,-0.00000007
 ,-0.00000041,0.00000024,-0.00000018,-0.00000039,0.00000037,-0.00000021
 \\\@


 REPARTEE - WHAT YOU THINK OF AFTER YOU BECOME A DEPARTEE.
 Job cpu time:       4 days 14 hours 44 minutes 11.3 seconds.
 Elapsed time:       0 days  3 hours 55 minutes  6.7 seconds.
 File lengths (MBytes):  RWF=   9709 Int=      0 D2E=      0 Chk=    107 Scr=      1
 Normal termination of Gaussian 16 at Thu May 23 10:01:23 2019.
