 Entering Gaussian System, Link 0=g16
 Input=clay_new-glu_gluC6-DCDR-Na2_1Me2O-bisCF3-ts-b3lyp_d3bj-631gd-pcm_thf.gjf
 Output=clay_new-glu_gluC6-DCDR-Na2_1Me2O-bisCF3-ts-b3lyp_d3bj-631gd-pcm_thf.out
 Initial command:
 /home/ekwan/sw/g16/l1.exe "/scratch/users/ekwan/clay_new-glu_gluC6-DCDR-Na2_1Me2O-bisCF3-ts-b3lyp_d3bj-631gd-pcm_thf/Gau-58995.inp" -scrdir="/scratch/users/ekwan/clay_new-glu_gluC6-DCDR-Na2_1Me2O-bisCF3-ts-b3lyp_d3bj-631gd-pcm_thf/"
 Entering Link 1 = /home/ekwan/sw/g16/l1.exe PID=     58996.
  
 Copyright (c) 1988,1990,1992,1993,1995,1998,2003,2009,2016,
            Gaussian, Inc.  All Rights Reserved.
  
 This is part of the Gaussian(R) 16 program.  It is based on
 the Gaussian(R) 09 system (copyright 2009, Gaussian, Inc.),
 the Gaussian(R) 03 system (copyright 2003, Gaussian, Inc.),
 the Gaussian(R) 98 system (copyright 1998, Gaussian, Inc.),
 the Gaussian(R) 94 system (copyright 1995, Gaussian, Inc.),
 the Gaussian 92(TM) system (copyright 1992, Gaussian, Inc.),
 the Gaussian 90(TM) system (copyright 1990, Gaussian, Inc.),
 the Gaussian 88(TM) system (copyright 1988, Gaussian, Inc.),
 the Gaussian 86(TM) system (copyright 1986, Carnegie Mellon
 University), and the Gaussian 82(TM) system (copyright 1983,
 Carnegie Mellon University). Gaussian is a federally registered
 trademark of Gaussian, Inc.
  
 This software contains proprietary and confidential information,
 including trade secrets, belonging to Gaussian, Inc.
  
 This software is provided under written license and may be
 used, copied, transmitted, or stored only in accord with that
 written license.
  
 The following legend is applicable only to US Government
 contracts under FAR:
  
                    RESTRICTED RIGHTS LEGEND
  
 Use, reproduction and disclosure by the US Government is
 subject to restrictions as set forth in subparagraphs (a)
 and (c) of the Commercial Computer Software - Restricted
 Rights clause in FAR 52.227-19.
  
 Gaussian, Inc.
 340 Quinnipiac St., Bldg. 40, Wallingford CT 06492
  
  
 ---------------------------------------------------------------
 Warning -- This program may not be used in any manner that
 competes with the business of Gaussian, Inc. or will provide
 assistance to any competitor of Gaussian, Inc.  The licensee
 of this program is prohibited from giving any competitor of
 Gaussian, Inc. access to this program.  By using this program,
 the user acknowledges that Gaussian, Inc. is engaged in the
 business of creating and licensing software in the field of
 computational chemistry and represents and warrants to the
 licensee that it is not a competitor of Gaussian, Inc. and that
 it will not use this program in any manner prohibited above.
 ---------------------------------------------------------------
  

 Cite this work as:
 Gaussian 16, Revision A.03,
 M. J. Frisch, G. W. Trucks, H. B. Schlegel, G. E. Scuseria, 
 M. A. Robb, J. R. Cheeseman, G. Scalmani, V. Barone, 
 G. A. Petersson, H. Nakatsuji, X. Li, M. Caricato, A. V. Marenich, 
 J. Bloino, B. G. Janesko, R. Gomperts, B. Mennucci, H. P. Hratchian, 
 J. V. Ortiz, A. F. Izmaylov, J. L. Sonnenberg, D. Williams-Young, 
 F. Ding, F. Lipparini, F. Egidi, J. Goings, B. Peng, A. Petrone, 
 T. Henderson, D. Ranasinghe, V. G. Zakrzewski, J. Gao, N. Rega, 
 G. Zheng, W. Liang, M. Hada, M. Ehara, K. Toyota, R. Fukuda, 
 J. Hasegawa, M. Ishida, T. Nakajima, Y. Honda, O. Kitao, H. Nakai, 
 T. Vreven, K. Throssell, J. A. Montgomery, Jr., J. E. Peralta, 
 F. Ogliaro, M. J. Bearpark, J. J. Heyd, E. N. Brothers, K. N. Kudin, 
 V. N. Staroverov, T. A. Keith, R. Kobayashi, J. Normand, 
 K. Raghavachari, A. P. Rendell, J. C. Burant, S. S. Iyengar, 
 J. Tomasi, M. Cossi, J. M. Millam, M. Klene, C. Adamo, R. Cammi, 
 J. W. Ochterski, R. L. Martin, K. Morokuma, O. Farkas, 
 J. B. Foresman, and D. J. Fox, Gaussian, Inc., Wallingford CT, 2016.
 
 ******************************************
 Gaussian 16:  AS64L-G16RevA.03 25-Dec-2016
                 5-Jun-2019 
 ******************************************
 %mem=48GB
 %nprocshared=32
 Will use up to   32 processors via shared memory.
 ----------------------------------------------------------------------
 #p opt=(ts,noeigentest,calcfc,maxstep=10) freq=noraman b3lyp 6-31g* po
 p=none scrf=(solvent=tetrahydrofuran,pcm) empiricaldispersion=gd3bj
 ----------------------------------------------------------------------
 1/5=1,8=10,10=4,11=1,18=20,26=3,38=1/1,3;
 2/9=110,12=2,17=6,18=5,40=1/2;
 3/5=1,6=6,7=1,11=2,25=1,30=1,70=2201,71=2,72=20,74=-5,124=41,140=1/1,2,3;
 4//1;
 5/5=2,38=5,53=20/2;
 8/6=4,10=90,11=11/1;
 11/6=1,8=1,9=11,15=111,16=1/1,2,10;
 10/6=1,13=1/2;
 7/10=1,18=20,25=1/1,2,3,16;
 1/5=1,8=10,10=4,11=1,18=20,26=3/3(2);
 2/9=110/2;
 99//99;
 2/9=110/2;
 3/5=1,6=6,7=1,11=2,25=1,30=1,70=2205,71=1,72=20,74=-5,124=41/1,2,3;
 4/5=5,16=3,69=1/1;
 5/5=2,38=5,53=20/2;
 7//1,2,3,16;
 1/5=1,8=10,11=1,18=20,26=3/3(-5);
 2/9=110/2;
 99/9=1/99;
 Leave Link    1 at Wed Jun  5 05:37:17 2019, MaxMem=  6442450944 cpu:               4.6 elap:               0.2
 (Enter /home/ekwan/sw/g16/l101.exe)
 -----
 title
 -----
 Symbolic Z-matrix:
 Charge =  0 Multiplicity = 1
 C                     3.44768   1.38713   1.14462 
 C                     4.15577   0.67436  -0.00742 
 C                     4.71807  -0.67417   0.4637 
 C                     3.0098   -0.88858   2.15754 
 C                     2.39814   0.46383   1.76974 
 H                     5.09074  -1.26484  -0.38136 
 H                     3.40838   0.46891  -0.78496 
 H                     4.18171   1.64858   1.9176 
 H                     3.74971  -0.71846   2.95088 
 H                     1.59899   0.29989   1.03947 
 O                     3.6779   -1.47011   1.01115 
 O                     5.74765  -0.43312   1.38107 
 O                     5.17408   1.51712  -0.52524 
 O                     2.80055   2.57012   0.68238 
 O                     1.87498   1.04803   2.95888 
 C                     1.97736  -1.92478   2.63303 
 H                     1.46605  -1.45324   3.49706 
 H                     2.56772  -2.76555   3.06319 
 O                     1.11804  -2.34946   1.64559 
 C                     5.50473   1.23697  -1.87484 
 H                     5.94536   0.2368   -1.99721 
 H                     4.62083   1.31103  -2.5251 
 H                     6.24118   1.98263  -2.18386 
 C                     3.55963   3.75481   0.89472 
 H                     3.72717   3.92317   1.96858 
 H                     4.52645   3.70316   0.38436 
 H                     2.97352   4.57997   0.4924 
 C                     0.59923   1.64992   2.79235 
 H                     0.64145   2.49793   2.1029 
 H                    -0.13975   0.92416   2.4231 
 H                     0.28581   2.00008   3.78043 
 C                    -2.94649  -2.93419  -0.30056 
 C                    -1.58316  -2.99157   0.41991 
 C                    -1.04737  -1.61172   0.6086 
 C                    -3.22848  -0.91703   1.31816 
 C                    -3.87995  -1.85691   0.30259 
 H                     0.00503  -1.37709   0.55519 
 H                    -1.75854  -3.40102   1.42468 
 H                    -2.74086  -2.65898  -1.33813 
 H                    -3.66105   0.07123   1.18473 
 H                    -4.68474  -2.38316   0.83388 
 O                    -1.7997   -0.67376   1.05753 
 O                     0.21348   0.05763  -3.48362 
 O                    -0.67302  -3.80422  -0.28368 
 O                    -3.60296  -4.1859   -0.22222 
 O                    -4.43621  -1.0175   -0.69825 
 C                    -3.37012  -1.36099   2.78315 
 H                    -2.82527  -0.64985   3.42008 
 H                    -2.94069  -2.35489   2.93514 
 O                    -4.72704  -1.45738   3.15025 
 S                    -0.02527  -0.16135  -2.04162 
 O                     1.2284   -0.3013   -1.23604 
 O                    -0.99439  -1.27093  -1.75367 
 C                    -0.84419   1.31114  -1.40712 
 C                    -0.09913   2.42335  -1.02133 
 C                    -2.23777   1.31877  -1.35984 
 C                    -0.77959   3.57218  -0.60808 
 H                     0.98518   2.392    -1.01491 
 C                    -2.89594   2.46655  -0.92054 
 H                    -2.7987    0.43158  -1.62816 
 C                    -2.17241   3.60078  -0.554 
 H                    -2.68715   4.49876  -0.23653 
 C                    -0.14494  -4.88343   0.50211 
 H                     0.44142  -4.47128   1.32875 
 H                    -0.95688  -5.52496   0.86783 
 H                     0.49348  -5.46171  -0.16979 
 C                    -3.37854  -5.04309  -1.33909 
 H                    -3.69551  -4.55998  -2.27395 
 H                    -2.32661  -5.32964  -1.42718 
 H                    -3.99014  -5.93239  -1.17135 
 C                    -5.38074  -1.66191  -1.54107 
 H                    -4.91235  -2.42214  -2.17946 
 H                    -6.17483  -2.13685  -0.94869 
 H                    -5.80786  -0.87987  -2.17055 
 C                    -5.37582  -0.2013    3.33441 
 H                    -6.35348  -0.41982   3.76811 
 H                    -4.80705   0.43739   4.02411 
 H                    -5.52078   0.33557   2.38845 
 C                     6.43847  -1.61436   1.77098 
 H                     7.27611  -1.29839   2.39585 
 H                     5.79055  -2.28953   2.34178 
 H                     6.82275  -2.15049   0.8911 
 Na                    1.99876  -2.35326  -0.42148 
 O                     3.55902  -2.59816  -2.10259 
 C                     4.656    -3.49926  -2.06579 
 H                     5.60686  -2.96381  -2.19712 
 H                     4.64635  -3.98117  -1.08539 
 H                     4.56583  -4.26249  -2.85078 
 C                     3.47332  -1.88445  -3.33252 
 H                     3.34753  -2.57772  -4.17529 
 H                     2.60607  -1.22808  -3.26209 
 H                     4.38016  -1.28591  -3.49371 
 C                    -0.00117   4.79031  -0.19406 
 F                     1.09645   4.96482  -0.96294 
 F                     0.42687   4.71062   1.09019 
 F                    -0.74049   5.91699  -0.28492 
 C                    -4.39447   2.46531  -0.79416 
 F                    -4.78996   1.97617   0.41505 
 F                    -4.98791   1.70777  -1.73644 
 F                    -4.91006   3.70959  -0.88596 
 
 Add virtual bond connecting atoms H37        and O19        Dist= 3.47D+00.
 Add virtual bond connecting atoms O52        and H7         Dist= 4.45D+00.
 Add virtual bond connecting atoms O52        and H10        Dist= 4.50D+00.
 Add virtual bond connecting atoms O52        and H37        Dist= 4.58D+00.
 Add virtual bond connecting atoms O52        and Na83       Dist= 4.42D+00.
 Add virtual bond connecting atoms O53        and C34        Dist= 4.51D+00.
 Add virtual bond connecting atoms O84        and Na83       Dist= 4.36D+00.
 ITRead=  0  0  0  0  0  0  0  0  0  0  0  0  0  0  0  0  0  0  0  0
 ITRead=  0  0  0  0  0  0  0  0  0  0  0  0  0  0  0  0  0  0  0  0
 ITRead=  0  0  0  0  0  0  0  0  0  0  0  0  0  0  0  0  0  0  0  0
 ITRead=  0  0  0  0  0  0  0  0  0  0  0  0  0  0  0  0  0  0  0  0
 ITRead=  0  0  0  0  0  0  0  0  0  0  0  0  0  0  0  0  0  0  0  0
 MicOpt= -1 -1 -1 -1 -1 -1 -1 -1 -1 -1 -1 -1 -1 -1 -1 -1 -1 -1 -1 -1
 MicOpt= -1 -1 -1 -1 -1 -1 -1 -1 -1 -1 -1 -1 -1 -1 -1 -1 -1 -1 -1 -1
 MicOpt= -1 -1 -1 -1 -1 -1 -1 -1 -1 -1 -1 -1 -1 -1 -1 -1 -1 -1 -1 -1
 MicOpt= -1 -1 -1 -1 -1 -1 -1 -1 -1 -1 -1 -1 -1 -1 -1 -1 -1 -1 -1 -1
 MicOpt= -1 -1 -1 -1 -1 -1 -1 -1 -1 -1 -1 -1 -1 -1 -1 -1 -1 -1 -1 -1
 NAtoms=    100 NQM=      100 NQMF=       0 NMMI=      0 NMMIF=      0
                NMic=       0 NMicF=      0.
                    Isotopes and Nuclear Properties:
 (Nuclear quadrupole moments (NQMom) in fm**2, nuclear magnetic moments (NMagM)
  in nuclear magnetons)

  Atom         1           2           3           4           5           6           7           8           9          10
 IAtWgt=          12          12          12          12          12           1           1           1           1           1
 AtmWgt=  12.0000000  12.0000000  12.0000000  12.0000000  12.0000000   1.0078250   1.0078250   1.0078250   1.0078250   1.0078250
 NucSpn=           0           0           0           0           0           1           1           1           1           1
 AtZEff=   0.0000000   0.0000000   0.0000000   0.0000000   0.0000000   0.0000000   0.0000000   0.0000000   0.0000000   0.0000000
 NQMom=    0.0000000   0.0000000   0.0000000   0.0000000   0.0000000   0.0000000   0.0000000   0.0000000   0.0000000   0.0000000
 NMagM=    0.0000000   0.0000000   0.0000000   0.0000000   0.0000000   2.7928460   2.7928460   2.7928460   2.7928460   2.7928460
 AtZNuc=   6.0000000   6.0000000   6.0000000   6.0000000   6.0000000   1.0000000   1.0000000   1.0000000   1.0000000   1.0000000

  Atom        11          12          13          14          15          16          17          18          19          20
 IAtWgt=          16          16          16          16          16          12           1           1          16          12
 AtmWgt=  15.9949146  15.9949146  15.9949146  15.9949146  15.9949146  12.0000000   1.0078250   1.0078250  15.9949146  12.0000000
 NucSpn=           0           0           0           0           0           0           1           1           0           0
 AtZEff=   0.0000000   0.0000000   0.0000000   0.0000000   0.0000000   0.0000000   0.0000000   0.0000000   0.0000000   0.0000000
 NQMom=    0.0000000   0.0000000   0.0000000   0.0000000   0.0000000   0.0000000   0.0000000   0.0000000   0.0000000   0.0000000
 NMagM=    0.0000000   0.0000000   0.0000000   0.0000000   0.0000000   0.0000000   2.7928460   2.7928460   0.0000000   0.0000000
 AtZNuc=   8.0000000   8.0000000   8.0000000   8.0000000   8.0000000   6.0000000   1.0000000   1.0000000   8.0000000   6.0000000

  Atom        21          22          23          24          25          26          27          28          29          30
 IAtWgt=           1           1           1          12           1           1           1          12           1           1
 AtmWgt=   1.0078250   1.0078250   1.0078250  12.0000000   1.0078250   1.0078250   1.0078250  12.0000000   1.0078250   1.0078250
 NucSpn=           1           1           1           0           1           1           1           0           1           1
 AtZEff=   0.0000000   0.0000000   0.0000000   0.0000000   0.0000000   0.0000000   0.0000000   0.0000000   0.0000000   0.0000000
 NQMom=    0.0000000   0.0000000   0.0000000   0.0000000   0.0000000   0.0000000   0.0000000   0.0000000   0.0000000   0.0000000
 NMagM=    2.7928460   2.7928460   2.7928460   0.0000000   2.7928460   2.7928460   2.7928460   0.0000000   2.7928460   2.7928460
 AtZNuc=   1.0000000   1.0000000   1.0000000   6.0000000   1.0000000   1.0000000   1.0000000   6.0000000   1.0000000   1.0000000

  Atom        31          32          33          34          35          36          37          38          39          40
 IAtWgt=           1          12          12          12          12          12           1           1           1           1
 AtmWgt=   1.0078250  12.0000000  12.0000000  12.0000000  12.0000000  12.0000000   1.0078250   1.0078250   1.0078250   1.0078250
 NucSpn=           1           0           0           0           0           0           1           1           1           1
 AtZEff=   0.0000000   0.0000000   0.0000000   0.0000000   0.0000000   0.0000000   0.0000000   0.0000000   0.0000000   0.0000000
 NQMom=    0.0000000   0.0000000   0.0000000   0.0000000   0.0000000   0.0000000   0.0000000   0.0000000   0.0000000   0.0000000
 NMagM=    2.7928460   0.0000000   0.0000000   0.0000000   0.0000000   0.0000000   2.7928460   2.7928460   2.7928460   2.7928460
 AtZNuc=   1.0000000   6.0000000   6.0000000   6.0000000   6.0000000   6.0000000   1.0000000   1.0000000   1.0000000   1.0000000

  Atom        41          42          43          44          45          46          47          48          49          50
 IAtWgt=           1          16          16          16          16          16          12           1           1          16
 AtmWgt=   1.0078250  15.9949146  15.9949146  15.9949146  15.9949146  15.9949146  12.0000000   1.0078250   1.0078250  15.9949146
 NucSpn=           1           0           0           0           0           0           0           1           1           0
 AtZEff=   0.0000000   0.0000000   0.0000000   0.0000000   0.0000000   0.0000000   0.0000000   0.0000000   0.0000000   0.0000000
 NQMom=    0.0000000   0.0000000   0.0000000   0.0000000   0.0000000   0.0000000   0.0000000   0.0000000   0.0000000   0.0000000
 NMagM=    2.7928460   0.0000000   0.0000000   0.0000000   0.0000000   0.0000000   0.0000000   2.7928460   2.7928460   0.0000000
 AtZNuc=   1.0000000   8.0000000   8.0000000   8.0000000   8.0000000   8.0000000   6.0000000   1.0000000   1.0000000   8.0000000

  Atom        51          52          53          54          55          56          57          58          59          60
 IAtWgt=          32          16          16          12          12          12          12           1          12           1
 AtmWgt=  31.9720718  15.9949146  15.9949146  12.0000000  12.0000000  12.0000000  12.0000000   1.0078250  12.0000000   1.0078250
 NucSpn=           0           0           0           0           0           0           0           1           0           1
 AtZEff=   0.0000000   0.0000000   0.0000000   0.0000000   0.0000000   0.0000000   0.0000000   0.0000000   0.0000000   0.0000000
 NQMom=    0.0000000   0.0000000   0.0000000   0.0000000   0.0000000   0.0000000   0.0000000   0.0000000   0.0000000   0.0000000
 NMagM=    0.0000000   0.0000000   0.0000000   0.0000000   0.0000000   0.0000000   0.0000000   2.7928460   0.0000000   2.7928460
 AtZNuc=  16.0000000   8.0000000   8.0000000   6.0000000   6.0000000   6.0000000   6.0000000   1.0000000   6.0000000   1.0000000

  Atom        61          62          63          64          65          66          67          68          69          70
 IAtWgt=          12           1          12           1           1           1          12           1           1           1
 AtmWgt=  12.0000000   1.0078250  12.0000000   1.0078250   1.0078250   1.0078250  12.0000000   1.0078250   1.0078250   1.0078250
 NucSpn=           0           1           0           1           1           1           0           1           1           1
 AtZEff=   0.0000000   0.0000000   0.0000000   0.0000000   0.0000000   0.0000000   0.0000000   0.0000000   0.0000000   0.0000000
 NQMom=    0.0000000   0.0000000   0.0000000   0.0000000   0.0000000   0.0000000   0.0000000   0.0000000   0.0000000   0.0000000
 NMagM=    0.0000000   2.7928460   0.0000000   2.7928460   2.7928460   2.7928460   0.0000000   2.7928460   2.7928460   2.7928460
 AtZNuc=   6.0000000   1.0000000   6.0000000   1.0000000   1.0000000   1.0000000   6.0000000   1.0000000   1.0000000   1.0000000

  Atom        71          72          73          74          75          76          77          78          79          80
 IAtWgt=          12           1           1           1          12           1           1           1          12           1
 AtmWgt=  12.0000000   1.0078250   1.0078250   1.0078250  12.0000000   1.0078250   1.0078250   1.0078250  12.0000000   1.0078250
 NucSpn=           0           1           1           1           0           1           1           1           0           1
 AtZEff=   0.0000000   0.0000000   0.0000000   0.0000000   0.0000000   0.0000000   0.0000000   0.0000000   0.0000000   0.0000000
 NQMom=    0.0000000   0.0000000   0.0000000   0.0000000   0.0000000   0.0000000   0.0000000   0.0000000   0.0000000   0.0000000
 NMagM=    0.0000000   2.7928460   2.7928460   2.7928460   0.0000000   2.7928460   2.7928460   2.7928460   0.0000000   2.7928460
 AtZNuc=   6.0000000   1.0000000   1.0000000   1.0000000   6.0000000   1.0000000   1.0000000   1.0000000   6.0000000   1.0000000

  Atom        81          82          83          84          85          86          87          88          89          90
 IAtWgt=           1           1          23          16          12           1           1           1          12           1
 AtmWgt=   1.0078250   1.0078250  22.9897697  15.9949146  12.0000000   1.0078250   1.0078250   1.0078250  12.0000000   1.0078250
 NucSpn=           1           1           3           0           0           1           1           1           0           1
 AtZEff=   0.0000000   0.0000000   0.0000000   0.0000000   0.0000000   0.0000000   0.0000000   0.0000000   0.0000000   0.0000000
 NQMom=    0.0000000   0.0000000  10.4000000   0.0000000   0.0000000   0.0000000   0.0000000   0.0000000   0.0000000   0.0000000
 NMagM=    2.7928460   2.7928460   2.2175200   0.0000000   0.0000000   2.7928460   2.7928460   2.7928460   0.0000000   2.7928460
 AtZNuc=   1.0000000   1.0000000  11.0000000   8.0000000   6.0000000   1.0000000   1.0000000   1.0000000   6.0000000   1.0000000

  Atom        91          92          93          94          95          96          97          98          99         100
 IAtWgt=           1           1          12          19          19          19          12          19          19          19
 AtmWgt=   1.0078250   1.0078250  12.0000000  18.9984033  18.9984033  18.9984033  12.0000000  18.9984033  18.9984033  18.9984033
 NucSpn=           1           1           0           1           1           1           0           1           1           1
 AtZEff=   0.0000000   0.0000000   0.0000000   0.0000000   0.0000000   0.0000000   0.0000000   0.0000000   0.0000000   0.0000000
 NQMom=    0.0000000   0.0000000   0.0000000   0.0000000   0.0000000   0.0000000   0.0000000   0.0000000   0.0000000   0.0000000
 NMagM=    2.7928460   2.7928460   0.0000000   2.6288670   2.6288670   2.6288670   0.0000000   2.6288670   2.6288670   2.6288670
 AtZNuc=   1.0000000   1.0000000   6.0000000   9.0000000   9.0000000   9.0000000   6.0000000   9.0000000   9.0000000   9.0000000
 Leave Link  101 at Wed Jun  5 05:37:17 2019, MaxMem=  6442450944 cpu:              18.3 elap:               0.7
 (Enter /home/ekwan/sw/g16/l103.exe)

 GradGradGradGradGradGradGradGradGradGradGradGradGradGradGradGradGradGrad
 Berny optimization.
 Initialization pass.
                           ----------------------------
                           !    Initial Parameters    !
                           ! (Angstroms and Degrees)  !
 --------------------------                            --------------------------
 ! Name  Definition              Value          Derivative Info.                !
 --------------------------------------------------------------------------------
 ! R1    R(1,2)                  1.5286         calculate D2E/DX2 analytically  !
 ! R2    R(1,5)                  1.5313         calculate D2E/DX2 analytically  !
 ! R3    R(1,8)                  1.0976         calculate D2E/DX2 analytically  !
 ! R4    R(1,14)                 1.4254         calculate D2E/DX2 analytically  !
 ! R5    R(2,3)                  1.5351         calculate D2E/DX2 analytically  !
 ! R6    R(2,7)                  1.0979         calculate D2E/DX2 analytically  !
 ! R7    R(2,13)                 1.4196         calculate D2E/DX2 analytically  !
 ! R8    R(3,6)                  1.0963         calculate D2E/DX2 analytically  !
 ! R9    R(3,11)                 1.4196         calculate D2E/DX2 analytically  !
 ! R10   R(3,12)                 1.3999         calculate D2E/DX2 analytically  !
 ! R11   R(4,5)                  1.5341         calculate D2E/DX2 analytically  !
 ! R12   R(4,9)                  1.0981         calculate D2E/DX2 analytically  !
 ! R13   R(4,11)                 1.4487         calculate D2E/DX2 analytically  !
 ! R14   R(4,16)                 1.5381         calculate D2E/DX2 analytically  !
 ! R15   R(5,10)                 1.0949         calculate D2E/DX2 analytically  !
 ! R16   R(5,15)                 1.4244         calculate D2E/DX2 analytically  !
 ! R17   R(7,52)                 2.3556         calculate D2E/DX2 analytically  !
 ! R18   R(10,52)                2.3826         calculate D2E/DX2 analytically  !
 ! R19   R(12,79)                1.4229         calculate D2E/DX2 analytically  !
 ! R20   R(13,20)                1.4175         calculate D2E/DX2 analytically  !
 ! R21   R(14,24)                1.423          calculate D2E/DX2 analytically  !
 ! R22   R(15,28)                1.4204         calculate D2E/DX2 analytically  !
 ! R23   R(16,17)                1.1092         calculate D2E/DX2 analytically  !
 ! R24   R(16,18)                1.1138         calculate D2E/DX2 analytically  !
 ! R25   R(16,19)                1.3762         calculate D2E/DX2 analytically  !
 ! R26   R(19,37)                1.8366         calculate D2E/DX2 analytically  !
 ! R27   R(19,83)                2.2469         calculate D2E/DX2 analytically  !
 ! R28   R(20,21)                1.0998         calculate D2E/DX2 analytically  !
 ! R29   R(20,22)                1.0998         calculate D2E/DX2 analytically  !
 ! R30   R(20,23)                1.0926         calculate D2E/DX2 analytically  !
 ! R31   R(24,25)                1.0998         calculate D2E/DX2 analytically  !
 ! R32   R(24,26)                1.0945         calculate D2E/DX2 analytically  !
 ! R33   R(24,27)                1.0892         calculate D2E/DX2 analytically  !
 ! R34   R(28,29)                1.0937         calculate D2E/DX2 analytically  !
 ! R35   R(28,30)                1.0996         calculate D2E/DX2 analytically  !
 ! R36   R(28,31)                1.0941         calculate D2E/DX2 analytically  !
 ! R37   R(32,33)                1.5431         calculate D2E/DX2 analytically  !
 ! R38   R(32,36)                1.5478         calculate D2E/DX2 analytically  !
 ! R39   R(32,39)                1.093          calculate D2E/DX2 analytically  !
 ! R40   R(32,45)                1.4156         calculate D2E/DX2 analytically  !
 ! R41   R(33,34)                1.4922         calculate D2E/DX2 analytically  !
 ! R42   R(33,38)                1.0991         calculate D2E/DX2 analytically  !
 ! R43   R(33,44)                1.4085         calculate D2E/DX2 analytically  !
 ! R44   R(34,37)                1.0796         calculate D2E/DX2 analytically  !
 ! R45   R(34,42)                1.2835         calculate D2E/DX2 analytically  !
 ! R46   R(34,53)                2.3873         calculate D2E/DX2 analytically  !
 ! R47   R(35,36)                1.5294         calculate D2E/DX2 analytically  !
 ! R48   R(35,40)                1.087          calculate D2E/DX2 analytically  !
 ! R49   R(35,42)                1.4726         calculate D2E/DX2 analytically  !
 ! R50   R(35,47)                1.5373         calculate D2E/DX2 analytically  !
 ! R51   R(36,41)                1.0986         calculate D2E/DX2 analytically  !
 ! R52   R(36,46)                1.4198         calculate D2E/DX2 analytically  !
 ! R53   R(37,52)                2.4213         calculate D2E/DX2 analytically  !
 ! R54   R(43,51)                1.478          calculate D2E/DX2 analytically  !
 ! R55   R(44,63)                1.4356         calculate D2E/DX2 analytically  !
 ! R56   R(45,67)                1.4257         calculate D2E/DX2 analytically  !
 ! R57   R(46,71)                1.4205         calculate D2E/DX2 analytically  !
 ! R58   R(47,48)                1.0992         calculate D2E/DX2 analytically  !
 ! R59   R(47,49)                1.0933         calculate D2E/DX2 analytically  !
 ! R60   R(47,50)                1.409          calculate D2E/DX2 analytically  !
 ! R61   R(50,75)                1.4257         calculate D2E/DX2 analytically  !
 ! R62   R(51,52)                1.4967         calculate D2E/DX2 analytically  !
 ! R63   R(51,53)                1.5011         calculate D2E/DX2 analytically  !
 ! R64   R(51,54)                1.8004         calculate D2E/DX2 analytically  !
 ! R65   R(52,83)                2.3383         calculate D2E/DX2 analytically  !
 ! R66   R(54,55)                1.3932         calculate D2E/DX2 analytically  !
 ! R67   R(54,56)                1.3944         calculate D2E/DX2 analytically  !
 ! R68   R(55,57)                1.3977         calculate D2E/DX2 analytically  !
 ! R69   R(55,58)                1.0848         calculate D2E/DX2 analytically  !
 ! R70   R(56,59)                1.3941         calculate D2E/DX2 analytically  !
 ! R71   R(56,60)                1.0834         calculate D2E/DX2 analytically  !
 ! R72   R(57,61)                1.3942         calculate D2E/DX2 analytically  !
 ! R73   R(57,93)                1.5037         calculate D2E/DX2 analytically  !
 ! R74   R(59,61)                1.3944         calculate D2E/DX2 analytically  !
 ! R75   R(59,97)                1.5039         calculate D2E/DX2 analytically  !
 ! R76   R(61,62)                1.0826         calculate D2E/DX2 analytically  !
 ! R77   R(63,64)                1.0941         calculate D2E/DX2 analytically  !
 ! R78   R(63,65)                1.0975         calculate D2E/DX2 analytically  !
 ! R79   R(63,66)                1.0925         calculate D2E/DX2 analytically  !
 ! R80   R(67,68)                1.099          calculate D2E/DX2 analytically  !
 ! R81   R(67,69)                1.0938         calculate D2E/DX2 analytically  !
 ! R82   R(67,70)                1.0923         calculate D2E/DX2 analytically  !
 ! R83   R(71,72)                1.0977         calculate D2E/DX2 analytically  !
 ! R84   R(71,73)                1.0987         calculate D2E/DX2 analytically  !
 ! R85   R(71,74)                1.091          calculate D2E/DX2 analytically  !
 ! R86   R(75,76)                1.0916         calculate D2E/DX2 analytically  !
 ! R87   R(75,77)                1.0987         calculate D2E/DX2 analytically  !
 ! R88   R(75,78)                1.0973         calculate D2E/DX2 analytically  !
 ! R89   R(79,80)                1.0918         calculate D2E/DX2 analytically  !
 ! R90   R(79,81)                1.0961         calculate D2E/DX2 analytically  !
 ! R91   R(79,82)                1.0997         calculate D2E/DX2 analytically  !
 ! R92   R(83,84)                2.3066         calculate D2E/DX2 analytically  !
 ! R93   R(84,85)                1.4201         calculate D2E/DX2 analytically  !
 ! R94   R(84,89)                1.4246         calculate D2E/DX2 analytically  !
 ! R95   R(85,86)                1.0991         calculate D2E/DX2 analytically  !
 ! R96   R(85,87)                1.0925         calculate D2E/DX2 analytically  !
 ! R97   R(85,88)                1.0986         calculate D2E/DX2 analytically  !
 ! R98   R(89,90)                1.0985         calculate D2E/DX2 analytically  !
 ! R99   R(89,91)                1.0899         calculate D2E/DX2 analytically  !
 ! R100  R(89,92)                1.0985         calculate D2E/DX2 analytically  !
 ! R101  R(93,94)                1.3514         calculate D2E/DX2 analytically  !
 ! R102  R(93,95)                1.356          calculate D2E/DX2 analytically  !
 ! R103  R(93,96)                1.3507         calculate D2E/DX2 analytically  !
 ! R104  R(97,98)                1.363          calculate D2E/DX2 analytically  !
 ! R105  R(97,99)                1.3468         calculate D2E/DX2 analytically  !
 ! R106  R(97,100)               1.35           calculate D2E/DX2 analytically  !
 ! A1    A(2,1,5)              110.1218         calculate D2E/DX2 analytically  !
 ! A2    A(2,1,8)              109.3932         calculate D2E/DX2 analytically  !
 ! A3    A(2,1,14)             110.6635         calculate D2E/DX2 analytically  !
 ! A4    A(5,1,8)              108.331          calculate D2E/DX2 analytically  !
 ! A5    A(5,1,14)             108.761          calculate D2E/DX2 analytically  !
 ! A6    A(8,1,14)             109.53           calculate D2E/DX2 analytically  !
 ! A7    A(1,2,3)              110.3645         calculate D2E/DX2 analytically  !
 ! A8    A(1,2,7)              107.7978         calculate D2E/DX2 analytically  !
 ! A9    A(1,2,13)             109.2911         calculate D2E/DX2 analytically  !
 ! A10   A(3,2,7)              107.5963         calculate D2E/DX2 analytically  !
 ! A11   A(3,2,13)             111.758          calculate D2E/DX2 analytically  !
 ! A12   A(7,2,13)             109.9422         calculate D2E/DX2 analytically  !
 ! A13   A(2,3,6)              111.1765         calculate D2E/DX2 analytically  !
 ! A14   A(2,3,11)             110.0285         calculate D2E/DX2 analytically  !
 ! A15   A(2,3,12)             108.617          calculate D2E/DX2 analytically  !
 ! A16   A(6,3,11)             104.1375         calculate D2E/DX2 analytically  !
 ! A17   A(6,3,12)             110.3588         calculate D2E/DX2 analytically  !
 ! A18   A(11,3,12)            112.5032         calculate D2E/DX2 analytically  !
 ! A19   A(5,4,9)              108.3428         calculate D2E/DX2 analytically  !
 ! A20   A(5,4,11)             109.7374         calculate D2E/DX2 analytically  !
 ! A21   A(5,4,16)             113.8543         calculate D2E/DX2 analytically  !
 ! A22   A(9,4,11)             108.8536         calculate D2E/DX2 analytically  !
 ! A23   A(9,4,16)             109.4706         calculate D2E/DX2 analytically  !
 ! A24   A(11,4,16)            106.4849         calculate D2E/DX2 analytically  !
 ! A25   A(1,5,4)              111.1902         calculate D2E/DX2 analytically  !
 ! A26   A(1,5,10)             108.5581         calculate D2E/DX2 analytically  !
 ! A27   A(1,5,15)             110.1966         calculate D2E/DX2 analytically  !
 ! A28   A(4,5,10)             109.1233         calculate D2E/DX2 analytically  !
 ! A29   A(4,5,15)             107.2751         calculate D2E/DX2 analytically  !
 ! A30   A(10,5,15)            110.4957         calculate D2E/DX2 analytically  !
 ! A31   A(2,7,52)             145.7704         calculate D2E/DX2 analytically  !
 ! A32   A(5,10,52)            142.0276         calculate D2E/DX2 analytically  !
 ! A33   A(3,11,4)             114.7095         calculate D2E/DX2 analytically  !
 ! A34   A(3,12,79)            113.1847         calculate D2E/DX2 analytically  !
 ! A35   A(2,13,20)            113.4087         calculate D2E/DX2 analytically  !
 ! A36   A(1,14,24)            113.6016         calculate D2E/DX2 analytically  !
 ! A37   A(5,15,28)            113.9404         calculate D2E/DX2 analytically  !
 ! A38   A(4,16,17)            105.2979         calculate D2E/DX2 analytically  !
 ! A39   A(4,16,18)            105.7931         calculate D2E/DX2 analytically  !
 ! A40   A(4,16,19)            113.9058         calculate D2E/DX2 analytically  !
 ! A41   A(17,16,18)           105.3307         calculate D2E/DX2 analytically  !
 ! A42   A(17,16,19)           113.7208         calculate D2E/DX2 analytically  !
 ! A43   A(18,16,19)           112.034          calculate D2E/DX2 analytically  !
 ! A44   A(16,19,37)           129.8676         calculate D2E/DX2 analytically  !
 ! A45   A(16,19,83)           114.5737         calculate D2E/DX2 analytically  !
 ! A46   A(37,19,83)            72.0766         calculate D2E/DX2 analytically  !
 ! A47   A(13,20,21)           112.281          calculate D2E/DX2 analytically  !
 ! A48   A(13,20,22)           111.2327         calculate D2E/DX2 analytically  !
 ! A49   A(13,20,23)           106.9553         calculate D2E/DX2 analytically  !
 ! A50   A(21,20,22)           108.5085         calculate D2E/DX2 analytically  !
 ! A51   A(21,20,23)           108.6095         calculate D2E/DX2 analytically  !
 ! A52   A(22,20,23)           109.179          calculate D2E/DX2 analytically  !
 ! A53   A(14,24,25)           110.7577         calculate D2E/DX2 analytically  !
 ! A54   A(14,24,26)           111.2451         calculate D2E/DX2 analytically  !
 ! A55   A(14,24,27)           106.7716         calculate D2E/DX2 analytically  !
 ! A56   A(25,24,26)           109.1453         calculate D2E/DX2 analytically  !
 ! A57   A(25,24,27)           109.0672         calculate D2E/DX2 analytically  !
 ! A58   A(26,24,27)           109.8078         calculate D2E/DX2 analytically  !
 ! A59   A(15,28,29)           111.579          calculate D2E/DX2 analytically  !
 ! A60   A(15,28,30)           111.3025         calculate D2E/DX2 analytically  !
 ! A61   A(15,28,31)           106.6795         calculate D2E/DX2 analytically  !
 ! A62   A(29,28,30)           109.0258         calculate D2E/DX2 analytically  !
 ! A63   A(29,28,31)           109.4012         calculate D2E/DX2 analytically  !
 ! A64   A(30,28,31)           108.7815         calculate D2E/DX2 analytically  !
 ! A65   A(33,32,36)           112.1347         calculate D2E/DX2 analytically  !
 ! A66   A(33,32,39)           106.6416         calculate D2E/DX2 analytically  !
 ! A67   A(33,32,45)           110.5495         calculate D2E/DX2 analytically  !
 ! A68   A(36,32,39)           107.9471         calculate D2E/DX2 analytically  !
 ! A69   A(36,32,45)           108.3119         calculate D2E/DX2 analytically  !
 ! A70   A(39,32,45)           111.2493         calculate D2E/DX2 analytically  !
 ! A71   A(32,33,34)           109.9922         calculate D2E/DX2 analytically  !
 ! A72   A(32,33,38)           107.4404         calculate D2E/DX2 analytically  !
 ! A73   A(32,33,44)           111.0474         calculate D2E/DX2 analytically  !
 ! A74   A(34,33,38)           106.6298         calculate D2E/DX2 analytically  !
 ! A75   A(34,33,44)           111.388          calculate D2E/DX2 analytically  !
 ! A76   A(38,33,44)           110.172          calculate D2E/DX2 analytically  !
 ! A77   A(33,34,37)           123.0072         calculate D2E/DX2 analytically  !
 ! A78   A(33,34,42)           120.6328         calculate D2E/DX2 analytically  !
 ! A79   A(33,34,53)            90.8508         calculate D2E/DX2 analytically  !
 ! A80   A(37,34,42)           115.4608         calculate D2E/DX2 analytically  !
 ! A81   A(37,34,53)            84.1683         calculate D2E/DX2 analytically  !
 ! A82   A(42,34,53)           104.7614         calculate D2E/DX2 analytically  !
 ! A83   A(36,35,40)           107.9196         calculate D2E/DX2 analytically  !
 ! A84   A(36,35,42)           113.4081         calculate D2E/DX2 analytically  !
 ! A85   A(36,35,47)           114.5864         calculate D2E/DX2 analytically  !
 ! A86   A(40,35,42)           102.3676         calculate D2E/DX2 analytically  !
 ! A87   A(40,35,47)           110.0519         calculate D2E/DX2 analytically  !
 ! A88   A(42,35,47)           107.8042         calculate D2E/DX2 analytically  !
 ! A89   A(32,36,35)           115.4407         calculate D2E/DX2 analytically  !
 ! A90   A(32,36,41)           107.2684         calculate D2E/DX2 analytically  !
 ! A91   A(32,36,46)           111.9066         calculate D2E/DX2 analytically  !
 ! A92   A(35,36,41)           106.5764         calculate D2E/DX2 analytically  !
 ! A93   A(35,36,46)           105.7628         calculate D2E/DX2 analytically  !
 ! A94   A(41,36,46)           109.701          calculate D2E/DX2 analytically  !
 ! A95   A(19,37,34)           116.5079         calculate D2E/DX2 analytically  !
 ! A96   A(19,37,52)           111.608          calculate D2E/DX2 analytically  !
 ! A97   A(34,37,52)           128.7344         calculate D2E/DX2 analytically  !
 ! A98   A(34,42,35)           120.6576         calculate D2E/DX2 analytically  !
 ! A99   A(33,44,63)           113.4536         calculate D2E/DX2 analytically  !
 ! A100  A(32,45,67)           114.5382         calculate D2E/DX2 analytically  !
 ! A101  A(36,46,71)           114.2408         calculate D2E/DX2 analytically  !
 ! A102  A(35,47,48)           108.6436         calculate D2E/DX2 analytically  !
 ! A103  A(35,47,49)           111.028          calculate D2E/DX2 analytically  !
 ! A104  A(35,47,50)           110.9017         calculate D2E/DX2 analytically  !
 ! A105  A(48,47,49)           108.2331         calculate D2E/DX2 analytically  !
 ! A106  A(48,47,50)           111.755          calculate D2E/DX2 analytically  !
 ! A107  A(49,47,50)           106.2508         calculate D2E/DX2 analytically  !
 ! A108  A(47,50,75)           114.3074         calculate D2E/DX2 analytically  !
 ! A109  A(43,51,52)           113.8084         calculate D2E/DX2 analytically  !
 ! A110  A(43,51,53)           113.639          calculate D2E/DX2 analytically  !
 ! A111  A(43,51,54)           107.2262         calculate D2E/DX2 analytically  !
 ! A112  A(52,51,53)           111.6176         calculate D2E/DX2 analytically  !
 ! A113  A(52,51,54)           105.5322         calculate D2E/DX2 analytically  !
 ! A114  A(53,51,54)           104.0806         calculate D2E/DX2 analytically  !
 ! A115  A(7,52,10)             65.8373         calculate D2E/DX2 analytically  !
 ! A116  A(7,52,37)            118.112          calculate D2E/DX2 analytically  !
 ! A117  A(7,52,51)            147.9555         calculate D2E/DX2 analytically  !
 ! A118  A(7,52,83)             85.1428         calculate D2E/DX2 analytically  !
 ! A119  A(10,52,37)            58.9458         calculate D2E/DX2 analytically  !
 ! A120  A(10,52,51)           128.3691         calculate D2E/DX2 analytically  !
 ! A121  A(10,52,83)            80.6468         calculate D2E/DX2 analytically  !
 ! A122  A(37,52,51)            90.9461         calculate D2E/DX2 analytically  !
 ! A123  A(37,52,83)            61.2388         calculate D2E/DX2 analytically  !
 ! A124  A(51,52,83)           123.0589         calculate D2E/DX2 analytically  !
 ! A125  A(34,53,51)           108.0386         calculate D2E/DX2 analytically  !
 ! A126  A(51,54,55)           120.4812         calculate D2E/DX2 analytically  !
 ! A127  A(51,54,56)           118.1002         calculate D2E/DX2 analytically  !
 ! A128  A(55,54,56)           121.3804         calculate D2E/DX2 analytically  !
 ! A129  A(54,55,57)           118.5341         calculate D2E/DX2 analytically  !
 ! A130  A(54,55,58)           120.8726         calculate D2E/DX2 analytically  !
 ! A131  A(57,55,58)           120.5724         calculate D2E/DX2 analytically  !
 ! A132  A(54,56,59)           119.1446         calculate D2E/DX2 analytically  !
 ! A133  A(54,56,60)           120.3027         calculate D2E/DX2 analytically  !
 ! A134  A(59,56,60)           120.5179         calculate D2E/DX2 analytically  !
 ! A135  A(55,57,61)           120.9775         calculate D2E/DX2 analytically  !
 ! A136  A(55,57,93)           119.6836         calculate D2E/DX2 analytically  !
 ! A137  A(61,57,93)           119.3317         calculate D2E/DX2 analytically  !
 ! A138  A(56,59,61)           120.5015         calculate D2E/DX2 analytically  !
 ! A139  A(56,59,97)           119.7514         calculate D2E/DX2 analytically  !
 ! A140  A(61,59,97)           119.7108         calculate D2E/DX2 analytically  !
 ! A141  A(57,61,59)           119.4389         calculate D2E/DX2 analytically  !
 ! A142  A(57,61,62)           120.224          calculate D2E/DX2 analytically  !
 ! A143  A(59,61,62)           120.3358         calculate D2E/DX2 analytically  !
 ! A144  A(44,63,64)           109.1172         calculate D2E/DX2 analytically  !
 ! A145  A(44,63,65)           110.467          calculate D2E/DX2 analytically  !
 ! A146  A(44,63,66)           106.0365         calculate D2E/DX2 analytically  !
 ! A147  A(64,63,65)           111.402          calculate D2E/DX2 analytically  !
 ! A148  A(64,63,66)           110.5429         calculate D2E/DX2 analytically  !
 ! A149  A(65,63,66)           109.1393         calculate D2E/DX2 analytically  !
 ! A150  A(45,67,68)           110.8962         calculate D2E/DX2 analytically  !
 ! A151  A(45,67,69)           111.8382         calculate D2E/DX2 analytically  !
 ! A152  A(45,67,70)           106.3243         calculate D2E/DX2 analytically  !
 ! A153  A(68,67,69)           108.9068         calculate D2E/DX2 analytically  !
 ! A154  A(68,67,70)           109.0893         calculate D2E/DX2 analytically  !
 ! A155  A(69,67,70)           109.7295         calculate D2E/DX2 analytically  !
 ! A156  A(46,71,72)           112.0577         calculate D2E/DX2 analytically  !
 ! A157  A(46,71,73)           110.9035         calculate D2E/DX2 analytically  !
 ! A158  A(46,71,74)           106.1096         calculate D2E/DX2 analytically  !
 ! A159  A(72,71,73)           108.8202         calculate D2E/DX2 analytically  !
 ! A160  A(72,71,74)           109.1447         calculate D2E/DX2 analytically  !
 ! A161  A(73,71,74)           109.755          calculate D2E/DX2 analytically  !
 ! A162  A(50,75,76)           106.4102         calculate D2E/DX2 analytically  !
 ! A163  A(50,75,77)           110.9571         calculate D2E/DX2 analytically  !
 ! A164  A(50,75,78)           112.3228         calculate D2E/DX2 analytically  !
 ! A165  A(76,75,77)           109.3048         calculate D2E/DX2 analytically  !
 ! A166  A(76,75,78)           108.7918         calculate D2E/DX2 analytically  !
 ! A167  A(77,75,78)           108.9737         calculate D2E/DX2 analytically  !
 ! A168  A(12,79,80)           106.8023         calculate D2E/DX2 analytically  !
 ! A169  A(12,79,81)           111.5357         calculate D2E/DX2 analytically  !
 ! A170  A(12,79,82)           110.8027         calculate D2E/DX2 analytically  !
 ! A171  A(80,79,81)           109.4955         calculate D2E/DX2 analytically  !
 ! A172  A(80,79,82)           109.3256         calculate D2E/DX2 analytically  !
 ! A173  A(81,79,82)           108.8393         calculate D2E/DX2 analytically  !
 ! A174  A(19,83,52)           100.9443         calculate D2E/DX2 analytically  !
 ! A175  A(19,83,84)           159.3604         calculate D2E/DX2 analytically  !
 ! A176  A(52,83,84)            93.5625         calculate D2E/DX2 analytically  !
 ! A177  A(83,84,85)           124.8201         calculate D2E/DX2 analytically  !
 ! A178  A(83,84,89)           122.3672         calculate D2E/DX2 analytically  !
 ! A179  A(85,84,89)           112.7516         calculate D2E/DX2 analytically  !
 ! A180  A(84,85,86)           110.8577         calculate D2E/DX2 analytically  !
 ! A181  A(84,85,87)           107.2373         calculate D2E/DX2 analytically  !
 ! A182  A(84,85,88)           111.0339         calculate D2E/DX2 analytically  !
 ! A183  A(86,85,87)           109.2543         calculate D2E/DX2 analytically  !
 ! A184  A(86,85,88)           108.9102         calculate D2E/DX2 analytically  !
 ! A185  A(87,85,88)           109.5147         calculate D2E/DX2 analytically  !
 ! A186  A(84,89,90)           110.6756         calculate D2E/DX2 analytically  !
 ! A187  A(84,89,91)           107.0851         calculate D2E/DX2 analytically  !
 ! A188  A(84,89,92)           110.4881         calculate D2E/DX2 analytically  !
 ! A189  A(90,89,91)           109.787          calculate D2E/DX2 analytically  !
 ! A190  A(90,89,92)           109.0166         calculate D2E/DX2 analytically  !
 ! A191  A(91,89,92)           109.7697         calculate D2E/DX2 analytically  !
 ! A192  A(57,93,94)           111.6167         calculate D2E/DX2 analytically  !
 ! A193  A(57,93,95)           112.1205         calculate D2E/DX2 analytically  !
 ! A194  A(57,93,96)           111.9537         calculate D2E/DX2 analytically  !
 ! A195  A(94,93,95)           106.8601         calculate D2E/DX2 analytically  !
 ! A196  A(94,93,96)           107.3721         calculate D2E/DX2 analytically  !
 ! A197  A(95,93,96)           106.5896         calculate D2E/DX2 analytically  !
 ! A198  A(59,97,98)           111.3444         calculate D2E/DX2 analytically  !
 ! A199  A(59,97,99)           112.3791         calculate D2E/DX2 analytically  !
 ! A200  A(59,97,100)          111.9684         calculate D2E/DX2 analytically  !
 ! A201  A(98,97,99)           106.9166         calculate D2E/DX2 analytically  !
 ! A202  A(98,97,100)          106.2762         calculate D2E/DX2 analytically  !
 ! A203  A(99,97,100)          107.6119         calculate D2E/DX2 analytically  !
 ! D1    D(5,1,2,3)            -53.5001         calculate D2E/DX2 analytically  !
 ! D2    D(5,1,2,7)             63.7472         calculate D2E/DX2 analytically  !
 ! D3    D(5,1,2,13)          -176.788          calculate D2E/DX2 analytically  !
 ! D4    D(8,1,2,3)             65.4516         calculate D2E/DX2 analytically  !
 ! D5    D(8,1,2,7)           -177.3011         calculate D2E/DX2 analytically  !
 ! D6    D(8,1,2,13)           -57.8363         calculate D2E/DX2 analytically  !
 ! D7    D(14,1,2,3)          -173.782          calculate D2E/DX2 analytically  !
 ! D8    D(14,1,2,7)           -56.5347         calculate D2E/DX2 analytically  !
 ! D9    D(14,1,2,13)           62.9301         calculate D2E/DX2 analytically  !
 ! D10   D(2,1,5,4)             52.7771         calculate D2E/DX2 analytically  !
 ! D11   D(2,1,5,10)           -67.2747         calculate D2E/DX2 analytically  !
 ! D12   D(2,1,5,15)           171.5914         calculate D2E/DX2 analytically  !
 ! D13   D(8,1,5,4)            -66.8219         calculate D2E/DX2 analytically  !
 ! D14   D(8,1,5,10)           173.1263         calculate D2E/DX2 analytically  !
 ! D15   D(8,1,5,15)            51.9924         calculate D2E/DX2 analytically  !
 ! D16   D(14,1,5,4)           174.2002         calculate D2E/DX2 analytically  !
 ! D17   D(14,1,5,10)           54.1484         calculate D2E/DX2 analytically  !
 ! D18   D(14,1,5,15)          -66.9855         calculate D2E/DX2 analytically  !
 ! D19   D(2,1,14,24)          -97.5247         calculate D2E/DX2 analytically  !
 ! D20   D(5,1,14,24)          141.384          calculate D2E/DX2 analytically  !
 ! D21   D(8,1,14,24)           23.1603         calculate D2E/DX2 analytically  !
 ! D22   D(1,2,3,6)            171.2062         calculate D2E/DX2 analytically  !
 ! D23   D(1,2,3,11)            56.3703         calculate D2E/DX2 analytically  !
 ! D24   D(1,2,3,12)           -67.1798         calculate D2E/DX2 analytically  !
 ! D25   D(7,2,3,6)             53.8344         calculate D2E/DX2 analytically  !
 ! D26   D(7,2,3,11)           -61.0015         calculate D2E/DX2 analytically  !
 ! D27   D(7,2,3,12)           175.4485         calculate D2E/DX2 analytically  !
 ! D28   D(13,2,3,6)           -66.9522         calculate D2E/DX2 analytically  !
 ! D29   D(13,2,3,11)          178.2119         calculate D2E/DX2 analytically  !
 ! D30   D(13,2,3,12)           54.6619         calculate D2E/DX2 analytically  !
 ! D31   D(1,2,7,52)           -44.0991         calculate D2E/DX2 analytically  !
 ! D32   D(3,2,7,52)            74.9287         calculate D2E/DX2 analytically  !
 ! D33   D(13,2,7,52)         -163.1497         calculate D2E/DX2 analytically  !
 ! D34   D(1,2,13,20)         -155.2382         calculate D2E/DX2 analytically  !
 ! D35   D(3,2,13,20)           82.3043         calculate D2E/DX2 analytically  !
 ! D36   D(7,2,13,20)          -37.1068         calculate D2E/DX2 analytically  !
 ! D37   D(2,3,11,4)           -60.3785         calculate D2E/DX2 analytically  !
 ! D38   D(6,3,11,4)          -179.6089         calculate D2E/DX2 analytically  !
 ! D39   D(12,3,11,4)           60.8742         calculate D2E/DX2 analytically  !
 ! D40   D(2,3,12,79)         -173.4797         calculate D2E/DX2 analytically  !
 ! D41   D(6,3,12,79)          -51.3667         calculate D2E/DX2 analytically  !
 ! D42   D(11,3,12,79)          64.4648         calculate D2E/DX2 analytically  !
 ! D43   D(9,4,5,1)             64.997          calculate D2E/DX2 analytically  !
 ! D44   D(9,4,5,10)          -175.2868         calculate D2E/DX2 analytically  !
 ! D45   D(9,4,5,15)           -55.5559         calculate D2E/DX2 analytically  !
 ! D46   D(11,4,5,1)           -53.7312         calculate D2E/DX2 analytically  !
 ! D47   D(11,4,5,10)           65.9851         calculate D2E/DX2 analytically  !
 ! D48   D(11,4,5,15)         -174.2841         calculate D2E/DX2 analytically  !
 ! D49   D(16,4,5,1)          -172.959          calculate D2E/DX2 analytically  !
 ! D50   D(16,4,5,10)          -53.2428         calculate D2E/DX2 analytically  !
 ! D51   D(16,4,5,15)           66.4881         calculate D2E/DX2 analytically  !
 ! D52   D(5,4,11,3)            58.9693         calculate D2E/DX2 analytically  !
 ! D53   D(9,4,11,3)           -59.4432         calculate D2E/DX2 analytically  !
 ! D54   D(16,4,11,3)         -177.3718         calculate D2E/DX2 analytically  !
 ! D55   D(5,4,16,17)          -57.9341         calculate D2E/DX2 analytically  !
 ! D56   D(5,4,16,18)         -169.1708         calculate D2E/DX2 analytically  !
 ! D57   D(5,4,16,19)           67.3365         calculate D2E/DX2 analytically  !
 ! D58   D(9,4,16,17)           63.4853         calculate D2E/DX2 analytically  !
 ! D59   D(9,4,16,18)          -47.7514         calculate D2E/DX2 analytically  !
 ! D60   D(9,4,16,19)         -171.2442         calculate D2E/DX2 analytically  !
 ! D61   D(11,4,16,17)        -178.9941         calculate D2E/DX2 analytically  !
 ! D62   D(11,4,16,18)          69.7692         calculate D2E/DX2 analytically  !
 ! D63   D(11,4,16,19)         -53.7235         calculate D2E/DX2 analytically  !
 ! D64   D(1,5,10,52)           49.0832         calculate D2E/DX2 analytically  !
 ! D65   D(4,5,10,52)          -72.247          calculate D2E/DX2 analytically  !
 ! D66   D(15,5,10,52)         170.0327         calculate D2E/DX2 analytically  !
 ! D67   D(1,5,15,28)          101.5775         calculate D2E/DX2 analytically  !
 ! D68   D(4,5,15,28)         -137.2416         calculate D2E/DX2 analytically  !
 ! D69   D(10,5,15,28)         -18.3921         calculate D2E/DX2 analytically  !
 ! D70   D(2,7,52,10)           16.9027         calculate D2E/DX2 analytically  !
 ! D71   D(2,7,52,37)          -11.3736         calculate D2E/DX2 analytically  !
 ! D72   D(2,7,52,51)          141.3411         calculate D2E/DX2 analytically  !
 ! D73   D(2,7,52,83)          -65.0121         calculate D2E/DX2 analytically  !
 ! D74   D(5,10,52,7)          -19.4138         calculate D2E/DX2 analytically  !
 ! D75   D(5,10,52,37)         131.3938         calculate D2E/DX2 analytically  !
 ! D76   D(5,10,52,51)        -165.4876         calculate D2E/DX2 analytically  !
 ! D77   D(5,10,52,83)          69.4311         calculate D2E/DX2 analytically  !
 ! D78   D(3,12,79,80)         174.1272         calculate D2E/DX2 analytically  !
 ! D79   D(3,12,79,81)         -66.2727         calculate D2E/DX2 analytically  !
 ! D80   D(3,12,79,82)          55.1459         calculate D2E/DX2 analytically  !
 ! D81   D(2,13,20,21)         -64.727          calculate D2E/DX2 analytically  !
 ! D82   D(2,13,20,22)          57.0923         calculate D2E/DX2 analytically  !
 ! D83   D(2,13,20,23)         176.2304         calculate D2E/DX2 analytically  !
 ! D84   D(1,14,24,25)         -62.1237         calculate D2E/DX2 analytically  !
 ! D85   D(1,14,24,26)          59.4545         calculate D2E/DX2 analytically  !
 ! D86   D(1,14,24,27)         179.2495         calculate D2E/DX2 analytically  !
 ! D87   D(5,15,28,29)         -64.0687         calculate D2E/DX2 analytically  !
 ! D88   D(5,15,28,30)          57.9702         calculate D2E/DX2 analytically  !
 ! D89   D(5,15,28,31)         176.4979         calculate D2E/DX2 analytically  !
 ! D90   D(4,16,19,37)         -55.9197         calculate D2E/DX2 analytically  !
 ! D91   D(4,16,19,83)          30.6988         calculate D2E/DX2 analytically  !
 ! D92   D(17,16,19,37)         64.7439         calculate D2E/DX2 analytically  !
 ! D93   D(17,16,19,83)        151.3625         calculate D2E/DX2 analytically  !
 ! D94   D(18,16,19,37)       -175.9565         calculate D2E/DX2 analytically  !
 ! D95   D(18,16,19,83)        -89.3379         calculate D2E/DX2 analytically  !
 ! D96   D(16,19,37,34)       -121.0443         calculate D2E/DX2 analytically  !
 ! D97   D(16,19,37,52)         77.2201         calculate D2E/DX2 analytically  !
 ! D98   D(83,19,37,34)        131.5384         calculate D2E/DX2 analytically  !
 ! D99   D(83,19,37,52)        -30.1973         calculate D2E/DX2 analytically  !
 ! D100  D(16,19,83,52)        -96.8125         calculate D2E/DX2 analytically  !
 ! D101  D(16,19,83,84)         37.0499         calculate D2E/DX2 analytically  !
 ! D102  D(37,19,83,52)         29.5509         calculate D2E/DX2 analytically  !
 ! D103  D(37,19,83,84)        163.4132         calculate D2E/DX2 analytically  !
 ! D104  D(36,32,33,34)        -45.9572         calculate D2E/DX2 analytically  !
 ! D105  D(36,32,33,38)         69.7332         calculate D2E/DX2 analytically  !
 ! D106  D(36,32,33,44)       -169.7237         calculate D2E/DX2 analytically  !
 ! D107  D(39,32,33,34)         71.998          calculate D2E/DX2 analytically  !
 ! D108  D(39,32,33,38)       -172.3116         calculate D2E/DX2 analytically  !
 ! D109  D(39,32,33,44)        -51.7685         calculate D2E/DX2 analytically  !
 ! D110  D(45,32,33,34)       -166.936          calculate D2E/DX2 analytically  !
 ! D111  D(45,32,33,38)        -51.2456         calculate D2E/DX2 analytically  !
 ! D112  D(45,32,33,44)         69.2976         calculate D2E/DX2 analytically  !
 ! D113  D(33,32,36,35)          9.3412         calculate D2E/DX2 analytically  !
 ! D114  D(33,32,36,41)       -109.2606         calculate D2E/DX2 analytically  !
 ! D115  D(33,32,36,46)        130.3745         calculate D2E/DX2 analytically  !
 ! D116  D(39,32,36,35)       -107.8353         calculate D2E/DX2 analytically  !
 ! D117  D(39,32,36,41)        133.5629         calculate D2E/DX2 analytically  !
 ! D118  D(39,32,36,46)         13.198          calculate D2E/DX2 analytically  !
 ! D119  D(45,32,36,35)        131.6022         calculate D2E/DX2 analytically  !
 ! D120  D(45,32,36,41)         13.0004         calculate D2E/DX2 analytically  !
 ! D121  D(45,32,36,46)       -107.3646         calculate D2E/DX2 analytically  !
 ! D122  D(33,32,45,67)        -93.9419         calculate D2E/DX2 analytically  !
 ! D123  D(36,32,45,67)        142.8339         calculate D2E/DX2 analytically  !
 ! D124  D(39,32,45,67)         24.3477         calculate D2E/DX2 analytically  !
 ! D125  D(32,33,34,37)       -144.7887         calculate D2E/DX2 analytically  !
 ! D126  D(32,33,34,42)         46.5628         calculate D2E/DX2 analytically  !
 ! D127  D(32,33,34,53)        -61.1921         calculate D2E/DX2 analytically  !
 ! D128  D(38,33,34,37)         99.0105         calculate D2E/DX2 analytically  !
 ! D129  D(38,33,34,42)        -69.6381         calculate D2E/DX2 analytically  !
 ! D130  D(38,33,34,53)       -177.3929         calculate D2E/DX2 analytically  !
 ! D131  D(44,33,34,37)        -21.2207         calculate D2E/DX2 analytically  !
 ! D132  D(44,33,34,42)        170.1308         calculate D2E/DX2 analytically  !
 ! D133  D(44,33,34,53)         62.3759         calculate D2E/DX2 analytically  !
 ! D134  D(32,33,44,63)       -122.9412         calculate D2E/DX2 analytically  !
 ! D135  D(34,33,44,63)        114.0928         calculate D2E/DX2 analytically  !
 ! D136  D(38,33,44,63)         -4.0273         calculate D2E/DX2 analytically  !
 ! D137  D(33,34,37,19)        -54.1001         calculate D2E/DX2 analytically  !
 ! D138  D(33,34,37,52)        103.9661         calculate D2E/DX2 analytically  !
 ! D139  D(42,34,37,19)        115.0885         calculate D2E/DX2 analytically  !
 ! D140  D(42,34,37,52)        -86.8453         calculate D2E/DX2 analytically  !
 ! D141  D(53,34,37,19)       -141.3175         calculate D2E/DX2 analytically  !
 ! D142  D(53,34,37,52)         16.7488         calculate D2E/DX2 analytically  !
 ! D143  D(33,34,42,35)         -3.7795         calculate D2E/DX2 analytically  !
 ! D144  D(37,34,42,35)       -173.2457         calculate D2E/DX2 analytically  !
 ! D145  D(53,34,42,35)         96.2339         calculate D2E/DX2 analytically  !
 ! D146  D(33,34,53,51)       -158.8142         calculate D2E/DX2 analytically  !
 ! D147  D(37,34,53,51)        -35.7128         calculate D2E/DX2 analytically  !
 ! D148  D(42,34,53,51)         79.1197         calculate D2E/DX2 analytically  !
 ! D149  D(40,35,36,32)        143.7338         calculate D2E/DX2 analytically  !
 ! D150  D(40,35,36,41)        -97.2813         calculate D2E/DX2 analytically  !
 ! D151  D(40,35,36,46)         19.43           calculate D2E/DX2 analytically  !
 ! D152  D(42,35,36,32)         31.0728         calculate D2E/DX2 analytically  !
 ! D153  D(42,35,36,41)        150.0577         calculate D2E/DX2 analytically  !
 ! D154  D(42,35,36,46)        -93.231          calculate D2E/DX2 analytically  !
 ! D155  D(47,35,36,32)        -93.2936         calculate D2E/DX2 analytically  !
 ! D156  D(47,35,36,41)         25.6914         calculate D2E/DX2 analytically  !
 ! D157  D(47,35,36,46)        142.4026         calculate D2E/DX2 analytically  !
 ! D158  D(36,35,42,34)        -36.5421         calculate D2E/DX2 analytically  !
 ! D159  D(40,35,42,34)       -152.5289         calculate D2E/DX2 analytically  !
 ! D160  D(47,35,42,34)         91.4251         calculate D2E/DX2 analytically  !
 ! D161  D(36,35,47,48)        177.0287         calculate D2E/DX2 analytically  !
 ! D162  D(36,35,47,49)         58.1165         calculate D2E/DX2 analytically  !
 ! D163  D(36,35,47,50)        -59.7711         calculate D2E/DX2 analytically  !
 ! D164  D(40,35,47,48)        -61.155          calculate D2E/DX2 analytically  !
 ! D165  D(40,35,47,49)        179.9328         calculate D2E/DX2 analytically  !
 ! D166  D(40,35,47,50)         62.0452         calculate D2E/DX2 analytically  !
 ! D167  D(42,35,47,48)         49.742          calculate D2E/DX2 analytically  !
 ! D168  D(42,35,47,49)        -69.1702         calculate D2E/DX2 analytically  !
 ! D169  D(42,35,47,50)        172.9422         calculate D2E/DX2 analytically  !
 ! D170  D(32,36,46,71)         69.2934         calculate D2E/DX2 analytically  !
 ! D171  D(35,36,46,71)       -164.2217         calculate D2E/DX2 analytically  !
 ! D172  D(41,36,46,71)        -49.6428         calculate D2E/DX2 analytically  !
 ! D173  D(19,37,52,7)         -34.6115         calculate D2E/DX2 analytically  !
 ! D174  D(19,37,52,10)        -64.9117         calculate D2E/DX2 analytically  !
 ! D175  D(19,37,52,51)        159.4676         calculate D2E/DX2 analytically  !
 ! D176  D(19,37,52,83)         31.6399         calculate D2E/DX2 analytically  !
 ! D177  D(34,37,52,7)         166.46           calculate D2E/DX2 analytically  !
 ! D178  D(34,37,52,10)        136.1598         calculate D2E/DX2 analytically  !
 ! D179  D(34,37,52,51)          0.539          calculate D2E/DX2 analytically  !
 ! D180  D(34,37,52,83)       -127.2887         calculate D2E/DX2 analytically  !
 ! D181  D(33,44,63,64)        -64.0853         calculate D2E/DX2 analytically  !
 ! D182  D(33,44,63,65)         58.7073         calculate D2E/DX2 analytically  !
 ! D183  D(33,44,63,66)        176.8329         calculate D2E/DX2 analytically  !
 ! D184  D(32,45,67,68)        -58.0164         calculate D2E/DX2 analytically  !
 ! D185  D(32,45,67,69)         63.7634         calculate D2E/DX2 analytically  !
 ! D186  D(32,45,67,70)       -176.4794         calculate D2E/DX2 analytically  !
 ! D187  D(36,46,71,72)        -67.6855         calculate D2E/DX2 analytically  !
 ! D188  D(36,46,71,73)         54.1417         calculate D2E/DX2 analytically  !
 ! D189  D(36,46,71,74)        173.2793         calculate D2E/DX2 analytically  !
 ! D190  D(35,47,50,75)        -73.8879         calculate D2E/DX2 analytically  !
 ! D191  D(48,47,50,75)         47.5008         calculate D2E/DX2 analytically  !
 ! D192  D(49,47,50,75)        165.3547         calculate D2E/DX2 analytically  !
 ! D193  D(47,50,75,76)       -170.9747         calculate D2E/DX2 analytically  !
 ! D194  D(47,50,75,77)        -52.1688         calculate D2E/DX2 analytically  !
 ! D195  D(47,50,75,78)         70.0824         calculate D2E/DX2 analytically  !
 ! D196  D(43,51,52,7)          43.2997         calculate D2E/DX2 analytically  !
 ! D197  D(43,51,52,10)        149.6093         calculate D2E/DX2 analytically  !
 ! D198  D(43,51,52,37)       -160.5536         calculate D2E/DX2 analytically  !
 ! D199  D(43,51,52,83)       -104.8471         calculate D2E/DX2 analytically  !
 ! D200  D(53,51,52,7)         173.5613         calculate D2E/DX2 analytically  !
 ! D201  D(53,51,52,10)        -80.1291         calculate D2E/DX2 analytically  !
 ! D202  D(53,51,52,37)        -30.292          calculate D2E/DX2 analytically  !
 ! D203  D(53,51,52,83)         25.4145         calculate D2E/DX2 analytically  !
 ! D204  D(54,51,52,7)         -73.9966         calculate D2E/DX2 analytically  !
 ! D205  D(54,51,52,10)         32.313          calculate D2E/DX2 analytically  !
 ! D206  D(54,51,52,37)         82.1502         calculate D2E/DX2 analytically  !
 ! D207  D(54,51,52,83)        137.8567         calculate D2E/DX2 analytically  !
 ! D208  D(43,51,53,34)        173.8297         calculate D2E/DX2 analytically  !
 ! D209  D(52,51,53,34)         43.4803         calculate D2E/DX2 analytically  !
 ! D210  D(54,51,53,34)        -69.8704         calculate D2E/DX2 analytically  !
 ! D211  D(43,51,54,55)        -84.0929         calculate D2E/DX2 analytically  !
 ! D212  D(43,51,54,56)         93.6906         calculate D2E/DX2 analytically  !
 ! D213  D(52,51,54,55)         37.5639         calculate D2E/DX2 analytically  !
 ! D214  D(52,51,54,56)       -144.6526         calculate D2E/DX2 analytically  !
 ! D215  D(53,51,54,55)        155.2048         calculate D2E/DX2 analytically  !
 ! D216  D(53,51,54,56)        -27.0116         calculate D2E/DX2 analytically  !
 ! D217  D(7,52,83,19)         101.9227         calculate D2E/DX2 analytically  !
 ! D218  D(7,52,83,84)         -63.3251         calculate D2E/DX2 analytically  !
 ! D219  D(10,52,83,19)         35.6474         calculate D2E/DX2 analytically  !
 ! D220  D(10,52,83,84)       -129.6005         calculate D2E/DX2 analytically  !
 ! D221  D(37,52,83,19)        -23.957          calculate D2E/DX2 analytically  !
 ! D222  D(37,52,83,84)        170.7951         calculate D2E/DX2 analytically  !
 ! D223  D(51,52,83,19)        -94.3983         calculate D2E/DX2 analytically  !
 ! D224  D(51,52,83,84)        100.3538         calculate D2E/DX2 analytically  !
 ! D225  D(51,54,55,57)        176.3294         calculate D2E/DX2 analytically  !
 ! D226  D(51,54,55,58)         -5.3258         calculate D2E/DX2 analytically  !
 ! D227  D(56,54,55,57)         -1.3804         calculate D2E/DX2 analytically  !
 ! D228  D(56,54,55,58)        176.9644         calculate D2E/DX2 analytically  !
 ! D229  D(51,54,56,59)       -177.5691         calculate D2E/DX2 analytically  !
 ! D230  D(51,54,56,60)          4.5644         calculate D2E/DX2 analytically  !
 ! D231  D(55,54,56,59)          0.1935         calculate D2E/DX2 analytically  !
 ! D232  D(55,54,56,60)       -177.673          calculate D2E/DX2 analytically  !
 ! D233  D(54,55,57,61)          1.3471         calculate D2E/DX2 analytically  !
 ! D234  D(54,55,57,93)       -179.6323         calculate D2E/DX2 analytically  !
 ! D235  D(58,55,57,61)       -177.0028         calculate D2E/DX2 analytically  !
 ! D236  D(58,55,57,93)          2.0178         calculate D2E/DX2 analytically  !
 ! D237  D(54,56,59,61)          1.0612         calculate D2E/DX2 analytically  !
 ! D238  D(54,56,59,97)       -176.7438         calculate D2E/DX2 analytically  !
 ! D239  D(60,56,59,61)        178.923          calculate D2E/DX2 analytically  !
 ! D240  D(60,56,59,97)          1.118          calculate D2E/DX2 analytically  !
 ! D241  D(55,57,61,59)         -0.1324         calculate D2E/DX2 analytically  !
 ! D242  D(55,57,61,62)       -179.7105         calculate D2E/DX2 analytically  !
 ! D243  D(93,57,61,59)       -179.1564         calculate D2E/DX2 analytically  !
 ! D244  D(93,57,61,62)          1.2655         calculate D2E/DX2 analytically  !
 ! D245  D(55,57,93,94)         37.6007         calculate D2E/DX2 analytically  !
 ! D246  D(55,57,93,95)        -82.2563         calculate D2E/DX2 analytically  !
 ! D247  D(55,57,93,96)        157.9987         calculate D2E/DX2 analytically  !
 ! D248  D(61,57,93,94)       -143.3625         calculate D2E/DX2 analytically  !
 ! D249  D(61,57,93,95)         96.7805         calculate D2E/DX2 analytically  !
 ! D250  D(61,57,93,96)        -22.9645         calculate D2E/DX2 analytically  !
 ! D251  D(56,59,61,57)         -1.0911         calculate D2E/DX2 analytically  !
 ! D252  D(56,59,61,62)        178.4865         calculate D2E/DX2 analytically  !
 ! D253  D(97,59,61,57)        176.7148         calculate D2E/DX2 analytically  !
 ! D254  D(97,59,61,62)         -3.7076         calculate D2E/DX2 analytically  !
 ! D255  D(56,59,97,98)         85.7778         calculate D2E/DX2 analytically  !
 ! D256  D(56,59,97,99)        -34.1397         calculate D2E/DX2 analytically  !
 ! D257  D(56,59,97,100)      -155.3996         calculate D2E/DX2 analytically  !
 ! D258  D(61,59,97,98)        -92.0447         calculate D2E/DX2 analytically  !
 ! D259  D(61,59,97,99)        148.0378         calculate D2E/DX2 analytically  !
 ! D260  D(61,59,97,100)        26.7779         calculate D2E/DX2 analytically  !
 ! D261  D(19,83,84,85)         28.4924         calculate D2E/DX2 analytically  !
 ! D262  D(19,83,84,89)       -154.559          calculate D2E/DX2 analytically  !
 ! D263  D(52,83,84,85)        163.3174         calculate D2E/DX2 analytically  !
 ! D264  D(52,83,84,89)        -19.734          calculate D2E/DX2 analytically  !
 ! D265  D(83,84,85,86)       -122.9477         calculate D2E/DX2 analytically  !
 ! D266  D(83,84,85,87)         -3.7582         calculate D2E/DX2 analytically  !
 ! D267  D(83,84,85,88)        115.8481         calculate D2E/DX2 analytically  !
 ! D268  D(89,84,85,86)         59.8469         calculate D2E/DX2 analytically  !
 ! D269  D(89,84,85,87)        179.0363         calculate D2E/DX2 analytically  !
 ! D270  D(89,84,85,88)        -61.3574         calculate D2E/DX2 analytically  !
 ! D271  D(83,84,89,90)       -117.075          calculate D2E/DX2 analytically  !
 ! D272  D(83,84,89,91)          2.5634         calculate D2E/DX2 analytically  !
 ! D273  D(83,84,89,92)        122.0746         calculate D2E/DX2 analytically  !
 ! D274  D(85,84,89,90)         60.2089         calculate D2E/DX2 analytically  !
 ! D275  D(85,84,89,91)        179.8473         calculate D2E/DX2 analytically  !
 ! D276  D(85,84,89,92)        -60.6415         calculate D2E/DX2 analytically  !
 --------------------------------------------------------------------------------
 Trust Radius=1.00D-01 FncErr=1.00D-07 GrdErr=1.00D-06 EigMax=2.50D+02 EigMin=1.00D-04
 Number of steps in this run=    595 maximum allowed number of steps=    600.
 Search for a saddle point of order  1.
 GradGradGradGradGradGradGradGradGradGradGradGradGradGradGradGradGradGrad

 Leave Link  103 at Wed Jun  5 05:37:18 2019, MaxMem=  6442450944 cpu:               5.1 elap:               0.2
 (Enter /home/ekwan/sw/g16/l202.exe)
 Stoichiometry    C30H47F6NaO15S
 Framework group  C1[X(C30H47F6NaO15S)]
 Deg. of freedom   294
 Full point group                 C1      NOp   1
 Largest Abelian subgroup         C1      NOp   1
 Largest concise Abelian subgroup C1      NOp   1
                         Standard orientation:                         
 ---------------------------------------------------------------------
 Center     Atomic      Atomic             Coordinates (Angstroms)
 Number     Number       Type             X           Y           Z
 ---------------------------------------------------------------------
      1          6           0        3.447676    1.387126    1.144622
      2          6           0        4.155770    0.674357   -0.007419
      3          6           0        4.718074   -0.674173    0.463699
      4          6           0        3.009797   -0.888580    2.157537
      5          6           0        2.398140    0.463834    1.769743
      6          1           0        5.090738   -1.264842   -0.381355
      7          1           0        3.408375    0.468906   -0.784959
      8          1           0        4.181706    1.648576    1.917601
      9          1           0        3.749712   -0.718456    2.950881
     10          1           0        1.598990    0.299889    1.039474
     11          8           0        3.677901   -1.470110    1.011146
     12          8           0        5.747655   -0.433121    1.381072
     13          8           0        5.174080    1.517124   -0.525243
     14          8           0        2.800546    2.570115    0.682381
     15          8           0        1.874982    1.048034    2.958876
     16          6           0        1.977358   -1.924775    2.633025
     17          1           0        1.466053   -1.453236    3.497064
     18          1           0        2.567717   -2.765549    3.063195
     19          8           0        1.118035   -2.349459    1.645591
     20          6           0        5.504729    1.236973   -1.874838
     21          1           0        5.945364    0.236795   -1.997212
     22          1           0        4.620830    1.311025   -2.525104
     23          1           0        6.241180    1.982629   -2.183860
     24          6           0        3.559631    3.754807    0.894723
     25          1           0        3.727173    3.923165    1.968582
     26          1           0        4.526447    3.703156    0.384355
     27          1           0        2.973515    4.579966    0.492395
     28          6           0        0.599231    1.649918    2.792347
     29          1           0        0.641445    2.497933    2.102901
     30          1           0       -0.139749    0.924163    2.423097
     31          1           0        0.285805    2.000077    3.780433
     32          6           0       -2.946485   -2.934190   -0.300555
     33          6           0       -1.583160   -2.991570    0.419907
     34          6           0       -1.047371   -1.611717    0.608595
     35          6           0       -3.228480   -0.917034    1.318163
     36          6           0       -3.879952   -1.856906    0.302590
     37          1           0        0.005033   -1.377088    0.555193
     38          1           0       -1.758538   -3.401020    1.424676
     39          1           0       -2.740858   -2.658983   -1.338133
     40          1           0       -3.661045    0.071226    1.184727
     41          1           0       -4.684744   -2.383163    0.833875
     42          8           0       -1.799700   -0.673760    1.057526
     43          8           0        0.213484    0.057630   -3.483624
     44          8           0       -0.673024   -3.804223   -0.283677
     45          8           0       -3.602963   -4.185901   -0.222223
     46          8           0       -4.436209   -1.017501   -0.698248
     47          6           0       -3.370117   -1.360993    2.783147
     48          1           0       -2.825266   -0.649852    3.420080
     49          1           0       -2.940693   -2.354894    2.935144
     50          8           0       -4.727038   -1.457381    3.150252
     51         16           0       -0.025268   -0.161351   -2.041616
     52          8           0        1.228398   -0.301295   -1.236038
     53          8           0       -0.994392   -1.270925   -1.753672
     54          6           0       -0.844194    1.311138   -1.407124
     55          6           0       -0.099129    2.423346   -1.021326
     56          6           0       -2.237770    1.318767   -1.359838
     57          6           0       -0.779592    3.572179   -0.608082
     58          1           0        0.985180    2.392002   -1.014907
     59          6           0       -2.895938    2.466545   -0.920540
     60          1           0       -2.798702    0.431576   -1.628159
     61          6           0       -2.172414    3.600782   -0.553997
     62          1           0       -2.687150    4.498757   -0.236530
     63          6           0       -0.144940   -4.883432    0.502110
     64          1           0        0.441416   -4.471278    1.328746
     65          1           0       -0.956883   -5.524961    0.867833
     66          1           0        0.493484   -5.461714   -0.169793
     67          6           0       -3.378538   -5.043094   -1.339094
     68          1           0       -3.695511   -4.559978   -2.273948
     69          1           0       -2.326609   -5.329638   -1.427180
     70          1           0       -3.990141   -5.932388   -1.171353
     71          6           0       -5.380735   -1.661909   -1.541074
     72          1           0       -4.912348   -2.422143   -2.179462
     73          1           0       -6.174831   -2.136849   -0.948693
     74          1           0       -5.807856   -0.879865   -2.170551
     75          6           0       -5.375822   -0.201303    3.334405
     76          1           0       -6.353477   -0.419822    3.768112
     77          1           0       -4.807046    0.437392    4.024109
     78          1           0       -5.520782    0.335569    2.388447
     79          6           0        6.438466   -1.614358    1.770976
     80          1           0        7.276106   -1.298386    2.395848
     81          1           0        5.790554   -2.289529    2.341775
     82          1           0        6.822753   -2.150494    0.891102
     83         11           0        1.998763   -2.353262   -0.421478
     84          8           0        3.559024   -2.598164   -2.102586
     85          6           0        4.655999   -3.499259   -2.065793
     86          1           0        5.606857   -2.963811   -2.197121
     87          1           0        4.646348   -3.981174   -1.085392
     88          1           0        4.565825   -4.262490   -2.850776
     89          6           0        3.473319   -1.884450   -3.332521
     90          1           0        3.347530   -2.577722   -4.175294
     91          1           0        2.606068   -1.228081   -3.262093
     92          1           0        4.380164   -1.285905   -3.493710
     93          6           0       -0.001166    4.790306   -0.194055
     94          9           0        1.096445    4.964823   -0.962940
     95          9           0        0.426873    4.710621    1.090188
     96          9           0       -0.740493    5.916990   -0.284921
     97          6           0       -4.394472    2.465311   -0.794164
     98          9           0       -4.789961    1.976174    0.415050
     99          9           0       -4.987914    1.707766   -1.736439
    100          9           0       -4.910056    3.709587   -0.885962
 ---------------------------------------------------------------------
 Rotational constants (GHZ):           0.0634286           0.0451647           0.0343019
 Leave Link  202 at Wed Jun  5 05:37:18 2019, MaxMem=  6442450944 cpu:               5.1 elap:               0.2
 (Enter /home/ekwan/sw/g16/l301.exe)
 Standard basis: 6-31G(d) (6D, 7F)
 Ernie: Thresh=  0.10000D-02 Tol=  0.10000D-05 Strict=F.
 There are   897 symmetry adapted cartesian basis functions of A   symmetry.
 There are   897 symmetry adapted basis functions of A   symmetry.
   897 basis functions,  1720 primitive gaussians,   897 cartesian basis functions
   214 alpha electrons      214 beta electrons
       nuclear repulsion energy      9749.0569798970 Hartrees.
 IExCor=  402 DFT=T Ex+Corr=B3LYP ExCW=0 ScaHFX=  0.200000
 ScaDFX=  0.800000  0.720000  1.000000  0.810000 ScalE2=  1.000000  1.000000
 IRadAn=      5 IRanWt=     -1 IRanGd=            0 ICorTp=0 IEmpDi=141
[...]
 .00021403,0.00006721,-0.00002056,-0.00002537,0.00024169,0.00026580,0.0
 0017020,-0.00008201,0.00001932,0.00008442,-0.00018149,-0.00004466,0.00
 083101,-0.00322270,0.00139439,0.00010410,0.00003584,-0.00010860,0.0000
 0144,-0.00000393,0.00008082,-0.00000791,0.00000219,0.00000604,-0.00005
 903,0.00013477,0.00010187,-0.00012691,-0.00109516,-0.00040543,-0.00012
 980,0.00032430,0.00004665,0.00028516,0.00044247,-0.00003285,-0.0006227
 8,0.00047416,0.00080133,-0.00011057,0.00007785,-0.00004798,0.00150919,
 -0.00253198,0.00017938,-0.00026001,-0.00025317,0.00055458,0.00008064,0
 .00012911,-0.00002769,-0.01049007,-0.00067038,-0.01240099,-0.00000666,
 0.00143432,0.00005284,-0.00119049,0.00158501,-0.00016024,0.00062743,0.
 00054046,-0.00010862,-0.00001568,0.00006051,-0.00004509,0.00000304,-0.
 00001178,0.00000828,-0.00000397,-0.00000092,0.00000233,0.00000657,-0.0
 0001327,0.00000230,-0.00002371,0.00009024,0.00005265,-0.00000292,0.000
 00874,0.00001144,0.00001738,-0.00002217,-0.00000770,-0.00000521,-0.000
 02340,-0.00000622,0.00041545,0.00074538,0.00008696,0.00004121,-0.00027
 017,0.00001522,-0.00004665,-0.00022767,0.00012561,0.00032095,-0.000399
 82,0.00060749,0.00007059,-0.00013227,-0.00000168,-0.00000484,0.0000164
 4,-0.00001731,0.00001534,0.00001174,0.00003074,-0.00004805,-0.00005079
 ,-0.00001731,0.00000809,-0.00001574,0.00000238,-0.00000113,0.00000127,
 -0.00000115,0.00000040,0.00000178,-0.00000172,-0.00000152,0.00000247,0
 .00000221,-0.00001984,-0.00006025,0.00001092,0.00000091,0.00001910,0.0
 0000610,0.00000214,-0.00000938,-0.00000094,0.00000120,0.00000209,-0.00
 000052,-0.00000144,-0.00000023,-0.00000131,-0.00000161,0.00000291,0.00
 000290,0.00000261,-0.00001119,-0.00000343,-0.00000469,0.00000732,0.000
 00471,-0.00000041,-0.00000643,-0.00000842,0.00000218,0.00000166,-0.000
 00011,0.00040451,0.00060443,0.00032209,-0.00035695,-0.00024510,0.00005
 836,-0.00012976,-0.00009726,-0.00018173,-0.00009833,-0.00017107,-0.000
 02196,-0.05819540,-0.12564734,-0.06833716,0.00305576,0.01488436,-0.006
 29803,0.07700991,0.17858549,0.00002578,-0.00004120,0.00000701,0.000029
 05,0.00001221,-0.00001869,0.00005140,-0.00000177,-0.00000299,0.0000278
 6,-0.00002901,-0.00001507,0.00005564,-0.00000982,-0.00003297,-0.000010
 16,0.00000562,0.00000291,0.00000385,0.00000079,-0.00000608,-0.00000982
 ,0.00000361,-0.00000646,-0.00000805,0.00000417,-0.00000249,-0.00000722
 ,-0.00000944,0.00000042,-0.00005188,0.00001684,0.00002917,-0.00003713,
 0.00001486,-0.00000770,-0.00004000,-0.00000472,0.00004723,-0.00009382,
 -0.00000436,-0.00002284,-0.00014113,0.00006794,0.00001132,0.00002660,0
 .00001401,0.00002795,-0.00000247,-0.00000539,0.00000065,-0.00002333,0.
 00001074,-0.00001832,-0.00006833,0.00004442,-0.00002755,0.00000867,-0.
 00000885,-0.00003721,-0.00000219,0.00000572,0.00000437,0.00000329,0.00
 000146,0.00000283,-0.00000399,-0.00000188,0.00000398,0.00003628,0.0000
 3551,0.00000353,-0.00000433,-0.00000549,-0.00000651,-0.00001816,-0.000
 00287,-0.00000143,0.00001711,0.00000729,-0.00000182,0.00011137,-0.0000
 4512,0.00003457,0.00001936,0.00001946,0.00000031,-0.00000938,-0.000031
 80,-0.00000122,0.00000368,0.00000646,-0.00000069,0.00001131,-0.0000584
 3,0.00000270,0.00006139,-0.00004260,-0.00001739,0.00017707,-0.00039756
 ,-0.00016671,0.00034850,-0.00049918,-0.00005601,-0.00047232,0.00009976
 ,-0.00042309,0.00002633,0.00001571,0.00002447,0.00000313,-0.00001051,0
 .00001379,-0.00003909,0.00003963,0.00001734,0.00024982,-0.00057017,0.0
 0018957,0.00003685,-0.00007851,0.00006227,-0.00029957,0.00043405,0.000
 14435,-0.00005788,0.00015394,0.00041347,-0.00001033,0.00006513,0.00004
 019,0.00006501,0.00007506,0.00009096,0.00015214,0.00074673,0.00055141,
 0.00001820,0.00008128,0.00007023,0.00000725,-0.00002953,0.00003884,-0.
 00000658,0.00005404,-0.00006896,-0.00012290,0.00028272,-0.00000996,0.0
 0009593,-0.00079785,-0.00065472,-0.00019136,0.00026261,0.00010017,0.00
 011025,0.00030459,0.00015994,-0.00071722,0.00024459,0.00040969,-0.0000
 1213,0.00045736,0.00013557,0.00172696,-0.00196971,-0.00011920,0.000143
 11,-0.00100332,-0.00042655,0.00004864,0.00008202,0.00001235,-0.0083045
 5,-0.01089962,-0.00241745,-0.00033284,0.00100251,-0.00019004,-0.002877
 69,0.00150465,0.00083014,0.00030385,0.00025007,0.00008136,0.00001214,-
 0.00001671,0.00000523,0.00000045,-0.00001090,-0.00000171,0.00000012,0.
 00000546,-0.00000332,-0.00000641,0.00000636,0.00000256,-0.00000671,0.0
 0000489,-0.00008192,0.00000142,-0.00000100,0.00002817,-0.00000004,-0.0
 0000491,0.00000698,-0.00000055,0.00000349,0.00000924,-0.00057064,0.000
 41398,-0.00081753,0.00010326,-0.00012645,0.00013197,0.00007336,-0.0001
 7036,0.00015291,0.00069710,0.00052032,0.00071578,0.00021278,-0.0003607
 4,0.00034222,0.00001169,0.00007288,-0.00010842,-0.00000686,0.00000979,
 -0.00000640,-0.00022192,-0.00014727,-0.00000301,0.00001544,-0.00001865
 ,-0.00000031,-0.00000198,0.00000104,-0.00000190,0.00000012,0.00000065,
 -0.00000047,-0.00000219,0.00000385,0.00000414,0.00003296,-0.00006084,-
 0.00003213,-0.00000125,0.00001035,0.00002476,0.00000445,-0.00000924,-0
 .00000331,-0.00000002,0.00000131,-0.00000086,-0.00000094,-0.00000143,0
 .00000039,-0.00000122,0.00000409,0.00000344,0.00000126,-0.00000158,-0.
 00001903,-0.00000562,0.00000897,0.00000770,0.00000328,-0.00000462,-0.0
 0001244,-0.00000140,0.00000094,0.00000129,0.00028806,0.00073519,0.0000
 5572,-0.00036050,-0.00025330,0.00014513,-0.00013605,-0.00014687,-0.000
 17904,-0.00008116,-0.00020710,0.00000768,-0.07353642,-0.06640548,-0.15
 155012,-0.01602742,-0.01640290,-0.07958941,0.09857583,0.12391911,0.231
 65934,0.00005938,-0.00010351,0.00003492,0.00009585,0.00005475,0.000011
 96,0.00013441,-0.00002177,0.00003301,0.00003454,-0.00005123,0.00000413
 ,0.00009495,0.00004108,0.00010099,-0.00001340,0.00001086,0.00000177,0.
 00002929,0.00000647,-0.00003146,-0.00003363,0.00000394,-0.00002719,-0.
 00002878,0.00000785,-0.00001687,-0.00003403,-0.00002389,0.00002427,-0.
 00009610,0.00001985,-0.00001382,-0.00010600,0.00004101,-0.00005362,-0.
 00010723,-0.00002391,0.00004800,-0.00024067,-0.00006480,-0.00014409,-0
 .00010662,0.00002681,-0.00010705,0.00007799,0.00008829,0.00016278,-0.0
 0000235,-0.00002958,-0.00003770,-0.00006221,0.00002119,-0.00005648,-0.
 00017852,0.00006375,-0.00019881,0.00004686,-0.00001712,-0.00003917,-0.
 00000739,0.00001131,0.00000507,-0.00000537,0.00000531,-0.00000526,-0.0
 0001096,-0.00000589,0.00000739,0.00009568,0.00014101,0.00004078,-0.000
 02736,-0.00001951,-0.00003926,-0.00003841,-0.00001175,-0.00000801,0.00
 003885,0.00001935,0.00000968,0.00006516,-0.00007334,0.00008378,0.00003
 360,0.00005065,0.00003840,-0.00001901,-0.00003053,0.00002036,-0.000003
 22,0.00001084,-0.00005778,-0.00011650,-0.00012441,-0.00000154,0.000111
 95,-0.00005565,0.00002330,0.00017091,-0.00043740,0.00044401,-0.0001531
 9,-0.00014659,0.00010505,0.00002431,-0.00010788,0.00013449,0.00007335,
 -0.00002317,0.00002259,-0.00001164,0.00002255,0.00000146,-0.00003133,-
 0.00004840,-0.00002963,-0.00003889,-0.00003758,0.00012981,0.00001779,0
 .00004532,-0.00002009,-0.00001363,0.00026586,-0.00018649,-0.00040359,0
 .00071246,0.00113326,-0.00007866,0.00016768,-0.00002362,0.00008133,0.0
 0018201,0.00002439,0.00033999,0.00037372,-0.00000003,-0.00012780,0.000
 00558,0.00015686,0.00000618,-0.00000203,-0.00001268,0.00000737,0.00001
 349,-0.00003029,0.00014628,-0.00003883,-0.00009442,0.00094285,-0.00330
 775,-0.00135427,-0.00111740,0.00102380,-0.00017349,0.00008186,0.001284
 11,-0.00004526,-0.00148319,0.00172425,0.00174435,-0.00075845,0.0005801
 4,0.00022695,-0.00639952,-0.00362838,-0.00225322,-0.00011203,0.0003208
 9,0.00062424,0.00011658,0.00001595,-0.00000011,-0.01812821,0.04422597,
 -0.00020059,0.00015809,-0.00021608,-0.00032122,-0.00147437,0.00114060,
 -0.00019743,-0.00260433,0.00077683,-0.00031454,0.00004906,-0.00009169,
 0.00005140,-0.00000786,-0.00001488,-0.00000926,0.00000658,0.00002192,-
 0.00001001,-0.00001163,0.00001392,0.00000405,0.00000456,-0.00006243,-0
 .00007437,-0.00000579,-0.00000174,0.00001206,-0.00000404,-0.00000096,0
 .00000897,0.00000684,0.00002106,0.00000608,-0.00026081,-0.00007167,-0.
 00024174,0.00002566,0.00003209,0.00003642,0.00007156,0.00006112,0.0000
 0951,0.00000787,-0.00000463,0.00003227,-0.00002400,0.00005706,0.000060
 72,0.00001502,0.00001047,-0.00002787,-0.00000403,-0.00001110,-0.000004
 67,-0.00004963,-0.00001780,0.00002464,0.00003582,-0.00004909,0.0000096
 6,-0.00000999,0.00000325,-0.00000566,0.00000164,0.00000637,-0.00000051
 ,-0.00000326,0.00000877,0.00000490,0.00015003,-0.00021913,0.00005164,-
 0.00007158,0.00006250,0.00001142,0.00006161,-0.00005080,0.00000563,-0.
 00001310,0.00000294,0.00000252,-0.00000464,0.00000548,-0.00000649,-0.0
 0000780,0.00001140,0.00000855,0.00004100,-0.00003056,-0.00000921,-0.00
 001274,0.00001973,0.00000783,0.00001867,-0.00000736,-0.00003697,-0.000
 01828,0.00000290,-0.00000093,0.00115753,0.00198398,0.00061416,-0.00058
 680,-0.00049724,0.00006422,-0.00040973,-0.00044274,-0.00059652,-0.0000
 8754,-0.00075630,-0.00009541,-0.12558065,0.07569185,-0.00481458,0.0159
 4698,-0.00226490,-0.00369650,0.01849265,-0.01199838,0.00090577,0.12216
 940,-0.00002832,0.00002199,-0.00000557,-0.00006570,-0.00003995,0.00000
 305,-0.00011618,-0.00001269,-0.00000534,-0.00002279,0.00002674,0.00001
 326,-0.00006778,-0.00003597,-0.00006363,0.00001006,-0.00000470,-0.0000
 0404,-0.00001822,-0.00000630,0.00002029,0.00001955,0.00000283,0.000013
 92,0.00002708,0.00000151,0.00000986,0.00002058,0.00000600,-0.00000907,
 0.00009192,0.00001093,-0.00001119,0.00008043,-0.00001421,0.00003291,0.
 00007434,0.00003171,-0.00004144,0.00013472,0.00008635,0.00006628,0.000
 09263,0.00000793,0.00006142,-0.00012293,-0.00012382,-0.00018676,0.0000
 0299,0.00003195,0.00004240,0.00007613,-0.00000983,0.00006082,0.0002703
 0,-0.00001952,0.00020883,-0.00002522,0.00000800,0.00003203,0.00000196,
 -0.00000419,-0.00000434,0.00000157,-0.00000595,0.00000071,0.00000907,0
 .00000413,-0.00000576,-0.00005843,-0.00010995,-0.00002297,0.00001755,0
 .00001346,0.00002221,0.00002327,0.00001002,0.00000464,-0.00001639,-0.0
 0000237,-0.00000570,-0.00007356,0.00000243,-0.00005471,-0.00001522,-0.
 00002862,-0.00002217,0.00001819,0.00003149,-0.00000992,0.00000016,-0.0
 0000712,0.00003731,0.00003199,0.00020481,0.00009315,-0.00019867,0.0000
 7508,-0.00003121,-0.00039748,0.00058473,-0.00003045,-0.00052234,0.0005
 1014,0.00000265,-0.00023012,0.00030243,-0.00052175,-0.00009822,-0.0000
 1690,-0.00005854,0.00000609,0.00000670,-0.00000455,-0.00001400,0.00001
 708,0.00002705,-0.00035000,0.00042988,-0.00040134,0.00001608,-0.000109
 44,0.00009324,0.00057899,-0.00057201,-0.00004538,0.00026588,-0.0002568
 5,-0.00065445,0.00022006,-0.00024337,0.00000270,-0.00001288,-0.0003535
 8,-0.00010686,-0.00006627,-0.00116869,0.00007062,0.00015493,-0.0000908
 3,-0.00030817,-0.00000219,0.00002919,0.00006384,-0.00000632,-0.0000653
 9,0.00011552,0.00000765,-0.00013301,0.00019726,-0.00080682,0.00138594,
 0.00085443,0.00071398,-0.00048321,0.00009869,0.00022053,-0.00053046,-0
 .00010564,0.00006376,-0.00088801,-0.00079787,0.00007489,0.00029068,0.0
 0011690,0.00378041,0.00208226,0.00097275,0.00119716,0.00113131,-0.0003
 0433,-0.00009593,0.00015039,0.00010528,0.01329515,-0.01836475,0.001088
 76,-0.00054680,0.00057722,0.00032196,-0.00331591,-0.00325807,-0.002126
 64,0.00027978,0.00221463,0.00127991,-0.00006253,0.00013538,-0.00008454
 ,0.00000768,0.00000641,0.00001613,-0.00000788,-0.00001994,0.00001103,0
 .00001842,-0.00002668,-0.00000307,-0.00002473,0.00012437,0.00014359,0.
 00000141,0.00000753,-0.00001165,0.00002006,-0.00001692,-0.00001699,-0.
 00000990,-0.00003864,-0.00001504,0.00043612,0.00051240,0.00029834,-0.0
 0000452,-0.00021382,-0.00006932,-0.00009588,-0.00016330,0.00004459,0.0
 0028542,0.00029032,0.00026750,-0.00018241,0.00023233,-0.00047000,-0.00
 002090,-0.00007061,0.00012914,0.00004284,0.00000282,0.00008121,0.00023
 164,0.00006533,-0.00002875,-0.00002666,0.00002833,-0.00000416,0.000007
 47,-0.00000151,0.00000410,-0.00000071,-0.00000287,-0.00000158,0.000001
 91,-0.00000590,-0.00000341,-0.00014925,0.00011947,0.00000005,0.0000542
 7,-0.00002788,-0.00001500,-0.00004544,0.00003074,-0.00000331,0.0000111
 5,-0.00000013,-0.00000196,0.00000216,-0.00000331,0.00000288,0.00000432
 ,-0.00000698,-0.00000467,-0.00002755,0.00000857,0.00001292,0.00000625,
 -0.00000997,-0.00000406,-0.00001517,0.00000009,0.00002334,0.00001660,-
 0.00000025,0.,-0.00009129,-0.00127922,-0.00026341,0.00022159,0.0002933
 6,0.00000677,0.00015733,0.00028168,0.00025404,-0.00013606,0.00051883,0
 .00003068,0.08535969,-0.21589763,0.00650510,0.00633115,-0.04763823,0.0
 4249093,-0.00062364,-0.06470204,-0.03124121,-0.10627804,0.34413767,-0.
 00000393,0.00001800,-0.00000874,-0.00000016,-0.00000148,-0.00001211,0.
 00001044,0.00001118,-0.00001192,0.00000644,-0.00000126,-0.00000954,0.0
 0001016,-0.00001080,-0.00003591,-0.00000243,-0.00000011,0.00000196,-0.
 00000215,0.00000113,0.00000199,0.00000300,-0.00000166,0.00000319,-0.00
 000083,-0.00000171,0.00000195,0.00000339,0.00000481,-0.00000300,-0.000
 01657,-0.00000288,0.00001999,-0.00000262,-0.00000408,0.00000585,-0.000
 00266,-0.00000431,0.00001660,0.00001300,-0.00000256,0.00002729,-0.0000
 5239,0.00001971,0.00002779,0.00001973,0.00000921,0.00000747,-0.0000013
 0,-0.00000079,0.00000155,-0.00000994,0.00000014,-0.00000535,-0.0000425
 8,0.00000427,-0.00000351,-0.00000559,-0.00000015,-0.00001296,0.0000013
 3,-0.00000052,0.00000156,0.00000313,0.00000091,0.00000321,-0.00000072,
 0.00000002,0.00000081,-0.00000178,-0.00000758,-0.00000798,0.00000394,0
 .00000115,0.00000609,-0.00000058,0.00000109,0.00000124,-0.00000152,-0.
 00000329,-0.00000347,0.00004710,0.00000614,-0.00000013,0.00000157,-0.0
 0000471,-0.00000980,-0.00000175,-0.00001105,-0.00000570,0.00000369,-0.
 00000055,0.00001321,0.00004113,-0.00004001,0.00000367,0.00004279,-0.00
 002325,-0.00001286,0.00010525,-0.00017522,-0.00019362,0.00032597,-0.00
 031684,-0.00009616,-0.00018580,-0.00003230,-0.00016252,0.00001287,0.00
 001958,0.00002098,0.00000327,-0.00001321,0.00000640,-0.00000394,0.0000
 2521,0.00001112,0.00028750,-0.00033848,0.00024444,0.00000974,-0.000027
 64,0.00001878,-0.00027900,0.00025167,0.00013610,0.00002670,-0.00010673
 ,0.00000336,-0.00003169,0.00003538,0.00002337,0.00000447,0.00006323,0.
 00005362,0.00005530,0.00007293,0.00034182,0.00000625,0.00005904,0.0000
 6182,0.00000280,-0.00002037,0.00000525,-0.00000312,0.00003784,-0.00005
 354,-0.00010465,0.00017282,-0.00002070,-0.00005923,0.00031077,-0.00017
 298,0.00000833,-0.00002549,0.00006240,-0.00002367,-0.00011733,0.000104
 81,0.00042711,0.00058177,-0.00037774,0.00006362,-0.00029663,-0.0000769
 3,-0.00062243,-0.00018350,0.00106127,-0.00003747,0.00023154,0.00006310
 ,-0.00002601,0.00001755,0.00002308,0.00258837,-0.00236470,0.00970762,-
 0.00014734,0.00011373,0.00017774,-0.00011877,-0.00023492,-0.00035633,-
 0.00022710,0.00051028,0.00000062,0.00000616,-0.00001246,0.00000694,0.0
 0000078,-0.00000168,-0.00000192,-0.00000015,0.00000056,-0.00000114,-0.
 00000365,0.00000486,0.00000076,0.00000230,-0.00001013,-0.00004490,0.00
 000194,-0.00000210,0.00001014,-0.00000364,0.00000233,0.00000402,0.0000
 0009,0.00000469,0.00000517,-0.00013198,0.00009269,-0.00017432,0.000024
 87,0.00000133,0.00004448,0.00001434,-0.00002908,0.00003254,0.00014736,
 0.00010466,0.00012361,0.00014422,-0.00024554,0.00024571,0.00000529,0.0
 0004598,-0.00007585,-0.00001152,0.00000757,-0.00002319,-0.00013502,-0.
 00003847,0.00001570,0.00000189,0.00000079,-0.00000253,0.00000054,-0.00
 000025,-0.00000004,-0.00000035,-0.00000117,0.00000043,-0.00000035,0.00
 000033,0.00000118,0.00000771,0.00000812,-0.00002655,0.00000661,-0.0000
 0824,0.00001176,-0.00000494,0.00000372,-0.00000201,0.00000090,-0.00000
 028,-0.00000063,0.00000045,-0.00000137,0.00000149,0.00000067,0.0000001
 3,0.,-0.00000469,0.00000731,-0.00000928,-0.00000034,0.00000042,0.00000
 201,-0.00000015,0.00000139,-0.00000055,-0.00000018,-0.00000026,0.00000
 095,-0.00001351,-0.00007808,-0.00017561,0.00000136,0.00002266,0.000040
 74,0.00002315,0.00001647,0.00007940,-0.00000384,0.00001711,0.00003193,
 -0.00522737,0.00638205,-0.06999596,-0.01052577,0.05337702,-0.01835473,
 0.00516234,-0.03961303,0.00030180,0.00839576,-0.01826508,0.07730880\\-
 0.00000078,0.00000090,-0.00000031,0.00000004,0.00000097,-0.00000002,-0
 .00000005,0.00000093,0.00000017,0.00000030,0.00000105,-0.00000012,-0.0
 0000032,0.00000070,-0.00000017,0.00000043,0.00000068,0.00000030,0.,0.0
 0000184,0.00000080,-0.00000019,0.00000105,-0.00000030,0.00000005,0.000
 00108,-0.00000012,-0.00000006,0.00000059,0.,-0.00000013,0.00000075,0.0
 0000037,-0.00000038,0.00000074,-0.00000040,0.00000009,0.00000145,-0.00
 000141,-0.00000019,0.00000018,-0.00000047,-0.00000047,-0.00000009,-0.0
 0000020,-0.00000020,-0.00000004,0.00000075,0.00000062,0.00000079,0.000
 00022,0.00000054,0.00000099,0.00000022,0.00000140,0.00000314,-0.000000
 32,-0.00000058,0.00000079,-0.00000040,-0.00000002,-0.00000001,-0.00000
 050,-0.00000023,0.00000058,-0.00000049,-0.00000063,0.00000070,-0.00000
 077,-0.00000066,0.00000097,-0.00000107,-0.00000071,0.00000093,-0.00000
 102,-0.00000076,0.00000067,-0.00000087,-0.00000088,0.00000053,-0.00000
 094,-0.00000012,0.00000107,-0.00000059,-0.00000057,0.00000057,-0.00000
 027,0.00000024,0.00000077,-0.00000036,-0.00000032,0.00000047,-0.000000
 35,0.00000118,-0.00000043,0.00000060,0.00000058,-0.00000053,0.00000151
 ,-0.00000013,0.00000254,0.00000066,0.00000039,0.,0.00000035,0.00000007
 ,-0.00000011,0.00000094,0.00000054,-0.00000417,-0.00000090,0.00000013,
 -0.00000070,0.00000011,0.00000073,-0.00000003,0.00000074,0.00000005,-0
 .00000071,-0.00000027,0.00000112,-0.00000105,0.00000117,-0.00000016,-0
 .00000037,-0.00000002,0.00000019,-0.00000071,-0.00000030,-0.00000023,-
 0.00000218,0.00000075,0.00000011,-0.00000082,0.00000013,-0.00000028,-0
 .00000093,-0.00000018,0.00000009,0.00000029,0.00000060,-0.00000004,-0.
 00000052,0.00000017,0.00000003,-0.00000037,0.00000034,0.00000045,-0.00
 000049,0.00000052,-0.00000174,0.00000129,0.00000209,0.00000088,-0.0000
 0099,-0.00000412,0.00000117,-0.00000022,0.00000097,-0.00000029,-0.0000
 0046,-0.00000008,-0.00000052,-0.00000023,-0.00000050,-0.00000027,-0.00
 000073,-0.00000081,-0.00000075,-0.00000035,-0.00000068,-0.00000040,0.0
 0000011,-0.00000046,-0.00000062,-0.00000084,-0.00000028,-0.00000053,-0
 .00000073,0.00000020,-0.00000094,-0.00000057,-0.00000024,-0.00000088,-
 0.00000064,-0.00000083,0.00000112,0.00000030,0.00000114,0.00000073,0.0
 0000014,0.00000080,0.00000108,-0.00000018,0.00000084,0.00000102,-0.000
 00001,0.00000072,0.00000108,-0.00000110,0.00000097,0.00000056,-0.00000
 123,0.00000087,0.00000067,-0.00000060,0.00000071,0.00000091,-0.0000009
 4,0.00000114,0.00000007,-0.00000139,0.00000061,0.00000028,-0.00000131,
 0.00000056,0.00000017,-0.00000135,0.00000051,-0.00000011,-0.00000156,0
 .00000045,0.00000008,-0.00000078,0.00000012,0.00000019,-0.00000061,0.0
 0000043,0.00000012,-0.00000022,0.00000003,0.00000002,-0.00000060,0.000
 00018,0.00000043,0.00000120,-0.00000005,0.00000027,0.00000168,-0.00000
 028,0.00000049,0.00000145,0.00000005,0.00000035,0.00000139,-0.00000007
 ,-0.00000036,-0.00000372,-0.00000096,0.00000263,0.00000499,0.00000284,
 -0.00000005,-0.00000151,-0.00000033,0.00000009,0.00000079,-0.00000040,
 0.00000134,0.00000099,-0.00000024,0.00000013,0.00000005,0.00000069,-0.
 00000043,-0.00000094,-0.00000031,-0.00000079,0.00000009,0.00000048,-0.
 00000162,-0.00000047,-0.00000004,0.00000041,-0.00000022,-0.00000067,-0
 .00000095,0.00000008,-0.00000073,-0.00000102,-0.00000014,-0.00000088,-
 0.00000089,0.00000016,-0.00000075,-0.00000107,-0.00000035,-0.00000107,
 -0.00000078,-0.00000087,0.00000007,-0.00000044,-0.00000089,-0.00000032
 ,-0.00000027,-0.00000122,-0.00000020,-0.00000089,-0.00000117,-0.000000
 45\\\@


 HE WHO LAUGHS LAST PROBABLY DIDN'T GET THE JOKE.
 Job cpu time:       4 days 20 hours 31 minutes  4.6 seconds.
 Elapsed time:       0 days  3 hours 49 minutes 17.4 seconds.
 File lengths (MBytes):  RWF=   9755 Int=      0 D2E=      0 Chk=    108 Scr=      1
 Normal termination of Gaussian 16 at Wed Jun  5 14:01:27 2019.
