 Entering Gaussian System, Link 0=g16
 Input=clay_new-glu_gluC6-DCUR-Na2_1Me2O-bisCF3-ts-b3lyp_d3bj-631gd-pcm_thf.gjf
 Output=clay_new-glu_gluC6-DCUR-Na2_1Me2O-bisCF3-ts-b3lyp_d3bj-631gd-pcm_thf.out
 Initial command:
 /home/ekwan/sw/g16/l1.exe "/scratch/users/ekwan/clay_new-glu_gluC6-DCUR-Na2_1Me2O-bisCF3-ts-b3lyp_d3bj-631gd-pcm_thf/Gau-10194.inp" -scrdir="/scratch/users/ekwan/clay_new-glu_gluC6-DCUR-Na2_1Me2O-bisCF3-ts-b3lyp_d3bj-631gd-pcm_thf/"
 Entering Link 1 = /home/ekwan/sw/g16/l1.exe PID=     10195.
  
 Copyright (c) 1988,1990,1992,1993,1995,1998,2003,2009,2016,
            Gaussian, Inc.  All Rights Reserved.
  
 This is part of the Gaussian(R) 16 program.  It is based on
 the Gaussian(R) 09 system (copyright 2009, Gaussian, Inc.),
 the Gaussian(R) 03 system (copyright 2003, Gaussian, Inc.),
 the Gaussian(R) 98 system (copyright 1998, Gaussian, Inc.),
 the Gaussian(R) 94 system (copyright 1995, Gaussian, Inc.),
 the Gaussian 92(TM) system (copyright 1992, Gaussian, Inc.),
 the Gaussian 90(TM) system (copyright 1990, Gaussian, Inc.),
 the Gaussian 88(TM) system (copyright 1988, Gaussian, Inc.),
 the Gaussian 86(TM) system (copyright 1986, Carnegie Mellon
 University), and the Gaussian 82(TM) system (copyright 1983,
 Carnegie Mellon University). Gaussian is a federally registered
 trademark of Gaussian, Inc.
  
 This software contains proprietary and confidential information,
 including trade secrets, belonging to Gaussian, Inc.
  
 This software is provided under written license and may be
 used, copied, transmitted, or stored only in accord with that
 written license.
  
 The following legend is applicable only to US Government
 contracts under FAR:
  
                    RESTRICTED RIGHTS LEGEND
  
 Use, reproduction and disclosure by the US Government is
 subject to restrictions as set forth in subparagraphs (a)
 and (c) of the Commercial Computer Software - Restricted
 Rights clause in FAR 52.227-19.
  
 Gaussian, Inc.
 340 Quinnipiac St., Bldg. 40, Wallingford CT 06492
  
  
 ---------------------------------------------------------------
 Warning -- This program may not be used in any manner that
 competes with the business of Gaussian, Inc. or will provide
 assistance to any competitor of Gaussian, Inc.  The licensee
 of this program is prohibited from giving any competitor of
 Gaussian, Inc. access to this program.  By using this program,
 the user acknowledges that Gaussian, Inc. is engaged in the
 business of creating and licensing software in the field of
 computational chemistry and represents and warrants to the
 licensee that it is not a competitor of Gaussian, Inc. and that
 it will not use this program in any manner prohibited above.
 ---------------------------------------------------------------
  

 Cite this work as:
 Gaussian 16, Revision A.03,
 M. J. Frisch, G. W. Trucks, H. B. Schlegel, G. E. Scuseria, 
 M. A. Robb, J. R. Cheeseman, G. Scalmani, V. Barone, 
 G. A. Petersson, H. Nakatsuji, X. Li, M. Caricato, A. V. Marenich, 
 J. Bloino, B. G. Janesko, R. Gomperts, B. Mennucci, H. P. Hratchian, 
 J. V. Ortiz, A. F. Izmaylov, J. L. Sonnenberg, D. Williams-Young, 
 F. Ding, F. Lipparini, F. Egidi, J. Goings, B. Peng, A. Petrone, 
 T. Henderson, D. Ranasinghe, V. G. Zakrzewski, J. Gao, N. Rega, 
 G. Zheng, W. Liang, M. Hada, M. Ehara, K. Toyota, R. Fukuda, 
 J. Hasegawa, M. Ishida, T. Nakajima, Y. Honda, O. Kitao, H. Nakai, 
 T. Vreven, K. Throssell, J. A. Montgomery, Jr., J. E. Peralta, 
 F. Ogliaro, M. J. Bearpark, J. J. Heyd, E. N. Brothers, K. N. Kudin, 
 V. N. Staroverov, T. A. Keith, R. Kobayashi, J. Normand, 
 K. Raghavachari, A. P. Rendell, J. C. Burant, S. S. Iyengar, 
 J. Tomasi, M. Cossi, J. M. Millam, M. Klene, C. Adamo, R. Cammi, 
 J. W. Ochterski, R. L. Martin, K. Morokuma, O. Farkas, 
 J. B. Foresman, and D. J. Fox, Gaussian, Inc., Wallingford CT, 2016.
 
 ******************************************
 Gaussian 16:  AS64L-G16RevA.03 25-Dec-2016
                25-May-2019 
 ******************************************
 %mem=48GB
 %nprocshared=32
 Will use up to   32 processors via shared memory.
 ----------------------------------------------------------------------
 #p opt=(ts,noeigentest,calcfc,maxstep=1,modredundant,recalc=30) freq=n
 oraman b3lyp 6-31g* pop=none scrf=(solvent=tetrahydrofuran,pcm) empiri
 caldispersion=gd3bj
 ----------------------------------------------------------------------
 1/5=1,8=1,10=4,11=1,18=120,26=3,38=1,71=30/1,3;
 2/9=110,12=2,17=6,18=5,40=1/2;
 3/5=1,6=6,7=1,11=2,25=1,30=1,70=2201,71=2,72=20,74=-5,124=41,140=1/1,2,3;
 4//1;
 5/5=2,38=5,53=20/2;
 8/6=4,10=90,11=11/1;
 11/6=1,8=1,9=11,15=111,16=1/1,2,10;
 10/6=1,13=1/2;
 7/10=1,18=20,25=1/1,2,3,16;
 1/5=1,8=1,10=4,11=1,18=20,26=3,71=30/3(2);
 2/9=110/2;
 99//99;
 2/9=110/2;
 3/5=1,6=6,7=1,11=2,25=1,30=1,70=2205,71=1,72=20,74=-5,124=41/1,2,3;
 4/5=5,16=3,69=1/1;
 5/5=2,38=5,53=20/2;
 7//1,2,3,16;
 1/5=1,8=1,11=1,18=20,26=3,71=30/3(-5);
 2/9=110/2;
 99/9=1/99;
 Leave Link    1 at Sat May 25 14:26:48 2019, MaxMem=  6442450944 cpu:               5.2 elap:               0.2
 (Enter /home/ekwan/sw/g16/l101.exe)
 -----
 title
 -----
 Symbolic Z-matrix:
 Charge =  0 Multiplicity = 1
 C                    -3.8791    2.16425   1.42637 
 C                    -3.73153   0.68769   1.79365 
 C                    -4.28237  -0.19183   0.67184 
 C                    -3.75723   1.43698  -1.02636 
 C                    -3.30192   2.43992   0.03797 
 H                    -4.08096  -1.25033   0.88421 
 H                    -2.66215   0.44843   1.88049 
 H                    -4.94698   2.41483   1.43687 
 H                    -4.82122   1.59451  -1.24365 
 H                    -2.21176   2.36654   0.09928 
 O                    -3.58342   0.08416  -0.5306 
 O                    -5.66065   0.01441   0.56116 
 O                    -4.39685   0.36621   3.00287 
 O                    -3.18567   2.93441   2.40929 
 O                    -3.67542   3.76141  -0.35458 
 C                    -2.93512   1.56166  -2.32554 
 H                    -3.33417   2.46919  -2.83231 
 H                    -3.26435   0.70914  -2.96169 
 O                    -1.58276   1.59841  -2.12961 
 C                    -3.53906   0.32444   4.13571 
 H                    -2.74311  -0.42432   4.00308 
 H                    -3.08107   1.30041   4.32771 
 H                    -4.15884   0.03495   4.98839 
 C                    -3.85271   4.13011   2.78924 
 H                    -3.9922    4.80133   1.93523 
 H                    -4.8335    3.91128   3.23581 
 H                    -3.22332   4.61689   3.53925 
 C                    -2.59866   4.54424  -0.8502 
 H                    -1.83736   4.70746  -0.07225 
 H                    -2.12248   4.07014  -1.71619 
 H                    -3.0186    5.51098  -1.14106 
 C                    -0.31335  -1.96739   0.29284 
 C                    -0.4736   -0.61702  -0.4122 
 C                    -0.58819  -0.84199  -1.89162 
 C                    -1.83379  -2.90641  -1.5381 
 C                    -1.54245  -2.8125   -0.03303 
 H                    -0.44988  -0.02483  -2.5806 
 H                    -1.44258  -0.17212  -0.15084 
 H                     0.58669  -2.46443  -0.08025 
 H                    -1.29488  -3.76968  -1.9323 
 H                    -2.40038  -2.35807   0.47265 
 O                    -1.35182  -1.77857  -2.34927 
 O                     1.91038   0.71998  -2.92064 
 O                     0.56905   0.30623  -0.15697 
 O                    -0.24833  -1.82259   1.70497 
 O                    -1.3675   -4.14635   0.41776 
 C                    -3.34049  -2.94754  -1.85467 
 H                    -3.48512  -3.21245  -2.9116 
 H                    -3.7311   -1.94178  -1.68538 
 O                    -4.06401  -3.81227  -1.00672 
 S                     2.39567  -0.64507  -2.57936 
 O                     3.3126   -1.24996  -3.55898 
 O                     1.25193  -1.5956   -2.23603 
 C                     3.31856  -0.49352  -1.04435 
 C                     3.59733   0.75948  -0.51702 
 C                     3.74855  -1.65666  -0.40678 
 C                     4.31433   0.84807   0.67854 
 H                     3.23296   1.65374  -1.00632 
 C                     4.46155  -1.55072   0.78479 
 H                     3.5214   -2.62924  -0.82681 
 C                     4.74951  -0.29905   1.33544 
 H                     5.30667  -0.22358   2.26108 
 C                     0.38754   1.08193   1.03613 
 H                    -0.44387   1.78687   0.91853 
 H                     0.19393   0.44261   1.89744 
 H                     1.31735   1.63177   1.18317 
 C                     1.03916  -2.09984   2.24806 
 H                     1.37267  -3.10857   1.97824 
 H                     1.78548  -1.37489   1.90403 
 H                     0.94276  -2.03031   3.33378 
 C                    -2.06375  -4.44466   1.62597 
 H                    -1.70948  -3.8182    2.45072 
 H                    -3.14359  -4.30414   1.49299 
 H                    -1.85937  -5.49463   1.84759 
 C                    -3.90167  -5.19367  -1.3133 
 H                    -4.60232  -5.73901  -0.67728 
 H                    -4.14096  -5.39136  -2.36754 
 H                    -2.88258  -5.53468  -1.09917 
 C                    -6.28456  -0.86802  -0.36929 
 H                    -7.36156  -0.77476  -0.2167 
 H                    -6.0384   -0.59768  -1.40295 
 H                    -5.97474  -1.90731  -0.19433 
 Na                    0.43665   2.20153  -1.9119 
 O                     2.14694   3.66434  -1.39387 
 C                     3.13311   4.01135  -2.36507 
 H                     4.10975   4.14682  -1.88551 
 H                     3.18367   3.18118  -3.07208 
 H                     2.85377   4.93346  -2.89135 
 C                     1.99067   4.66024  -0.3868 
 H                     1.67081   5.61336  -0.82815 
 H                     1.22232   4.30075   0.30116 
 H                     2.92814   4.80693   0.1604 
 C                     4.55939   2.20872   1.26766 
 F                     4.9963    3.08743   0.3354 
 F                     5.46493   2.18637   2.26254 
 F                     3.41642   2.738     1.78204 
 C                     4.865    -2.78956   1.53585 
 F                     4.92166  -3.873     0.73699 
 F                     3.9811   -3.07343   2.52723 
 F                     6.07113  -2.64635   2.1247 
 
 Add virtual bond connecting atoms O53        and C34        Dist= 3.81D+00.
 Add virtual bond connecting atoms H37        and O19        Dist= 3.84D+00.
 Add virtual bond connecting atoms H41        and H6         Dist= 3.88D+00.
 Add virtual bond connecting atoms H64        and H10        Dist= 3.84D+00.
 Add virtual bond connecting atoms O84        and H58        Dist= 4.38D+00.
 Add virtual bond connecting atoms O84        and Na83       Dist= 4.36D+00.
 The following ModRedundant input section has been read:
 
 ITRead=  0  0  0  0  0  0  0  0  0  0  0  0  0  0  0  0  0  0  0  0
 ITRead=  0  0  0  0  0  0  0  0  0  0  0  0  0  0  0  0  0  0  0  0
 ITRead=  0  0  0  0  0  0  0  0  0  0  0  0  0  0  0  0  0  0  0  0
 ITRead=  0  0  0  0  0  0  0  0  0  0  0  0  0  0  0  0  0  0  0  0
 ITRead=  0  0  0  0  0  0  0  0  0  0  0  0  0  0  0  0  0  0  0  0
 MicOpt= -1 -1 -1 -1 -1 -1 -1 -1 -1 -1 -1 -1 -1 -1 -1 -1 -1 -1 -1 -1
 MicOpt= -1 -1 -1 -1 -1 -1 -1 -1 -1 -1 -1 -1 -1 -1 -1 -1 -1 -1 -1 -1
 MicOpt= -1 -1 -1 -1 -1 -1 -1 -1 -1 -1 -1 -1 -1 -1 -1 -1 -1 -1 -1 -1
 MicOpt= -1 -1 -1 -1 -1 -1 -1 -1 -1 -1 -1 -1 -1 -1 -1 -1 -1 -1 -1 -1
 MicOpt= -1 -1 -1 -1 -1 -1 -1 -1 -1 -1 -1 -1 -1 -1 -1 -1 -1 -1 -1 -1
 NAtoms=    100 NQM=      100 NQMF=       0 NMMI=      0 NMMIF=      0
                NMic=       0 NMicF=      0.
                    Isotopes and Nuclear Properties:
 (Nuclear quadrupole moments (NQMom) in fm**2, nuclear magnetic moments (NMagM)
  in nuclear magnetons)

  Atom         1           2           3           4           5           6           7           8           9          10
 IAtWgt=          12          12          12          12          12           1           1           1           1           1
 AtmWgt=  12.0000000  12.0000000  12.0000000  12.0000000  12.0000000   1.0078250   1.0078250   1.0078250   1.0078250   1.0078250
 NucSpn=           0           0           0           0           0           1           1           1           1           1
 AtZEff=   0.0000000   0.0000000   0.0000000   0.0000000   0.0000000   0.0000000   0.0000000   0.0000000   0.0000000   0.0000000
 NQMom=    0.0000000   0.0000000   0.0000000   0.0000000   0.0000000   0.0000000   0.0000000   0.0000000   0.0000000   0.0000000
 NMagM=    0.0000000   0.0000000   0.0000000   0.0000000   0.0000000   2.7928460   2.7928460   2.7928460   2.7928460   2.7928460
 AtZNuc=   6.0000000   6.0000000   6.0000000   6.0000000   6.0000000   1.0000000   1.0000000   1.0000000   1.0000000   1.0000000

  Atom        11          12          13          14          15          16          17          18          19          20
 IAtWgt=          16          16          16          16          16          12           1           1          16          12
 AtmWgt=  15.9949146  15.9949146  15.9949146  15.9949146  15.9949146  12.0000000   1.0078250   1.0078250  15.9949146  12.0000000
 NucSpn=           0           0           0           0           0           0           1           1           0           0
 AtZEff=   0.0000000   0.0000000   0.0000000   0.0000000   0.0000000   0.0000000   0.0000000   0.0000000   0.0000000   0.0000000
 NQMom=    0.0000000   0.0000000   0.0000000   0.0000000   0.0000000   0.0000000   0.0000000   0.0000000   0.0000000   0.0000000
 NMagM=    0.0000000   0.0000000   0.0000000   0.0000000   0.0000000   0.0000000   2.7928460   2.7928460   0.0000000   0.0000000
 AtZNuc=   8.0000000   8.0000000   8.0000000   8.0000000   8.0000000   6.0000000   1.0000000   1.0000000   8.0000000   6.0000000

  Atom        21          22          23          24          25          26          27          28          29          30
 IAtWgt=           1           1           1          12           1           1           1          12           1           1
 AtmWgt=   1.0078250   1.0078250   1.0078250  12.0000000   1.0078250   1.0078250   1.0078250  12.0000000   1.0078250   1.0078250
 NucSpn=           1           1           1           0           1           1           1           0           1           1
 AtZEff=   0.0000000   0.0000000   0.0000000   0.0000000   0.0000000   0.0000000   0.0000000   0.0000000   0.0000000   0.0000000
 NQMom=    0.0000000   0.0000000   0.0000000   0.0000000   0.0000000   0.0000000   0.0000000   0.0000000   0.0000000   0.0000000
 NMagM=    2.7928460   2.7928460   2.7928460   0.0000000   2.7928460   2.7928460   2.7928460   0.0000000   2.7928460   2.7928460
 AtZNuc=   1.0000000   1.0000000   1.0000000   6.0000000   1.0000000   1.0000000   1.0000000   6.0000000   1.0000000   1.0000000

  Atom        31          32          33          34          35          36          37          38          39          40
 IAtWgt=           1          12          12          12          12          12           1           1           1           1
 AtmWgt=   1.0078250  12.0000000  12.0000000  12.0000000  12.0000000  12.0000000   1.0078250   1.0078250   1.0078250   1.0078250
 NucSpn=           1           0           0           0           0           0           1           1           1           1
 AtZEff=   0.0000000   0.0000000   0.0000000   0.0000000   0.0000000   0.0000000   0.0000000   0.0000000   0.0000000   0.0000000
 NQMom=    0.0000000   0.0000000   0.0000000   0.0000000   0.0000000   0.0000000   0.0000000   0.0000000   0.0000000   0.0000000
 NMagM=    2.7928460   0.0000000   0.0000000   0.0000000   0.0000000   0.0000000   2.7928460   2.7928460   2.7928460   2.7928460
 AtZNuc=   1.0000000   6.0000000   6.0000000   6.0000000   6.0000000   6.0000000   1.0000000   1.0000000   1.0000000   1.0000000

  Atom        41          42          43          44          45          46          47          48          49          50
 IAtWgt=           1          16          16          16          16          16          12           1           1          16
 AtmWgt=   1.0078250  15.9949146  15.9949146  15.9949146  15.9949146  15.9949146  12.0000000   1.0078250   1.0078250  15.9949146
 NucSpn=           1           0           0           0           0           0           0           1           1           0
 AtZEff=   0.0000000   0.0000000   0.0000000   0.0000000   0.0000000   0.0000000   0.0000000   0.0000000   0.0000000   0.0000000
 NQMom=    0.0000000   0.0000000   0.0000000   0.0000000   0.0000000   0.0000000   0.0000000   0.0000000   0.0000000   0.0000000
 NMagM=    2.7928460   0.0000000   0.0000000   0.0000000   0.0000000   0.0000000   0.0000000   2.7928460   2.7928460   0.0000000
 AtZNuc=   1.0000000   8.0000000   8.0000000   8.0000000   8.0000000   8.0000000   6.0000000   1.0000000   1.0000000   8.0000000

  Atom        51          52          53          54          55          56          57          58          59          60
 IAtWgt=          32          16          16          12          12          12          12           1          12           1
 AtmWgt=  31.9720718  15.9949146  15.9949146  12.0000000  12.0000000  12.0000000  12.0000000   1.0078250  12.0000000   1.0078250
 NucSpn=           0           0           0           0           0           0           0           1           0           1
 AtZEff=   0.0000000   0.0000000   0.0000000   0.0000000   0.0000000   0.0000000   0.0000000   0.0000000   0.0000000   0.0000000
 NQMom=    0.0000000   0.0000000   0.0000000   0.0000000   0.0000000   0.0000000   0.0000000   0.0000000   0.0000000   0.0000000
 NMagM=    0.0000000   0.0000000   0.0000000   0.0000000   0.0000000   0.0000000   0.0000000   2.7928460   0.0000000   2.7928460
 AtZNuc=  16.0000000   8.0000000   8.0000000   6.0000000   6.0000000   6.0000000   6.0000000   1.0000000   6.0000000   1.0000000

  Atom        61          62          63          64          65          66          67          68          69          70
 IAtWgt=          12           1          12           1           1           1          12           1           1           1
 AtmWgt=  12.0000000   1.0078250  12.0000000   1.0078250   1.0078250   1.0078250  12.0000000   1.0078250   1.0078250   1.0078250
 NucSpn=           0           1           0           1           1           1           0           1           1           1
 AtZEff=   0.0000000   0.0000000   0.0000000   0.0000000   0.0000000   0.0000000   0.0000000   0.0000000   0.0000000   0.0000000
 NQMom=    0.0000000   0.0000000   0.0000000   0.0000000   0.0000000   0.0000000   0.0000000   0.0000000   0.0000000   0.0000000
 NMagM=    0.0000000   2.7928460   0.0000000   2.7928460   2.7928460   2.7928460   0.0000000   2.7928460   2.7928460   2.7928460
 AtZNuc=   6.0000000   1.0000000   6.0000000   1.0000000   1.0000000   1.0000000   6.0000000   1.0000000   1.0000000   1.0000000

  Atom        71          72          73          74          75          76          77          78          79          80
 IAtWgt=          12           1           1           1          12           1           1           1          12           1
 AtmWgt=  12.0000000   1.0078250   1.0078250   1.0078250  12.0000000   1.0078250   1.0078250   1.0078250  12.0000000   1.0078250
 NucSpn=           0           1           1           1           0           1           1           1           0           1
 AtZEff=   0.0000000   0.0000000   0.0000000   0.0000000   0.0000000   0.0000000   0.0000000   0.0000000   0.0000000   0.0000000
 NQMom=    0.0000000   0.0000000   0.0000000   0.0000000   0.0000000   0.0000000   0.0000000   0.0000000   0.0000000   0.0000000
 NMagM=    0.0000000   2.7928460   2.7928460   2.7928460   0.0000000   2.7928460   2.7928460   2.7928460   0.0000000   2.7928460
 AtZNuc=   6.0000000   1.0000000   1.0000000   1.0000000   6.0000000   1.0000000   1.0000000   1.0000000   6.0000000   1.0000000

  Atom        81          82          83          84          85          86          87          88          89          90
 IAtWgt=           1           1          23          16          12           1           1           1          12           1
 AtmWgt=   1.0078250   1.0078250  22.9897697  15.9949146  12.0000000   1.0078250   1.0078250   1.0078250  12.0000000   1.0078250
 NucSpn=           1           1           3           0           0           1           1           1           0           1
 AtZEff=   0.0000000   0.0000000   0.0000000   0.0000000   0.0000000   0.0000000   0.0000000   0.0000000   0.0000000   0.0000000
 NQMom=    0.0000000   0.0000000  10.4000000   0.0000000   0.0000000   0.0000000   0.0000000   0.0000000   0.0000000   0.0000000
 NMagM=    2.7928460   2.7928460   2.2175200   0.0000000   0.0000000   2.7928460   2.7928460   2.7928460   0.0000000   2.7928460
 AtZNuc=   1.0000000   1.0000000  11.0000000   8.0000000   6.0000000   1.0000000   1.0000000   1.0000000   6.0000000   1.0000000

  Atom        91          92          93          94          95          96          97          98          99         100
 IAtWgt=           1           1          12          19          19          19          12          19          19          19
 AtmWgt=   1.0078250   1.0078250  12.0000000  18.9984033  18.9984033  18.9984033  12.0000000  18.9984033  18.9984033  18.9984033
 NucSpn=           1           1           0           1           1           1           0           1           1           1
 AtZEff=   0.0000000   0.0000000   0.0000000   0.0000000   0.0000000   0.0000000   0.0000000   0.0000000   0.0000000   0.0000000
 NQMom=    0.0000000   0.0000000   0.0000000   0.0000000   0.0000000   0.0000000   0.0000000   0.0000000   0.0000000   0.0000000
 NMagM=    2.7928460   2.7928460   0.0000000   2.6288670   2.6288670   2.6288670   0.0000000   2.6288670   2.6288670   2.6288670
 AtZNuc=   1.0000000   1.0000000   6.0000000   9.0000000   9.0000000   9.0000000   6.0000000   9.0000000   9.0000000   9.0000000
 Leave Link  101 at Sat May 25 14:26:49 2019, MaxMem=  6442450944 cpu:              18.1 elap:               0.7
 (Enter /home/ekwan/sw/g16/l103.exe)

 GradGradGradGradGradGradGradGradGradGradGradGradGradGradGradGradGradGrad
 Berny optimization.
 Initialization pass.
                           ----------------------------
                           !    Initial Parameters    !
                           ! (Angstroms and Degrees)  !
 --------------------------                            --------------------------
 ! Name  Definition              Value          Derivative Info.                !
 --------------------------------------------------------------------------------
 ! R1    R(1,2)                  1.5287         calculate D2E/DX2 analytically  !
 ! R2    R(1,5)                  1.5287         calculate D2E/DX2 analytically  !
 ! R3    R(1,8)                  1.0969         calculate D2E/DX2 analytically  !
 ! R4    R(1,14)                 1.4283         calculate D2E/DX2 analytically  !
 ! R5    R(2,3)                  1.5282         calculate D2E/DX2 analytically  !
 ! R6    R(2,7)                  1.0993         calculate D2E/DX2 analytically  !
 ! R7    R(2,13)                 1.4171         calculate D2E/DX2 analytically  !
 ! R8    R(3,6)                  1.0982         calculate D2E/DX2 analytically  !
 ! R9    R(3,11)                 1.4179         calculate D2E/DX2 analytically  !
 ! R10   R(3,12)                 1.398          calculate D2E/DX2 analytically  !
 ! R11   R(4,5)                  1.5317         calculate D2E/DX2 analytically  !
 ! R12   R(4,9)                  1.0973         calculate D2E/DX2 analytically  !
 ! R13   R(4,11)                 1.4512         calculate D2E/DX2 analytically  !
 ! R14   R(4,16)                 1.5425         calculate D2E/DX2 analytically  !
 ! R15   R(5,10)                 1.0943         calculate D2E/DX2 analytically  !
 ! R16   R(5,15)                 1.4283         calculate D2E/DX2 analytically  !
 ! R17   R(6,41)                 2.0545         calculate D2E/DX2 analytically  !
 ! R18   R(10,64)                2.0329         calculate D2E/DX2 analytically  !
 ! R19   R(12,79)                1.4261         calculate D2E/DX2 analytically  !
 ! R20   R(13,20)                1.4216         calculate D2E/DX2 analytically  !
 ! R21   R(14,24)                1.4209         calculate D2E/DX2 analytically  !
 ! R22   R(15,28)                1.4205         calculate D2E/DX2 analytically  !
 ! R23   R(16,17)                1.1134         calculate D2E/DX2 analytically  !
 ! R24   R(16,18)                1.1135         calculate D2E/DX2 analytically  !
 ! R25   R(16,19)                1.367          calculate D2E/DX2 analytically  !
 ! R26   R(19,37)                2.0302         calculate D2E/DX2 analytically  !
 ! R27   R(19,83)                2.1188         calculate D2E/DX2 analytically  !
 ! R28   R(20,21)                1.1008         calculate D2E/DX2 analytically  !
 ! R29   R(20,22)                1.0951         calculate D2E/DX2 analytically  !
 ! R30   R(20,23)                1.0932         calculate D2E/DX2 analytically  !
 ! R31   R(24,25)                1.0951         calculate D2E/DX2 analytically  !
 ! R32   R(24,26)                1.0997         calculate D2E/DX2 analytically  !
 ! R33   R(24,27)                1.0934         calculate D2E/DX2 analytically  !
 ! R34   R(28,29)                1.1006         calculate D2E/DX2 analytically  !
 ! R35   R(28,30)                1.0961         calculate D2E/DX2 analytically  !
 ! R36   R(28,31)                1.0934         calculate D2E/DX2 analytically  !
 ! R37   R(32,33)                1.5318         calculate D2E/DX2 analytically  !
 ! R38   R(32,36)                1.5268         calculate D2E/DX2 analytically  !
 ! R39   R(32,39)                1.0938         calculate D2E/DX2 analytically  !
 ! R40   R(32,45)                1.421          calculate D2E/DX2 analytically  !
 ! R41   R(33,34)                1.5008         calculate D2E/DX2 analytically  !
 ! R42   R(33,38)                1.0978         calculate D2E/DX2 analytically  !
 ! R43   R(33,44)                1.4158         calculate D2E/DX2 analytically  !
 ! R44   R(34,37)                1.0778         calculate D2E/DX2 analytically  !
 ! R45   R(34,42)                1.2922         calculate D2E/DX2 analytically  !
 ! R46   R(34,53)                2.0181         calculate D2E/DX2 analytically  !
 ! R47   R(35,36)                1.5359         calculate D2E/DX2 analytically  !
 ! R48   R(35,40)                1.0913         calculate D2E/DX2 analytically  !
 ! R49   R(35,42)                1.4705         calculate D2E/DX2 analytically  !
 ! R50   R(35,47)                1.5401         calculate D2E/DX2 analytically  !
 ! R51   R(36,41)                1.0946         calculate D2E/DX2 analytically  !
 ! R52   R(36,46)                1.4188         calculate D2E/DX2 analytically  !
 ! R53   R(43,51)                1.4884         calculate D2E/DX2 analytically  !
 ! R54   R(44,63)                1.4346         calculate D2E/DX2 analytically  !
 ! R55   R(45,67)                1.4246         calculate D2E/DX2 analytically  !
 ! R56   R(46,71)                1.426          calculate D2E/DX2 analytically  !
 ! R57   R(47,48)                1.0992         calculate D2E/DX2 analytically  !
 ! R58   R(47,49)                1.0922         calculate D2E/DX2 analytically  !
 ! R59   R(47,50)                1.4108         calculate D2E/DX2 analytically  !
 ! R60   R(50,75)                1.4243         calculate D2E/DX2 analytically  !
 ! R61   R(51,52)                1.4718         calculate D2E/DX2 analytically  !
 ! R62   R(51,53)                1.5263         calculate D2E/DX2 analytically  !
 ! R63   R(51,54)                1.7975         calculate D2E/DX2 analytically  !
 ! R64   R(54,55)                1.3877         calculate D2E/DX2 analytically  !
 ! R65   R(54,56)                1.3944         calculate D2E/DX2 analytically  !
 ! R66   R(55,57)                1.3969         calculate D2E/DX2 analytically  !
 ! R67   R(55,58)                1.0825         calculate D2E/DX2 analytically  !
 ! R68   R(56,59)                1.3926         calculate D2E/DX2 analytically  !
 ! R69   R(56,60)                1.0835         calculate D2E/DX2 analytically  !
 ! R70   R(57,61)                1.3917         calculate D2E/DX2 analytically  !
 ! R71   R(57,93)                1.5028         calculate D2E/DX2 analytically  !
 ! R72   R(58,84)                2.3178         calculate D2E/DX2 analytically  !
 ! R73   R(59,61)                1.3974         calculate D2E/DX2 analytically  !
 ! R74   R(59,97)                1.5039         calculate D2E/DX2 analytically  !
 ! R75   R(61,62)                1.083          calculate D2E/DX2 analytically  !
 ! R76   R(63,64)                1.0964         calculate D2E/DX2 analytically  !
 ! R77   R(63,65)                1.09           calculate D2E/DX2 analytically  !
 ! R78   R(63,66)                1.0902         calculate D2E/DX2 analytically  !
 ! R79   R(67,68)                1.0962         calculate D2E/DX2 analytically  !
 ! R80   R(67,69)                1.0959         calculate D2E/DX2 analytically  !
 ! R81   R(67,70)                1.0922         calculate D2E/DX2 analytically  !
 ! R82   R(71,72)                1.0946         calculate D2E/DX2 analytically  !
 ! R83   R(71,73)                1.097          calculate D2E/DX2 analytically  !
 ! R84   R(71,74)                1.0924         calculate D2E/DX2 analytically  !
 ! R85   R(75,76)                1.0922         calculate D2E/DX2 analytically  !
 ! R86   R(75,77)                1.099          calculate D2E/DX2 analytically  !
 ! R87   R(75,78)                1.0958         calculate D2E/DX2 analytically  !
 ! R88   R(79,80)                1.0918         calculate D2E/DX2 analytically  !
 ! R89   R(79,81)                1.0964         calculate D2E/DX2 analytically  !
 ! R90   R(79,82)                1.0985         calculate D2E/DX2 analytically  !
 ! R91   R(83,84)                2.3094         calculate D2E/DX2 analytically  !
 ! R92   R(84,85)                1.4269         calculate D2E/DX2 analytically  !
 ! R93   R(84,89)                1.4249         calculate D2E/DX2 analytically  !
 ! R94   R(85,86)                1.0964         calculate D2E/DX2 analytically  !
 ! R95   R(85,87)                1.0916         calculate D2E/DX2 analytically  !
 ! R96   R(85,88)                1.0979         calculate D2E/DX2 analytically  !
 ! R97   R(89,90)                1.098          calculate D2E/DX2 analytically  !
 ! R98   R(89,91)                1.0922         calculate D2E/DX2 analytically  !
 ! R99   R(89,92)                1.0954         calculate D2E/DX2 analytically  !
 ! R100  R(93,94)                1.3536         calculate D2E/DX2 analytically  !
 ! R101  R(93,95)                1.3455         calculate D2E/DX2 analytically  !
 ! R102  R(93,96)                1.3606         calculate D2E/DX2 analytically  !
 ! R103  R(97,98)                1.3473         calculate D2E/DX2 analytically  !
 ! R104  R(97,99)                1.3582         calculate D2E/DX2 analytically  !
 ! R105  R(97,100)               1.3498         calculate D2E/DX2 analytically  !
 ! A1    A(2,1,5)              110.8521         calculate D2E/DX2 analytically  !
 ! A2    A(2,1,8)              108.1996         calculate D2E/DX2 analytically  !
 ! A3    A(2,1,14)             107.9754         calculate D2E/DX2 analytically  !
 ! A4    A(5,1,8)              109.5768         calculate D2E/DX2 analytically  !
 ! A5    A(5,1,14)             110.1497         calculate D2E/DX2 analytically  !
 ! A6    A(8,1,14)             110.0514         calculate D2E/DX2 analytically  !
 ! A7    A(1,2,3)              110.1652         calculate D2E/DX2 analytically  !
 ! A8    A(1,2,7)              108.8521         calculate D2E/DX2 analytically  !
 ! A9    A(1,2,13)             112.2601         calculate D2E/DX2 analytically  !
 ! A10   A(3,2,7)              106.4616         calculate D2E/DX2 analytically  !
 ! A11   A(3,2,13)             109.0622         calculate D2E/DX2 analytically  !
 ! A12   A(7,2,13)             109.8734         calculate D2E/DX2 analytically  !
 ! A13   A(2,3,6)              110.2823         calculate D2E/DX2 analytically  !
 ! A14   A(2,3,11)             109.4394         calculate D2E/DX2 analytically  !
 ! A15   A(2,3,12)             109.182          calculate D2E/DX2 analytically  !
 ! A16   A(6,3,11)             105.1406         calculate D2E/DX2 analytically  !
 ! A17   A(6,3,12)             109.7732         calculate D2E/DX2 analytically  !
 ! A18   A(11,3,12)            112.9625         calculate D2E/DX2 analytically  !
 ! A19   A(5,4,9)              109.3801         calculate D2E/DX2 analytically  !
 ! A20   A(5,4,11)             109.7197         calculate D2E/DX2 analytically  !
 ! A21   A(5,4,16)             111.9571         calculate D2E/DX2 analytically  !
 ! A22   A(9,4,11)             108.5177         calculate D2E/DX2 analytically  !
 ! A23   A(9,4,16)             109.7794         calculate D2E/DX2 analytically  !
 ! A24   A(11,4,16)            107.4117         calculate D2E/DX2 analytically  !
 ! A25   A(1,5,4)              113.628          calculate D2E/DX2 analytically  !
 ! A26   A(1,5,10)             108.2495         calculate D2E/DX2 analytically  !
 ! A27   A(1,5,15)             108.5265         calculate D2E/DX2 analytically  !
 ! A28   A(4,5,10)             106.9268         calculate D2E/DX2 analytically  !
 ! A29   A(4,5,15)             109.7022         calculate D2E/DX2 analytically  !
 ! A30   A(10,5,15)            109.7522         calculate D2E/DX2 analytically  !
 ! A31   A(3,6,41)             129.121          calculate D2E/DX2 analytically  !
 ! A32   A(5,10,64)            155.2329         calculate D2E/DX2 analytically  !
 ! A33   A(3,11,4)             114.336          calculate D2E/DX2 analytically  !
 ! A34   A(3,12,79)            113.0599         calculate D2E/DX2 analytically  !
 ! A35   A(2,13,20)            113.7884         calculate D2E/DX2 analytically  !
 ! A36   A(1,14,24)            114.1946         calculate D2E/DX2 analytically  !
 ! A37   A(5,15,28)            114.0514         calculate D2E/DX2 analytically  !
 ! A38   A(4,16,17)            104.9644         calculate D2E/DX2 analytically  !
 ! A39   A(4,16,18)            105.1724         calculate D2E/DX2 analytically  !
 ! A40   A(4,16,19)            114.1248         calculate D2E/DX2 analytically  !
 ! A41   A(17,16,18)           104.9546         calculate D2E/DX2 analytically  !
 ! A42   A(17,16,19)           113.4471         calculate D2E/DX2 analytically  !
 ! A43   A(18,16,19)           113.2647         calculate D2E/DX2 analytically  !
 ! A44   A(16,19,37)           119.9149         calculate D2E/DX2 analytically  !
 ! A45   A(16,19,83)           164.8614         calculate D2E/DX2 analytically  !
 ! A46   A(37,19,83)            73.655          calculate D2E/DX2 analytically  !
 ! A47   A(13,20,21)           111.1168         calculate D2E/DX2 analytically  !
 ! A48   A(13,20,22)           111.4629         calculate D2E/DX2 analytically  !
 ! A49   A(13,20,23)           106.694          calculate D2E/DX2 analytically  !
 ! A50   A(21,20,22)           108.9618         calculate D2E/DX2 analytically  !
 ! A51   A(21,20,23)           108.8931         calculate D2E/DX2 analytically  !
 ! A52   A(22,20,23)           109.6571         calculate D2E/DX2 analytically  !
 ! A53   A(14,24,25)           111.5332         calculate D2E/DX2 analytically  !
 ! A54   A(14,24,26)           111.0901         calculate D2E/DX2 analytically  !
 ! A55   A(14,24,27)           106.727          calculate D2E/DX2 analytically  !
 ! A56   A(25,24,26)           108.9689         calculate D2E/DX2 analytically  !
 ! A57   A(25,24,27)           109.5938         calculate D2E/DX2 analytically  !
 ! A58   A(26,24,27)           108.8697         calculate D2E/DX2 analytically  !
 ! A59   A(15,28,29)           111.0639         calculate D2E/DX2 analytically  !
 ! A60   A(15,28,30)           111.5057         calculate D2E/DX2 analytically  !
 ! A61   A(15,28,31)           106.7942         calculate D2E/DX2 analytically  !
 ! A62   A(29,28,30)           108.7884         calculate D2E/DX2 analytically  !
 ! A63   A(29,28,31)           108.8177         calculate D2E/DX2 analytically  !
 ! A64   A(30,28,31)           109.8226         calculate D2E/DX2 analytically  !
 ! A65   A(33,32,36)           107.7892         calculate D2E/DX2 analytically  !
 ! A66   A(33,32,39)           109.2505         calculate D2E/DX2 analytically  !
 ! A67   A(33,32,45)           111.861          calculate D2E/DX2 analytically  !
 ! A68   A(36,32,39)           109.7612         calculate D2E/DX2 analytically  !
 ! A69   A(36,32,45)           107.7787         calculate D2E/DX2 analytically  !
 ! A70   A(39,32,45)           110.3421         calculate D2E/DX2 analytically  !
 ! A71   A(32,33,34)           109.2423         calculate D2E/DX2 analytically  !
 ! A72   A(32,33,38)           109.8784         calculate D2E/DX2 analytically  !
 ! A73   A(32,33,44)           114.5097         calculate D2E/DX2 analytically  !
 ! A74   A(34,33,38)           103.1818         calculate D2E/DX2 analytically  !
 ! A75   A(34,33,44)           109.3705         calculate D2E/DX2 analytically  !
 ! A76   A(38,33,44)           110.0485         calculate D2E/DX2 analytically  !
 ! A77   A(33,34,37)           120.4444         calculate D2E/DX2 analytically  !
 ! A78   A(33,34,42)           120.1909         calculate D2E/DX2 analytically  !
 ! A79   A(33,34,53)            98.8929         calculate D2E/DX2 analytically  !
 ! A80   A(37,34,42)           113.5144         calculate D2E/DX2 analytically  !
 ! A81   A(37,34,53)            93.2694         calculate D2E/DX2 analytically  !
 ! A82   A(42,34,53)           101.9901         calculate D2E/DX2 analytically  !
 ! A83   A(36,35,40)           107.9784         calculate D2E/DX2 analytically  !
 ! A84   A(36,35,42)           115.5626         calculate D2E/DX2 analytically  !
 ! A85   A(36,35,47)           112.8686         calculate D2E/DX2 analytically  !
 ! A86   A(40,35,42)           104.2171         calculate D2E/DX2 analytically  !
 ! A87   A(40,35,47)           112.8118         calculate D2E/DX2 analytically  !
 ! A88   A(42,35,47)           103.1642         calculate D2E/DX2 analytically  !
 ! A89   A(32,36,35)           113.3095         calculate D2E/DX2 analytically  !
 ! A90   A(32,36,41)           107.6108         calculate D2E/DX2 analytically  !
 ! A91   A(32,36,46)           110.689          calculate D2E/DX2 analytically  !
 ! A92   A(35,36,41)           109.2326         calculate D2E/DX2 analytically  !
 ! A93   A(35,36,46)           106.0966         calculate D2E/DX2 analytically  !
 ! A94   A(41,36,46)           109.8866         calculate D2E/DX2 analytically  !
 ! A95   A(19,37,34)           113.1165         calculate D2E/DX2 analytically  !
 ! A96   A(6,41,36)            163.235          calculate D2E/DX2 analytically  !
 ! A97   A(34,42,35)           123.6586         calculate D2E/DX2 analytically  !
 ! A98   A(33,44,63)           114.1628         calculate D2E/DX2 analytically  !
 ! A99   A(32,45,67)           113.601          calculate D2E/DX2 analytically  !
 ! A100  A(36,46,71)           113.9323         calculate D2E/DX2 analytically  !
 ! A101  A(35,47,48)           109.4389         calculate D2E/DX2 analytically  !
 ! A102  A(35,47,49)           107.0637         calculate D2E/DX2 analytically  !
 ! A103  A(35,47,50)           113.2374         calculate D2E/DX2 analytically  !
 ! A104  A(48,47,49)           108.9006         calculate D2E/DX2 analytically  !
 ! A105  A(48,47,50)           111.2695         calculate D2E/DX2 analytically  !
 ! A106  A(49,47,50)           106.7304         calculate D2E/DX2 analytically  !
 ! A107  A(47,50,75)           113.995          calculate D2E/DX2 analytically  !
 ! A108  A(43,51,52)           115.3043         calculate D2E/DX2 analytically  !
 ! A109  A(43,51,53)           112.2357         calculate D2E/DX2 analytically  !
 ! A110  A(43,51,54)           106.6121         calculate D2E/DX2 analytically  !
 ! A111  A(52,51,53)           111.1376         calculate D2E/DX2 analytically  !
 ! A112  A(52,51,54)           106.4499         calculate D2E/DX2 analytically  !
 ! A113  A(53,51,54)           104.1913         calculate D2E/DX2 analytically  !
 ! A114  A(34,53,51)           119.282          calculate D2E/DX2 analytically  !
 ! A115  A(51,54,55)           120.2499         calculate D2E/DX2 analytically  !
 ! A116  A(51,54,56)           118.5858         calculate D2E/DX2 analytically  !
 ! A117  A(55,54,56)           121.1636         calculate D2E/DX2 analytically  !
 ! A118  A(54,55,57)           119.0517         calculate D2E/DX2 analytically  !
 ! A119  A(54,55,58)           120.4316         calculate D2E/DX2 analytically  !
 ! A120  A(57,55,58)           120.4791         calculate D2E/DX2 analytically  !
 ! A121  A(54,56,59)           119.0552         calculate D2E/DX2 analytically  !
 ! A122  A(54,56,60)           120.4562         calculate D2E/DX2 analytically  !
 ! A123  A(59,56,60)           120.485          calculate D2E/DX2 analytically  !
 ! A124  A(55,57,61)           120.8116         calculate D2E/DX2 analytically  !
 ! A125  A(55,57,93)           118.4652         calculate D2E/DX2 analytically  !
 ! A126  A(61,57,93)           120.6814         calculate D2E/DX2 analytically  !
 ! A127  A(55,58,84)           161.7839         calculate D2E/DX2 analytically  !
 ! A128  A(56,59,61)           120.7168         calculate D2E/DX2 analytically  !
 ! A129  A(56,59,97)           120.1328         calculate D2E/DX2 analytically  !
 ! A130  A(61,59,97)           119.0627         calculate D2E/DX2 analytically  !
 ! A131  A(57,61,59)           119.1996         calculate D2E/DX2 analytically  !
 ! A132  A(57,61,62)           120.455          calculate D2E/DX2 analytically  !
 ! A133  A(59,61,62)           120.3453         calculate D2E/DX2 analytically  !
 ! A134  A(44,63,64)           110.7567         calculate D2E/DX2 analytically  !
 ! A135  A(44,63,65)           111.2537         calculate D2E/DX2 analytically  !
 ! A136  A(44,63,66)           106.0794         calculate D2E/DX2 analytically  !
 ! A137  A(64,63,65)           109.0987         calculate D2E/DX2 analytically  !
 ! A138  A(64,63,66)           109.6913         calculate D2E/DX2 analytically  !
 ! A139  A(65,63,66)           109.922          calculate D2E/DX2 analytically  !
 ! A140  A(10,64,63)           152.381          calculate D2E/DX2 analytically  !
 ! A141  A(45,67,68)           111.1146         calculate D2E/DX2 analytically  !
 ! A142  A(45,67,69)           111.535          calculate D2E/DX2 analytically  !
 ! A143  A(45,67,70)           106.667          calculate D2E/DX2 analytically  !
 ! A144  A(68,67,69)           108.9219         calculate D2E/DX2 analytically  !
 ! A145  A(68,67,70)           109.2766         calculate D2E/DX2 analytically  !
 ! A146  A(69,67,70)           109.2727         calculate D2E/DX2 analytically  !
 ! A147  A(46,71,72)           111.1394         calculate D2E/DX2 analytically  !
 ! A148  A(46,71,73)           110.5541         calculate D2E/DX2 analytically  !
 ! A149  A(46,71,74)           106.3564         calculate D2E/DX2 analytically  !
 ! A150  A(72,71,73)           109.6698         calculate D2E/DX2 analytically  !
 ! A151  A(72,71,74)           109.6746         calculate D2E/DX2 analytically  !
 ! A152  A(73,71,74)           109.3823         calculate D2E/DX2 analytically  !
 ! A153  A(50,75,76)           106.6072         calculate D2E/DX2 analytically  !
 ! A154  A(50,75,77)           110.8634         calculate D2E/DX2 analytically  !
 ! A155  A(50,75,78)           111.4549         calculate D2E/DX2 analytically  !
 ! A156  A(76,75,77)           109.2167         calculate D2E/DX2 analytically  !
 ! A157  A(76,75,78)           109.1139         calculate D2E/DX2 analytically  !
 ! A158  A(77,75,78)           109.5105         calculate D2E/DX2 analytically  !
 ! A159  A(12,79,80)           106.7106         calculate D2E/DX2 analytically  !
 ! A160  A(12,79,81)           111.3655         calculate D2E/DX2 analytically  !
 ! A161  A(12,79,82)           110.9844         calculate D2E/DX2 analytically  !
 ! A162  A(80,79,81)           109.4014         calculate D2E/DX2 analytically  !
 ! A163  A(80,79,82)           109.6809         calculate D2E/DX2 analytically  !
 ! A164  A(81,79,82)           108.67           calculate D2E/DX2 analytically  !
 ! A165  A(19,83,84)           155.3968         calculate D2E/DX2 analytically  !
 ! A166  A(58,84,83)            80.5055         calculate D2E/DX2 analytically  !
 ! A167  A(58,84,85)            90.0535         calculate D2E/DX2 analytically  !
 ! A168  A(58,84,89)           122.6495         calculate D2E/DX2 analytically  !
 ! A169  A(83,84,85)           120.8763         calculate D2E/DX2 analytically  !
 ! A170  A(83,84,89)           121.3332         calculate D2E/DX2 analytically  !
 ! A171  A(85,84,89)           112.759          calculate D2E/DX2 analytically  !
 ! A172  A(84,85,86)           110.3624         calculate D2E/DX2 analytically  !
 ! A173  A(84,85,87)           106.7318         calculate D2E/DX2 analytically  !
 ! A174  A(84,85,88)           110.7737         calculate D2E/DX2 analytically  !
 ! A175  A(86,85,87)           109.6334         calculate D2E/DX2 analytically  !
 ! A176  A(86,85,88)           109.4223         calculate D2E/DX2 analytically  !
 ! A177  A(87,85,88)           109.8806         calculate D2E/DX2 analytically  !
 ! A178  A(84,89,90)           110.7674         calculate D2E/DX2 analytically  !
 ! A179  A(84,89,91)           106.9952         calculate D2E/DX2 analytically  !
 ! A180  A(84,89,92)           110.6588         calculate D2E/DX2 analytically  !
 ! A181  A(90,89,91)           109.5102         calculate D2E/DX2 analytically  !
 ! A182  A(90,89,92)           109.5041         calculate D2E/DX2 analytically  !
 ! A183  A(91,89,92)           109.3599         calculate D2E/DX2 analytically  !
 ! A184  A(57,93,94)           111.7414         calculate D2E/DX2 analytically  !
 ! A185  A(57,93,95)           112.6173         calculate D2E/DX2 analytically  !
 ! A186  A(57,93,96)           111.3111         calculate D2E/DX2 analytically  !
 ! A187  A(94,93,95)           107.6272         calculate D2E/DX2 analytically  !
 ! A188  A(94,93,96)           106.201          calculate D2E/DX2 analytically  !
 ! A189  A(95,93,96)           106.9953         calculate D2E/DX2 analytically  !
 ! A190  A(59,97,98)           112.1847         calculate D2E/DX2 analytically  !
 ! A191  A(59,97,99)           111.2311         calculate D2E/DX2 analytically  !
 ! A192  A(59,97,100)          111.7273         calculate D2E/DX2 analytically  !
 ! A193  A(98,97,99)           106.9828         calculate D2E/DX2 analytically  !
 ! A194  A(98,97,100)          107.8426         calculate D2E/DX2 analytically  !
 ! A195  A(99,97,100)          106.5749         calculate D2E/DX2 analytically  !
 ! D1    D(5,1,2,3)            -51.2108         calculate D2E/DX2 analytically  !
 ! D2    D(5,1,2,7)             65.173          calculate D2E/DX2 analytically  !
 ! D3    D(5,1,2,13)          -172.9635         calculate D2E/DX2 analytically  !
 ! D4    D(8,1,2,3)             68.9659         calculate D2E/DX2 analytically  !
 ! D5    D(8,1,2,7)           -174.6504         calculate D2E/DX2 analytically  !
 ! D6    D(8,1,2,13)           -52.7869         calculate D2E/DX2 analytically  !
 ! D7    D(14,1,2,3)          -171.949          calculate D2E/DX2 analytically  !
 ! D8    D(14,1,2,7)           -55.5653         calculate D2E/DX2 analytically  !
 ! D9    D(14,1,2,13)           66.2982         calculate D2E/DX2 analytically  !
 ! D10   D(2,1,5,4)             47.4021         calculate D2E/DX2 analytically  !
 ! D11   D(2,1,5,10)           -71.2099         calculate D2E/DX2 analytically  !
 ! D12   D(2,1,5,15)           169.7253         calculate D2E/DX2 analytically  !
 ! D13   D(8,1,5,4)            -71.9506         calculate D2E/DX2 analytically  !
 ! D14   D(8,1,5,10)           169.4375         calculate D2E/DX2 analytically  !
 ! D15   D(8,1,5,15)            50.3726         calculate D2E/DX2 analytically  !
 ! D16   D(14,1,5,4)           166.8436         calculate D2E/DX2 analytically  !
 ! D17   D(14,1,5,10)           48.2316         calculate D2E/DX2 analytically  !
 ! D18   D(14,1,5,15)          -70.8332         calculate D2E/DX2 analytically  !
 ! D19   D(2,1,14,24)         -140.2832         calculate D2E/DX2 analytically  !
 ! D20   D(5,1,14,24)           98.5407         calculate D2E/DX2 analytically  !
 ! D21   D(8,1,14,24)          -22.3812         calculate D2E/DX2 analytically  !
 ! D22   D(1,2,3,6)            173.9706         calculate D2E/DX2 analytically  !
 ! D23   D(1,2,3,11)            58.7746         calculate D2E/DX2 analytically  !
 ! D24   D(1,2,3,12)           -65.3373         calculate D2E/DX2 analytically  !
 ! D25   D(7,2,3,6)             56.1014         calculate D2E/DX2 analytically  !
 ! D26   D(7,2,3,11)           -59.0945         calculate D2E/DX2 analytically  !
 ! D27   D(7,2,3,12)           176.7936         calculate D2E/DX2 analytically  !
 ! D28   D(13,2,3,6)           -62.3974         calculate D2E/DX2 analytically  !
 ! D29   D(13,2,3,11)         -177.5934         calculate D2E/DX2 analytically  !
 ! D30   D(13,2,3,12)           58.2947         calculate D2E/DX2 analytically  !
 ! D31   D(1,2,13,20)          -98.5086         calculate D2E/DX2 analytically  !
 ! D32   D(3,2,13,20)          139.1112         calculate D2E/DX2 analytically  !
 ! D33   D(7,2,13,20)           22.7708         calculate D2E/DX2 analytically  !
 ! D34   D(2,3,6,41)           -85.5704         calculate D2E/DX2 analytically  !
 ! D35   D(11,3,6,41)           32.3059         calculate D2E/DX2 analytically  !
 ! D36   D(12,3,6,41)          154.0922         calculate D2E/DX2 analytically  !
 ! D37   D(2,3,11,4)           -63.7733         calculate D2E/DX2 analytically  !
 ! D38   D(6,3,11,4)           177.7816         calculate D2E/DX2 analytically  !
 ! D39   D(12,3,11,4)           58.0941         calculate D2E/DX2 analytically  !
 ! D40   D(2,3,12,79)         -173.8846         calculate D2E/DX2 analytically  !
 ! D41   D(6,3,12,79)          -52.8817         calculate D2E/DX2 analytically  !
 ! D42   D(11,3,12,79)          64.1034         calculate D2E/DX2 analytically  !
 ! D43   D(9,4,5,1)             70.157          calculate D2E/DX2 analytically  !
 ! D44   D(9,4,5,10)          -170.4744         calculate D2E/DX2 analytically  !
 ! D45   D(9,4,5,15)           -51.5141         calculate D2E/DX2 analytically  !
 ! D46   D(11,4,5,1)           -48.7727         calculate D2E/DX2 analytically  !
 ! D47   D(11,4,5,10)           70.5959         calculate D2E/DX2 analytically  !
 ! D48   D(11,4,5,15)         -170.4437         calculate D2E/DX2 analytically  !
 ! D49   D(16,4,5,1)          -167.9324         calculate D2E/DX2 analytically  !
 ! D50   D(16,4,5,10)          -48.5637         calculate D2E/DX2 analytically  !
 ! D51   D(16,4,5,15)           70.3966         calculate D2E/DX2 analytically  !
 ! D52   D(5,4,11,3)            58.0143         calculate D2E/DX2 analytically  !
 ! D53   D(9,4,11,3)           -61.4453         calculate D2E/DX2 analytically  !
 ! D54   D(16,4,11,3)          179.9312         calculate D2E/DX2 analytically  !
 ! D55   D(5,4,16,17)          -76.6124         calculate D2E/DX2 analytically  !
 ! D56   D(5,4,16,18)          172.9466         calculate D2E/DX2 analytically  !
 ! D57   D(5,4,16,19)           48.2066         calculate D2E/DX2 analytically  !
 ! D58   D(9,4,16,17)           45.0692         calculate D2E/DX2 analytically  !
 ! D59   D(9,4,16,18)          -65.3717         calculate D2E/DX2 analytically  !
 ! D60   D(9,4,16,19)          169.8883         calculate D2E/DX2 analytically  !
 ! D61   D(11,4,16,17)         162.8762         calculate D2E/DX2 analytically  !
 ! D62   D(11,4,16,18)          52.4353         calculate D2E/DX2 analytically  !
 ! D63   D(11,4,16,19)         -72.3047         calculate D2E/DX2 analytically  !
 ! D64   D(1,5,10,64)           20.1788         calculate D2E/DX2 analytically  !
 ! D65   D(4,5,10,64)         -102.6061         calculate D2E/DX2 analytically  !
 ! D66   D(15,5,10,64)         138.4659         calculate D2E/DX2 analytically  !
 ! D67   D(1,5,15,28)          131.4335         calculate D2E/DX2 analytically  !
 ! D68   D(4,5,15,28)         -103.8867         calculate D2E/DX2 analytically  !
 ! D69   D(10,5,15,28)          13.3181         calculate D2E/DX2 analytically  !
 ! D70   D(3,6,41,36)          -48.0423         calculate D2E/DX2 analytically  !
 ! D71   D(5,10,64,63)          90.0023         calculate D2E/DX2 analytically  !
 ! D72   D(3,12,79,80)         167.8432         calculate D2E/DX2 analytically  !
 ! D73   D(3,12,79,81)         -72.8246         calculate D2E/DX2 analytically  !
 ! D74   D(3,12,79,82)          48.3872         calculate D2E/DX2 analytically  !
 ! D75   D(2,13,20,21)         -59.4952         calculate D2E/DX2 analytically  !
 ! D76   D(2,13,20,22)          62.2488         calculate D2E/DX2 analytically  !
 ! D77   D(2,13,20,23)        -178.0637         calculate D2E/DX2 analytically  !
 ! D78   D(1,14,24,25)         -60.4536         calculate D2E/DX2 analytically  !
 ! D79   D(1,14,24,26)          61.3298         calculate D2E/DX2 analytically  !
 ! D80   D(1,14,24,27)         179.8752         calculate D2E/DX2 analytically  !
 ! D81   D(5,15,28,29)         -63.1851         calculate D2E/DX2 analytically  !
 ! D82   D(5,15,28,30)          58.3297         calculate D2E/DX2 analytically  !
 ! D83   D(5,15,28,31)         178.3061         calculate D2E/DX2 analytically  !
 ! D84   D(4,16,19,37)         105.8494         calculate D2E/DX2 analytically  !
 ! D85   D(4,16,19,83)        -102.0854         calculate D2E/DX2 analytically  !
 ! D86   D(17,16,19,37)       -133.9764         calculate D2E/DX2 analytically  !
 ! D87   D(17,16,19,83)         18.0888         calculate D2E/DX2 analytically  !
 ! D88   D(18,16,19,37)        -14.4618         calculate D2E/DX2 analytically  !
 ! D89   D(18,16,19,83)        137.6034         calculate D2E/DX2 analytically  !
 ! D90   D(16,19,37,34)        -71.6092         calculate D2E/DX2 analytically  !
 ! D91   D(83,19,37,34)        115.7157         calculate D2E/DX2 analytically  !
 ! D92   D(16,19,83,84)         28.2091         calculate D2E/DX2 analytically  !
 ! D93   D(37,19,83,84)       -176.8247         calculate D2E/DX2 analytically  !
 ! D94   D(36,32,33,34)        -59.5557         calculate D2E/DX2 analytically  !
 ! D95   D(36,32,33,38)         52.9669         calculate D2E/DX2 analytically  !
 ! D96   D(36,32,33,44)        177.4031         calculate D2E/DX2 analytically  !
 ! D97   D(39,32,33,34)         59.664          calculate D2E/DX2 analytically  !
 ! D98   D(39,32,33,38)        172.1867         calculate D2E/DX2 analytically  !
 ! D99   D(39,32,33,44)        -63.3772         calculate D2E/DX2 analytically  !
 ! D100  D(45,32,33,34)       -177.8663         calculate D2E/DX2 analytically  !
 ! D101  D(45,32,33,38)        -65.3436         calculate D2E/DX2 analytically  !
 ! D102  D(45,32,33,44)         59.0926         calculate D2E/DX2 analytically  !
 ! D103  D(33,32,36,35)         52.0411         calculate D2E/DX2 analytically  !
 ! D104  D(33,32,36,41)        -68.8283         calculate D2E/DX2 analytically  !
 ! D105  D(33,32,36,46)        171.0814         calculate D2E/DX2 analytically  !
 ! D106  D(39,32,36,35)        -66.853          calculate D2E/DX2 analytically  !
 ! D107  D(39,32,36,41)        172.2776         calculate D2E/DX2 analytically  !
 ! D108  D(39,32,36,46)         52.1873         calculate D2E/DX2 analytically  !
 ! D109  D(45,32,36,35)        172.9416         calculate D2E/DX2 analytically  !
 ! D110  D(45,32,36,41)         52.0722         calculate D2E/DX2 analytically  !
 ! D111  D(45,32,36,46)        -68.018          calculate D2E/DX2 analytically  !
 ! D112  D(33,32,45,67)       -110.1178         calculate D2E/DX2 analytically  !
 ! D113  D(36,32,45,67)        131.5654         calculate D2E/DX2 analytically  !
 ! D114  D(39,32,45,67)         11.7269         calculate D2E/DX2 analytically  !
 ! D115  D(32,33,34,37)       -163.9551         calculate D2E/DX2 analytically  !
 ! D116  D(32,33,34,42)         44.7191         calculate D2E/DX2 analytically  !
 ! D117  D(32,33,34,53)        -64.8109         calculate D2E/DX2 analytically  !
 ! D118  D(38,33,34,37)         79.1955         calculate D2E/DX2 analytically  !
 ! D119  D(38,33,34,42)        -72.1303         calculate D2E/DX2 analytically  !
 ! D120  D(38,33,34,53)        178.3397         calculate D2E/DX2 analytically  !
 ! D121  D(44,33,34,37)        -37.9057         calculate D2E/DX2 analytically  !
 ! D122  D(44,33,34,42)        170.7685         calculate D2E/DX2 analytically  !
 ! D123  D(44,33,34,53)         61.2385         calculate D2E/DX2 analytically  !
 ! D124  D(32,33,44,63)        -85.6689         calculate D2E/DX2 analytically  !
 ! D125  D(34,33,44,63)        151.3591         calculate D2E/DX2 analytically  !
 ! D126  D(38,33,44,63)         38.6771         calculate D2E/DX2 analytically  !
 ! D127  D(33,34,37,19)        -51.3555         calculate D2E/DX2 analytically  !
 ! D128  D(42,34,37,19)        101.753          calculate D2E/DX2 analytically  !
 ! D129  D(53,34,37,19)       -153.6641         calculate D2E/DX2 analytically  !
 ! D130  D(33,34,42,35)        -18.4444         calculate D2E/DX2 analytically  !
 ! D131  D(37,34,42,35)       -171.6281         calculate D2E/DX2 analytically  !
 ! D132  D(53,34,42,35)         89.3978         calculate D2E/DX2 analytically  !
 ! D133  D(33,34,53,51)        -89.7046         calculate D2E/DX2 analytically  !
 ! D134  D(37,34,53,51)         31.805          calculate D2E/DX2 analytically  !
 ! D135  D(42,34,53,51)        146.6822         calculate D2E/DX2 analytically  !
 ! D136  D(40,35,36,32)         89.6903         calculate D2E/DX2 analytically  !
 ! D137  D(40,35,36,41)       -150.3607         calculate D2E/DX2 analytically  !
 ! D138  D(40,35,36,46)        -31.9595         calculate D2E/DX2 analytically  !
 ! D139  D(42,35,36,32)        -26.5053         calculate D2E/DX2 analytically  !
 ! D140  D(42,35,36,41)         93.4436         calculate D2E/DX2 analytically  !
 ! D141  D(42,35,36,46)       -148.1552         calculate D2E/DX2 analytically  !
 ! D142  D(47,35,36,32)       -144.9123         calculate D2E/DX2 analytically  !
 ! D143  D(47,35,36,41)        -24.9633         calculate D2E/DX2 analytically  !
 ! D144  D(47,35,36,46)         93.4379         calculate D2E/DX2 analytically  !
 ! D145  D(36,35,42,34)          8.5038         calculate D2E/DX2 analytically  !
 ! D146  D(40,35,42,34)       -109.7999         calculate D2E/DX2 analytically  !
 ! D147  D(47,35,42,34)        132.1654         calculate D2E/DX2 analytically  !
 ! D148  D(36,35,47,48)       -168.9047         calculate D2E/DX2 analytically  !
 ! D149  D(36,35,47,49)         73.2132         calculate D2E/DX2 analytically  !
 ! D150  D(36,35,47,50)        -44.142          calculate D2E/DX2 analytically  !
 ! D151  D(40,35,47,48)        -46.1657         calculate D2E/DX2 analytically  !
 ! D152  D(40,35,47,49)       -164.0479         calculate D2E/DX2 analytically  !
 ! D153  D(40,35,47,50)         78.597          calculate D2E/DX2 analytically  !
 ! D154  D(42,35,47,48)         65.6734         calculate D2E/DX2 analytically  !
 ! D155  D(42,35,47,49)        -52.2088         calculate D2E/DX2 analytically  !
 ! D156  D(42,35,47,50)       -169.5639         calculate D2E/DX2 analytically  !
 ! D157  D(32,36,41,6)          95.7671         calculate D2E/DX2 analytically  !
 ! D158  D(35,36,41,6)         -27.6299         calculate D2E/DX2 analytically  !
 ! D159  D(46,36,41,6)        -143.6359         calculate D2E/DX2 analytically  !
 ! D160  D(32,36,46,71)        102.4736         calculate D2E/DX2 analytically  !
 ! D161  D(35,36,46,71)       -134.2133         calculate D2E/DX2 analytically  !
 ! D162  D(41,36,46,71)        -16.2458         calculate D2E/DX2 analytically  !
 ! D163  D(33,44,63,64)        -69.1566         calculate D2E/DX2 analytically  !
 ! D164  D(33,44,63,65)         52.3675         calculate D2E/DX2 analytically  !
 ! D165  D(33,44,63,66)        171.8796         calculate D2E/DX2 analytically  !
 ! D166  D(32,45,67,68)        -56.7508         calculate D2E/DX2 analytically  !
 ! D167  D(32,45,67,69)         64.9909         calculate D2E/DX2 analytically  !
 ! D168  D(32,45,67,70)       -175.7645         calculate D2E/DX2 analytically  !
 ! D169  D(36,46,71,72)        -61.6331         calculate D2E/DX2 analytically  !
 ! D170  D(36,46,71,73)         60.3996         calculate D2E/DX2 analytically  !
 ! D171  D(36,46,71,74)        179.0477         calculate D2E/DX2 analytically  !
 ! D172  D(35,47,50,75)        -76.0908         calculate D2E/DX2 analytically  !
 ! D173  D(48,47,50,75)         47.6749         calculate D2E/DX2 analytically  !
 ! D174  D(49,47,50,75)        166.3591         calculate D2E/DX2 analytically  !
 ! D175  D(47,50,75,76)       -172.956          calculate D2E/DX2 analytically  !
 ! D176  D(47,50,75,77)        -54.1895         calculate D2E/DX2 analytically  !
 ! D177  D(47,50,75,78)         68.0738         calculate D2E/DX2 analytically  !
 ! D178  D(43,51,53,34)        -13.2899         calculate D2E/DX2 analytically  !
 ! D179  D(52,51,53,34)       -144.0682         calculate D2E/DX2 analytically  !
 ! D180  D(54,51,53,34)        101.6685         calculate D2E/DX2 analytically  !
 ! D181  D(43,51,54,55)         -8.1218         calculate D2E/DX2 analytically  !
 ! D182  D(43,51,54,56)        172.1824         calculate D2E/DX2 analytically  !
 ! D183  D(52,51,54,55)        115.4629         calculate D2E/DX2 analytically  !
 ! D184  D(52,51,54,56)        -64.2329         calculate D2E/DX2 analytically  !
 ! D185  D(53,51,54,55)       -126.9885         calculate D2E/DX2 analytically  !
 ! D186  D(53,51,54,56)         53.3157         calculate D2E/DX2 analytically  !
 ! D187  D(51,54,55,57)        179.8898         calculate D2E/DX2 analytically  !
 ! D188  D(51,54,55,58)          2.1094         calculate D2E/DX2 analytically  !
 ! D189  D(56,54,55,57)         -0.4224         calculate D2E/DX2 analytically  !
 ! D190  D(56,54,55,58)       -178.2028         calculate D2E/DX2 analytically  !
 ! D191  D(51,54,56,59)       -179.8456         calculate D2E/DX2 analytically  !
 ! D192  D(51,54,56,60)         -0.5275         calculate D2E/DX2 analytically  !
 ! D193  D(55,54,56,59)          0.4615         calculate D2E/DX2 analytically  !
 ! D194  D(55,54,56,60)        179.7796         calculate D2E/DX2 analytically  !
 ! D195  D(54,55,57,61)          0.1772         calculate D2E/DX2 analytically  !
 ! D196  D(54,55,57,93)       -177.4889         calculate D2E/DX2 analytically  !
 ! D197  D(58,55,57,61)        177.9566         calculate D2E/DX2 analytically  !
 ! D198  D(58,55,57,93)          0.2904         calculate D2E/DX2 analytically  !
 ! D199  D(54,55,58,84)        122.4078         calculate D2E/DX2 analytically  !
 ! D200  D(57,55,58,84)        -55.3407         calculate D2E/DX2 analytically  !
 ! D201  D(54,56,59,61)         -0.2554         calculate D2E/DX2 analytically  !
 ! D202  D(54,56,59,97)        176.3058         calculate D2E/DX2 analytically  !
 ! D203  D(60,56,59,61)       -179.5732         calculate D2E/DX2 analytically  !
 ! D204  D(60,56,59,97)         -3.012          calculate D2E/DX2 analytically  !
 ! D205  D(55,57,61,59)          0.0216         calculate D2E/DX2 analytically  !
 ! D206  D(55,57,61,62)        179.8802         calculate D2E/DX2 analytically  !
 ! D207  D(93,57,61,59)        177.6359         calculate D2E/DX2 analytically  !
 ! D208  D(93,57,61,62)         -2.5055         calculate D2E/DX2 analytically  !
 ! D209  D(55,57,93,94)        -46.7811         calculate D2E/DX2 analytically  !
 ! D210  D(55,57,93,95)       -168.0673         calculate D2E/DX2 analytically  !
 ! D211  D(55,57,93,96)         71.7731         calculate D2E/DX2 analytically  !
 ! D212  D(61,57,93,94)        135.5497         calculate D2E/DX2 analytically  !
 ! D213  D(61,57,93,95)         14.2635         calculate D2E/DX2 analytically  !
 ! D214  D(61,57,93,96)       -105.8962         calculate D2E/DX2 analytically  !
 ! D215  D(55,58,84,83)        -87.0429         calculate D2E/DX2 analytically  !
 ! D216  D(55,58,84,85)        151.6143         calculate D2E/DX2 analytically  !
 ! D217  D(55,58,84,89)         34.2237         calculate D2E/DX2 analytically  !
 ! D218  D(56,59,61,57)          0.0185         calculate D2E/DX2 analytically  !
 ! D219  D(56,59,61,62)       -179.8402         calculate D2E/DX2 analytically  !
 ! D220  D(97,59,61,57)       -176.579          calculate D2E/DX2 analytically  !
 ! D221  D(97,59,61,62)          3.5623         calculate D2E/DX2 analytically  !
 ! D222  D(56,59,97,98)         23.1193         calculate D2E/DX2 analytically  !
 ! D223  D(56,59,97,99)        -96.671          calculate D2E/DX2 analytically  !
 ! D224  D(56,59,97,100)       144.3649         calculate D2E/DX2 analytically  !
 ! D225  D(61,59,97,98)       -160.2628         calculate D2E/DX2 analytically  !
 ! D226  D(61,59,97,99)         79.9469         calculate D2E/DX2 analytically  !
 ! D227  D(61,59,97,100)       -39.0173         calculate D2E/DX2 analytically  !
 ! D228  D(44,63,64,10)         27.3719         calculate D2E/DX2 analytically  !
 ! D229  D(65,63,64,10)        -95.412          calculate D2E/DX2 analytically  !
 ! D230  D(66,63,64,10)        144.1302         calculate D2E/DX2 analytically  !
 ! D231  D(19,83,84,58)        153.2901         calculate D2E/DX2 analytically  !
 ! D232  D(19,83,84,85)       -122.3855         calculate D2E/DX2 analytically  !
 ! D233  D(19,83,84,89)         30.7039         calculate D2E/DX2 analytically  !
 ! D234  D(58,84,85,86)        -65.8448         calculate D2E/DX2 analytically  !
 ! D235  D(58,84,85,87)         53.2211         calculate D2E/DX2 analytically  !
 ! D236  D(58,84,85,88)        172.8131         calculate D2E/DX2 analytically  !
 ! D237  D(83,84,85,86)       -144.7967         calculate D2E/DX2 analytically  !
 ! D238  D(83,84,85,87)        -25.7308         calculate D2E/DX2 analytically  !
 ! D239  D(83,84,85,88)         93.8612         calculate D2E/DX2 analytically  !
 ! D240  D(89,84,85,86)         59.9895         calculate D2E/DX2 analytically  !
 ! D241  D(89,84,85,87)        179.0554         calculate D2E/DX2 analytically  !
 ! D242  D(89,84,85,88)        -61.3526         calculate D2E/DX2 analytically  !
 ! D243  D(58,84,89,90)        166.4738         calculate D2E/DX2 analytically  !
 ! D244  D(58,84,89,91)        -74.2255         calculate D2E/DX2 analytically  !
 ! D245  D(58,84,89,92)         44.8329         calculate D2E/DX2 analytically  !
 ! D246  D(83,84,89,90)        -94.2771         calculate D2E/DX2 analytically  !
 ! D247  D(83,84,89,91)         25.0237         calculate D2E/DX2 analytically  !
 ! D248  D(83,84,89,92)        144.082          calculate D2E/DX2 analytically  !
 ! D249  D(85,84,89,90)         60.809          calculate D2E/DX2 analytically  !
 ! D250  D(85,84,89,91)       -179.8902         calculate D2E/DX2 analytically  !
 ! D251  D(85,84,89,92)        -60.8319         calculate D2E/DX2 analytically  !
 --------------------------------------------------------------------------------
 Trust Radius=1.00D-02 FncErr=1.00D-07 GrdErr=1.00D-06 EigMax=2.50D+02 EigMin=1.00D-04
 Number of steps in this run=    561 maximum allowed number of steps=    600.
 Search for a saddle point of order  1.
 Step   0 in ReCalcFC=30 IGetFC= 4 compute analytic Hessian.
 GradGradGradGradGradGradGradGradGradGradGradGradGradGradGradGradGradGrad

 Leave Link  103 at Sat May 25 14:26:49 2019, MaxMem=  6442450944 cpu:               4.3 elap:               0.2
 (Enter /home/ekwan/sw/g16/l202.exe)
 Stoichiometry    C30H47F6NaO15S
 Framework group  C1[X(C30H47F6NaO15S)]
 Deg. of freedom   294
 Full point group                 C1      NOp   1
 Largest Abelian subgroup         C1      NOp   1
 Largest concise Abelian subgroup C1      NOp   1
                         Standard orientation:                         
 ---------------------------------------------------------------------
 Center     Atomic      Atomic             Coordinates (Angstroms)
 Number     Number       Type             X           Y           Z
 ---------------------------------------------------------------------
      1          6           0       -3.879100    2.164246    1.426370
      2          6           0       -3.731528    0.687693    1.793654
      3          6           0       -4.282367   -0.191828    0.671835
      4          6           0       -3.757229    1.436981   -1.026357
      5          6           0       -3.301916    2.439924    0.037970
      6          1           0       -4.080963   -1.250331    0.884212
      7          1           0       -2.662150    0.448432    1.880494
      8          1           0       -4.946978    2.414830    1.436868
      9          1           0       -4.821218    1.594512   -1.243646
     10          1           0       -2.211763    2.366541    0.099279
     11          8           0       -3.583417    0.084155   -0.530601
     12          8           0       -5.660650    0.014409    0.561158
     13          8           0       -4.396847    0.366213    3.002872
     14          8           0       -3.185666    2.934407    2.409294
     15          8           0       -3.675422    3.761411   -0.354577
     16          6           0       -2.935122    1.561657   -2.325539
     17          1           0       -3.334173    2.469186   -2.832308
     18          1           0       -3.264349    0.709137   -2.961689
     19          8           0       -1.582755    1.598405   -2.129606
     20          6           0       -3.539063    0.324440    4.135711
     21          1           0       -2.743112   -0.424324    4.003077
     22          1           0       -3.081066    1.300411    4.327706
     23          1           0       -4.158843    0.034952    4.988387
     24          6           0       -3.852714    4.130110    2.789235
     25          1           0       -3.992196    4.801330    1.935231
     26          1           0       -4.833502    3.911284    3.235811
     27          1           0       -3.223325    4.616887    3.539246
     28          6           0       -2.598662    4.544240   -0.850204
     29          1           0       -1.837364    4.707457   -0.072253
     30          1           0       -2.122479    4.070141   -1.716192
     31          1           0       -3.018601    5.510980   -1.141062
     32          6           0       -0.313350   -1.967392    0.292844
     33          6           0       -0.473595   -0.617015   -0.412202
     34          6           0       -0.588187   -0.841986   -1.891624
     35          6           0       -1.833786   -2.906411   -1.538102
     36          6           0       -1.542453   -2.812500   -0.033027
     37          1           0       -0.449882   -0.024826   -2.580598
     38          1           0       -1.442576   -0.172121   -0.150838
     39          1           0        0.586692   -2.464432   -0.080246
     40          1           0       -1.294881   -3.769678   -1.932302
     41          1           0       -2.400377   -2.358068    0.472646
     42          8           0       -1.351819   -1.778566   -2.349266
     43          8           0        1.910378    0.719980   -2.920642
     44          8           0        0.569046    0.306228   -0.156966
     45          8           0       -0.248325   -1.822586    1.704974
     46          8           0       -1.367497   -4.146346    0.417756
     47          6           0       -3.340488   -2.947543   -1.854672
     48          1           0       -3.485115   -3.212449   -2.911600
     49          1           0       -3.731104   -1.941781   -1.685383
     50          8           0       -4.064006   -3.812269   -1.006715
     51         16           0        2.395667   -0.645071   -2.579360
     52          8           0        3.312597   -1.249964   -3.558982
     53          8           0        1.251931   -1.595604   -2.236033
     54          6           0        3.318558   -0.493520   -1.044346
     55          6           0        3.597333    0.759477   -0.517021
     56          6           0        3.748545   -1.656655   -0.406781
     57          6           0        4.314331    0.848068    0.678544
     58          1           0        3.232964    1.653735   -1.006317
     59          6           0        4.461554   -1.550715    0.784785
     60          1           0        3.521398   -2.629238   -0.826807
     61          6           0        4.749510   -0.299049    1.335444
     62          1           0        5.306671   -0.223584    2.261080
     63          6           0        0.387540    1.081926    1.036129
     64          1           0       -0.443872    1.786873    0.918531
     65          1           0        0.193932    0.442605    1.897435
     66          1           0        1.317351    1.631766    1.183171
     67          6           0        1.039156   -2.099839    2.248062
     68          1           0        1.372672   -3.108568    1.978239
     69          1           0        1.785478   -1.374894    1.904033
     70          1           0        0.942760   -2.030307    3.333775
     71          6           0       -2.063747   -4.444661    1.625972
     72          1           0       -1.709481   -3.818196    2.450724
     73          1           0       -3.143592   -4.304141    1.492988
     74          1           0       -1.859367   -5.494630    1.847592
     75          6           0       -3.901674   -5.193675   -1.313300
     76          1           0       -4.602321   -5.739006   -0.677281
     77          1           0       -4.140958   -5.391364   -2.367541
     78          1           0       -2.882582   -5.534682   -1.099169
     79          6           0       -6.284556   -0.868022   -0.369292
     80          1           0       -7.361562   -0.774763   -0.216695
     81          1           0       -6.038402   -0.597679   -1.402954
     82          1           0       -5.974736   -1.907311   -0.194326
     83         11           0        0.436649    2.201532   -1.911896
     84          8           0        2.146944    3.664336   -1.393867
     85          6           0        3.133112    4.011346   -2.365067
     86          1           0        4.109746    4.146823   -1.885510
     87          1           0        3.183671    3.181178   -3.072085
     88          1           0        2.853771    4.933462   -2.891352
     89          6           0        1.990665    4.660235   -0.386804
     90          1           0        1.670811    5.613364   -0.828149
     91          1           0        1.222315    4.300754    0.301158
     92          1           0        2.928138    4.806929    0.160399
     93          6           0        4.559393    2.208717    1.267655
     94          9           0        4.996299    3.087430    0.335400
     95          9           0        5.464925    2.186374    2.262544
     96          9           0        3.416417    2.738002    1.782039
     97          6           0        4.865001   -2.789555    1.535852
     98          9           0        4.921656   -3.872996    0.736988
     99          9           0        3.981102   -3.073434    2.527231
    100          9           0        6.071133   -2.646347    2.124695
 ---------------------------------------------------------------------
 Rotational constants (GHZ):           0.0634929           0.0406709           0.0336225
 Leave Link  202 at Sat May 25 14:26:49 2019, MaxMem=  6442450944 cpu:               5.1 elap:               0.2
 (Enter /home/ekwan/sw/g16/l301.exe)
 Standard basis: 6-31G(d) (6D, 7F)
 Ernie: Thresh=  0.10000D-02 Tol=  0.10000D-05 Strict=F.
 There are   897 symmetry adapted cartesian basis functions of A   symmetry.
 There are   897 symmetry adapted basis functions of A   symmetry.
   897 basis functions,  1720 primitive gaussians,   897 cartesian basis functions
   214 alpha electrons      214 beta electrons
       nuclear repulsion energy      9659.9381720883 Hartrees.
 IExCor=  402 DFT=T Ex+Corr=B3LYP ExCW=0 ScaHFX=  0.200000
 ScaDFX=  0.800000  0.720000  1.000000  0.810000 ScalE2=  1.000000  1.000000
 IRadAn=      5 IRanWt=     -1 IRanGd=            0 ICorTp=0 IEmpDi=141
 NAtoms=  100 NActive=  100 NUniq=  100 SFac= 1.00D+00 NAtFMM=   60 NAOKFM=T Big=T
 Integral buffers will be    131072 words long.
 Raffenetti 2 integral format.
 Two-electron integral symmetry is turned on.
 R6Disp:  Grimme-D3(BJ) Dispersion energy=       -0.2381696570 Hartrees.
 Nuclear repulsion after empirical dispersion term =     9659.7000024314 Hartrees.
 Force inversion solution in PCM.
 ------------------------------------------------------------------------------
 Polarizable Continuum Model (PCM)
 =================================
 Model                : PCM.
 Atomic radii         : UFF (Universal Force Field).
 Polarization charges : Total charges.
 Charge compensation  : None.
 Solution method      : Matrix inversion.
 Cavity type          : Scaled VdW (van der Waals Surface) (Alpha=1.100).
 Cavity algorithm     : GePol (No added spheres)
                        Default sphere list used, NSphG=  100.
                        Lebedev-Laikov grids with approx.  5.0 points / Ang**2.
                        Smoothing algorithm: York/Karplus (Gamma=1.0000).
                        Polarization charges: spherical gaussians, with
                                              point-specific exponents (IZeta= 3).
                        Self-potential: point-specific (ISelfS= 7).
                        Self-field    : sphere-specific E.n sum rule (ISelfD= 2).
 1st derivatives      : Analytical E(r).r(x)/FMM algorithm (CHGder, D1EAlg=3).
                        Cavity 1st derivative terms included.
 2nd derivatives      : Analytical E(r).r(xy)/FMM algorithm (CHGder, D2EAlg=3).
                        Cavity 2nd derivative terms included.
 Solvent              : TetraHydroFuran, Eps=   7.425700 Eps(inf)=   1.974025
 ------------------------------------------------------------------------------
 GePol: Number of generator spheres                  =     100
 GePol: Total number of spheres                      =     100
 GePol: Number of exposed spheres                    =     100 (100.00%)
 GePol: Number of points                             =    6017
 GePol: Average weight of points                     =       0.12
 GePol: Minimum weight of points                     =   0.31D-10
 GePol: Maximum weight of points                     =    0.21593
 GePol: Number of points with low weight             =     431
 GePol: Fraction of low-weight points (<1% of avg)   =       7.16%
 GePol: Cavity surface area                          =    740.583 Ang**2
 GePol: Cavity volume                                =    966.915 Ang**3
 Leave Link  301 at Sat May 25 14:26:49 2019, MaxMem=  6442450944 cpu:               7.5 elap:               0.3
 (Enter /home/ekwan/sw/g16/l302.exe)
[...]
 6117,0.00057761,-0.00030610,0.00079533,0.00032074,0.00004420,-0.000097
 47,-0.00000752,0.00033834,-0.00025005,-0.00000502,0.00012720,-0.000091
 28,-0.00004910,-0.00001611,-0.00000153,0.00000452,0.00000077,0.0000004
 2,-0.00000637,0.00000198,-0.00000207,0.00003241,0.00006184,-0.00001698
 ,-0.00140730,-0.00098861,-0.00231378,0.00006750,0.00033270,0.00080213,
 0.00117131,0.00048988,0.00026419,0.00187060,-0.00135984,-0.00000983,0.
 00033163,-0.00027705,0.00112988,-0.00237970,-0.00263088,-0.00131914,0.
 00075851,0.00016810,-0.00035512,-0.00014454,0.00015972,-0.00002006,-0.
 01682021,-0.00622405,0.03196479,-0.00048519,0.00003799,0.00058792,0.00
 096110,0.00113225,0.00087452,-0.00051844,0.00009757,0.00016984,-0.0000
 8692,0.00003208,0.00015700,0.00005245,-0.00001060,-0.00001166,0.000017
 53,-0.00001479,-0.00002814,-0.00004195,0.00005211,0.00005598,0.0004498
 4,-0.00127070,0.00036817,0.00035825,0.00035284,0.00017106,0.00043706,0
 .00017647,0.00000098,0.00001901,0.00002487,-0.00006756,-0.00001383,-0.
 00001697,0.00005836,0.00000783,-0.00001534,-0.00000833,-0.00000433,0.0
 0000276,-0.00000992,0.00001332,0.00002167,-0.00000699,0.00001124,-0.00
 004047,-0.00000490,0.00000383,0.00000559,-0.00000032,-0.00000189,0.000
 00422,0.00000125,-0.00000611,0.00000182,0.00000264,-0.00000884,-0.0000
 1581,-0.00000466,0.00000350,0.,0.00000036,-0.00000101,0.00000211,-0.00
 000106,-0.00000160,0.00000277,0.00000148,-0.00026336,0.00017632,-0.000
 06653,0.00010823,-0.00025488,0.00002574,0.00005209,0.00006980,-0.00010
 068,0.00000674,0.00002624,-0.00000644,0.00000469,0.00002102,-0.0000444
 7,0.00001476,-0.00004304,0.00001556,-0.00006864,0.00009979,0.00011608,
 0.00001713,-0.00004622,-0.00000081,-0.00000276,0.00000845,-0.00001198,
 -0.00000237,0.00002649,-0.00001225,0.00035543,0.00166353,0.00085668,-0
 .00016742,-0.00057617,0.00003179,-0.00023937,-0.00037845,-0.00036179,0
 .00024757,-0.00053653,-0.00034808,-0.03077965,-0.08939447,0.04276462,0
 .02253655,0.00708573,-0.03668176,0.03964556,0.08231291,0.00000056,-0.0
 0000141,-0.00002866,0.00000448,0.00002341,-0.00004225,0.00003146,0.000
 03137,-0.00007812,-0.00000970,0.00001452,-0.00000570,0.00001621,-0.000
 00686,-0.00001403,-0.00000186,-0.00001020,0.00000266,0.00000112,0.0000
 0557,-0.00000824,-0.00000132,-0.00000035,0.00000562,-0.00000926,-0.000
 00117,0.00000417,-0.00000059,-0.00000576,-0.00001062,-0.00004926,-0.00
 002817,0.00006309,-0.00001395,-0.00000887,0.00002829,0.00001952,-0.000
 02665,0.00008260,0.00000492,0.00000120,0.00003506,-0.00002418,-0.00000
 706,0.00002409,0.00014751,0.00001669,0.00000853,-0.00003487,0.00001375
 ,-0.00000596,-0.00002067,-0.00001185,-0.00000555,-0.00018098,0.0000910
 9,0.00001192,-0.00005632,0.00002556,-0.00004001,0.00001366,-0.00001374
 ,-0.00000212,0.00000258,0.00000214,-0.00000100,0.00000086,-0.00000052,
 0.00000443,0.00000066,-0.00000012,-0.00000782,0.00000159,-0.00000389,0
 .00000180,-0.00000315,0.00000036,0.00000036,0.00000141,0.00000445,0.00
 000075,0.00001812,0.00000198,-0.00001853,0.00000351,-0.00000139,-0.000
 00189,0.00000257,-0.00000463,0.00001031,-0.00000358,0.00000233,0.00000
 166,0.00006804,-0.00007375,-0.00076543,0.00006526,0.00026711,0.0001237
 4,0.00095871,-0.00015417,-0.00013314,0.00012013,0.00016448,-0.00014765
 ,-0.00000604,0.00004992,0.00004537,-0.00003054,0.00000365,0.00008685,-
 0.00001092,-0.00001820,0.00002113,0.00001645,0.00008119,-0.00003221,-0
 .00000367,-0.00001233,0.00002715,-0.00002104,-0.00000855,0.00000219,-0
 .00035424,-0.00027596,-0.00002129,-0.00068739,0.00039744,-0.00077862,-
 0.00030300,-0.00005484,0.00019130,0.00068414,-0.00030770,0.00072602,0.
 00000529,-0.00007927,0.00013102,0.00003583,0.00002011,0.00001277,0.000
 00917,0.00000188,0.00000841,0.00000325,-0.00000241,-0.00000131,-0.0000
 3200,-0.00003865,0.00003591,0.00182655,0.00081270,0.00227761,-0.000187
 15,-0.00027878,-0.00083626,-0.00143951,-0.00046916,-0.00022261,-0.0014
 5160,0.00047953,0.00053371,0.00029493,0.00092652,-0.00024719,0.0010715
 4,0.00181479,0.00121661,-0.00175799,0.00165888,-0.00010450,0.00022459,
 -0.00013466,0.00001321,0.02091225,0.01874498,-0.02352320,0.00097107,-0
 .00024486,-0.00025661,-0.00083540,-0.00151712,-0.00292722,0.00104952,0
 .00027026,-0.00035229,0.00010559,-0.00000982,-0.00024539,-0.00005377,-
 0.00000209,0.00003916,-0.00005095,0.00002612,0.00005921,0.00005094,-0.
 00004626,-0.00007256,-0.00113074,0.00078248,0.00006618,-0.00094423,-0.
 00034861,-0.00050162,-0.00010510,0.00031815,-0.00029522,-0.00025027,0.
 00006253,0.00014209,0.00000618,-0.00000645,-0.00010567,-0.00001442,0.0
 0001773,0.00003652,0.00000861,0.00000230,0.00001712,-0.00001043,-0.000
 01095,0.00000351,-0.00000422,0.00001545,-0.00000406,-0.00000600,-0.000
 00513,0.00000087,0.00000493,-0.00000274,0.00000449,0.00000279,-0.00000
 355,-0.00000881,0.00000103,0.00000592,-0.00001065,-0.00000133,0.000001
 00,0.00000043,0.00000086,-0.00000245,0.00000533,0.00000183,-0.00000202
 ,-0.00000176,0.00029978,-0.00017576,0.00002765,-0.00014118,0.00029353,
 0.00000253,-0.00003940,-0.00007601,0.00009470,-0.00001063,-0.00003379,
 0.00000595,-0.00000321,-0.00002140,0.00005372,-0.00002016,0.00004653,-
 0.00001578,0.00008621,-0.00011979,-0.00015135,-0.00002015,0.00005163,0
 .00000399,-0.00000514,-0.00000905,0.00001461,0.00000556,-0.00002847,0.
 00001327,-0.00051674,-0.00191920,-0.00136424,0.00019487,0.00069942,0.0
 0001128,0.00029351,0.00043292,0.00051179,-0.00039236,0.00074644,0.0005
 6217,0.07632663,0.04240953,-0.16967593,0.03452329,-0.02355482,-0.05093
 979,-0.14040121,-0.04182758,0.22954194,-0.00000083,-0.00002406,-0.0000
 2990,0.00005106,-0.00000910,-0.00002819,0.00010341,-0.00000573,-0.0000
 4421,0.00000942,-0.00004554,0.00002841,0.00003729,-0.00003995,0.000002
 91,0.00000635,0.00001120,-0.00000383,-0.00001088,-0.00000139,-0.000008
 00,-0.00000653,0.00000748,0.00000695,-0.00002042,0.00000685,-0.0000007
 4,-0.00001085,-0.00001009,-0.00000740,-0.00009982,0.00003316,0.0000175
 4,-0.00008604,0.00000019,-0.00000757,-0.00003439,0.00001030,0.00003690
 ,-0.00001480,0.00004889,0.00003750,-0.00001932,0.00005358,-0.00000540,
 0.00018115,0.00001730,0.00002885,-0.00005085,0.00002861,-0.00001667,-0
 .00002612,-0.00001804,-0.00001070,-0.00019891,0.00016768,-0.00005274,0
 .00001404,-0.00001918,-0.00001636,-0.00000330,0.00001100,-0.00000165,0
 .00000379,0.00000178,0.00000073,-0.00000528,-0.00000130,0.00000671,0.0
 0002314,-0.00003624,-0.00001477,-0.00000282,0.00000373,-0.00000269,-0.
 00000837,0.00000269,0.00000285,0.00000115,0.00000395,0.00000355,-0.000
 00582,-0.00001815,-0.00000092,0.00000632,-0.00000019,-0.00000341,0.000
 00568,-0.00000984,0.00000758,-0.00000493,0.00001051,-0.00000016,0.0001
 2052,-0.00002599,0.00028645,0.00005229,0.00004727,0.00001441,0.0007104
 1,-0.00002908,0.00006592,0.00003539,0.00005659,0.00000217,0.00006667,0
 .00010550,-0.00003113,-0.00000913,-0.00004128,0.00003988,0.00002157,-0
 .00001172,0.00001376,0.00004181,0.00004110,0.00001691,-0.00000061,-0.0
 0001090,0.00001021,-0.00001691,-0.00001556,0.00000498,-0.00026760,-0.0
 0019622,-0.00009753,-0.00063499,0.00053586,-0.00080608,-0.00022566,0.0
 0013498,0.00007506,-0.00075628,0.00020610,-0.00025183,-0.00010966,-0.0
 0012088,0.00008220,0.00009864,0.00002816,0.00000065,-0.00002340,-0.000
 00805,-0.00001436,0.00000005,-0.00000600,0.00000394,-0.00007270,-0.000
 06639,-0.00000983,0.00124179,0.00074183,0.00221193,0.00005871,-0.00030
 925,-0.00085048,-0.00096725,-0.00028608,-0.00035726,-0.00026813,-0.000
 40654,-0.00172235,-0.00009727,0.00042538,-0.00004943,-0.00071023,0.005
 83091,0.00038379,0.00041999,0.00098775,-0.00053751,0.00000010,-0.00005
 899,0.00016828,-0.02450394,-0.00036039,-0.02069461,0.00007661,-0.00023
 122,0.00058185,-0.00012736,-0.00272371,-0.00159925,-0.00051379,0.00126
 254,0.00100656,0.00006825,-0.00010715,-0.00014862,-0.00005623,0.000031
 97,-0.00000675,-0.00000224,-0.00002920,-0.00000529,0.00003228,-0.00003
 277,-0.00004232,0.00078789,-0.00039253,-0.00022794,0.00032994,0.000455
 89,0.00016667,0.00005482,-0.00036177,0.00002120,-0.00004645,-0.0000199
 0,0.00006772,0.00008714,0.00004366,-0.00008383,0.00000926,0.00000546,-
 0.00001324,-0.00003032,0.00000156,0.00000214,0.00000314,-0.00001140,0.
 00000799,0.00002316,0.00004584,0.00002154,-0.00000683,-0.00000839,0.00
 000368,-0.00000315,-0.00000544,-0.00001313,-0.00000214,0.00000872,0.00
 000105,0.00001964,0.00001436,0.00001857,-0.00000851,0.00000007,0.00000
 026,0.00000271,-0.00000376,-0.00000200,0.00000298,0.00000052,-0.000005
 58,0.00020062,-0.00023573,0.00007345,-0.00005009,0.00022196,-0.0000280
 3,-0.00007762,-0.00006438,0.00009303,0.00000319,-0.00001299,0.00001148
 ,-0.00001401,-0.00002152,0.00003563,-0.00000648,0.00003495,-0.00001448
 ,0.00004132,-0.00008524,-0.00009951,-0.00001348,0.00003877,0.00000008,
 0.00000586,-0.00000981,0.00000608,0.00000487,-0.00001848,0.00001353,-0
 .00068742,-0.00139336,-0.00085544,0.00021617,0.00056397,-0.00002958,0.
 00037170,0.00030229,0.00042698,-0.00011343,0.00048803,0.00029222,-0.21
 922366,0.00751671,-0.08146363,-0.00752052,-0.02663681,-0.02738461,-0.0
 7579128,-0.01643156,0.01115176,0.32791673,-0.00000518,0.00000077,0.000
 01062,-0.00001811,-0.00000267,0.00001504,-0.00004203,-0.00001857,0.000
 03002,-0.00000006,0.00000197,-0.00000528,-0.00002135,0.00001053,0.0000
 0217,0.00000032,0.00000281,-0.00000080,0.00000263,-0.00000380,0.000003
 70,0.00000381,-0.00000207,-0.00000324,0.00000962,-0.00000053,-0.000000
 66,0.00000531,0.00000449,0.00000381,0.00004542,0.00000948,-0.00001895,
 0.00003261,0.00001097,-0.00000081,0.00001176,0.00000737,-0.00002254,0.
 00001106,-0.00000896,-0.00001412,0.00001814,-0.00000807,-0.00000264,-0
 .00010302,-0.00001278,-0.00001569,0.00002571,-0.00001240,0.00000678,0.
 00001663,0.00001222,0.00000786,0.00012333,-0.00006602,0.00001914,0.000
 00351,-0.00000422,0.00000818,-0.00000337,-0.00000205,0.00000039,-0.000
 00246,0.00000264,0.00000121,0.00000224,0.00000039,-0.00000348,-0.00001
 029,0.00000972,0.00000486,0.00000011,-0.00000042,0.00000048,0.00000473
 ,-0.00000017,-0.00000149,-0.00000056,-0.00000062,0.00000051,-0.0000103
 7,0.00000179,0.00000205,-0.00000072,0.00000096,0.00000410,-0.00000288,
 0.00000398,-0.00000461,0.00000293,-0.00000393,-0.00000032,-0.00000493,
 -0.00000843,0.00012040,-0.00007783,-0.00014117,-0.00003884,-0.00055694
 ,0.00002663,0.00000716,-0.00004576,-0.00010294,0.00005072,-0.00000995,
 -0.00007118,0.00000517,0.00001121,0.00000745,-0.00004133,0.00000354,0.
 00001841,-0.00001407,-0.00001709,-0.00005050,0.00001423,0.00000393,0.0
 0001334,-0.00000693,0.00000466,0.00001003,0.00000017,0.00022354,0.0001
 9255,0.00004871,0.00052824,-0.00027792,0.00057822,0.00021335,0.0000164
 4,-0.00006226,-0.00004128,0.00011498,-0.00008088,0.00000212,0.00008491
 ,-0.00005245,-0.00003682,-0.00001041,-0.00000365,0.00000443,0.00000111
 ,0.00000200,-0.00000476,0.00000137,-0.00000174,0.00002468,0.00004503,-
 0.00000755,-0.00125971,-0.00087904,-0.00163793,0.00003167,0.00033370,0
 .00066417,0.00085498,0.00036815,0.00019474,0.00012657,-0.00052137,0.00
 190103,0.00047885,-0.00012962,0.00083319,0.00076784,-0.00414178,-0.001
 01183,0.00006449,0.00087836,0.00020344,0.00001894,0.00011741,0.0000159
 1,0.02406782,0.00687772,0.01635573,0.00037392,0.00008307,0.00013912,0.
 00118235,-0.00199543,-0.00023989,0.00099472,-0.00016771,0.00149436,-0.
 00005369,0.00002055,0.00010457,0.00003612,-0.00000907,-0.00000837,0.00
 000930,-0.00000916,-0.00001903,-0.00002732,0.00003260,0.00002999,0.000
 01799,-0.00026402,-0.00003143,0.00007119,0.00012271,0.00003233,-0.0000
 2876,0.00001057,0.00003468,0.00003346,0.00001844,-0.00001970,-0.000012
 51,-0.00001248,0.00003311,0.00000272,-0.00000733,-0.00000331,-0.000000
 74,0.00000137,-0.00000483,0.00000658,0.00001243,-0.00000599,0.00000683
 ,-0.00003052,-0.00000573,0.00000224,0.00000397,-0.00000031,-0.00000050
 ,0.00000294,0.00000235,-0.00000408,0.00000067,0.00000064,-0.00000764,-
 0.00001201,-0.00000577,0.00000287,0.00000012,0.00000026,-0.00000083,0.
 00000138,-0.00000003,-0.00000109,0.00000186,0.00000108,-0.00017812,0.0
 0012957,-0.00004206,0.00006832,-0.00016543,0.00002100,0.00003472,0.000
 04746,-0.00006937,0.00000428,0.00001674,-0.00000600,0.00000515,0.00001
 533,-0.00002862,0.00000951,-0.00002882,0.00001076,-0.00004751,0.000062
 83,0.00007024,0.00001210,-0.00003043,0.00000114,-0.00000326,0.00000590
 ,-0.00000761,-0.00000025,0.00002011,-0.00000827,0.00013127,0.00134331,
 0.00041039,-0.00012248,-0.00044433,0.00006984,-0.00013163,-0.00031130,
 -0.00020910,0.00020749,-0.00040368,-0.00021515,0.00063812,-0.07805782,
 0.00096184,-0.03839769,-0.01235150,-0.03585530,-0.02074005,0.00952715,
 0.00016944,0.03043166,0.08011393,-0.00000070,-0.00001325,-0.00002657,0
 .00002707,0.00000438,-0.00003045,0.00006343,0.00000813,-0.00005225,0.0
 0000100,-0.00001767,0.00001199,0.00002406,-0.00002272,-0.00000399,0.00
 000256,0.00000200,-0.00000090,-0.00000511,0.00000121,-0.00000720,-0.00
 000364,0.00000365,0.00000564,-0.00001359,0.00000304,0.00000126,-0.0000
 0534,-0.00000725,-0.00000792,-0.00006833,0.00000665,0.00003326,-0.0000
 4802,-0.00000258,0.00000749,-0.00000938,-0.00000457,0.00005058,-0.0000
 0475,0.00002568,0.00003282,-0.00001841,0.00002435,0.00000698,0.0001453
 8,0.00001462,0.00001700,-0.00003826,0.00001934,-0.00001050,-0.00002052
 ,-0.00001306,-0.00000710,-0.00016669,0.00011761,-0.00002054,-0.0000145
 3,-0.00000056,-0.00002397,0.00000333,0.00000023,-0.00000153,0.00000282
 ,0.00000210,0.00000009,-0.00000230,-0.00000088,0.00000504,0.00001153,-
 0.00001844,-0.00001074,-0.00000084,0.00000035,-0.00000064,-0.00000528,
 0.00000155,0.00000153,0.00000114,0.00000387,0.00000227,0.00000345,-0.0
 0000854,-0.00000817,0.00000467,-0.00000061,-0.00000204,0.00000371,-0.0
 0000660,0.00000779,-0.00000374,0.00000607,0.00000053,0.00007316,-0.000
 03452,-0.00014493,0.00004781,0.00012200,0.00005439,0.00070064,-0.00007
 138,-0.00001786,0.00006194,0.00008692,-0.00005357,0.00003018,0.0000704
 4,-0.00000105,-0.00001516,-0.00002001,0.00005200,0.00000615,-0.0000137
 0,0.00001410,0.00002501,0.00005042,-0.00000452,-0.00000177,-0.00000969
 ,0.00001493,-0.00001629,-0.00001065,0.00000368,-0.00026122,-0.00019666
 ,-0.00005453,-0.00060311,0.00039508,-0.00063792,-0.00023132,0.00004793
 ,0.00011044,-0.00007236,-0.00003772,0.00010192,-0.00005360,-0.00008852
 ,0.00009013,0.00006266,0.00002172,0.00000438,-0.00000816,-0.00000327,-
 0.00000381,0.00000105,-0.00000395,0.00000140,-0.00004862,-0.00004671,0
 .00000896,0.00143624,0.00073096,0.00184479,-0.00006136,-0.00028601,-0.
 00071418,-0.00099430,-0.00029936,-0.00024740,0.00055365,0.00062306,-0.
 00157139,-0.00034701,0.00023720,-0.00048157,-0.00070564,0.00371972,0.0
 0126762,0.00059150,0.00067238,-0.00038050,-0.00002475,-0.00008200,0.00
 017447,-0.03112914,0.00205108,-0.00901732,-0.00010834,-0.00033052,0.00
 078591,-0.00024639,-0.00153323,-0.00156378,-0.00019817,0.00116909,0.00
 086800,0.00007220,-0.00006663,-0.00017045,-0.00004653,0.00001675,0.000
 01161,-0.00001939,-0.00000547,0.00001974,0.00003456,-0.00003308,-0.000
 04960,0.00006574,0.00019024,0.00001275,-0.00008615,-0.00004447,-0.0000
 4462,0.00004474,-0.00009178,-0.00006381,-0.00007269,-0.00001263,0.0000
 5575,0.00004609,0.00001928,-0.00008120,-0.00000048,0.00000903,0.000007
 04,-0.00001230,0.00000169,0.00000709,-0.00000207,-0.00000940,0.0000052
 7,0.00001062,0.00002786,0.00000891,-0.00000576,-0.00000613,0.00000229,
 0.00000040,-0.00000371,-0.00000477,-0.00000027,0.00000311,-0.00000295,
 0.00001011,0.00000896,0.00000482,-0.00000478,0.00000045,0.00000032,0.0
 0000168,-0.00000286,0.00000114,0.00000221,-0.00000041,-0.00000352,0.00
 021122,-0.00018404,0.00004544,-0.00007717,0.00021881,-0.00000632,-0.00
 005072,-0.00005898,0.00007519,-0.00000177,-0.00001842,0.00000621,-0.00
 000724,-0.00001798,0.00003779,-0.00001045,0.00003414,-0.00001238,0.000
 05020,-0.00008896,-0.00010853,-0.00001298,0.00003808,0.00000297,-0.000
 00035,-0.00000802,0.00000836,0.00000589,-0.00001704,0.00001122,-0.0004
 1082,-0.00127766,-0.00084890,0.00015087,0.00048857,0.00002076,0.000277
 04,0.00027651,0.00037554,-0.00016479,0.00043812,0.00027880,-0.08079132
 ,0.00442699,-0.11443400,-0.03443928,-0.02905019,-0.02537391,0.02676927
 ,0.00260411,0.01705601,0.12013650,0.01513693,0.13267737\\0.00000108,0.
 00000164,0.00000158,0.00000176,0.00000080,0.00000059,-0.00000048,0.000
 00070,0.00000189,0.00000213,0.00000082,0.00000218,0.00000135,-0.000000
 47,0.00000114,0.00000017,0.00000129,0.00000312,0.00000091,0.00000067,0
 .00000081,0.00000118,0.00000193,0.00000211,-0.00000070,0.00000056,0.00
 000238,-0.00000479,-0.00000104,-0.00000198,-0.00000038,0.00000096,0.00
 000329,-0.00000064,0.00000107,0.00000313,0.00000261,0.00000188,0.00000
 221,0.00000166,0.00000130,0.00000119,0.00000035,0.00000031,0.00000074,
 -0.00000074,0.00000212,0.00000059,-0.00000133,-0.00000008,0.00000035,-
 0.00000269,0.00000050,0.00000181,-0.00000083,-0.00000013,-0.00000086,0
 .00000240,0.00000074,0.00000169,0.00000184,0.00000129,0.00000152,0.000
 00349,0.00000165,0.00000126,0.00000320,0.00000200,0.00000224,0.0000025
 0,0.00000151,0.00000129,0.00000237,0.00000116,0.00000121,0.00000301,0.
 00000173,0.00000175,0.00000346,0.00000132,0.00000079,0.00000166,0.0000
 0062,0.00000002,0.00000102,0.00000022,0.00000003,-0.00000141,-0.000001
 02,0.00000069,0.00000079,0.00000040,0.00000065,-0.00000060,-0.00000132
 ,0.00000047,0.00000132,-0.00000187,0.00000021,-0.00000301,-0.00000185,
 -0.00000378,-0.00000186,-0.00000059,0.00000166,0.,0.00000008,0.0000019
 3,-0.00000260,-0.00000208,0.00000162,-0.00000083,0.00000008,0.00000046
 ,-0.00000124,-0.00000013,-0.00000021,-0.00000240,0.,0.00000094,-0.0000
 0079,0.00000091,0.00000147,0.00000063,0.00000280,0.00000165,-0.0000027
 1,0.00000058,-0.00000061,-0.00000101,-0.00000045,-0.00000150,0.0000000
 3,0.00000011,-0.00000048,-0.00000113,-0.00000032,0.00000125,-0.0000021
 3,0.00000046,0.00000262,-0.00000294,0.00000005,0.00000199,-0.00000182,
 0.00000019,0.00000223,-0.00000158,0.00000159,0.00000288,-0.00000320,-0
 .00000188,-0.00000120,-0.00000234,-0.00000189,-0.00000266,-0.00000024,
 -0.00000074,-0.00000015,-0.00000077,-0.00000212,-0.00000204,-0.0000020
 3,-0.00000179,-0.00000345,-0.00000160,-0.00000072,-0.00000278,0.000000
 44,-0.00000192,-0.00000406,0.00000053,-0.00000061,-0.00000161,0.000000
 42,-0.00000162,-0.00000263,-0.00000129,-0.00000120,-0.00000221,0.00000
 053,-0.00000077,-0.00000317,0.00000144,-0.00000128,-0.00000350,0.00000
 288,0.00000363,-0.00000371,0.00000192,-0.00000061,0.00000336,0.0000011
 9,0.00000020,-0.00000049,0.00000110,-0.00000062,-0.00000156,0.00000029
 ,-0.00000008,-0.00000065,0.00000021,-0.00000021,-0.00000079,0.00000085
 ,-0.00000015,-0.00000135,0.00000152,0.00000015,-0.00000075,-0.00000053
 ,0.00000116,0.00000138,0.00000042,0.00000067,0.00000130,-0.00000006,0.
 00000076,0.00000241,-0.00000035,0.00000058,0.00000177,-0.00000303,0.00
 000001,0.00000313,-0.00000170,0.00000115,0.00000330,-0.00000293,0.0000
 0046,0.00000317,-0.00000189,0.00000019,0.00000256,-0.00000039,0.000001
 56,0.00000368,-0.00000051,0.00000176,0.00000438,-0.00000117,0.00000104
 ,0.00000356,-0.00000079,0.00000117,0.00000352,0.00000351,0.00000052,0.
 00000168,0.00000204,-0.00000029,-0.00000335,-0.00000128,-0.00000168,-0
 .00000304,-0.00000024,-0.00000137,-0.00000392,-0.00000130,-0.00000240,
 -0.00000298,-0.00000077,-0.00000152,-0.00000368,-0.00000022,-0.0000007
 2,-0.00000222,0.00000040,-0.00000098,-0.00000253,0.00000046,-0.0000025
 0,-0.00000306,0.00000162,-0.00000028,-0.00000346,0.00000064,-0.0000013
 7,-0.00000308,0.00000133,-0.00000133,-0.00000406,0.00000187,-0.0000012
 0,-0.00000421,0.00000197,-0.00000085,-0.00000335,0.00000042,-0.0000009
 3,-0.00000358,-0.00000096,-0.00000169,-0.00000251,0.00000086,-0.000000
 95,-0.00000195,0.00000044,-0.00000142,-0.00000367\\\@


 LOGIC IS A SYSTEMATIC METHOD OF COMING TO THE
 WRONG CONCLUSION WITH CONFIDENCE.
 Job cpu time:       4 days 19 hours 13 minutes 42.2 seconds.
 Elapsed time:       0 days  3 hours 44 minutes 18.4 seconds.
 File lengths (MBytes):  RWF=   9744 Int=      0 D2E=      0 Chk=     85 Scr=      1
 Normal termination of Gaussian 16 at Sat May 25 21:58:56 2019.
