 Entering Gaussian System, Link 0=g16
 Input=clay_new-glu_gluC6-BCDL-Na2_1Me2O-bisCF3-ts-b3lyp_d3bj-631gd-pcm_thf.gjf
 Output=clay_new-glu_gluC6-BCDL-Na2_1Me2O-bisCF3-ts-b3lyp_d3bj-631gd-pcm_thf.out
 Initial command:
 /home/ekwan/sw/g16/l1.exe "/scratch/users/ekwan/clay_new-glu_gluC6-BCDL-Na2_1Me2O-bisCF3-ts-b3lyp_d3bj-631gd-pcm_thf/Gau-55584.inp" -scrdir="/scratch/users/ekwan/clay_new-glu_gluC6-BCDL-Na2_1Me2O-bisCF3-ts-b3lyp_d3bj-631gd-pcm_thf/"
 Entering Link 1 = /home/ekwan/sw/g16/l1.exe PID=     55585.
  
 Copyright (c) 1988,1990,1992,1993,1995,1998,2003,2009,2016,
            Gaussian, Inc.  All Rights Reserved.
  
 This is part of the Gaussian(R) 16 program.  It is based on
 the Gaussian(R) 09 system (copyright 2009, Gaussian, Inc.),
 the Gaussian(R) 03 system (copyright 2003, Gaussian, Inc.),
 the Gaussian(R) 98 system (copyright 1998, Gaussian, Inc.),
 the Gaussian(R) 94 system (copyright 1995, Gaussian, Inc.),
 the Gaussian 92(TM) system (copyright 1992, Gaussian, Inc.),
 the Gaussian 90(TM) system (copyright 1990, Gaussian, Inc.),
 the Gaussian 88(TM) system (copyright 1988, Gaussian, Inc.),
 the Gaussian 86(TM) system (copyright 1986, Carnegie Mellon
 University), and the Gaussian 82(TM) system (copyright 1983,
 Carnegie Mellon University). Gaussian is a federally registered
 trademark of Gaussian, Inc.
  
 This software contains proprietary and confidential information,
 including trade secrets, belonging to Gaussian, Inc.
  
 This software is provided under written license and may be
 used, copied, transmitted, or stored only in accord with that
 written license.
  
 The following legend is applicable only to US Government
 contracts under FAR:
  
                    RESTRICTED RIGHTS LEGEND
  
 Use, reproduction and disclosure by the US Government is
 subject to restrictions as set forth in subparagraphs (a)
 and (c) of the Commercial Computer Software - Restricted
 Rights clause in FAR 52.227-19.
  
 Gaussian, Inc.
 340 Quinnipiac St., Bldg. 40, Wallingford CT 06492
  
  
 ---------------------------------------------------------------
 Warning -- This program may not be used in any manner that
 competes with the business of Gaussian, Inc. or will provide
 assistance to any competitor of Gaussian, Inc.  The licensee
 of this program is prohibited from giving any competitor of
 Gaussian, Inc. access to this program.  By using this program,
 the user acknowledges that Gaussian, Inc. is engaged in the
 business of creating and licensing software in the field of
 computational chemistry and represents and warrants to the
 licensee that it is not a competitor of Gaussian, Inc. and that
 it will not use this program in any manner prohibited above.
 ---------------------------------------------------------------
  

 Cite this work as:
 Gaussian 16, Revision A.03,
 M. J. Frisch, G. W. Trucks, H. B. Schlegel, G. E. Scuseria, 
 M. A. Robb, J. R. Cheeseman, G. Scalmani, V. Barone, 
 G. A. Petersson, H. Nakatsuji, X. Li, M. Caricato, A. V. Marenich, 
 J. Bloino, B. G. Janesko, R. Gomperts, B. Mennucci, H. P. Hratchian, 
 J. V. Ortiz, A. F. Izmaylov, J. L. Sonnenberg, D. Williams-Young, 
 F. Ding, F. Lipparini, F. Egidi, J. Goings, B. Peng, A. Petrone, 
 T. Henderson, D. Ranasinghe, V. G. Zakrzewski, J. Gao, N. Rega, 
 G. Zheng, W. Liang, M. Hada, M. Ehara, K. Toyota, R. Fukuda, 
 J. Hasegawa, M. Ishida, T. Nakajima, Y. Honda, O. Kitao, H. Nakai, 
 T. Vreven, K. Throssell, J. A. Montgomery, Jr., J. E. Peralta, 
 F. Ogliaro, M. J. Bearpark, J. J. Heyd, E. N. Brothers, K. N. Kudin, 
 V. N. Staroverov, T. A. Keith, R. Kobayashi, J. Normand, 
 K. Raghavachari, A. P. Rendell, J. C. Burant, S. S. Iyengar, 
 J. Tomasi, M. Cossi, J. M. Millam, M. Klene, C. Adamo, R. Cammi, 
 J. W. Ochterski, R. L. Martin, K. Morokuma, O. Farkas, 
 J. B. Foresman, and D. J. Fox, Gaussian, Inc., Wallingford CT, 2016.
 
 ******************************************
 Gaussian 16:  AS64L-G16RevA.03 25-Dec-2016
                20-May-2019 
 ******************************************
 %mem=48GB
 %nprocshared=32
 Will use up to   32 processors via shared memory.
 ----------------------------------------------------------------------
 #p opt=(ts,noeigentest,calcfc,maxstep=3,modredundant,recalc=30) freq=n
 oraman b3lyp 6-31g* pop=none scrf=(solvent=tetrahydrofuran,pcm) empiri
 caldispersion=gd3bj
 ----------------------------------------------------------------------
 1/5=1,8=3,10=4,11=1,18=120,26=3,38=1,71=30/1,3;
 2/9=110,12=2,17=6,18=5,40=1/2;
 3/5=1,6=6,7=1,11=2,25=1,30=1,70=2201,71=2,72=20,74=-5,124=41,140=1/1,2,3;
 4//1;
 5/5=2,38=5,53=20/2;
 8/6=4,10=90,11=11/1;
 11/6=1,8=1,9=11,15=111,16=1/1,2,10;
 10/6=1,13=1/2;
 7/10=1,18=20,25=1/1,2,3,16;
 1/5=1,8=3,10=4,11=1,18=20,26=3,71=30/3(2);
 2/9=110/2;
 99//99;
 2/9=110/2;
 3/5=1,6=6,7=1,11=2,25=1,30=1,70=2205,71=1,72=20,74=-5,124=41/1,2,3;
 4/5=5,16=3,69=1/1;
 5/5=2,38=5,53=20/2;
 7//1,2,3,16;
 1/5=1,8=3,11=1,18=20,26=3,71=30/3(-5);
 2/9=110/2;
 99/9=1/99;
 Leave Link    1 at Mon May 20 00:25:19 2019, MaxMem=  6442450944 cpu:               4.3 elap:               0.2
 (Enter /home/ekwan/sw/g16/l101.exe)
 -----
 title
 -----
 Symbolic Z-matrix:
 Charge =  0 Multiplicity = 1
 C                    -4.64343  -0.73424   1.00432 
 C                    -3.70167  -1.90619   1.28276 
 C                    -3.5432   -2.75216   0.01896 
 C                    -3.82412  -0.81859  -1.41626 
 C                    -4.12387   0.05831  -0.19482 
 H                    -2.79861  -3.54224   0.1806 
 H                    -2.70429  -1.51574   1.52185 
 H                    -5.64444  -1.1282    0.78922 
 H                    -4.77487  -1.18346  -1.82576 
 H                    -3.19827   0.544     0.12326 
 O                    -3.01212  -1.95892  -1.03223 
 O                    -4.78178  -3.31144  -0.31307 
 O                    -4.16197  -2.7408    2.33291 
 O                    -4.68403   0.09906   2.16108 
 O                    -5.07789   1.05142  -0.56944 
 C                    -3.02734  -0.0732   -2.50489 
 H                    -3.68712   0.75809  -2.83442 
 H                    -2.99259  -0.77371  -3.37309 
 O                    -1.778     0.3324   -2.09948 
 C                    -3.56602  -2.44872   3.59202 
 H                    -2.46912  -2.51027   3.53662 
 H                    -3.84582  -1.45055   3.94408 
 H                    -3.93094  -3.20314   4.2943 
 C                    -5.9708    0.6239    2.45257 
 H                    -6.35296   1.23485   1.62749 
 H                    -6.68955  -0.18171   2.66285 
 H                    -5.86277   1.24361   3.34684 
 C                    -4.54131   2.36844  -0.59682 
 H                    -4.27192   2.70563   0.41333 
 H                    -3.65264   2.43379  -1.23295 
 H                    -5.32319   3.02057  -0.99585 
 C                     1.34412   2.80491  -0.64008 
 C                     0.42939   1.64874  -1.05495 
 C                    -0.70734   1.51619  -0.09112 
 C                    -0.67415   3.87208   0.45029 
 C                     0.47951   4.06121  -0.54513 
 H                    -1.246     0.59444   0.00771 
 H                    -0.07826   1.88564  -2.00094 
 H                     1.7775    2.58538   0.3411 
 H                    -0.27173   3.92631   1.46498 
 H                     0.06836   4.28843  -1.53572 
 O                    -1.31328   2.54812   0.37959 
 O                    -0.28676  -1.35502   1.03734 
 O                     1.09612   0.40918  -1.18483 
 O                     2.36844   3.01551  -1.59667 
 O                     1.21023   5.16509  -0.04188 
 C                    -1.78457   4.88659   0.28595 
 H                    -1.36467   5.88245   0.49023 
 H                    -2.57617   4.68854   1.02336 
 O                    -2.28432   4.79677  -1.03107 
 S                     0.62176  -0.51444   1.87171 
 O                     0.61227  -0.84008   3.3087 
 O                     0.42069   0.96726   1.61956 
 C                     2.28717  -0.83453   1.27351 
 C                     2.52064  -1.8794    0.3917 
 C                     3.32483  -0.00409   1.69636 
 C                     3.81626  -2.09061  -0.08537 
 H                     1.70331  -2.49659   0.04223 
 C                     4.61162  -0.23036   1.21471 
 H                     3.12871   0.81611   2.37642 
 C                     4.86677  -1.27366   0.31976 
 H                     5.86967  -1.44289  -0.05286 
 C                     1.51225   0.12343  -2.52801 
 H                     0.63367   0.03175  -3.17797 
 H                     2.16995   0.90857  -2.90808 
 H                     2.05513  -0.82191  -2.48082 
 C                     3.64791   2.5608   -1.16428 
 H                     3.95438   3.06547  -0.24012 
 H                     3.65379   1.47835  -0.99671 
 H                     4.35379   2.80821  -1.96014 
 C                     1.67487   6.06325  -1.04706 
 H                     2.35309   5.56078  -1.74325 
 H                     0.83382   6.49585  -1.60647 
 H                     2.20634   6.86166  -0.52437 
 C                    -3.31977   5.73272  -1.28291 
 H                    -3.64218   5.58068  -2.31478 
 H                    -4.17397   5.57354  -0.60936 
 H                    -2.96202   6.76553  -1.1607 
 C                    -4.70866  -4.2424   -1.38721 
 H                    -5.70081  -4.68657  -1.48723 
 H                    -4.4318   -3.74985  -2.32645 
 H                    -3.97619  -5.03305  -1.16964 
 Na                   -0.74119  -1.46575  -1.23732 
 O                     0.242    -3.55741  -1.32645 
 C                    -0.03621  -4.50518  -0.29797 
 H                     0.84715  -5.12552  -0.10078 
 H                    -0.29056  -3.93261   0.59579 
 H                    -0.87841  -5.15086  -0.5804 
 C                     0.59889  -4.1735   -2.56017 
 H                    -0.22247  -4.79935  -2.93348 
 H                     0.80028  -3.37066  -3.27209 
 H                     1.49968  -4.78535  -2.43985 
 C                     4.03266  -3.18338  -1.0933 
 F                     3.43072  -4.33664  -0.71862 
 F                     5.33587  -3.45106  -1.29641 
 F                     3.50129  -2.85204  -2.3011 
 C                     5.73643   0.69394   1.59088 
 F                     5.45852   1.41417   2.69502 
 F                     6.00006   1.57918   0.59485 
 F                     6.88341   0.01808   1.81648 
 
 Add virtual bond connecting atoms H37        and H10        Dist= 3.70D+00.
 Add virtual bond connecting atoms O53        and C34        Dist= 4.01D+00.
 Add virtual bond connecting atoms O84        and H58        Dist= 4.28D+00.
 Add virtual bond connecting atoms O84        and Na83       Dist= 4.37D+00.
 The following ModRedundant input section has been read:
 
 ITRead=  0  0  0  0  0  0  0  0  0  0  0  0  0  0  0  0  0  0  0  0
 ITRead=  0  0  0  0  0  0  0  0  0  0  0  0  0  0  0  0  0  0  0  0
 ITRead=  0  0  0  0  0  0  0  0  0  0  0  0  0  0  0  0  0  0  0  0
 ITRead=  0  0  0  0  0  0  0  0  0  0  0  0  0  0  0  0  0  0  0  0
 ITRead=  0  0  0  0  0  0  0  0  0  0  0  0  0  0  0  0  0  0  0  0
 MicOpt= -1 -1 -1 -1 -1 -1 -1 -1 -1 -1 -1 -1 -1 -1 -1 -1 -1 -1 -1 -1
 MicOpt= -1 -1 -1 -1 -1 -1 -1 -1 -1 -1 -1 -1 -1 -1 -1 -1 -1 -1 -1 -1
 MicOpt= -1 -1 -1 -1 -1 -1 -1 -1 -1 -1 -1 -1 -1 -1 -1 -1 -1 -1 -1 -1
 MicOpt= -1 -1 -1 -1 -1 -1 -1 -1 -1 -1 -1 -1 -1 -1 -1 -1 -1 -1 -1 -1
 MicOpt= -1 -1 -1 -1 -1 -1 -1 -1 -1 -1 -1 -1 -1 -1 -1 -1 -1 -1 -1 -1
 NAtoms=    100 NQM=      100 NQMF=       0 NMMI=      0 NMMIF=      0
                NMic=       0 NMicF=      0.
                    Isotopes and Nuclear Properties:
 (Nuclear quadrupole moments (NQMom) in fm**2, nuclear magnetic moments (NMagM)
  in nuclear magnetons)

  Atom         1           2           3           4           5           6           7           8           9          10
 IAtWgt=          12          12          12          12          12           1           1           1           1           1
 AtmWgt=  12.0000000  12.0000000  12.0000000  12.0000000  12.0000000   1.0078250   1.0078250   1.0078250   1.0078250   1.0078250
 NucSpn=           0           0           0           0           0           1           1           1           1           1
 AtZEff=   0.0000000   0.0000000   0.0000000   0.0000000   0.0000000   0.0000000   0.0000000   0.0000000   0.0000000   0.0000000
 NQMom=    0.0000000   0.0000000   0.0000000   0.0000000   0.0000000   0.0000000   0.0000000   0.0000000   0.0000000   0.0000000
 NMagM=    0.0000000   0.0000000   0.0000000   0.0000000   0.0000000   2.7928460   2.7928460   2.7928460   2.7928460   2.7928460
 AtZNuc=   6.0000000   6.0000000   6.0000000   6.0000000   6.0000000   1.0000000   1.0000000   1.0000000   1.0000000   1.0000000

  Atom        11          12          13          14          15          16          17          18          19          20
 IAtWgt=          16          16          16          16          16          12           1           1          16          12
 AtmWgt=  15.9949146  15.9949146  15.9949146  15.9949146  15.9949146  12.0000000   1.0078250   1.0078250  15.9949146  12.0000000
 NucSpn=           0           0           0           0           0           0           1           1           0           0
 AtZEff=   0.0000000   0.0000000   0.0000000   0.0000000   0.0000000   0.0000000   0.0000000   0.0000000   0.0000000   0.0000000
 NQMom=    0.0000000   0.0000000   0.0000000   0.0000000   0.0000000   0.0000000   0.0000000   0.0000000   0.0000000   0.0000000
 NMagM=    0.0000000   0.0000000   0.0000000   0.0000000   0.0000000   0.0000000   2.7928460   2.7928460   0.0000000   0.0000000
 AtZNuc=   8.0000000   8.0000000   8.0000000   8.0000000   8.0000000   6.0000000   1.0000000   1.0000000   8.0000000   6.0000000

  Atom        21          22          23          24          25          26          27          28          29          30
 IAtWgt=           1           1           1          12           1           1           1          12           1           1
 AtmWgt=   1.0078250   1.0078250   1.0078250  12.0000000   1.0078250   1.0078250   1.0078250  12.0000000   1.0078250   1.0078250
 NucSpn=           1           1           1           0           1           1           1           0           1           1
 AtZEff=   0.0000000   0.0000000   0.0000000   0.0000000   0.0000000   0.0000000   0.0000000   0.0000000   0.0000000   0.0000000
 NQMom=    0.0000000   0.0000000   0.0000000   0.0000000   0.0000000   0.0000000   0.0000000   0.0000000   0.0000000   0.0000000
 NMagM=    2.7928460   2.7928460   2.7928460   0.0000000   2.7928460   2.7928460   2.7928460   0.0000000   2.7928460   2.7928460
 AtZNuc=   1.0000000   1.0000000   1.0000000   6.0000000   1.0000000   1.0000000   1.0000000   6.0000000   1.0000000   1.0000000

  Atom        31          32          33          34          35          36          37          38          39          40
 IAtWgt=           1          12          12          12          12          12           1           1           1           1
 AtmWgt=   1.0078250  12.0000000  12.0000000  12.0000000  12.0000000  12.0000000   1.0078250   1.0078250   1.0078250   1.0078250
 NucSpn=           1           0           0           0           0           0           1           1           1           1
 AtZEff=   0.0000000   0.0000000   0.0000000   0.0000000   0.0000000   0.0000000   0.0000000   0.0000000   0.0000000   0.0000000
 NQMom=    0.0000000   0.0000000   0.0000000   0.0000000   0.0000000   0.0000000   0.0000000   0.0000000   0.0000000   0.0000000
 NMagM=    2.7928460   0.0000000   0.0000000   0.0000000   0.0000000   0.0000000   2.7928460   2.7928460   2.7928460   2.7928460
 AtZNuc=   1.0000000   6.0000000   6.0000000   6.0000000   6.0000000   6.0000000   1.0000000   1.0000000   1.0000000   1.0000000

  Atom        41          42          43          44          45          46          47          48          49          50
 IAtWgt=           1          16          16          16          16          16          12           1           1          16
 AtmWgt=   1.0078250  15.9949146  15.9949146  15.9949146  15.9949146  15.9949146  12.0000000   1.0078250   1.0078250  15.9949146
 NucSpn=           1           0           0           0           0           0           0           1           1           0
 AtZEff=   0.0000000   0.0000000   0.0000000   0.0000000   0.0000000   0.0000000   0.0000000   0.0000000   0.0000000   0.0000000
 NQMom=    0.0000000   0.0000000   0.0000000   0.0000000   0.0000000   0.0000000   0.0000000   0.0000000   0.0000000   0.0000000
 NMagM=    2.7928460   0.0000000   0.0000000   0.0000000   0.0000000   0.0000000   0.0000000   2.7928460   2.7928460   0.0000000
 AtZNuc=   1.0000000   8.0000000   8.0000000   8.0000000   8.0000000   8.0000000   6.0000000   1.0000000   1.0000000   8.0000000

  Atom        51          52          53          54          55          56          57          58          59          60
 IAtWgt=          32          16          16          12          12          12          12           1          12           1
 AtmWgt=  31.9720718  15.9949146  15.9949146  12.0000000  12.0000000  12.0000000  12.0000000   1.0078250  12.0000000   1.0078250
 NucSpn=           0           0           0           0           0           0           0           1           0           1
 AtZEff=   0.0000000   0.0000000   0.0000000   0.0000000   0.0000000   0.0000000   0.0000000   0.0000000   0.0000000   0.0000000
 NQMom=    0.0000000   0.0000000   0.0000000   0.0000000   0.0000000   0.0000000   0.0000000   0.0000000   0.0000000   0.0000000
 NMagM=    0.0000000   0.0000000   0.0000000   0.0000000   0.0000000   0.0000000   0.0000000   2.7928460   0.0000000   2.7928460
 AtZNuc=  16.0000000   8.0000000   8.0000000   6.0000000   6.0000000   6.0000000   6.0000000   1.0000000   6.0000000   1.0000000

  Atom        61          62          63          64          65          66          67          68          69          70
 IAtWgt=          12           1          12           1           1           1          12           1           1           1
 AtmWgt=  12.0000000   1.0078250  12.0000000   1.0078250   1.0078250   1.0078250  12.0000000   1.0078250   1.0078250   1.0078250
 NucSpn=           0           1           0           1           1           1           0           1           1           1
 AtZEff=   0.0000000   0.0000000   0.0000000   0.0000000   0.0000000   0.0000000   0.0000000   0.0000000   0.0000000   0.0000000
 NQMom=    0.0000000   0.0000000   0.0000000   0.0000000   0.0000000   0.0000000   0.0000000   0.0000000   0.0000000   0.0000000
 NMagM=    0.0000000   2.7928460   0.0000000   2.7928460   2.7928460   2.7928460   0.0000000   2.7928460   2.7928460   2.7928460
 AtZNuc=   6.0000000   1.0000000   6.0000000   1.0000000   1.0000000   1.0000000   6.0000000   1.0000000   1.0000000   1.0000000

  Atom        71          72          73          74          75          76          77          78          79          80
 IAtWgt=          12           1           1           1          12           1           1           1          12           1
 AtmWgt=  12.0000000   1.0078250   1.0078250   1.0078250  12.0000000   1.0078250   1.0078250   1.0078250  12.0000000   1.0078250
 NucSpn=           0           1           1           1           0           1           1           1           0           1
 AtZEff=   0.0000000   0.0000000   0.0000000   0.0000000   0.0000000   0.0000000   0.0000000   0.0000000   0.0000000   0.0000000
 NQMom=    0.0000000   0.0000000   0.0000000   0.0000000   0.0000000   0.0000000   0.0000000   0.0000000   0.0000000   0.0000000
 NMagM=    0.0000000   2.7928460   2.7928460   2.7928460   0.0000000   2.7928460   2.7928460   2.7928460   0.0000000   2.7928460
 AtZNuc=   6.0000000   1.0000000   1.0000000   1.0000000   6.0000000   1.0000000   1.0000000   1.0000000   6.0000000   1.0000000

  Atom        81          82          83          84          85          86          87          88          89          90
 IAtWgt=           1           1          23          16          12           1           1           1          12           1
 AtmWgt=   1.0078250   1.0078250  22.9897697  15.9949146  12.0000000   1.0078250   1.0078250   1.0078250  12.0000000   1.0078250
 NucSpn=           1           1           3           0           0           1           1           1           0           1
 AtZEff=   0.0000000   0.0000000   0.0000000   0.0000000   0.0000000   0.0000000   0.0000000   0.0000000   0.0000000   0.0000000
 NQMom=    0.0000000   0.0000000  10.4000000   0.0000000   0.0000000   0.0000000   0.0000000   0.0000000   0.0000000   0.0000000
 NMagM=    2.7928460   2.7928460   2.2175200   0.0000000   0.0000000   2.7928460   2.7928460   2.7928460   0.0000000   2.7928460
 AtZNuc=   1.0000000   1.0000000  11.0000000   8.0000000   6.0000000   1.0000000   1.0000000   1.0000000   6.0000000   1.0000000

  Atom        91          92          93          94          95          96          97          98          99         100
 IAtWgt=           1           1          12          19          19          19          12          19          19          19
 AtmWgt=   1.0078250   1.0078250  12.0000000  18.9984033  18.9984033  18.9984033  12.0000000  18.9984033  18.9984033  18.9984033
 NucSpn=           1           1           0           1           1           1           0           1           1           1
 AtZEff=   0.0000000   0.0000000   0.0000000   0.0000000   0.0000000   0.0000000   0.0000000   0.0000000   0.0000000   0.0000000
 NQMom=    0.0000000   0.0000000   0.0000000   0.0000000   0.0000000   0.0000000   0.0000000   0.0000000   0.0000000   0.0000000
 NMagM=    2.7928460   2.7928460   0.0000000   2.6288670   2.6288670   2.6288670   0.0000000   2.6288670   2.6288670   2.6288670
 AtZNuc=   1.0000000   1.0000000   6.0000000   9.0000000   9.0000000   9.0000000   6.0000000   9.0000000   9.0000000   9.0000000
 Leave Link  101 at Mon May 20 00:25:19 2019, MaxMem=  6442450944 cpu:              17.5 elap:               0.7
 (Enter /home/ekwan/sw/g16/l103.exe)

 GradGradGradGradGradGradGradGradGradGradGradGradGradGradGradGradGradGrad
 Berny optimization.
 Initialization pass.
                           ----------------------------
                           !    Initial Parameters    !
                           ! (Angstroms and Degrees)  !
 --------------------------                            --------------------------
 ! Name  Definition              Value          Derivative Info.                !
 --------------------------------------------------------------------------------
 ! R1    R(1,2)                  1.529          calculate D2E/DX2 analytically  !
 ! R2    R(1,5)                  1.5284         calculate D2E/DX2 analytically  !
 ! R3    R(1,8)                  1.097          calculate D2E/DX2 analytically  !
 ! R4    R(1,14)                 1.4262         calculate D2E/DX2 analytically  !
 ! R5    R(2,3)                  1.529          calculate D2E/DX2 analytically  !
 ! R6    R(2,7)                  1.0974         calculate D2E/DX2 analytically  !
 ! R7    R(2,13)                 1.4182         calculate D2E/DX2 analytically  !
 ! R8    R(3,6)                  1.0976         calculate D2E/DX2 analytically  !
 ! R9    R(3,11)                 1.42           calculate D2E/DX2 analytically  !
 ! R10   R(3,12)                 1.399          calculate D2E/DX2 analytically  !
 ! R11   R(4,5)                  1.5332         calculate D2E/DX2 analytically  !
 ! R12   R(4,9)                  1.0976         calculate D2E/DX2 analytically  !
 ! R13   R(4,11)                 1.4516         calculate D2E/DX2 analytically  !
 ! R14   R(4,16)                 1.5413         calculate D2E/DX2 analytically  !
 ! R15   R(5,10)                 1.0926         calculate D2E/DX2 analytically  !
 ! R16   R(5,15)                 1.4272         calculate D2E/DX2 analytically  !
 ! R17   R(10,37)                1.9563         calculate D2E/DX2 analytically  !
 ! R18   R(12,79)                1.4233         calculate D2E/DX2 analytically  !
 ! R19   R(13,20)                1.4233         calculate D2E/DX2 analytically  !
 ! R20   R(14,24)                1.4199         calculate D2E/DX2 analytically  !
 ! R21   R(15,28)                1.4224         calculate D2E/DX2 analytically  !
 ! R22   R(16,17)                1.1113         calculate D2E/DX2 analytically  !
 ! R23   R(16,18)                1.1161         calculate D2E/DX2 analytically  !
 ! R24   R(16,19)                1.3747         calculate D2E/DX2 analytically  !
 ! R25   R(19,83)                2.2476         calculate D2E/DX2 analytically  !
 ! R26   R(20,21)                1.1            calculate D2E/DX2 analytically  !
 ! R27   R(20,22)                1.0948         calculate D2E/DX2 analytically  !
 ! R28   R(20,23)                1.0934         calculate D2E/DX2 analytically  !
 ! R29   R(24,25)                1.0955         calculate D2E/DX2 analytically  !
 ! R30   R(24,26)                1.0999         calculate D2E/DX2 analytically  !
 ! R31   R(24,27)                1.0934         calculate D2E/DX2 analytically  !
 ! R32   R(28,29)                1.0985         calculate D2E/DX2 analytically  !
 ! R33   R(28,30)                1.0948         calculate D2E/DX2 analytically  !
 ! R34   R(28,31)                1.0935         calculate D2E/DX2 analytically  !
 ! R35   R(32,33)                1.5315         calculate D2E/DX2 analytically  !
 ! R36   R(32,36)                1.528          calculate D2E/DX2 analytically  !
 ! R37   R(32,39)                1.0949         calculate D2E/DX2 analytically  !
 ! R38   R(32,45)                1.4173         calculate D2E/DX2 analytically  !
 ! R39   R(33,34)                1.4962         calculate D2E/DX2 analytically  !
 ! R40   R(33,38)                1.0994         calculate D2E/DX2 analytically  !
 ! R41   R(33,44)                1.4135         calculate D2E/DX2 analytically  !
 ! R42   R(34,37)                1.0722         calculate D2E/DX2 analytically  !
 ! R43   R(34,42)                1.2859         calculate D2E/DX2 analytically  !
 ! R44   R(34,53)                2.1214         calculate D2E/DX2 analytically  !
 ! R45   R(35,36)                1.5354         calculate D2E/DX2 analytically  !
 ! R46   R(35,40)                1.0929         calculate D2E/DX2 analytically  !
 ! R47   R(35,42)                1.4719         calculate D2E/DX2 analytically  !
 ! R48   R(35,47)                1.513          calculate D2E/DX2 analytically  !
 ! R49   R(36,41)                1.0963         calculate D2E/DX2 analytically  !
 ! R50   R(36,46)                1.4163         calculate D2E/DX2 analytically  !
 ! R51   R(43,51)                1.4927         calculate D2E/DX2 analytically  !
 ! R52   R(44,63)                1.4349         calculate D2E/DX2 analytically  !
 ! R53   R(45,67)                1.4251         calculate D2E/DX2 analytically  !
 ! R54   R(46,71)                1.4258         calculate D2E/DX2 analytically  !
 ! R55   R(47,48)                1.0999         calculate D2E/DX2 analytically  !
 ! R56   R(47,49)                1.0998         calculate D2E/DX2 analytically  !
 ! R57   R(47,50)                1.4115         calculate D2E/DX2 analytically  !
 ! R58   R(50,75)                1.4183         calculate D2E/DX2 analytically  !
 ! R59   R(51,52)                1.4735         calculate D2E/DX2 analytically  !
 ! R60   R(51,53)                1.5164         calculate D2E/DX2 analytically  !
 ! R61   R(51,54)                1.7983         calculate D2E/DX2 analytically  !
 ! R62   R(54,55)                1.387          calculate D2E/DX2 analytically  !
 ! R63   R(54,56)                1.3947         calculate D2E/DX2 analytically  !
 ! R64   R(55,57)                1.3967         calculate D2E/DX2 analytically  !
 ! R65   R(55,58)                1.0822         calculate D2E/DX2 analytically  !
 ! R66   R(56,59)                1.3925         calculate D2E/DX2 analytically  !
 ! R67   R(56,60)                1.0834         calculate D2E/DX2 analytically  !
 ! R68   R(57,61)                1.3911         calculate D2E/DX2 analytically  !
 ! R69   R(57,93)                1.5023         calculate D2E/DX2 analytically  !
 ! R70   R(58,84)                2.2658         calculate D2E/DX2 analytically  !
 ! R71   R(59,61)                1.398          calculate D2E/DX2 analytically  !
 ! R72   R(59,97)                1.5037         calculate D2E/DX2 analytically  !
 ! R73   R(61,62)                1.0832         calculate D2E/DX2 analytically  !
 ! R74   R(63,64)                1.0967         calculate D2E/DX2 analytically  !
 ! R75   R(63,65)                1.0925         calculate D2E/DX2 analytically  !
 ! R76   R(63,66)                1.0911         calculate D2E/DX2 analytically  !
 ! R77   R(67,68)                1.0967         calculate D2E/DX2 analytically  !
 ! R78   R(67,69)                1.0954         calculate D2E/DX2 analytically  !
 ! R79   R(67,70)                1.0922         calculate D2E/DX2 analytically  !
 ! R80   R(71,72)                1.0941         calculate D2E/DX2 analytically  !
 ! R81   R(71,73)                1.0988         calculate D2E/DX2 analytically  !
 ! R82   R(71,74)                1.0923         calculate D2E/DX2 analytically  !
 ! R83   R(75,76)                1.0917         calculate D2E/DX2 analytically  !
 ! R84   R(75,77)                1.0994         calculate D2E/DX2 analytically  !
 ! R85   R(75,78)                1.0998         calculate D2E/DX2 analytically  !
 ! R86   R(79,80)                1.0916         calculate D2E/DX2 analytically  !
 ! R87   R(79,81)                1.0961         calculate D2E/DX2 analytically  !
 ! R88   R(79,82)                1.0995         calculate D2E/DX2 analytically  !
 ! R89   R(83,84)                2.3129         calculate D2E/DX2 analytically  !
 ! R90   R(84,85)                1.426          calculate D2E/DX2 analytically  !
 ! R91   R(84,89)                1.4244         calculate D2E/DX2 analytically  !
 ! R92   R(85,86)                1.0973         calculate D2E/DX2 analytically  !
 ! R93   R(85,87)                1.0915         calculate D2E/DX2 analytically  !
 ! R94   R(85,88)                1.0982         calculate D2E/DX2 analytically  !
 ! R95   R(89,90)                1.098          calculate D2E/DX2 analytically  !
 ! R96   R(89,91)                1.0918         calculate D2E/DX2 analytically  !
 ! R97   R(89,92)                1.0956         calculate D2E/DX2 analytically  !
 ! R98   R(93,94)                1.3538         calculate D2E/DX2 analytically  !
 ! R99   R(93,95)                1.3458         calculate D2E/DX2 analytically  !
 ! R100  R(93,96)                1.3605         calculate D2E/DX2 analytically  !
 ! R101  R(97,98)                1.3472         calculate D2E/DX2 analytically  !
 ! R102  R(97,99)                1.3584         calculate D2E/DX2 analytically  !
 ! R103  R(97,100)               1.3503         calculate D2E/DX2 analytically  !
 ! A1    A(2,1,5)              109.3261         calculate D2E/DX2 analytically  !
 ! A2    A(2,1,8)              108.8124         calculate D2E/DX2 analytically  !
 ! A3    A(2,1,14)             108.5212         calculate D2E/DX2 analytically  !
 ! A4    A(5,1,8)              110.0336         calculate D2E/DX2 analytically  !
 ! A5    A(5,1,14)             110.0621         calculate D2E/DX2 analytically  !
 ! A6    A(8,1,14)             110.0517         calculate D2E/DX2 analytically  !
 ! A7    A(1,2,3)              109.7176         calculate D2E/DX2 analytically  !
 ! A8    A(1,2,7)              109.0714         calculate D2E/DX2 analytically  !
 ! A9    A(1,2,13)             112.7058         calculate D2E/DX2 analytically  !
 ! A10   A(3,2,7)              106.4228         calculate D2E/DX2 analytically  !
 ! A11   A(3,2,13)             108.6673         calculate D2E/DX2 analytically  !
 ! A12   A(7,2,13)             110.0617         calculate D2E/DX2 analytically  !
 ! A13   A(2,3,6)              110.2941         calculate D2E/DX2 analytically  !
 ! A14   A(2,3,11)             109.9722         calculate D2E/DX2 analytically  !
 ! A15   A(2,3,12)             109.0016         calculate D2E/DX2 analytically  !
 ! A16   A(6,3,11)             104.9167         calculate D2E/DX2 analytically  !
 ! A17   A(6,3,12)             110.3519         calculate D2E/DX2 analytically  !
 ! A18   A(11,3,12)            112.2569         calculate D2E/DX2 analytically  !
 ! A19   A(5,4,9)              108.542          calculate D2E/DX2 analytically  !
 ! A20   A(5,4,11)             110.3584         calculate D2E/DX2 analytically  !
 ! A21   A(5,4,16)             112.7779         calculate D2E/DX2 analytically  !
 ! A22   A(9,4,11)             108.7895         calculate D2E/DX2 analytically  !
 ! A23   A(9,4,16)             110.1842         calculate D2E/DX2 analytically  !
 ! A24   A(11,4,16)            106.1167         calculate D2E/DX2 analytically  !
 ! A25   A(1,5,4)              113.2608         calculate D2E/DX2 analytically  !
 ! A26   A(1,5,10)             106.8632         calculate D2E/DX2 analytically  !
 ! A27   A(1,5,15)             109.8492         calculate D2E/DX2 analytically  !
 ! A28   A(4,5,10)             108.6953         calculate D2E/DX2 analytically  !
 ! A29   A(4,5,15)             108.6365         calculate D2E/DX2 analytically  !
 ! A30   A(10,5,15)            109.4742         calculate D2E/DX2 analytically  !
 ! A31   A(5,10,37)            147.1033         calculate D2E/DX2 analytically  !
 ! A32   A(3,11,4)             115.1811         calculate D2E/DX2 analytically  !
 ! A33   A(3,12,79)            113.2731         calculate D2E/DX2 analytically  !
 ! A34   A(2,13,20)            113.4775         calculate D2E/DX2 analytically  !
 ! A35   A(1,14,24)            114.0952         calculate D2E/DX2 analytically  !
 ! A36   A(5,15,28)            113.4032         calculate D2E/DX2 analytically  !
 ! A37   A(4,16,17)            105.3248         calculate D2E/DX2 analytically  !
 ! A38   A(4,16,18)            105.1881         calculate D2E/DX2 analytically  !
 ! A39   A(4,16,19)            113.8417         calculate D2E/DX2 analytically  !
 ! A40   A(17,16,18)           104.9115         calculate D2E/DX2 analytically  !
 ! A41   A(17,16,19)           113.974          calculate D2E/DX2 analytically  !
 ! A42   A(18,16,19)           112.724          calculate D2E/DX2 analytically  !
 ! A43   A(16,19,83)           107.2369         calculate D2E/DX2 analytically  !
 ! A44   A(13,20,21)           111.1911         calculate D2E/DX2 analytically  !
 ! A45   A(13,20,22)           111.3812         calculate D2E/DX2 analytically  !
 ! A46   A(13,20,23)           106.6699         calculate D2E/DX2 analytically  !
 ! A47   A(21,20,22)           108.7873         calculate D2E/DX2 analytically  !
 ! A48   A(21,20,23)           109.0592         calculate D2E/DX2 analytically  !
 ! A49   A(22,20,23)           109.7088         calculate D2E/DX2 analytically  !
 ! A50   A(14,24,25)           111.5709         calculate D2E/DX2 analytically  !
 ! A51   A(14,24,26)           111.1434         calculate D2E/DX2 analytically  !
 ! A52   A(14,24,27)           106.7304         calculate D2E/DX2 analytically  !
 ! A53   A(25,24,26)           108.9357         calculate D2E/DX2 analytically  !
 ! A54   A(25,24,27)           109.5353         calculate D2E/DX2 analytically  !
 ! A55   A(26,24,27)           108.8652         calculate D2E/DX2 analytically  !
 ! A56   A(15,28,29)           111.0405         calculate D2E/DX2 analytically  !
 ! A57   A(15,28,30)           111.8788         calculate D2E/DX2 analytically  !
 ! A58   A(15,28,31)           106.8262         calculate D2E/DX2 analytically  !
 ! A59   A(29,28,30)           108.477          calculate D2E/DX2 analytically  !
 ! A60   A(29,28,31)           109.1382         calculate D2E/DX2 analytically  !
 ! A61   A(30,28,31)           109.4359         calculate D2E/DX2 analytically  !
 ! A62   A(33,32,36)           107.4303         calculate D2E/DX2 analytically  !
 ! A63   A(33,32,39)           109.1354         calculate D2E/DX2 analytically  !
 ! A64   A(33,32,45)           111.1624         calculate D2E/DX2 analytically  !
 ! A65   A(36,32,39)           109.4595         calculate D2E/DX2 analytically  !
 ! A66   A(36,32,45)           109.1914         calculate D2E/DX2 analytically  !
 ! A67   A(39,32,45)           110.4009         calculate D2E/DX2 analytically  !
 ! A68   A(32,33,34)           110.2516         calculate D2E/DX2 analytically  !
 ! A69   A(32,33,38)           110.2548         calculate D2E/DX2 analytically  !
 ! A70   A(32,33,44)           113.9029         calculate D2E/DX2 analytically  !
 ! A71   A(34,33,38)           102.8597         calculate D2E/DX2 analytically  !
 ! A72   A(34,33,44)           109.869          calculate D2E/DX2 analytically  !
 ! A73   A(38,33,44)           109.1294         calculate D2E/DX2 analytically  !
 ! A74   A(33,34,37)           121.1465         calculate D2E/DX2 analytically  !
 ! A75   A(33,34,42)           121.5136         calculate D2E/DX2 analytically  !
 ! A76   A(33,34,53)            97.9552         calculate D2E/DX2 analytically  !
 ! A77   A(37,34,42)           114.798          calculate D2E/DX2 analytically  !
 ! A78   A(37,34,53)            88.3014         calculate D2E/DX2 analytically  !
 ! A79   A(42,34,53)            99.3832         calculate D2E/DX2 analytically  !
 ! A80   A(36,35,40)           108.6104         calculate D2E/DX2 analytically  !
 ! A81   A(36,35,42)           113.9491         calculate D2E/DX2 analytically  !
 ! A82   A(36,35,47)           113.4794         calculate D2E/DX2 analytically  !
 ! A83   A(40,35,42)           104.4252         calculate D2E/DX2 analytically  !
 ! A84   A(40,35,47)           109.7428         calculate D2E/DX2 analytically  !
 ! A85   A(42,35,47)           106.2142         calculate D2E/DX2 analytically  !
 ! A86   A(32,36,35)           111.3559         calculate D2E/DX2 analytically  !
 ! A87   A(32,36,41)           109.0538         calculate D2E/DX2 analytically  !
 ! A88   A(32,36,46)           111.7755         calculate D2E/DX2 analytically  !
 ! A89   A(35,36,41)           109.2396         calculate D2E/DX2 analytically  !
 ! A90   A(35,36,46)           104.6734         calculate D2E/DX2 analytically  !
 ! A91   A(41,36,46)           110.6719         calculate D2E/DX2 analytically  !
 ! A92   A(10,37,34)           121.9356         calculate D2E/DX2 analytically  !
 ! A93   A(34,42,35)           122.331          calculate D2E/DX2 analytically  !
 ! A94   A(33,44,63)           113.4188         calculate D2E/DX2 analytically  !
 ! A95   A(32,45,67)           113.3719         calculate D2E/DX2 analytically  !
 ! A96   A(36,46,71)           114.1179         calculate D2E/DX2 analytically  !
 ! A97   A(35,47,48)           107.8623         calculate D2E/DX2 analytically  !
 ! A98   A(35,47,49)           109.5519         calculate D2E/DX2 analytically  !
 ! A99   A(35,47,50)           108.5734         calculate D2E/DX2 analytically  !
 ! A100  A(48,47,49)           108.2574         calculate D2E/DX2 analytically  !
 ! A101  A(48,47,50)           111.4738         calculate D2E/DX2 analytically  !
 ! A102  A(49,47,50)           111.0576         calculate D2E/DX2 analytically  !
 ! A103  A(47,50,75)           112.4677         calculate D2E/DX2 analytically  !
 ! A104  A(43,51,52)           114.63           calculate D2E/DX2 analytically  !
 ! A105  A(43,51,53)           112.1227         calculate D2E/DX2 analytically  !
 ! A106  A(43,51,54)           106.1102         calculate D2E/DX2 analytically  !
 ! A107  A(52,51,53)           112.1646         calculate D2E/DX2 analytically  !
 ! A108  A(52,51,54)           106.9206         calculate D2E/DX2 analytically  !
 ! A109  A(53,51,54)           103.9694         calculate D2E/DX2 analytically  !
 ! A110  A(34,53,51)           117.2223         calculate D2E/DX2 analytically  !
 ! A111  A(51,54,55)           120.0961         calculate D2E/DX2 analytically  !
 ! A112  A(51,54,56)           118.828          calculate D2E/DX2 analytically  !
 ! A113  A(55,54,56)           121.069          calculate D2E/DX2 analytically  !
 ! A114  A(54,55,57)           119.1565         calculate D2E/DX2 analytically  !
 ! A115  A(54,55,58)           120.5188         calculate D2E/DX2 analytically  !
 ! A116  A(57,55,58)           120.2687         calculate D2E/DX2 analytically  !
 ! A117  A(54,56,59)           119.0721         calculate D2E/DX2 analytically  !
 ! A118  A(54,56,60)           120.4265         calculate D2E/DX2 analytically  !
 ! A119  A(59,56,60)           120.4927         calculate D2E/DX2 analytically  !
 ! A120  A(55,57,61)           120.8128         calculate D2E/DX2 analytically  !
 ! A121  A(55,57,93)           118.2148         calculate D2E/DX2 analytically  !
 ! A122  A(61,57,93)           120.917          calculate D2E/DX2 analytically  !
 ! A123  A(55,58,84)           161.6561         calculate D2E/DX2 analytically  !
 ! A124  A(56,59,61)           120.753          calculate D2E/DX2 analytically  !
 ! A125  A(56,59,97)           120.3217         calculate D2E/DX2 analytically  !
 ! A126  A(61,59,97)           118.8382         calculate D2E/DX2 analytically  !
 ! A127  A(57,61,59)           119.1346         calculate D2E/DX2 analytically  !
 ! A128  A(57,61,62)           120.482          calculate D2E/DX2 analytically  !
 ! A129  A(59,61,62)           120.3834         calculate D2E/DX2 analytically  !
 ! A130  A(44,63,64)           109.8214         calculate D2E/DX2 analytically  !
 ! A131  A(44,63,65)           110.9243         calculate D2E/DX2 analytically  !
 ! A132  A(44,63,66)           106.0411         calculate D2E/DX2 analytically  !
 ! A133  A(64,63,65)           109.645          calculate D2E/DX2 analytically  !
 ! A134  A(64,63,66)           110.5967         calculate D2E/DX2 analytically  !
 ! A135  A(65,63,66)           109.7651         calculate D2E/DX2 analytically  !
 ! A136  A(45,67,68)           111.0856         calculate D2E/DX2 analytically  !
 ! A137  A(45,67,69)           111.5034         calculate D2E/DX2 analytically  !
 ! A138  A(45,67,70)           106.672          calculate D2E/DX2 analytically  !
 ! A139  A(68,67,69)           108.9259         calculate D2E/DX2 analytically  !
 ! A140  A(68,67,70)           109.2204         calculate D2E/DX2 analytically  !
 ! A141  A(69,67,70)           109.3823         calculate D2E/DX2 analytically  !
 ! A142  A(46,71,72)           111.1792         calculate D2E/DX2 analytically  !
 ! A143  A(46,71,73)           110.9453         calculate D2E/DX2 analytically  !
 ! A144  A(46,71,74)           106.3585         calculate D2E/DX2 analytically  !
 ! A145  A(72,71,73)           109.3486         calculate D2E/DX2 analytically  !
 ! A146  A(72,71,74)           109.7882         calculate D2E/DX2 analytically  !
 ! A147  A(73,71,74)           109.1632         calculate D2E/DX2 analytically  !
 ! A148  A(50,75,76)           106.95           calculate D2E/DX2 analytically  !
 ! A149  A(50,75,77)           111.2788         calculate D2E/DX2 analytically  !
 ! A150  A(50,75,78)           111.254          calculate D2E/DX2 analytically  !
 ! A151  A(76,75,77)           109.2348         calculate D2E/DX2 analytically  !
 ! A152  A(76,75,78)           109.3825         calculate D2E/DX2 analytically  !
 ! A153  A(77,75,78)           108.7004         calculate D2E/DX2 analytically  !
 ! A154  A(12,79,80)           106.7739         calculate D2E/DX2 analytically  !
 ! A155  A(12,79,81)           111.4525         calculate D2E/DX2 analytically  !
 ! A156  A(12,79,82)           110.8076         calculate D2E/DX2 analytically  !
 ! A157  A(80,79,81)           109.5055         calculate D2E/DX2 analytically  !
 ! A158  A(80,79,82)           109.329          calculate D2E/DX2 analytically  !
 ! A159  A(81,79,82)           108.931          calculate D2E/DX2 analytically  !
 ! A160  A(19,83,84)           154.7974         calculate D2E/DX2 analytically  !
 ! A161  A(58,84,83)            80.0656         calculate D2E/DX2 analytically  !
 ! A162  A(58,84,85)            90.0762         calculate D2E/DX2 analytically  !
 ! A163  A(58,84,89)           124.3388         calculate D2E/DX2 analytically  !
 ! A164  A(83,84,85)           119.3622         calculate D2E/DX2 analytically  !
 ! A165  A(83,84,89)           122.0743         calculate D2E/DX2 analytically  !
 ! A166  A(85,84,89)           112.7116         calculate D2E/DX2 analytically  !
 ! A167  A(84,85,86)           110.3836         calculate D2E/DX2 analytically  !
 ! A168  A(84,85,87)           106.7022         calculate D2E/DX2 analytically  !
 ! A169  A(84,85,88)           110.7883         calculate D2E/DX2 analytically  !
 ! A170  A(86,85,87)           109.695          calculate D2E/DX2 analytically  !
 ! A171  A(86,85,88)           109.3424         calculate D2E/DX2 analytically  !
 ! A172  A(87,85,88)           109.8957         calculate D2E/DX2 analytically  !
 ! A173  A(84,89,90)           110.7057         calculate D2E/DX2 analytically  !
 ! A174  A(84,89,91)           107.0337         calculate D2E/DX2 analytically  !
 ! A175  A(84,89,92)           110.6363         calculate D2E/DX2 analytically  !
 ! A176  A(90,89,91)           109.5988         calculate D2E/DX2 analytically  !
 ! A177  A(90,89,92)           109.5156         calculate D2E/DX2 analytically  !
 ! A178  A(91,89,92)           109.3069         calculate D2E/DX2 analytically  !
 ! A179  A(57,93,94)           111.7102         calculate D2E/DX2 analytically  !
 ! A180  A(57,93,95)           112.6696         calculate D2E/DX2 analytically  !
 ! A181  A(57,93,96)           111.2361         calculate D2E/DX2 analytically  !
 ! A182  A(94,93,95)           107.6315         calculate D2E/DX2 analytically  !
 ! A183  A(94,93,96)           106.2311         calculate D2E/DX2 analytically  !
 ! A184  A(95,93,96)           107.0177         calculate D2E/DX2 analytically  !
 ! A185  A(59,97,98)           112.292          calculate D2E/DX2 analytically  !
 ! A186  A(59,97,99)           111.2432         calculate D2E/DX2 analytically  !
 ! A187  A(59,97,100)          111.6877         calculate D2E/DX2 analytically  !
 ! A188  A(98,97,99)           107.0122         calculate D2E/DX2 analytically  !
 ! A189  A(98,97,100)          107.811          calculate D2E/DX2 analytically  !
 ! A190  A(99,97,100)          106.4894         calculate D2E/DX2 analytically  !
 ! D1    D(5,1,2,3)            -55.0836         calculate D2E/DX2 analytically  !
 ! D2    D(5,1,2,7)             61.1276         calculate D2E/DX2 analytically  !
 ! D3    D(5,1,2,13)          -176.3177         calculate D2E/DX2 analytically  !
 ! D4    D(8,1,2,3)             65.1145         calculate D2E/DX2 analytically  !
 ! D5    D(8,1,2,7)           -178.6743         calculate D2E/DX2 analytically  !
 ! D6    D(8,1,2,13)           -56.1196         calculate D2E/DX2 analytically  !
 ! D7    D(14,1,2,3)          -175.1411         calculate D2E/DX2 analytically  !
 ! D8    D(14,1,2,7)           -58.93           calculate D2E/DX2 analytically  !
 ! D9    D(14,1,2,13)           63.6248         calculate D2E/DX2 analytically  !
 ! D10   D(2,1,5,4)             51.1002         calculate D2E/DX2 analytically  !
 ! D11   D(2,1,5,10)           -68.561          calculate D2E/DX2 analytically  !
 ! D12   D(2,1,5,15)           172.7672         calculate D2E/DX2 analytically  !
 ! D13   D(8,1,5,4)            -68.3467         calculate D2E/DX2 analytically  !
 ! D14   D(8,1,5,10)           171.9921         calculate D2E/DX2 analytically  !
 ! D15   D(8,1,5,15)            53.3203         calculate D2E/DX2 analytically  !
 ! D16   D(14,1,5,4)           170.2076         calculate D2E/DX2 analytically  !
 ! D17   D(14,1,5,10)           50.5464         calculate D2E/DX2 analytically  !
 ! D18   D(14,1,5,15)          -68.1254         calculate D2E/DX2 analytically  !
 ! D19   D(2,1,14,24)         -141.1803         calculate D2E/DX2 analytically  !
 ! D20   D(5,1,14,24)           99.2216         calculate D2E/DX2 analytically  !
 ! D21   D(8,1,14,24)          -22.2133         calculate D2E/DX2 analytically  !
 ! D22   D(1,2,3,6)            174.8283         calculate D2E/DX2 analytically  !
 ! D23   D(1,2,3,11)            59.5888         calculate D2E/DX2 analytically  !
 ! D24   D(1,2,3,12)           -63.8721         calculate D2E/DX2 analytically  !
 ! D25   D(7,2,3,6)             56.9563         calculate D2E/DX2 analytically  !
 ! D26   D(7,2,3,11)           -58.2832         calculate D2E/DX2 analytically  !
 ! D27   D(7,2,3,12)           178.2559         calculate D2E/DX2 analytically  !
 ! D28   D(13,2,3,6)           -61.5372         calculate D2E/DX2 analytically  !
 ! D29   D(13,2,3,11)         -176.7767         calculate D2E/DX2 analytically  !
 ! D30   D(13,2,3,12)           59.7624         calculate D2E/DX2 analytically  !
 ! D31   D(1,2,13,20)          -97.3278         calculate D2E/DX2 analytically  !
 ! D32   D(3,2,13,20)          140.8423         calculate D2E/DX2 analytically  !
 ! D33   D(7,2,13,20)           24.6697         calculate D2E/DX2 analytically  !
 ! D34   D(2,3,11,4)           -60.4659         calculate D2E/DX2 analytically  !
 ! D35   D(6,3,11,4)          -179.0673         calculate D2E/DX2 analytically  !
 ! D36   D(12,3,11,4)           61.071          calculate D2E/DX2 analytically  !
 ! D37   D(2,3,12,79)         -173.1219         calculate D2E/DX2 analytically  !
 ! D38   D(6,3,12,79)          -51.8575         calculate D2E/DX2 analytically  !
 ! D39   D(11,3,12,79)          64.7876         calculate D2E/DX2 analytically  !
 ! D40   D(9,4,5,1)             69.8738         calculate D2E/DX2 analytically  !
 ! D41   D(9,4,5,10)          -171.5191         calculate D2E/DX2 analytically  !
 ! D42   D(9,4,5,15)           -52.4706         calculate D2E/DX2 analytically  !
 ! D43   D(11,4,5,1)           -49.2583         calculate D2E/DX2 analytically  !
 ! D44   D(11,4,5,10)           69.3489         calculate D2E/DX2 analytically  !
 ! D45   D(11,4,5,15)         -171.6026         calculate D2E/DX2 analytically  !
 ! D46   D(16,4,5,1)          -167.7447         calculate D2E/DX2 analytically  !
 ! D47   D(16,4,5,10)          -49.1375         calculate D2E/DX2 analytically  !
 ! D48   D(16,4,5,15)           69.911          calculate D2E/DX2 analytically  !
 ! D49   D(5,4,11,3)            54.6067         calculate D2E/DX2 analytically  !
 ! D50   D(9,4,11,3)           -64.3748         calculate D2E/DX2 analytically  !
 ! D51   D(16,4,11,3)          177.0912         calculate D2E/DX2 analytically  !
 ! D52   D(5,4,16,17)          -62.5438         calculate D2E/DX2 analytically  !
 ! D53   D(5,4,16,18)         -173.0839         calculate D2E/DX2 analytically  !
 ! D54   D(5,4,16,19)           63.027          calculate D2E/DX2 analytically  !
 ! D55   D(9,4,16,17)           58.9112         calculate D2E/DX2 analytically  !
 ! D56   D(9,4,16,18)          -51.6289         calculate D2E/DX2 analytically  !
 ! D57   D(9,4,16,19)         -175.5179         calculate D2E/DX2 analytically  !
 ! D58   D(11,4,16,17)         176.5198         calculate D2E/DX2 analytically  !
 ! D59   D(11,4,16,18)          65.9797         calculate D2E/DX2 analytically  !
 ! D60   D(11,4,16,19)         -57.9094         calculate D2E/DX2 analytically  !
 ! D61   D(1,5,10,37)          107.3927         calculate D2E/DX2 analytically  !
 ! D62   D(4,5,10,37)          -15.17           calculate D2E/DX2 analytically  !
 ! D63   D(15,5,10,37)        -133.6918         calculate D2E/DX2 analytically  !
 ! D64   D(1,5,15,28)          124.4741         calculate D2E/DX2 analytically  !
 ! D65   D(4,5,15,28)         -111.1348         calculate D2E/DX2 analytically  !
 ! D66   D(10,5,15,28)           7.4236         calculate D2E/DX2 analytically  !
 ! D67   D(5,10,37,34)         136.943          calculate D2E/DX2 analytically  !
 ! D68   D(3,12,79,80)         174.2073         calculate D2E/DX2 analytically  !
 ! D69   D(3,12,79,81)         -66.2456         calculate D2E/DX2 analytically  !
 ! D70   D(3,12,79,82)          55.2363         calculate D2E/DX2 analytically  !
 ! D71   D(2,13,20,21)         -56.4989         calculate D2E/DX2 analytically  !
 ! D72   D(2,13,20,22)          65.0168         calculate D2E/DX2 analytically  !
 ! D73   D(2,13,20,23)        -175.2944         calculate D2E/DX2 analytically  !
 ! D74   D(1,14,24,25)         -59.9439         calculate D2E/DX2 analytically  !
 ! D75   D(1,14,24,26)          61.8608         calculate D2E/DX2 analytically  !
 ! D76   D(1,14,24,27)        -179.5676         calculate D2E/DX2 analytically  !
 ! D77   D(5,15,28,29)         -67.0254         calculate D2E/DX2 analytically  !
 ! D78   D(5,15,28,30)          54.3333         calculate D2E/DX2 analytically  !
 ! D79   D(5,15,28,31)         174.0728         calculate D2E/DX2 analytically  !
 ! D80   D(4,16,19,83)          51.8903         calculate D2E/DX2 analytically  !
 ! D81   D(17,16,19,83)        172.7371         calculate D2E/DX2 analytically  !
 ! D82   D(18,16,19,83)        -67.8199         calculate D2E/DX2 analytically  !
 ! D83   D(16,19,83,84)         66.8366         calculate D2E/DX2 analytically  !
 ! D84   D(36,32,33,34)        -55.9822         calculate D2E/DX2 analytically  !
 ! D85   D(36,32,33,38)         56.9109         calculate D2E/DX2 analytically  !
 ! D86   D(36,32,33,44)        179.9779         calculate D2E/DX2 analytically  !
 ! D87   D(39,32,33,34)         62.6073         calculate D2E/DX2 analytically  !
 ! D88   D(39,32,33,38)        175.5005         calculate D2E/DX2 analytically  !
 ! D89   D(39,32,33,44)        -61.4325         calculate D2E/DX2 analytically  !
 ! D90   D(45,32,33,34)       -175.3887         calculate D2E/DX2 analytically  !
 ! D91   D(45,32,33,38)        -62.4956         calculate D2E/DX2 analytically  !
 ! D92   D(45,32,33,44)         60.5714         calculate D2E/DX2 analytically  !
 ! D93   D(33,32,36,35)         57.669          calculate D2E/DX2 analytically  !
 ! D94   D(33,32,36,41)        -62.9527         calculate D2E/DX2 analytically  !
 ! D95   D(33,32,36,46)        174.3537         calculate D2E/DX2 analytically  !
 ! D96   D(39,32,36,35)        -60.7115         calculate D2E/DX2 analytically  !
 ! D97   D(39,32,36,41)        178.6668         calculate D2E/DX2 analytically  !
 ! D98   D(39,32,36,46)         55.9733         calculate D2E/DX2 analytically  !
 ! D99   D(45,32,36,35)        178.3284         calculate D2E/DX2 analytically  !
 ! D100  D(45,32,36,41)         57.7066         calculate D2E/DX2 analytically  !
 ! D101  D(45,32,36,46)        -64.9869         calculate D2E/DX2 analytically  !
 ! D102  D(33,32,45,67)       -105.8882         calculate D2E/DX2 analytically  !
 ! D103  D(36,32,45,67)        135.762          calculate D2E/DX2 analytically  !
 ! D104  D(39,32,45,67)         15.3774         calculate D2E/DX2 analytically  !
 ! D105  D(32,33,34,37)       -158.1133         calculate D2E/DX2 analytically  !
 ! D106  D(32,33,34,42)         40.9103         calculate D2E/DX2 analytically  !
 ! D107  D(32,33,34,53)        -65.2771         calculate D2E/DX2 analytically  !
 ! D108  D(38,33,34,37)         84.3234         calculate D2E/DX2 analytically  !
 ! D109  D(38,33,34,42)        -76.653          calculate D2E/DX2 analytically  !
 ! D110  D(38,33,34,53)        177.1596         calculate D2E/DX2 analytically  !
 ! D111  D(44,33,34,37)        -31.7747         calculate D2E/DX2 analytically  !
 ! D112  D(44,33,34,42)        167.2489         calculate D2E/DX2 analytically  !
 ! D113  D(44,33,34,53)         61.0615         calculate D2E/DX2 analytically  !
 ! D114  D(32,33,44,63)        -94.7626         calculate D2E/DX2 analytically  !
 ! D115  D(34,33,44,63)        140.9916         calculate D2E/DX2 analytically  !
 ! D116  D(38,33,44,63)         28.9159         calculate D2E/DX2 analytically  !
 ! D117  D(33,34,37,10)       -136.276          calculate D2E/DX2 analytically  !
 ! D118  D(42,34,37,10)         25.8991         calculate D2E/DX2 analytically  !
 ! D119  D(53,34,37,10)        125.4529         calculate D2E/DX2 analytically  !
 ! D120  D(33,34,42,35)        -23.9771         calculate D2E/DX2 analytically  !
 ! D121  D(37,34,42,35)        173.9198         calculate D2E/DX2 analytically  !
 ! D122  D(53,34,42,35)         81.4409         calculate D2E/DX2 analytically  !
 ! D123  D(33,34,53,51)        -91.9282         calculate D2E/DX2 analytically  !
 ! D124  D(37,34,53,51)         29.2927         calculate D2E/DX2 analytically  !
 ! D125  D(42,34,53,51)        144.1522         calculate D2E/DX2 analytically  !
 ! D126  D(40,35,36,32)         75.1594         calculate D2E/DX2 analytically  !
 ! D127  D(40,35,36,41)       -164.3281         calculate D2E/DX2 analytically  !
 ! D128  D(40,35,36,46)        -45.7802         calculate D2E/DX2 analytically  !
 ! D129  D(42,35,36,32)        -40.7653         calculate D2E/DX2 analytically  !
 ! D130  D(42,35,36,41)         79.7472         calculate D2E/DX2 analytically  !
 ! D131  D(42,35,36,46)       -161.705          calculate D2E/DX2 analytically  !
 ! D132  D(47,35,36,32)       -162.5044         calculate D2E/DX2 analytically  !
 ! D133  D(47,35,36,41)        -41.9919         calculate D2E/DX2 analytically  !
 ! D134  D(47,35,36,46)         76.5559         calculate D2E/DX2 analytically  !
 ! D135  D(36,35,42,34)         23.2339         calculate D2E/DX2 analytically  !
 ! D136  D(40,35,42,34)        -95.1131         calculate D2E/DX2 analytically  !
 ! D137  D(47,35,42,34)        148.9078         calculate D2E/DX2 analytically  !
 ! D138  D(36,35,47,48)        -62.7171         calculate D2E/DX2 analytically  !
 ! D139  D(36,35,47,49)        179.6541         calculate D2E/DX2 analytically  !
 ! D140  D(36,35,47,50)         58.216          calculate D2E/DX2 analytically  !
 ! D141  D(40,35,47,48)         58.9894         calculate D2E/DX2 analytically  !
 ! D142  D(40,35,47,49)        -58.6395         calculate D2E/DX2 analytically  !
 ! D143  D(40,35,47,50)        179.9224         calculate D2E/DX2 analytically  !
 ! D144  D(42,35,47,48)        171.3232         calculate D2E/DX2 analytically  !
 ! D145  D(42,35,47,49)         53.6943         calculate D2E/DX2 analytically  !
 ! D146  D(42,35,47,50)        -67.7438         calculate D2E/DX2 analytically  !
 ! D147  D(32,36,46,71)         99.3789         calculate D2E/DX2 analytically  !
 ! D148  D(35,36,46,71)       -139.9597         calculate D2E/DX2 analytically  !
 ! D149  D(41,36,46,71)        -22.3874         calculate D2E/DX2 analytically  !
 ! D150  D(33,44,63,64)        -63.5218         calculate D2E/DX2 analytically  !
 ! D151  D(33,44,63,65)         57.838          calculate D2E/DX2 analytically  !
 ! D152  D(33,44,63,66)        176.9581         calculate D2E/DX2 analytically  !
 ! D153  D(32,45,67,68)        -58.9984         calculate D2E/DX2 analytically  !
 ! D154  D(32,45,67,69)         62.706          calculate D2E/DX2 analytically  !
 ! D155  D(32,45,67,70)       -177.9312         calculate D2E/DX2 analytically  !
 ! D156  D(36,46,71,72)        -61.0581         calculate D2E/DX2 analytically  !
 ! D157  D(36,46,71,73)         60.8637         calculate D2E/DX2 analytically  !
 ! D158  D(36,46,71,74)        179.4622         calculate D2E/DX2 analytically  !
 ! D159  D(35,47,50,75)       -179.0076         calculate D2E/DX2 analytically  !
 ! D160  D(48,47,50,75)        -60.3284         calculate D2E/DX2 analytically  !
 ! D161  D(49,47,50,75)         60.4825         calculate D2E/DX2 analytically  !
 ! D162  D(47,50,75,76)       -179.5755         calculate D2E/DX2 analytically  !
 ! D163  D(47,50,75,77)        -60.3468         calculate D2E/DX2 analytically  !
 ! D164  D(47,50,75,78)         61.0306         calculate D2E/DX2 analytically  !
 ! D165  D(43,51,53,34)        -13.518          calculate D2E/DX2 analytically  !
 ! D166  D(52,51,53,34)       -144.1637         calculate D2E/DX2 analytically  !
 ! D167  D(54,51,53,34)        100.6739         calculate D2E/DX2 analytically  !
 ! D168  D(43,51,54,55)        -10.8764         calculate D2E/DX2 analytically  !
 ! D169  D(43,51,54,56)        168.1753         calculate D2E/DX2 analytically  !
 ! D170  D(52,51,54,55)        111.8949         calculate D2E/DX2 analytically  !
 ! D171  D(52,51,54,56)        -69.0534         calculate D2E/DX2 analytically  !
 ! D172  D(53,51,54,55)       -129.2866         calculate D2E/DX2 analytically  !
 ! D173  D(53,51,54,56)         49.7651         calculate D2E/DX2 analytically  !
 ! D174  D(51,54,55,57)        178.4822         calculate D2E/DX2 analytically  !
 ! D175  D(51,54,55,58)          1.1967         calculate D2E/DX2 analytically  !
 ! D176  D(56,54,55,57)         -0.5478         calculate D2E/DX2 analytically  !
 ! D177  D(56,54,55,58)       -177.8333         calculate D2E/DX2 analytically  !
 ! D178  D(51,54,56,59)       -178.6877         calculate D2E/DX2 analytically  !
 ! D179  D(51,54,56,60)          0.2459         calculate D2E/DX2 analytically  !
 ! D180  D(55,54,56,59)          0.3544         calculate D2E/DX2 analytically  !
 ! D181  D(55,54,56,60)        179.288          calculate D2E/DX2 analytically  !
 ! D182  D(54,55,57,61)          0.4004         calculate D2E/DX2 analytically  !
 ! D183  D(54,55,57,93)       -176.9165         calculate D2E/DX2 analytically  !
 ! D184  D(58,55,57,61)        177.6929         calculate D2E/DX2 analytically  !
 ! D185  D(58,55,57,93)          0.376          calculate D2E/DX2 analytically  !
 ! D186  D(54,55,58,84)        122.618          calculate D2E/DX2 analytically  !
 ! D187  D(57,55,58,84)        -54.6372         calculate D2E/DX2 analytically  !
 ! D188  D(54,56,59,61)         -0.0084         calculate D2E/DX2 analytically  !
 ! D189  D(54,56,59,97)        176.5574         calculate D2E/DX2 analytically  !
 ! D190  D(60,56,59,61)       -178.9413         calculate D2E/DX2 analytically  !
 ! D191  D(60,56,59,97)         -2.3755         calculate D2E/DX2 analytically  !
 ! D192  D(55,57,61,59)         -0.0642         calculate D2E/DX2 analytically  !
 ! D193  D(55,57,61,62)        179.9402         calculate D2E/DX2 analytically  !
 ! D194  D(93,57,61,59)        177.1799         calculate D2E/DX2 analytically  !
 ! D195  D(93,57,61,62)         -2.8157         calculate D2E/DX2 analytically  !
 ! D196  D(55,57,93,94)        -47.503          calculate D2E/DX2 analytically  !
 ! D197  D(55,57,93,95)       -168.8098         calculate D2E/DX2 analytically  !
 ! D198  D(55,57,93,96)         71.0188         calculate D2E/DX2 analytically  !
 ! D199  D(61,57,93,94)        135.183          calculate D2E/DX2 analytically  !
 ! D200  D(61,57,93,95)         13.8762         calculate D2E/DX2 analytically  !
 ! D201  D(61,57,93,96)       -106.2952         calculate D2E/DX2 analytically  !
 ! D202  D(55,58,84,83)        -81.9516         calculate D2E/DX2 analytically  !
 ! D203  D(55,58,84,85)        158.2096         calculate D2E/DX2 analytically  !
 ! D204  D(55,58,84,89)         40.273          calculate D2E/DX2 analytically  !
 ! D205  D(56,59,61,57)         -0.1335         calculate D2E/DX2 analytically  !
 ! D206  D(56,59,61,62)        179.8621         calculate D2E/DX2 analytically  !
 ! D207  D(97,59,61,57)       -176.7495         calculate D2E/DX2 analytically  !
 ! D208  D(97,59,61,62)          3.2461         calculate D2E/DX2 analytically  !
 ! D209  D(56,59,97,98)         19.588          calculate D2E/DX2 analytically  !
 ! D210  D(56,59,97,99)       -100.3216         calculate D2E/DX2 analytically  !
 ! D211  D(56,59,97,100)       140.8406         calculate D2E/DX2 analytically  !
 ! D212  D(61,59,97,98)       -163.781          calculate D2E/DX2 analytically  !
 ! D213  D(61,59,97,99)         76.3094         calculate D2E/DX2 analytically  !
 ! D214  D(61,59,97,100)       -42.5284         calculate D2E/DX2 analytically  !
 ! D215  D(19,83,84,58)        137.8071         calculate D2E/DX2 analytically  !
 ! D216  D(19,83,84,85)       -137.7588         calculate D2E/DX2 analytically  !
 ! D217  D(19,83,84,89)         13.3303         calculate D2E/DX2 analytically  !
 ! D218  D(58,84,85,86)        -67.1816         calculate D2E/DX2 analytically  !
 ! D219  D(58,84,85,87)         51.9525         calculate D2E/DX2 analytically  !
 ! D220  D(58,84,85,88)        171.553          calculate D2E/DX2 analytically  !
 ! D221  D(83,84,85,86)       -145.8082         calculate D2E/DX2 analytically  !
 ! D222  D(83,84,85,87)        -26.6741         calculate D2E/DX2 analytically  !
 ! D223  D(83,84,85,88)         92.9264         calculate D2E/DX2 analytically  !
 ! D224  D(89,84,85,86)         60.557          calculate D2E/DX2 analytically  !
 ! D225  D(89,84,85,87)        179.691          calculate D2E/DX2 analytically  !
 ! D226  D(89,84,85,88)        -60.7084         calculate D2E/DX2 analytically  !
 ! D227  D(58,84,89,90)        167.8906         calculate D2E/DX2 analytically  !
 ! D228  D(58,84,89,91)        -72.713          calculate D2E/DX2 analytically  !
 ! D229  D(58,84,89,92)         46.292          calculate D2E/DX2 analytically  !
 ! D230  D(83,84,89,90)        -91.65           calculate D2E/DX2 analytically  !
 ! D231  D(83,84,89,91)         27.7465         calculate D2E/DX2 analytically  !
 ! D232  D(83,84,89,92)        146.7515         calculate D2E/DX2 analytically  !
 ! D233  D(85,84,89,90)         61.1717         calculate D2E/DX2 analytically  !
 ! D234  D(85,84,89,91)       -179.4318         calculate D2E/DX2 analytically  !
 ! D235  D(85,84,89,92)        -60.4268         calculate D2E/DX2 analytically  !
 --------------------------------------------------------------------------------
 Trust Radius=3.00D-02 FncErr=1.00D-07 GrdErr=1.00D-06 EigMax=2.50D+02 EigMin=1.00D-04
 Number of steps in this run=    538 maximum allowed number of steps=    600.
 Search for a saddle point of order  1.
 Step   0 in ReCalcFC=30 IGetFC= 4 compute analytic Hessian.
 GradGradGradGradGradGradGradGradGradGradGradGradGradGradGradGradGradGrad

 Leave Link  103 at Mon May 20 00:25:20 2019, MaxMem=  6442450944 cpu:               6.6 elap:               0.3
 (Enter /home/ekwan/sw/g16/l202.exe)
 Stoichiometry    C30H47F6NaO15S
 Framework group  C1[X(C30H47F6NaO15S)]
 Deg. of freedom   294
 Full point group                 C1      NOp   1
 Largest Abelian subgroup         C1      NOp   1
 Largest concise Abelian subgroup C1      NOp   1
                         Standard orientation:                         
 ---------------------------------------------------------------------
 Center     Atomic      Atomic             Coordinates (Angstroms)
 Number     Number       Type             X           Y           Z
 ---------------------------------------------------------------------
      1          6           0       -4.643432   -0.734239    1.004316
      2          6           0       -3.701665   -1.906189    1.282757
      3          6           0       -3.543197   -2.752160    0.018961
      4          6           0       -3.824117   -0.818587   -1.416262
      5          6           0       -4.123866    0.058310   -0.194816
      6          1           0       -2.798607   -3.542237    0.180599
      7          1           0       -2.704285   -1.515740    1.521849
      8          1           0       -5.644440   -1.128195    0.789221
      9          1           0       -4.774871   -1.183462   -1.825763
     10          1           0       -3.198269    0.543998    0.123256
     11          8           0       -3.012118   -1.958919   -1.032231
     12          8           0       -4.781784   -3.311437   -0.313070
     13          8           0       -4.161974   -2.740800    2.332912
     14          8           0       -4.684028    0.099058    2.161075
     15          8           0       -5.077886    1.051424   -0.569438
     16          6           0       -3.027341   -0.073198   -2.504891
     17          1           0       -3.687118    0.758094   -2.834421
     18          1           0       -2.992586   -0.773708   -3.373085
     19          8           0       -1.778001    0.332396   -2.099479
     20          6           0       -3.566024   -2.448719    3.592021
     21          1           0       -2.469118   -2.510271    3.536618
     22          1           0       -3.845818   -1.450550    3.944083
     23          1           0       -3.930944   -3.203137    4.294299
     24          6           0       -5.970804    0.623895    2.452574
     25          1           0       -6.352957    1.234851    1.627491
     26          1           0       -6.689554   -0.181712    2.662845
     27          1           0       -5.862773    1.243609    3.346844
     28          6           0       -4.541310    2.368444   -0.596817
     29          1           0       -4.271916    2.705630    0.413332
     30          1           0       -3.652644    2.433787   -1.232946
     31          1           0       -5.323191    3.020573   -0.995845
     32          6           0        1.344118    2.804911   -0.640080
     33          6           0        0.429385    1.648739   -1.054946
     34          6           0       -0.707343    1.516193   -0.091120
     35          6           0       -0.674148    3.872078    0.450289
     36          6           0        0.479510    4.061205   -0.545129
     37          1           0       -1.246002    0.594438    0.007712
     38          1           0       -0.078262    1.885640   -2.000935
     39          1           0        1.777495    2.585377    0.341104
     40          1           0       -0.271731    3.926306    1.464983
     41          1           0        0.068357    4.288426   -1.535720
     42          8           0       -1.313283    2.548121    0.379588
     43          8           0       -0.286759   -1.355017    1.037344
     44          8           0        1.096122    0.409178   -1.184829
     45          8           0        2.368437    3.015509   -1.596672
     46          8           0        1.210233    5.165095   -0.041882
     47          6           0       -1.784574    4.886585    0.285949
     48          1           0       -1.364665    5.882448    0.490234
     49          1           0       -2.576173    4.688536    1.023359
     50          8           0       -2.284322    4.796765   -1.031068
     51         16           0        0.621759   -0.514436    1.871714
     52          8           0        0.612266   -0.840079    3.308701
     53          8           0        0.420693    0.967264    1.619555
     54          6           0        2.287172   -0.834529    1.273505
     55          6           0        2.520635   -1.879404    0.391703
     56          6           0        3.324826   -0.004091    1.696359
     57          6           0        3.816258   -2.090608   -0.085368
     58          1           0        1.703305   -2.496591    0.042227
     59          6           0        4.611615   -0.230355    1.214710
     60          1           0        3.128714    0.816111    2.376423
     61          6           0        4.866773   -1.273660    0.319761
     62          1           0        5.869671   -1.442888   -0.052856
     63          6           0        1.512249    0.123426   -2.528014
     64          1           0        0.633672    0.031751   -3.177974
     65          1           0        2.169953    0.908565   -2.908083
     66          1           0        2.055126   -0.821909   -2.480818
     67          6           0        3.647914    2.560798   -1.164278
     68          1           0        3.954382    3.065465   -0.240124
     69          1           0        3.653790    1.478353   -0.996710
     70          1           0        4.353790    2.808212   -1.960136
     71          6           0        1.674865    6.063251   -1.047062
     72          1           0        2.353092    5.560781   -1.743248
     73          1           0        0.833824    6.495847   -1.606469
     74          1           0        2.206339    6.861663   -0.524374
     75          6           0       -3.319765    5.732720   -1.282906
     76          1           0       -3.642183    5.580681   -2.314775
     77          1           0       -4.173968    5.573541   -0.609360
     78          1           0       -2.962022    6.765526   -1.160697
     79          6           0       -4.708660   -4.242397   -1.387207
     80          1           0       -5.700805   -4.686573   -1.487229
     81          1           0       -4.431803   -3.749845   -2.326445
     82          1           0       -3.976193   -5.033053   -1.169636
     83         11           0       -0.741188   -1.465748   -1.237320
     84          8           0        0.241999   -3.557412   -1.326451
     85          6           0       -0.036208   -4.505177   -0.297971
     86          1           0        0.847147   -5.125519   -0.100778
     87          1           0       -0.290562   -3.932607    0.595791
     88          1           0       -0.878409   -5.150859   -0.580401
     89          6           0        0.598886   -4.173501   -2.560172
     90          1           0       -0.222472   -4.799349   -2.933481
     91          1           0        0.800279   -3.370656   -3.272086
     92          1           0        1.499681   -4.785349   -2.439853
     93          6           0        4.032663   -3.183379   -1.093302
     94          9           0        3.430722   -4.336635   -0.718616
     95          9           0        5.335874   -3.451055   -1.296414
     96          9           0        3.501287   -2.852041   -2.301100
     97          6           0        5.736428    0.693937    1.590881
     98          9           0        5.458516    1.414166    2.695017
     99          9           0        6.000060    1.579178    0.594853
    100          9           0        6.883410    0.018082    1.816479
 ---------------------------------------------------------------------
 Rotational constants (GHZ):           0.0620519           0.0429242           0.0318426
 Leave Link  202 at Mon May 20 00:25:20 2019, MaxMem=  6442450944 cpu:               4.8 elap:               0.2
 (Enter /home/ekwan/sw/g16/l301.exe)
 Standard basis: 6-31G(d) (6D, 7F)
 Ernie: Thresh=  0.10000D-02 Tol=  0.10000D-05 Strict=F.
 There are   897 symmetry adapted cartesian basis functions of A   symmetry.
 There are   897 symmetry adapted basis functions of A   symmetry.
   897 basis functions,  1720 primitive gaussians,   897 cartesian basis functions
   214 alpha electrons      214 beta electrons
       nuclear repulsion energy      9660.0777034101 Hartrees.
 IExCor=  402 DFT=T Ex+Corr=B3LYP ExCW=0 ScaHFX=  0.200000
 ScaDFX=  0.800000  0.720000  1.000000  0.810000 ScalE2=  1.000000  1.000000
 IRadAn=      5 IRanWt=     -1 IRanGd=            0 ICorTp=0 IEmpDi=141
 NAtoms=  100 NActive=  100 NUniq=  100 SFac= 1.00D+00 NAtFMM=   60 NAOKFM=T Big=T
 Integral buffers will be    131072 words long.
 Raffenetti 2 integral format.
 Two-electron integral symmetry is turned on.
 R6Disp:  Grimme-D3(BJ) Dispersion energy=       -0.2359855869 Hartrees.
 Nuclear repulsion after empirical dispersion term =     9659.8417178232 Hartrees.
 Force inversion solution in PCM.
 ------------------------------------------------------------------------------
 Polarizable Continuum Model (PCM)
 =================================
 Model                : PCM.
 Atomic radii         : UFF (Universal Force Field).
 Polarization charges : Total charges.
 Charge compensation  : None.
 Solution method      : Matrix inversion.
 Cavity type          : Scaled VdW (van der Waals Surface) (Alpha=1.100).
 Cavity algorithm     : GePol (No added spheres)
                        Default sphere list used, NSphG=  100.
                        Lebedev-Laikov grids with approx.  5.0 points / Ang**2.
                        Smoothing algorithm: York/Karplus (Gamma=1.0000).
                        Polarization charges: spherical gaussians, with
                                              point-specific exponents (IZeta= 3).
                        Self-potential: point-specific (ISelfS= 7).
                        Self-field    : sphere-specific E.n sum rule (ISelfD= 2).
 1st derivatives      : Analytical E(r).r(x)/FMM algorithm (CHGder, D1EAlg=3).
                        Cavity 1st derivative terms included.
 2nd derivatives      : Analytical E(r).r(xy)/FMM algorithm (CHGder, D2EAlg=3).
                        Cavity 2nd derivative terms included.
 Solvent              : TetraHydroFuran, Eps=   7.425700 Eps(inf)=   1.974025
 ------------------------------------------------------------------------------
 GePol: Number of generator spheres                  =     100
 GePol: Total number of spheres                      =     100
 GePol: Number of exposed spheres                    =     100 (100.00%)
 GePol: Number of points                             =    6116
 GePol: Average weight of points                     =       0.12
 GePol: Minimum weight of points                     =   0.23D-10
 GePol: Maximum weight of points                     =    0.21344
 GePol: Number of points with low weight             =     454
 GePol: Fraction of low-weight points (<1% of avg)   =       7.42%
 GePol: Cavity surface area                          =    756.636 Ang**2
 GePol: Cavity volume                                =    974.445 Ang**3
 Leave Link  301 at Mon May 20 00:25:20 2019, MaxMem=  6442450944 cpu:               7.3 elap:               0.3
 (Enter /home/ekwan/sw/g16/l302.exe)
 NPDir=0 NMtPBC=     1 NCelOv=     1 NCel=       1 NClECP=     1 NCelD=      1
         NCelK=      1 NCelE2=     1 NClLst=     1 CellRange=     0.0.
 One-electron integrals computed using PRISM.
 One-electron integral symmetry used in STVInt
 NBasis=   897 RedAO= T EigKep=  3.69D-04  NBF=   897
 NBsUse=   897 1.00D-06 EigRej= -1.00D+00 NBFU=   897
 Precomputing XC quadrature grid using
 IXCGrd= 4 IRadAn=           5 IRanWt=          -1 IRanGd=           0 AccXCQ= 0.00D+00.
 Generated NRdTot=       0 NPtTot=           0 NUsed=           0 NTot=          32
 NSgBfM=   850   845   846   850   850 MxSgAt=   100 MxSgA2=   100.
 Leave Link  302 at Mon May 20 00:25:38 2019, MaxMem=  6442450944 cpu:             514.5 elap:              17.8
 (Enter /home/ekwan/sw/g16/l303.exe)
 DipDrv:  MaxL=1.
 Leave Link  303 at Mon May 20 00:25:39 2019, MaxMem=  6442450944 cpu:              11.9 elap:               0.5
 (Enter /home/ekwan/sw/g16/l401.exe)
 ExpMin= 2.60D-02 ExpMax= 2.19D+04 ExpMxC= 3.30D+03 IAcc=3 IRadAn=         5 AccDes= 0.00D+00
 Harris functional with IExCor=  402 and IRadAn=       5 diagonalized for initial guess.
 HarFok:  IExCor=  402 AccDes= 0.00D+00 IRadAn=         5 IDoV= 1 UseB2=F ITyADJ=14
 ICtDFT=  3500011 ScaDFX=  1.000000  1.000000  1.000000  1.000000
 FoFCou: FMM=F IPFlag=           0 FMFlag=      100000 FMFlg1=        2001
         NFxFlg=           0 DoJE=T BraDBF=F KetDBF=T FulRan=T
         wScrn=  0.000000 ICntrl=       500 IOpCl=  0 I1Cent=   200000004 NGrid=           0
         NMat0=    1 NMatS0=      1 NMatT0=    0 NMatD0=    1 NMtDS0=    0 NMtDT0=    0
 Petite list used in FoFCou.
 Harris En= -3459.38233029850    
 JPrj=0 DoOrth=F DoCkMO=F.
 Leave Link  401 at Mon May 20 00:25:59 2019, MaxMem=  6442450944 cpu:             609.1 elap:              20.5
 (Enter /home/ekwan/sw/g16/l502.exe)
 Integral symmetry usage will be decided dynamically.
 Closed shell SCF:
 Using DIIS extrapolation, IDIIS=  1040.
 NGot=  6442450944 LenX=  6440803163 LenY=  6439997657
 Requested convergence on RMS density matrix=1.00D-08 within 128 cycles.
[...]
 -0.00093685,-0.00158654,0.00007373,0.00113139,0.00089010,-0.00031638,-
 0.00016888,-0.00018248,-0.00006746,0.00009385,-0.00006535,-0.00006163,
 0.00001548,0.00003561,0.00001069,0.00001424,-0.00004291,0.00003115,-0.
 00000707,-0.00000030,-0.00000321,0.00001479,-0.00000529,-0.00000614,-0
 .00000582,0.00000200,-0.00000164,-0.00000078,0.00000053,0.00000388,-0.
 00000019,-0.00000338,0.00000042,0.00000530,0.00000085,0.00000500,0.000
 01231,0.00002457,-0.00000513,-0.00000435,-0.00000209,0.00000301,0.0000
 0013,-0.00000322,-0.00000044,0.00000162,-0.00000333,0.00025240,-0.0000
 4878,0.00027079,-0.00020582,-0.00020064,-0.00023494,0.00007532,0.00010
 875,-0.00004526,0.00000611,0.00003241,0.00000284,0.00004718,0.00002962
 ,-0.00002310,-0.00003597,-0.00003386,-0.00002610,-0.00003036,0.0000333
 6,0.00021018,-0.00002693,-0.00003447,-0.00004169,0.00001484,0.00000916
 ,-0.00000663,0.00002127,0.00002025,0.00000360,-0.00048873,0.00146751,0
 .00164950,-0.00007516,-0.00066206,-0.00027782,0.00036846,-0.00039880,-
 0.00040775,-0.00008919,-0.00022737,-0.00085374,-0.03572819,-0.15610106
 ,0.07830091,0.00128182,0.02095449,0.00032975,0.03193517,0.19639130,-0.
 00000157,0.00000519,-0.00001104,-0.00002094,0.00000313,-0.00001405,-0.
 00001715,0.00000637,-0.00003564,-0.00001802,0.00001694,-0.00001365,-0.
 00000584,0.00000563,-0.00000988,0.00000054,-0.00000685,0.00000077,-0.0
 0000337,0.00000450,0.00000412,0.00000413,-0.00000194,0.00000209,0.0000
 0183,-0.00000312,0.00000328,0.00000287,0.00000202,-0.00000333,0.000013
 35,-0.00002188,0.00003459,0.00001285,0.00000512,0.00002336,0.00002325,
 -0.00000244,0.00002788,0.00001180,-0.00000402,0.00001379,0.00000046,-0
 .00002152,0.00001469,0.00002081,0.00001058,0.00000142,-0.00000138,-0.0
 0000162,0.00000126,-0.00000144,0.00000018,0.00000193,-0.00005360,-0.00
 003011,0.00003404,-0.00002815,-0.00000369,-0.00001618,0.00000596,-0.00
 000474,0.00000091,-0.00000020,0.00000178,0.,0.00000099,0.00000115,0.00
 000097,-0.00001050,0.00000343,-0.00000258,0.00000293,-0.00000228,0.000
 00144,0.00000125,0.00000059,-0.00000038,-0.00000039,0.00000174,0.00000
 122,0.00000932,0.00001078,-0.00001047,0.00000015,0.00000118,0.00000194
 ,-0.00000213,0.00000025,0.00000210,0.00000127,-0.00000198,0.00000060,0
 .00072626,0.00021147,-0.00071435,-0.00002182,0.00007256,0.00015937,-0.
 00012118,0.00011615,-0.00040859,0.00004109,0.00015330,-0.00008299,-0.0
 0004011,-0.00013093,0.00004662,-0.00002371,0.00000387,0.00005119,0.000
 00158,0.00000024,0.00001373,0.00005719,0.00001144,0.00001909,-0.000008
 53,-0.00000262,0.00000844,0.00001225,0.00000013,0.00000540,0.00001564,
 -0.00012473,0.00006298,0.00041268,0.00000613,0.00012719,-0.00010451,-0
 .00013882,0.00006068,-0.00154039,0.00041087,-0.00040130,-0.00004232,0.
 00005734,0.00003637,-0.00001212,-0.00002830,0.00002196,0.00000802,-0.0
 0000303,-0.00000314,-0.00002881,0.00001145,-0.00000008,-0.00003040,0.0
 0000946,0.00001332,-0.00092587,0.00056343,0.00006465,0.00024910,-0.000
 08095,-0.00010327,0.00034164,-0.00050507,0.00024580,0.00014198,-0.0003
 1364,0.00011872,-0.00032775,0.00044065,0.00021524,0.00032172,0.0004462
 9,0.00049537,0.00103541,0.00064882,0.00101202,-0.00006899,0.00005083,-
 0.00006518,0.00418123,0.01024390,0.00147255,-0.00055883,0.00013324,-0.
 00026346,0.00104871,-0.00057666,-0.00094170,-0.00031231,0.00052903,-0.
 00045153,0.00007301,0.00007500,-0.00005706,-0.00002376,-0.00002680,0.0
 0001626,0.00000086,-0.00002147,0.00008063,0.00001594,0.00000690,-0.000
 02597,-0.00029757,-0.00031053,0.00104473,0.00001598,-0.00075746,-0.000
 68298,0.00020137,0.00085138,-0.00001505,0.00015006,-0.00010323,0.00015
 617,0.00004746,-0.00004285,-0.00002486,-0.00002080,-0.00002266,0.00003
 666,-0.00002253,0.00000985,-0.00000045,0.00000447,0.00001041,0.0000056
 8,0.00001889,-0.00001320,-0.00000050,0.00000078,0.00000144,-0.00000021
 ,-0.00000719,0.00000059,0.00000414,-0.00000049,0.00000126,-0.00000085,
 -0.00000119,-0.00000195,-0.00001438,0.00000095,0.00000141,0.00000093,-
 0.00000050,-0.00000119,0.00000385,0.00000109,-0.00000090,0.00000082,-0
 .00003694,0.00006328,-0.00010822,0.00005529,0.00004291,0.00010736,-0.0
 0002080,-0.00001464,-0.00001197,0.00000116,-0.00001645,-0.00000197,-0.
 00001841,-0.00000639,0.00000830,0.00001123,0.00000681,0.00001071,0.000
 01398,-0.00000739,-0.00008254,0.00000642,0.00001054,0.00001465,-0.0000
 0247,-0.00000691,0.00000710,-0.00000577,-0.00000456,-0.00000166,0.0003
 6642,-0.00038838,-0.00074673,0.00000397,0.00022081,0.00014085,-0.00016
 916,0.00011137,0.00018384,0.00003587,0.00005680,0.00046134,0.03085834,
 0.07856552,-0.14418070,0.02405710,0.01538796,-0.07505682,-0.04029253,-
 0.14281996,0.23461851,0.00001382,-0.00002307,-0.00003648,0.00008140,0.
 00005666,-0.00002235,0.00011313,0.00010241,-0.00000205,0.00002055,-0.0
 0001515,0.00002476,0.00007277,-0.00001212,0.00002341,0.00000557,0.0000
 0669,0.00000122,0.00001528,-0.00001552,-0.00002637,-0.00002151,0.00000
 439,0.00000500,-0.00002830,-0.00001099,-0.00000247,-0.00000517,-0.0000
 1564,-0.00001981,-0.00008850,-0.00005903,-0.00000036,-0.00007869,-0.00
 007376,-0.00004291,-0.00006380,-0.00004305,0.00004738,-0.00006118,0.00
 002562,0.00003862,-0.00006025,0.00003068,-0.00000928,0.00025932,0.0000
 4727,0.00005942,-0.00006392,0.00002209,-0.00001916,-0.00005613,-0.0000
 5021,-0.00005191,-0.00032708,-0.00007905,-0.00018007,0.00003628,-0.000
 00125,-0.00002346,-0.00000430,0.00002235,-0.00000619,0.00000449,0.0000
 0077,0.00000057,-0.00000898,-0.00000916,0.00000924,0.00005879,-0.00001
 544,-0.00001375,-0.00000595,0.00000261,-0.00000344,-0.00001286,-0.0000
 0554,0.00000186,-0.00000251,0.00000300,0.00000250,0.00001887,-0.000012
 83,-0.00000231,0.00001003,0.00000067,-0.00000694,0.00000257,-0.0000078
 6,0.00001934,-0.00001379,0.00000798,-0.00000418,0.00012484,-0.00002955
 ,0.00006381,0.00010537,-0.00017585,-0.00007074,0.00068005,-0.00046163,
 0.00058276,-0.00000949,-0.00017638,0.00000075,0.00000763,-0.00016077,-
 0.00001790,0.00002470,0.00001557,-0.00002476,0.00000004,0.00004761,-0.
 00000659,0.00000051,-0.00008035,-0.00003666,0.00002761,0.00000290,-0.0
 0000903,-0.00000582,0.00003173,-0.00000860,-0.00024943,0.00042351,0.00
 001786,-0.00160517,-0.00021146,-0.00016959,-0.00020109,0.00016573,-0.0
 0036264,-0.00039969,0.00023978,-0.00025188,0.00005303,0.00022675,-0.00
 005075,0.00005410,-0.00004418,0.00004694,-0.00000481,0.00001608,-0.000
 01242,-0.00001997,0.00000348,-0.00000945,-0.00009014,0.00007021,-0.000
 04824,0.00338437,-0.00146545,-0.00163702,-0.00079190,0.00009484,0.0011
 1671,-0.00116237,0.00113126,-0.00017523,-0.00185553,-0.00115917,0.0016
 8600,-0.00088935,-0.00026120,-0.00011493,-0.00136331,-0.00471781,-0.00
 547205,-0.00030292,-0.00130386,0.00035802,0.00019945,0.00018277,-0.000
 07795,-0.04520016,0.02009663,-0.00939176,0.00066259,0.00062402,-0.0004
 9877,-0.00124624,0.00166917,0.00239160,-0.00026423,-0.00062537,-0.0018
 2060,-0.00003640,0.00004288,0.00028946,-0.00004340,0.00001160,-0.00005
 967,0.00001800,0.00002787,-0.00001989,0.00001534,0.00001723,0.00009584
 ,0.00025997,-0.00028402,0.00034517,0.00006717,-0.00023905,-0.00005129,
 0.00009082,0.00018874,0.00021035,0.00001358,0.00008805,-0.00008314,-0.
 00002805,-0.00011195,0.00010250,-0.00000290,-0.00001482,-0.00000216,-0
 .00001590,0.00001532,-0.00002277,0.00000957,0.00001808,0.00000084,0.00
 005946,-0.00006028,0.00001593,-0.00000822,0.00000393,-0.00000861,-0.00
 001223,0.00000417,0.00000462,-0.00000434,0.00001388,0.00000202,0.00000
 119,0.00003632,0.00003261,-0.00000801,-0.00000669,-0.00000352,0.000004
 54,-0.00000132,-0.00000131,0.00000448,-0.00000276,-0.00000384,0.000342
 65,0.00008307,0.00031882,-0.00022622,-0.00028654,-0.00023373,0.0000747
 6,0.00016425,-0.00009039,0.00001747,0.00001950,0.00000044,0.00004775,0
 .00004640,-0.00003057,-0.00003855,-0.00004453,-0.00002385,-0.00004814,
 0.00005426,0.00023297,-0.00003047,-0.00004001,-0.00004747,0.00001565,0
 .00000747,-0.00000102,0.00002944,0.00001721,0.00000300,-0.00082456,0.0
 0192653,0.00165776,-0.00005882,-0.00085003,-0.00030107,0.00060773,-0.0
 0051746,-0.00042726,-0.00003934,-0.00036762,-0.00083190,-0.22793626,0.
 06084258,-0.03689248,-0.02329674,0.03515516,0.02353612,0.00381824,0.02
 400766,-0.01939641,0.29768809,0.00000062,-0.00001057,-0.00000438,0.000
 00761,-0.00000218,0.00000354,0.00000993,-0.00001108,0.00000914,0.00001
 096,-0.00001506,0.00000557,0.00000041,-0.00000837,0.00000219,-0.000000
 22,0.00000541,-0.00000004,0.00000342,-0.00000352,-0.00000354,-0.000000
 38,0.00000178,0.00000007,-0.00000070,0.00000263,-0.00000071,0.00000042
 ,-0.00000012,0.00000054,-0.00001017,0.00001648,-0.00001056,-0.00000646
 ,0.00000580,-0.00000364,-0.00000831,0.00000698,-0.00000244,-0.00000224
 ,0.00001096,0.00000354,0.00000099,0.00001944,-0.00000181,-0.00001325,-
 0.00000453,-0.00000249,0.00000018,0.00000118,-0.00000125,0.00000404,0.
 00000348,0.00000406,0.00002124,0.00002567,-0.00000064,0.00001052,-0.00
 000455,-0.00000070,-0.00000175,-0.00000082,-0.00000085,-0.00000331,0.0
 0000202,0.00000162,0.00000051,0.00000030,-0.00000065,0.00000208,-0.000
 00450,-0.00000180,-0.00000126,0.00000045,-0.00000072,0.00000061,0.0000
 0161,0.00000008,-0.00000088,0.00000058,0.00000209,-0.00000788,-0.00001
 262,-0.00000197,-0.00000008,0.00000112,0.00000259,0.00000088,-0.000000
 53,-0.00000138,0.00000014,0.00000091,0.00000011,-0.00025782,-0.0000641
 4,0.00016038,0.00002570,-0.00008978,-0.00005925,0.00006473,-0.00008701
 ,0.00012074,-0.00003516,-0.00009014,0.00000539,-0.00000953,0.00002037,
 -0.00002505,0.00001114,-0.00000570,-0.00001783,-0.00000163,0.00001177,
 -0.00000557,-0.00001872,-0.00002057,0.00000173,-0.00000226,0.00000651,
 0.00000204,0.00000053,-0.00000307,0.00000656,-0.00001957,0.00010677,0.
 00000302,-0.00020469,0.00008073,-0.00000955,0.00000091,0.00011830,-0.0
 0001524,0.00053036,-0.00005990,0.00018039,0.00004512,-0.00001629,0.000
 02569,-0.00000784,0.00001346,-0.00002313,-0.00000393,0.00000609,0.0000
 0152,0.00001049,-0.00000483,0.00000151,0.00003009,-0.00000702,0.000016
 52,0.00055404,-0.00057400,-0.00019211,-0.00014789,0.00010999,0.0001617
 6,-0.00014892,0.00033715,-0.00005323,-0.00068807,-0.00091204,0.0002324
 7,-0.00076541,0.00014442,0.00034453,0.00026517,-0.00027217,-0.00115738
 ,0.00031332,0.00099679,0.00043191,-0.00003396,0.00005616,0.00007836,-0
 .00867582,0.01001524,-0.00161524,-0.00045302,0.00014413,-0.00000422,-0
 .00072432,-0.00133512,-0.00231298,-0.00120318,0.00016366,0.00082209,-0
 .00001420,-0.00003682,0.00000748,0.00000567,0.00001047,-0.00000620,0.0
 0000305,0.00000003,-0.00003007,-0.00000056,0.00000424,0.00001889,-0.00
 032253,-0.00004003,-0.00057729,-0.00014810,0.00039617,0.00013379,-0.00
 009310,-0.00015845,-0.00005499,-0.00001626,0.00001469,-0.00000535,-0.0
 0001616,0.00002836,-0.00001419,0.00000197,0.00000583,-0.00001434,0.000
 01711,-0.00000602,0.00000650,-0.00000299,0.00000668,-0.00000204,-0.000
 01649,0.00001041,-0.00000356,0.00000161,-0.00000127,0.00000295,0.00000
 403,-0.00000120,-0.00000246,0.00000148,-0.00000031,-0.00000033,0.00000
 290,-0.00000447,0.00000187,-0.00000055,-0.00000034,0.00000005,0.000000
 43,0.00000029,-0.00000070,-0.00000164,0.00000181,-0.00000077,0.0000452
 3,-0.00003762,0.00004644,-0.00004450,-0.00002370,-0.00005104,0.0000200
 6,0.00001097,-0.00000016,-0.00000165,0.00001110,0.00000144,0.00001078,
 0.00000238,-0.00000262,-0.00000798,-0.00000551,-0.00000655,0.00000208,
 0.00000097,0.00003988,-0.00000609,-0.00000641,-0.00000768,0.00000365,0
 .00000203,-0.00000221,0.00000280,0.00000725,0.00000162,0.00023829,0.00
 028608,0.00039990,-0.00004751,-0.00010004,-0.00004939,-0.00005257,-0.0
 0007246,-0.00009674,-0.00007412,-0.00001661,-0.00017603,0.06692077,-0.
 10275425,0.01285926,0.04299625,-0.02557926,-0.01928618,0.03613891,-0.0
 3645995,0.03695250,-0.13401763,0.15568678,0.00000292,-0.00000861,-0.00
 001574,0.00001876,0.00001894,-0.00001169,0.00002707,0.00002867,-0.0000
 1143,0.00000255,-0.00000261,0.00000356,0.00001739,-0.00000357,0.000003
 12,0.00000193,0.00000084,0.00000036,0.00000439,-0.00000427,-0.00000791
 ,-0.00000457,0.00000136,0.00000212,-0.00000697,-0.00000301,0.00000017,
 -0.00000029,-0.00000352,-0.00000618,-0.00002251,-0.00001955,0.00000985
 ,-0.00001828,-0.00001681,-0.00000347,-0.00001148,-0.00001247,0.0000264
 2,-0.00001247,0.00000859,0.00001743,-0.00001534,0.00000598,0.00000272,
 0.00007061,0.00001456,0.00001393,-0.00001678,0.00000536,-0.00000481,-0
 .00001387,-0.00001163,-0.00001129,-0.00009542,-0.00002247,-0.00003537,
 0.00000072,-0.00000344,-0.00001504,0.00000084,0.00000463,-0.00000168,0
 .00000043,0.00000157,0.00000064,-0.00000238,-0.00000212,0.00000303,0.0
 0001235,-0.00000411,-0.00000551,-0.00000085,-0.00000010,-0.00000046,-0
 .00000288,-0.00000080,0.00000031,-0.00000112,0.00000180,0.00000181,0.0
 0000580,-0.00000321,-0.00000528,0.00000265,0.00000097,-0.00000018,0.00
 000014,-0.00000212,0.00000534,-0.00000299,0.00000160,-0.00000084,0.000
 15256,0.00003150,-0.00013003,0.00002422,-0.00005000,0.00001380,0.00016
 493,-0.00011559,0.00007485,-0.00000048,-0.00002982,-0.00002336,-0.0000
 0779,-0.00006525,0.00000029,0.00000265,0.00000249,0.00000199,0.0000011
 7,0.00001360,-0.00000032,0.00001003,-0.00002215,-0.00000367,0.00000472
 ,0.00000210,0.00000060,0.00000161,0.00000707,0.00000076,-0.00006875,0.
 00010778,0.00002423,-0.00044527,-0.00007160,-0.00001592,-0.00007631,0.
 00002782,-0.00007263,-0.00037248,0.00011562,-0.00010662,0.00000741,0.0
 0006406,0.00000712,0.00000895,-0.00001450,0.00000923,0.00000005,0.0000
 0492,-0.00000375,-0.00001095,0.00000250,-0.00000157,-0.00002358,0.0000
 1818,-0.00000164,0.00082420,-0.00037928,-0.00057073,-0.00019289,0.0000
 1031,0.00036624,-0.00026407,0.00028316,0.00001796,-0.00097619,0.000338
 06,0.00050754,-0.00022803,-0.00007546,0.00001167,-0.00101659,-0.002120
 25,-0.00189414,-0.00008048,0.00039919,0.00013350,0.00000168,0.00001877
 ,0.00005322,-0.01304537,0.00485743,0.00860995,-0.00024305,-0.00004933,
 0.00011769,-0.00017582,-0.00007665,-0.00061302,-0.00087146,0.00011497,
 -0.00001021,0.00000671,0.00001838,0.00004653,-0.00001645,-0.00000109,-
 0.00001175,0.00000609,-0.00000123,0.00000890,0.00001170,0.00000877,0.0
 0001789,0.00021957,-0.00010526,0.00038253,0.00012773,-0.00025218,-0.00
 010189,0.00007611,0.00012551,0.00005840,0.00001625,0.00000780,0.000009
 46,0.00000544,-0.00002995,0.00001092,-0.00000530,-0.00000753,0.0000075
 4,-0.00000692,0.00000462,-0.00000384,0.00000370,0.00000757,0.00000069,
 0.00001648,-0.00001570,0.00000225,-0.00000116,0.00000107,-0.00000122,-
 0.00000440,0.00000067,0.00000198,-0.00000083,0.00000355,0.00000003,0.0
 0000035,0.00000796,0.00000339,-0.00000194,-0.00000137,-0.00000066,0.00
 000116,-0.00000088,0.00000107,0.00000133,-0.00000066,-0.00000097,0.000
 08240,0.00003233,0.00006376,-0.00005263,-0.00006528,-0.00003067,0.0000
 1929,0.00004342,-0.00003035,0.00000581,0.00000187,-0.00000191,0.000007
 55,0.00001265,-0.00000639,-0.00000823,-0.00001088,-0.00000406,-0.00000
 438,0.00000869,0.00003817,-0.00000899,-0.00000783,-0.00000859,0.000005
 00,-0.00000085,0.00000251,0.00000653,0.00000738,0.00000077,-0.00004391
 ,0.00058953,0.00034614,-0.00005221,-0.00024342,-0.00003411,0.00009256,
 -0.00014816,-0.00010237,-0.00002811,-0.00010252,-0.00020455,-0.0343332
 4,0.01009721,-0.07940918,0.03507642,-0.02559025,0.00358864,-0.03019162
 ,0.03946910,-0.01675988,0.04592716,-0.02718311,0.08566382\\0.00000101,
 -0.00000043,0.00000280,0.00000117,-0.00000002,0.00000194,0.00000003,0.
 00000014,0.00000186,-0.00000069,-0.00000014,0.00000196,0.00000004,-0.0
 0000012,0.00000203,0.00000067,-0.00000035,0.00000182,0.00000120,0.,0.0
 0000149,0.00000072,-0.00000034,0.00000343,-0.00000101,-0.00000069,0.00
 000258,-0.00000003,-0.00000030,0.00000145,-0.00000065,-0.00000152,0.00
 000278,0.00000066,-0.00000031,0.00000274,0.00000147,-0.00000002,0.0000
 0247,0.00000149,-0.00000031,0.00000257,-0.00000026,-0.00000039,0.00000
 249,-0.00000154,-0.00000028,0.00000121,-0.00000161,-0.00000043,0.00000
 187,-0.00000189,-0.00000056,0.00000150,-0.00000095,-0.00000048,0.00000
 029,0.00000240,0.00000023,0.00000209,0.00000218,0.00000062,0.00000152,
 0.00000254,0.00000023,0.00000199,0.00000295,0.00000025,0.00000235,0.00
 000150,-0.00000006,0.00000307,0.00000089,-0.00000027,0.00000330,0.0000
 0173,-0.00000027,0.00000362,0.00000200,-0.00000007,0.00000294,-0.00000
 039,-0.00000032,0.00000199,0.00000030,-0.00000004,0.00000186,-0.000001
 01,-0.00000060,0.00000153,-0.00000074,-0.00000055,0.00000246,-0.000000
 17,0.00000019,-0.00000169,-0.00000079,0.00000002,-0.00000075,-0.000000
 26,0.00000068,-0.00000011,0.00000004,-0.00000023,-0.00000058,-0.000000
 83,0.00000011,-0.00000143,0.00000009,0.00000008,0.00000040,-0.00000125
 ,0.00000002,-0.00000009,0.00000005,0.00000042,-0.00000157,0.00000076,0
 .00000022,-0.00000058,-0.00000099,-0.00000009,-0.00000089,0.00000006,-
 0.00000020,0.00000044,0.00000072,-0.00000049,-0.00000006,-0.00000052,-
 0.00000111,-0.00000087,-0.00000119,-0.00000001,-0.00000202,-0.00000026
 ,0.00000028,-0.00000154,-0.00000017,-0.00000009,0.00000001,-0.00000001
 ,-0.00000002,-0.00000014,0.00000048,-0.00000010,0.00000066,-0.00000081
 ,-0.00000023,0.00000067,0.00000161,0.00000011,-0.00000044,0.00000229,0
 .00000048,-0.00000066,0.00000101,0.00000011,-0.00000076,0.00000094,0.0
 0000035,-0.00000179,0.00000096,0.00000058,-0.00000136,0.00000093,0.000
 00061,-0.00000225,0.00000016,0.00000040,-0.00000231,-0.00000015,0.0000
 0021,-0.00000129,0.00000095,0.00000052,-0.00000307,0.00000152,0.000000
 47,-0.00000220,0.00000035,0.00000060,-0.00000314,0.00000003,0.00000050
 ,-0.00000354,-0.00000017,-0.00000143,-0.00000269,-0.00000183,-0.000000
 03,-0.00000057,-0.00000161,-0.00000013,-0.00000175,-0.00000175,0.00000
 034,-0.00000128,-0.00000081,0.00000034,-0.00000281,-0.00000027,0.00000
 027,-0.00000295,-0.00000052,0.00000025,-0.00000262,-0.00000126,0.00000
 021,-0.00000325,-0.00000096,0.00000009,-0.00000207,-0.00000132,0.00000
 007,-0.00000237,-0.00000140,-0.00000001,-0.00000159,-0.00000074,0.0000
 0019,-0.00000242,-0.00000101,-0.00000049,0.00000095,-0.00000172,-0.000
 00051,0.00000119,-0.00000076,-0.00000025,0.00000154,-0.00000119,-0.000
 00021,0.00000059,-0.00000037,-0.00000051,0.00000288,-0.00000034,-0.000
 00059,0.00000359,-0.00000094,-0.00000054,0.00000274,-0.00000011,-0.000
 00042,0.00000251,0.00000082,0.00000074,0.00000249,-0.00000158,0.000002
 55,-0.00000255,0.00000107,0.00000003,0.00000036,0.00000042,0.00000021,
 -0.00000021,0.00000071,-0.00000006,0.00000049,-0.00000002,-0.00000005,
 0.00000090,-0.00000087,-0.00000076,-0.00000008,-0.00000117,-0.00000033
 ,0.00000032,-0.00000204,-0.00000039,-0.00000027,-0.00000100,-0.0000001
 1,-0.00000060,-0.00000019,0.00000038,-0.00000230,0.00000007,0.00000021
 ,-0.00000182,-0.00000034,0.00000040,-0.00000308,-0.00000094,0.00000014
 ,-0.00000210,0.00000127,0.00000097,-0.00000383,0.00000163,0.00000087,-
 0.00000368,0.00000042,0.00000071,-0.00000422,0.00000114,0.00000083,-0.
 00000442\\\@


          EVOLUTION
 IN THE BEGINNING GOD MADE MAN.
 HE WORKED THE DIRT WITH HIS HANDS.
 THEN GOD DECIDED TO GIVE MAN SCIENCE,
 MAN SHOULD BE USEFUL (LIKE AN APPLIANCE.)
 BUT SOON MAN'S KNOWLEDGE GREW TOO GREAT,
 TO THE HEADING SCIENCE HE COULDN'T RELATE
 SO GOD SAID "LETS HAVE DIFFERENT FIELDS,
 WE'LL DIVIDE THEM UP, SEE WHAT IT YIELDS."
 ENTER PHYSICS, CHEMISTRY, BIO
 THEY SPRANG UP AROUND THE NILE.
 BUT CHEMISTRY SURPASSED THE REST
 FAR AND AWAY IT WAS THE BEST.
 EXPERIMENT WAS GOD'S DECREE
 EXPERIMENT DID CHEMISTS WITH LOTS OF GLEE
 BUT SOON THEIR TESTS BEGAN TO BOG,
 THEY FOUND THEMSELVES DEEP IN A FOG.
 "GIVE US SOME HELP" THEY CRIED TO GOD.
 GOD LOOKED AROUND, THEN GAVE THE NOD.
 ENTER EINSTEIN, HEISENBERG, BOHR,
 REACTION PATHS WERE CLEAR ONCE MORE.
 WITH THEORISTS GOD SEND DIRECTION
 AND THEN HE STOPPED, HE'D MADE PERFECTION.
          -- THOMAS A. HOLME, 1981
 Job cpu time:       4 days 13 hours  2 minutes 11.7 seconds.
 Elapsed time:       0 days  3 hours 44 minutes 20.0 seconds.
 File lengths (MBytes):  RWF=   9748 Int=      0 D2E=      0 Chk=    107 Scr=      1
 Normal termination of Gaussian 16 at Mon May 20 07:53:49 2019.
