 Entering Gaussian System, Link 0=g16
 Input=clay_new-glu_gluC6-CCDL-Na2_1Me2O-bisCF3-ts-b3lyp_d3bj-631gd-pcm_thf.gjf
 Output=clay_new-glu_gluC6-CCDL-Na2_1Me2O-bisCF3-ts-b3lyp_d3bj-631gd-pcm_thf.out
 Initial command:
 /home/ekwan/sw/g16/l1.exe "/scratch/users/ekwan/clay_new-glu_gluC6-CCDL-Na2_1Me2O-bisCF3-ts-b3lyp_d3bj-631gd-pcm_thf/Gau-61846.inp" -scrdir="/scratch/users/ekwan/clay_new-glu_gluC6-CCDL-Na2_1Me2O-bisCF3-ts-b3lyp_d3bj-631gd-pcm_thf/"
 Entering Link 1 = /home/ekwan/sw/g16/l1.exe PID=     61854.
  
 Copyright (c) 1988,1990,1992,1993,1995,1998,2003,2009,2016,
            Gaussian, Inc.  All Rights Reserved.
  
 This is part of the Gaussian(R) 16 program.  It is based on
 the Gaussian(R) 09 system (copyright 2009, Gaussian, Inc.),
 the Gaussian(R) 03 system (copyright 2003, Gaussian, Inc.),
 the Gaussian(R) 98 system (copyright 1998, Gaussian, Inc.),
 the Gaussian(R) 94 system (copyright 1995, Gaussian, Inc.),
 the Gaussian 92(TM) system (copyright 1992, Gaussian, Inc.),
 the Gaussian 90(TM) system (copyright 1990, Gaussian, Inc.),
 the Gaussian 88(TM) system (copyright 1988, Gaussian, Inc.),
 the Gaussian 86(TM) system (copyright 1986, Carnegie Mellon
 University), and the Gaussian 82(TM) system (copyright 1983,
 Carnegie Mellon University). Gaussian is a federally registered
 trademark of Gaussian, Inc.
  
 This software contains proprietary and confidential information,
 including trade secrets, belonging to Gaussian, Inc.
  
 This software is provided under written license and may be
 used, copied, transmitted, or stored only in accord with that
 written license.
  
 The following legend is applicable only to US Government
 contracts under FAR:
  
                    RESTRICTED RIGHTS LEGEND
  
 Use, reproduction and disclosure by the US Government is
 subject to restrictions as set forth in subparagraphs (a)
 and (c) of the Commercial Computer Software - Restricted
 Rights clause in FAR 52.227-19.
  
 Gaussian, Inc.
 340 Quinnipiac St., Bldg. 40, Wallingford CT 06492
  
  
 ---------------------------------------------------------------
 Warning -- This program may not be used in any manner that
 competes with the business of Gaussian, Inc. or will provide
 assistance to any competitor of Gaussian, Inc.  The licensee
 of this program is prohibited from giving any competitor of
 Gaussian, Inc. access to this program.  By using this program,
 the user acknowledges that Gaussian, Inc. is engaged in the
 business of creating and licensing software in the field of
 computational chemistry and represents and warrants to the
 licensee that it is not a competitor of Gaussian, Inc. and that
 it will not use this program in any manner prohibited above.
 ---------------------------------------------------------------
  

 Cite this work as:
 Gaussian 16, Revision A.03,
 M. J. Frisch, G. W. Trucks, H. B. Schlegel, G. E. Scuseria, 
 M. A. Robb, J. R. Cheeseman, G. Scalmani, V. Barone, 
 G. A. Petersson, H. Nakatsuji, X. Li, M. Caricato, A. V. Marenich, 
 J. Bloino, B. G. Janesko, R. Gomperts, B. Mennucci, H. P. Hratchian, 
 J. V. Ortiz, A. F. Izmaylov, J. L. Sonnenberg, D. Williams-Young, 
 F. Ding, F. Lipparini, F. Egidi, J. Goings, B. Peng, A. Petrone, 
 T. Henderson, D. Ranasinghe, V. G. Zakrzewski, J. Gao, N. Rega, 
 G. Zheng, W. Liang, M. Hada, M. Ehara, K. Toyota, R. Fukuda, 
 J. Hasegawa, M. Ishida, T. Nakajima, Y. Honda, O. Kitao, H. Nakai, 
 T. Vreven, K. Throssell, J. A. Montgomery, Jr., J. E. Peralta, 
 F. Ogliaro, M. J. Bearpark, J. J. Heyd, E. N. Brothers, K. N. Kudin, 
 V. N. Staroverov, T. A. Keith, R. Kobayashi, J. Normand, 
 K. Raghavachari, A. P. Rendell, J. C. Burant, S. S. Iyengar, 
 J. Tomasi, M. Cossi, J. M. Millam, M. Klene, C. Adamo, R. Cammi, 
 J. W. Ochterski, R. L. Martin, K. Morokuma, O. Farkas, 
 J. B. Foresman, and D. J. Fox, Gaussian, Inc., Wallingford CT, 2016.
 
 ******************************************
 Gaussian 16:  AS64L-G16RevA.03 25-Dec-2016
                20-May-2019 
 ******************************************
 %mem=48GB
 %nprocshared=32
 Will use up to   32 processors via shared memory.
 ----------------------------------------------------------------------
 #p opt=(ts,noeigentest,calcfc,maxstep=3,modredundant,recalc=30) freq=n
 oraman b3lyp 6-31g* pop=none scrf=(solvent=tetrahydrofuran,pcm) empiri
 caldispersion=gd3bj
 ----------------------------------------------------------------------
 1/5=1,8=3,10=4,11=1,18=120,26=3,38=1,71=30/1,3;
 2/9=110,12=2,17=6,18=5,40=1/2;
 3/5=1,6=6,7=1,11=2,25=1,30=1,70=2201,71=2,72=20,74=-5,124=41,140=1/1,2,3;
 4//1;
 5/5=2,38=5,53=20/2;
 8/6=4,10=90,11=11/1;
 11/6=1,8=1,9=11,15=111,16=1/1,2,10;
 10/6=1,13=1/2;
 7/10=1,18=20,25=1/1,2,3,16;
 1/5=1,8=3,10=4,11=1,18=20,26=3,71=30/3(2);
 2/9=110/2;
 99//99;
 2/9=110/2;
 3/5=1,6=6,7=1,11=2,25=1,30=1,70=2205,71=1,72=20,74=-5,124=41/1,2,3;
 4/5=5,16=3,69=1/1;
 5/5=2,38=5,53=20/2;
 7//1,2,3,16;
 1/5=1,8=3,11=1,18=20,26=3,71=30/3(-5);
 2/9=110/2;
 99/9=1/99;
 Leave Link    1 at Mon May 20 13:49:07 2019, MaxMem=  6442450944 cpu:               5.3 elap:               0.2
 (Enter /home/ekwan/sw/g16/l101.exe)
 -----
 title
 -----
 Symbolic Z-matrix:
 Charge =  0 Multiplicity = 1
 C                    -4.61837  -0.43592   0.8344 
 C                    -3.84537  -1.73965   1.02948 
 C                    -3.73677  -2.48984  -0.30504 
 C                    -3.72692  -0.42414  -1.56877 
 C                    -4.00161   0.38429  -0.29725 
 H                    -3.09791  -3.37797  -0.21876 
 H                    -2.82311  -1.49199   1.34816 
 H                    -5.65989  -0.66632   0.57745 
 H                    -4.68608  -0.64057  -2.05614 
 H                    -3.05306   0.7913    0.06465 
 O                    -3.06837  -1.67625  -1.25582 
 O                    -5.02206  -2.85826  -0.71732 
 O                    -4.48936  -2.51603   2.02703 
 O                    -4.56932   0.36837   2.00934 
 O                    -4.88302   1.446    -0.65419 
 C                    -2.78776   0.32265  -2.5367 
 H                    -3.31241   1.27312  -2.7748 
 H                    -2.80603  -0.26565  -3.48425 
 O                    -1.5166    0.49773  -2.04621 
 C                    -3.62535  -3.43432   2.67707 
 H                    -3.27231  -4.22392   1.99885 
 H                    -2.75088  -2.92355   3.10495 
 H                    -4.20152  -3.89759   3.48148 
 C                    -5.69352   0.22961   2.86551 
 H                    -6.62401   0.49655   2.34269 
 H                    -5.78186  -0.79039   3.25363 
 H                    -5.54264   0.92504   3.69576 
 C                    -4.44802   2.7305   -0.23013 
 H                    -4.32938   2.76912   0.85939 
 H                    -3.5003    3.01641  -0.70347 
 H                    -5.22465   3.43907  -0.53314 
 C                     1.62285   2.89518  -0.58004 
 C                     0.70069   1.73826  -0.96673 
 C                    -0.45758   1.63254  -0.02065 
 C                    -0.33911   3.94877   0.62166 
 C                     0.74986   4.14414  -0.43749 
 H                    -1.01913   0.7225    0.05392 
 H                     0.2077    1.95401  -1.92598 
 H                     2.11349   2.66019   0.37142 
 H                     0.12311   3.89032   1.61072 
 H                     0.27654   4.34438  -1.40428 
 O                    -1.0474    2.66844   0.46604 
 O                    -0.35994  -1.18816   1.1527 
 O                     1.33934   0.48289  -1.04495 
 O                     2.58236   3.08046  -1.60596 
 O                     1.51989   5.25997  -0.02001 
 C                    -1.39923   5.02756   0.62122 
 H                    -0.93211   5.96729   0.95019 
 H                    -2.18527   4.76417   1.34392 
 O                    -1.92785   5.146    -0.68301 
 S                     0.68108  -0.46579   1.94565 
 O                     0.69845  -0.7959    3.38136 
 O                     0.6474    1.02856   1.6987 
 C                     2.25737  -0.99437   1.26065 
 C                     2.31172  -2.12651   0.46065 
 C                     3.39862  -0.23411   1.50521 
 C                     3.525    -2.49113  -0.12436 
 H                     1.41287  -2.68836   0.24462 
 C                     4.60532  -0.61675   0.92222 
 H                     3.33812   0.66357   2.10914 
 C                     4.67732  -1.7436    0.0993 
 H                     5.61259  -2.02152  -0.36974 
 C                     1.84838   0.16669  -2.34603 
 H                     1.03263   0.1816   -3.07917 
 H                     2.62861   0.87176  -2.64004 
 H                     2.26271  -0.84029  -2.27093 
 C                     3.88308   3.41375  -1.12653 
 H                     3.87504   4.36141  -0.57798 
 H                     4.27816   2.6252   -0.47386 
 H                     4.52276   3.5058   -2.00726 
 C                     1.56026   6.31757  -0.97527 
 H                     2.04227   5.99024  -1.90433 
 H                     0.55078   6.68412  -1.20193 
 H                     2.14616   7.12159  -0.5249 
 C                    -2.97014   6.10549  -0.76021 
 H                    -3.31156   6.12172  -1.79697 
 H                    -3.81075   5.83392  -0.10591 
 H                    -2.61177   7.10606  -0.47827 
 C                    -5.02448  -3.68636  -1.87474 
 H                    -6.05803  -3.99766  -2.03792 
 H                    -4.66193  -3.14554  -2.75649 
 H                    -4.39655  -4.57573  -1.71957 
 Na                   -0.73597  -1.40317  -1.15231 
 O                    -0.36919  -3.69292  -0.84521 
 C                    -0.51035  -4.41782   0.37392 
 H                     0.38977  -5.01427   0.57191 
 H                    -0.64747  -3.6787    1.16379 
 H                    -1.3805   -5.08657   0.32883 
 C                    -0.20579  -4.54936  -1.97126 
 H                    -1.08045  -5.20239  -2.09082 
 H                    -0.10808  -3.90996  -2.85095 
 H                     0.69636  -5.16236  -1.8652 
 C                     3.52349  -3.6532   -1.07517 
 F                     2.9216   -4.74138  -0.53806 
 F                     4.76042  -4.01775  -1.45696 
 F                     2.8252   -3.35439  -2.20513 
 C                     5.84752   0.18298   1.20314 
 F                     6.7558    0.07102   0.21147 
 F                     6.4531   -0.21544   2.34398 
 F                     5.56801   1.50057   1.35071 
 
 Add virtual bond connecting atoms H37        and H10        Dist= 3.85D+00.
 Add virtual bond connecting atoms H37        and O19        Dist= 4.10D+00.
 Add virtual bond connecting atoms O53        and C34        Dist= 4.03D+00.
 Add virtual bond connecting atoms O84        and H58        Dist= 4.38D+00.
 Add virtual bond connecting atoms O84        and Na83       Dist= 4.42D+00.
 Add virtual bond connecting atoms H87        and H58        Dist= 4.66D+00.
 The following ModRedundant input section has been read:
 
 ITRead=  0  0  0  0  0  0  0  0  0  0  0  0  0  0  0  0  0  0  0  0
 ITRead=  0  0  0  0  0  0  0  0  0  0  0  0  0  0  0  0  0  0  0  0
 ITRead=  0  0  0  0  0  0  0  0  0  0  0  0  0  0  0  0  0  0  0  0
 ITRead=  0  0  0  0  0  0  0  0  0  0  0  0  0  0  0  0  0  0  0  0
 ITRead=  0  0  0  0  0  0  0  0  0  0  0  0  0  0  0  0  0  0  0  0
 MicOpt= -1 -1 -1 -1 -1 -1 -1 -1 -1 -1 -1 -1 -1 -1 -1 -1 -1 -1 -1 -1
 MicOpt= -1 -1 -1 -1 -1 -1 -1 -1 -1 -1 -1 -1 -1 -1 -1 -1 -1 -1 -1 -1
 MicOpt= -1 -1 -1 -1 -1 -1 -1 -1 -1 -1 -1 -1 -1 -1 -1 -1 -1 -1 -1 -1
 MicOpt= -1 -1 -1 -1 -1 -1 -1 -1 -1 -1 -1 -1 -1 -1 -1 -1 -1 -1 -1 -1
 MicOpt= -1 -1 -1 -1 -1 -1 -1 -1 -1 -1 -1 -1 -1 -1 -1 -1 -1 -1 -1 -1
 NAtoms=    100 NQM=      100 NQMF=       0 NMMI=      0 NMMIF=      0
                NMic=       0 NMicF=      0.
                    Isotopes and Nuclear Properties:
 (Nuclear quadrupole moments (NQMom) in fm**2, nuclear magnetic moments (NMagM)
  in nuclear magnetons)

  Atom         1           2           3           4           5           6           7           8           9          10
 IAtWgt=          12          12          12          12          12           1           1           1           1           1
 AtmWgt=  12.0000000  12.0000000  12.0000000  12.0000000  12.0000000   1.0078250   1.0078250   1.0078250   1.0078250   1.0078250
 NucSpn=           0           0           0           0           0           1           1           1           1           1
 AtZEff=   0.0000000   0.0000000   0.0000000   0.0000000   0.0000000   0.0000000   0.0000000   0.0000000   0.0000000   0.0000000
 NQMom=    0.0000000   0.0000000   0.0000000   0.0000000   0.0000000   0.0000000   0.0000000   0.0000000   0.0000000   0.0000000
 NMagM=    0.0000000   0.0000000   0.0000000   0.0000000   0.0000000   2.7928460   2.7928460   2.7928460   2.7928460   2.7928460
 AtZNuc=   6.0000000   6.0000000   6.0000000   6.0000000   6.0000000   1.0000000   1.0000000   1.0000000   1.0000000   1.0000000

  Atom        11          12          13          14          15          16          17          18          19          20
 IAtWgt=          16          16          16          16          16          12           1           1          16          12
 AtmWgt=  15.9949146  15.9949146  15.9949146  15.9949146  15.9949146  12.0000000   1.0078250   1.0078250  15.9949146  12.0000000
 NucSpn=           0           0           0           0           0           0           1           1           0           0
 AtZEff=   0.0000000   0.0000000   0.0000000   0.0000000   0.0000000   0.0000000   0.0000000   0.0000000   0.0000000   0.0000000
 NQMom=    0.0000000   0.0000000   0.0000000   0.0000000   0.0000000   0.0000000   0.0000000   0.0000000   0.0000000   0.0000000
 NMagM=    0.0000000   0.0000000   0.0000000   0.0000000   0.0000000   0.0000000   2.7928460   2.7928460   0.0000000   0.0000000
 AtZNuc=   8.0000000   8.0000000   8.0000000   8.0000000   8.0000000   6.0000000   1.0000000   1.0000000   8.0000000   6.0000000

  Atom        21          22          23          24          25          26          27          28          29          30
 IAtWgt=           1           1           1          12           1           1           1          12           1           1
 AtmWgt=   1.0078250   1.0078250   1.0078250  12.0000000   1.0078250   1.0078250   1.0078250  12.0000000   1.0078250   1.0078250
 NucSpn=           1           1           1           0           1           1           1           0           1           1
 AtZEff=   0.0000000   0.0000000   0.0000000   0.0000000   0.0000000   0.0000000   0.0000000   0.0000000   0.0000000   0.0000000
 NQMom=    0.0000000   0.0000000   0.0000000   0.0000000   0.0000000   0.0000000   0.0000000   0.0000000   0.0000000   0.0000000
 NMagM=    2.7928460   2.7928460   2.7928460   0.0000000   2.7928460   2.7928460   2.7928460   0.0000000   2.7928460   2.7928460
 AtZNuc=   1.0000000   1.0000000   1.0000000   6.0000000   1.0000000   1.0000000   1.0000000   6.0000000   1.0000000   1.0000000

  Atom        31          32          33          34          35          36          37          38          39          40
 IAtWgt=           1          12          12          12          12          12           1           1           1           1
 AtmWgt=   1.0078250  12.0000000  12.0000000  12.0000000  12.0000000  12.0000000   1.0078250   1.0078250   1.0078250   1.0078250
 NucSpn=           1           0           0           0           0           0           1           1           1           1
 AtZEff=   0.0000000   0.0000000   0.0000000   0.0000000   0.0000000   0.0000000   0.0000000   0.0000000   0.0000000   0.0000000
 NQMom=    0.0000000   0.0000000   0.0000000   0.0000000   0.0000000   0.0000000   0.0000000   0.0000000   0.0000000   0.0000000
 NMagM=    2.7928460   0.0000000   0.0000000   0.0000000   0.0000000   0.0000000   2.7928460   2.7928460   2.7928460   2.7928460
 AtZNuc=   1.0000000   6.0000000   6.0000000   6.0000000   6.0000000   6.0000000   1.0000000   1.0000000   1.0000000   1.0000000

  Atom        41          42          43          44          45          46          47          48          49          50
 IAtWgt=           1          16          16          16          16          16          12           1           1          16
 AtmWgt=   1.0078250  15.9949146  15.9949146  15.9949146  15.9949146  15.9949146  12.0000000   1.0078250   1.0078250  15.9949146
 NucSpn=           1           0           0           0           0           0           0           1           1           0
 AtZEff=   0.0000000   0.0000000   0.0000000   0.0000000   0.0000000   0.0000000   0.0000000   0.0000000   0.0000000   0.0000000
 NQMom=    0.0000000   0.0000000   0.0000000   0.0000000   0.0000000   0.0000000   0.0000000   0.0000000   0.0000000   0.0000000
 NMagM=    2.7928460   0.0000000   0.0000000   0.0000000   0.0000000   0.0000000   0.0000000   2.7928460   2.7928460   0.0000000
 AtZNuc=   1.0000000   8.0000000   8.0000000   8.0000000   8.0000000   8.0000000   6.0000000   1.0000000   1.0000000   8.0000000

  Atom        51          52          53          54          55          56          57          58          59          60
 IAtWgt=          32          16          16          12          12          12          12           1          12           1
 AtmWgt=  31.9720718  15.9949146  15.9949146  12.0000000  12.0000000  12.0000000  12.0000000   1.0078250  12.0000000   1.0078250
 NucSpn=           0           0           0           0           0           0           0           1           0           1
 AtZEff=   0.0000000   0.0000000   0.0000000   0.0000000   0.0000000   0.0000000   0.0000000   0.0000000   0.0000000   0.0000000
 NQMom=    0.0000000   0.0000000   0.0000000   0.0000000   0.0000000   0.0000000   0.0000000   0.0000000   0.0000000   0.0000000
 NMagM=    0.0000000   0.0000000   0.0000000   0.0000000   0.0000000   0.0000000   0.0000000   2.7928460   0.0000000   2.7928460
 AtZNuc=  16.0000000   8.0000000   8.0000000   6.0000000   6.0000000   6.0000000   6.0000000   1.0000000   6.0000000   1.0000000

  Atom        61          62          63          64          65          66          67          68          69          70
 IAtWgt=          12           1          12           1           1           1          12           1           1           1
 AtmWgt=  12.0000000   1.0078250  12.0000000   1.0078250   1.0078250   1.0078250  12.0000000   1.0078250   1.0078250   1.0078250
 NucSpn=           0           1           0           1           1           1           0           1           1           1
 AtZEff=   0.0000000   0.0000000   0.0000000   0.0000000   0.0000000   0.0000000   0.0000000   0.0000000   0.0000000   0.0000000
 NQMom=    0.0000000   0.0000000   0.0000000   0.0000000   0.0000000   0.0000000   0.0000000   0.0000000   0.0000000   0.0000000
 NMagM=    0.0000000   2.7928460   0.0000000   2.7928460   2.7928460   2.7928460   0.0000000   2.7928460   2.7928460   2.7928460
 AtZNuc=   6.0000000   1.0000000   6.0000000   1.0000000   1.0000000   1.0000000   6.0000000   1.0000000   1.0000000   1.0000000

  Atom        71          72          73          74          75          76          77          78          79          80
 IAtWgt=          12           1           1           1          12           1           1           1          12           1
 AtmWgt=  12.0000000   1.0078250   1.0078250   1.0078250  12.0000000   1.0078250   1.0078250   1.0078250  12.0000000   1.0078250
 NucSpn=           0           1           1           1           0           1           1           1           0           1
 AtZEff=   0.0000000   0.0000000   0.0000000   0.0000000   0.0000000   0.0000000   0.0000000   0.0000000   0.0000000   0.0000000
 NQMom=    0.0000000   0.0000000   0.0000000   0.0000000   0.0000000   0.0000000   0.0000000   0.0000000   0.0000000   0.0000000
 NMagM=    0.0000000   2.7928460   2.7928460   2.7928460   0.0000000   2.7928460   2.7928460   2.7928460   0.0000000   2.7928460
 AtZNuc=   6.0000000   1.0000000   1.0000000   1.0000000   6.0000000   1.0000000   1.0000000   1.0000000   6.0000000   1.0000000

  Atom        81          82          83          84          85          86          87          88          89          90
 IAtWgt=           1           1          23          16          12           1           1           1          12           1
 AtmWgt=   1.0078250   1.0078250  22.9897697  15.9949146  12.0000000   1.0078250   1.0078250   1.0078250  12.0000000   1.0078250
 NucSpn=           1           1           3           0           0           1           1           1           0           1
 AtZEff=   0.0000000   0.0000000   0.0000000   0.0000000   0.0000000   0.0000000   0.0000000   0.0000000   0.0000000   0.0000000
 NQMom=    0.0000000   0.0000000  10.4000000   0.0000000   0.0000000   0.0000000   0.0000000   0.0000000   0.0000000   0.0000000
 NMagM=    2.7928460   2.7928460   2.2175200   0.0000000   0.0000000   2.7928460   2.7928460   2.7928460   0.0000000   2.7928460
 AtZNuc=   1.0000000   1.0000000  11.0000000   8.0000000   6.0000000   1.0000000   1.0000000   1.0000000   6.0000000   1.0000000

  Atom        91          92          93          94          95          96          97          98          99         100
 IAtWgt=           1           1          12          19          19          19          12          19          19          19
 AtmWgt=   1.0078250   1.0078250  12.0000000  18.9984033  18.9984033  18.9984033  12.0000000  18.9984033  18.9984033  18.9984033
 NucSpn=           1           1           0           1           1           1           0           1           1           1
 AtZEff=   0.0000000   0.0000000   0.0000000   0.0000000   0.0000000   0.0000000   0.0000000   0.0000000   0.0000000   0.0000000
 NQMom=    0.0000000   0.0000000   0.0000000   0.0000000   0.0000000   0.0000000   0.0000000   0.0000000   0.0000000   0.0000000
 NMagM=    2.7928460   2.7928460   0.0000000   2.6288670   2.6288670   2.6288670   0.0000000   2.6288670   2.6288670   2.6288670
 AtZNuc=   1.0000000   1.0000000   6.0000000   9.0000000   9.0000000   9.0000000   6.0000000   9.0000000   9.0000000   9.0000000
 Leave Link  101 at Mon May 20 13:49:08 2019, MaxMem=  6442450944 cpu:              18.2 elap:               0.7
 (Enter /home/ekwan/sw/g16/l103.exe)

 GradGradGradGradGradGradGradGradGradGradGradGradGradGradGradGradGradGrad
 Berny optimization.
 Initialization pass.
                           ----------------------------
                           !    Initial Parameters    !
                           ! (Angstroms and Degrees)  !
 --------------------------                            --------------------------
 ! Name  Definition              Value          Derivative Info.                !
 --------------------------------------------------------------------------------
 ! R1    R(1,2)                  1.5282         calculate D2E/DX2 analytically  !
 ! R2    R(1,5)                  1.5277         calculate D2E/DX2 analytically  !
 ! R3    R(1,8)                  1.0972         calculate D2E/DX2 analytically  !
 ! R4    R(1,14)                 1.4247         calculate D2E/DX2 analytically  !
 ! R5    R(2,3)                  1.5348         calculate D2E/DX2 analytically  !
 ! R6    R(2,7)                  1.0991         calculate D2E/DX2 analytically  !
 ! R7    R(2,13)                 1.4187         calculate D2E/DX2 analytically  !
 ! R8    R(3,6)                  1.0974         calculate D2E/DX2 analytically  !
 ! R9    R(3,11)                 1.4187         calculate D2E/DX2 analytically  !
 ! R10   R(3,12)                 1.3992         calculate D2E/DX2 analytically  !
 ! R11   R(4,5)                  1.5316         calculate D2E/DX2 analytically  !
 ! R12   R(4,9)                  1.0974         calculate D2E/DX2 analytically  !
 ! R13   R(4,11)                 1.4489         calculate D2E/DX2 analytically  !
 ! R14   R(4,16)                 1.5416         calculate D2E/DX2 analytically  !
 ! R15   R(5,10)                 1.0938         calculate D2E/DX2 analytically  !
 ! R16   R(5,15)                 1.4253         calculate D2E/DX2 analytically  !
 ! R17   R(10,37)                2.0351         calculate D2E/DX2 analytically  !
 ! R18   R(12,79)                1.4232         calculate D2E/DX2 analytically  !
 ! R19   R(13,20)                1.4186         calculate D2E/DX2 analytically  !
 ! R20   R(14,24)                1.4199         calculate D2E/DX2 analytically  !
 ! R21   R(15,28)                1.4209         calculate D2E/DX2 analytically  !
 ! R22   R(16,17)                1.1115         calculate D2E/DX2 analytically  !
 ! R23   R(16,18)                1.1155         calculate D2E/DX2 analytically  !
 ! R24   R(16,19)                1.3737         calculate D2E/DX2 analytically  !
 ! R25   R(19,37)                2.1699         calculate D2E/DX2 analytically  !
 ! R26   R(19,83)                2.2409         calculate D2E/DX2 analytically  !
 ! R27   R(20,21)                1.0991         calculate D2E/DX2 analytically  !
 ! R28   R(20,22)                1.0994         calculate D2E/DX2 analytically  !
 ! R29   R(20,23)                1.0926         calculate D2E/DX2 analytically  !
 ! R30   R(24,25)                1.1002         calculate D2E/DX2 analytically  !
 ! R31   R(24,26)                1.0949         calculate D2E/DX2 analytically  !
 ! R32   R(24,27)                1.0935         calculate D2E/DX2 analytically  !
 ! R33   R(28,29)                1.0966         calculate D2E/DX2 analytically  !
 ! R34   R(28,30)                1.0973         calculate D2E/DX2 analytically  !
 ! R35   R(28,31)                1.0941         calculate D2E/DX2 analytically  !
 ! R36   R(32,33)                1.5292         calculate D2E/DX2 analytically  !
 ! R37   R(32,36)                1.5305         calculate D2E/DX2 analytically  !
 ! R38   R(32,39)                1.096          calculate D2E/DX2 analytically  !
 ! R39   R(32,45)                1.4169         calculate D2E/DX2 analytically  !
 ! R40   R(33,34)                1.4993         calculate D2E/DX2 analytically  !
 ! R41   R(33,38)                1.0999         calculate D2E/DX2 analytically  !
 ! R42   R(33,44)                1.4107         calculate D2E/DX2 analytically  !
 ! R43   R(34,37)                1.0719         calculate D2E/DX2 analytically  !
 ! R44   R(34,42)                1.2876         calculate D2E/DX2 analytically  !
 ! R45   R(34,53)                2.1312         calculate D2E/DX2 analytically  !
 ! R46   R(35,36)                1.5316         calculate D2E/DX2 analytically  !
 ! R47   R(35,40)                1.0933         calculate D2E/DX2 analytically  !
 ! R48   R(35,42)                1.4714         calculate D2E/DX2 analytically  !
 ! R49   R(35,47)                1.5125         calculate D2E/DX2 analytically  !
 ! R50   R(36,41)                1.0949         calculate D2E/DX2 analytically  !
 ! R51   R(36,46)                1.4186         calculate D2E/DX2 analytically  !
 ! R52   R(43,51)                1.4948         calculate D2E/DX2 analytically  !
 ! R53   R(44,63)                1.4325         calculate D2E/DX2 analytically  !
 ! R54   R(45,67)                1.4258         calculate D2E/DX2 analytically  !
 ! R55   R(46,71)                1.4257         calculate D2E/DX2 analytically  !
 ! R56   R(47,48)                1.0998         calculate D2E/DX2 analytically  !
 ! R57   R(47,49)                1.0998         calculate D2E/DX2 analytically  !
 ! R58   R(47,50)                1.4123         calculate D2E/DX2 analytically  !
 ! R59   R(50,75)                1.4188         calculate D2E/DX2 analytically  !
 ! R60   R(51,52)                1.4733         calculate D2E/DX2 analytically  !
 ! R61   R(51,53)                1.515          calculate D2E/DX2 analytically  !
 ! R62   R(51,54)                1.7981         calculate D2E/DX2 analytically  !
 ! R63   R(54,55)                1.3873         calculate D2E/DX2 analytically  !
 ! R64   R(54,56)                1.3929         calculate D2E/DX2 analytically  !
 ! R65   R(55,57)                1.3954         calculate D2E/DX2 analytically  !
 ! R66   R(55,58)                1.0818         calculate D2E/DX2 analytically  !
 ! R67   R(56,59)                1.3937         calculate D2E/DX2 analytically  !
 ! R68   R(56,60)                1.0836         calculate D2E/DX2 analytically  !
 ! R69   R(57,61)                1.3916         calculate D2E/DX2 analytically  !
 ! R70   R(57,93)                1.5015         calculate D2E/DX2 analytically  !
 ! R71   R(58,84)                2.3179         calculate D2E/DX2 analytically  !
 ! R72   R(58,87)                2.4639         calculate D2E/DX2 analytically  !
 ! R73   R(59,61)                1.3972         calculate D2E/DX2 analytically  !
 ! R74   R(59,97)                1.5038         calculate D2E/DX2 analytically  !
 ! R75   R(61,62)                1.0826         calculate D2E/DX2 analytically  !
 ! R76   R(63,64)                1.0969         calculate D2E/DX2 analytically  !
 ! R77   R(63,65)                1.0919         calculate D2E/DX2 analytically  !
 ! R78   R(63,66)                1.0915         calculate D2E/DX2 analytically  !
 ! R79   R(67,68)                1.095          calculate D2E/DX2 analytically  !
 ! R80   R(67,69)                1.0972         calculate D2E/DX2 analytically  !
 ! R81   R(67,70)                1.0924         calculate D2E/DX2 analytically  !
 ! R82   R(71,72)                1.0966         calculate D2E/DX2 analytically  !
 ! R83   R(71,73)                1.0976         calculate D2E/DX2 analytically  !
 ! R84   R(71,74)                1.092          calculate D2E/DX2 analytically  !
 ! R85   R(75,76)                1.0917         calculate D2E/DX2 analytically  !
 ! R86   R(75,77)                1.0993         calculate D2E/DX2 analytically  !
 ! R87   R(75,78)                1.0996         calculate D2E/DX2 analytically  !
 ! R88   R(79,80)                1.0917         calculate D2E/DX2 analytically  !
 ! R89   R(79,81)                1.0961         calculate D2E/DX2 analytically  !
 ! R90   R(79,82)                1.0997         calculate D2E/DX2 analytically  !
 ! R91   R(83,84)                2.3392         calculate D2E/DX2 analytically  !
 ! R92   R(84,85)                1.4254         calculate D2E/DX2 analytically  !
 ! R93   R(84,89)                1.4241         calculate D2E/DX2 analytically  !
 ! R94   R(85,86)                1.0978         calculate D2E/DX2 analytically  !
 ! R95   R(85,87)                1.0904         calculate D2E/DX2 analytically  !
 ! R96   R(85,88)                1.0984         calculate D2E/DX2 analytically  !
 ! R97   R(89,90)                1.0981         calculate D2E/DX2 analytically  !
 ! R98   R(89,91)                1.0919         calculate D2E/DX2 analytically  !
 ! R99   R(89,92)                1.0959         calculate D2E/DX2 analytically  !
 ! R100  R(93,94)                1.3546         calculate D2E/DX2 analytically  !
 ! R101  R(93,95)                1.3449         calculate D2E/DX2 analytically  !
 ! R102  R(93,96)                1.3615         calculate D2E/DX2 analytically  !
 ! R103  R(97,98)                1.3494         calculate D2E/DX2 analytically  !
 ! R104  R(97,99)                1.3517         calculate D2E/DX2 analytically  !
 ! R105  R(97,100)               1.355          calculate D2E/DX2 analytically  !
 ! A1    A(2,1,5)              110.3893         calculate D2E/DX2 analytically  !
 ! A2    A(2,1,8)              109.3237         calculate D2E/DX2 analytically  !
 ! A3    A(2,1,14)             111.034          calculate D2E/DX2 analytically  !
 ! A4    A(5,1,8)              108.8147         calculate D2E/DX2 analytically  !
 ! A5    A(5,1,14)             107.092          calculate D2E/DX2 analytically  !
 ! A6    A(8,1,14)             110.1426         calculate D2E/DX2 analytically  !
 ! A7    A(1,2,3)              109.9865         calculate D2E/DX2 analytically  !
 ! A8    A(1,2,7)              108.3772         calculate D2E/DX2 analytically  !
 ! A9    A(1,2,13)             109.0893         calculate D2E/DX2 analytically  !
 ! A10   A(3,2,7)              107.2443         calculate D2E/DX2 analytically  !
 ! A11   A(3,2,13)             112.0882         calculate D2E/DX2 analytically  !
 ! A12   A(7,2,13)             109.9777         calculate D2E/DX2 analytically  !
 ! A13   A(2,3,6)              111.6173         calculate D2E/DX2 analytically  !
 ! A14   A(2,3,11)             109.6187         calculate D2E/DX2 analytically  !
 ! A15   A(2,3,12)             108.6577         calculate D2E/DX2 analytically  !
 ! A16   A(6,3,11)             104.0359         calculate D2E/DX2 analytically  !
 ! A17   A(6,3,12)             110.1717         calculate D2E/DX2 analytically  !
 ! A18   A(11,3,12)            112.7259         calculate D2E/DX2 analytically  !
 ! A19   A(5,4,9)              108.423          calculate D2E/DX2 analytically  !
 ! A20   A(5,4,11)             110.998          calculate D2E/DX2 analytically  !
 ! A21   A(5,4,16)             112.0131         calculate D2E/DX2 analytically  !
 ! A22   A(9,4,11)             108.8284         calculate D2E/DX2 analytically  !
 ! A23   A(9,4,16)             110.4351         calculate D2E/DX2 analytically  !
 ! A24   A(11,4,16)            106.1015         calculate D2E/DX2 analytically  !
 ! A25   A(1,5,4)              113.8283         calculate D2E/DX2 analytically  !
 ! A26   A(1,5,10)             107.7465         calculate D2E/DX2 analytically  !
 ! A27   A(1,5,15)             109.6204         calculate D2E/DX2 analytically  !
 ! A28   A(4,5,10)             108.3947         calculate D2E/DX2 analytically  !
 ! A29   A(4,5,15)             107.2284         calculate D2E/DX2 analytically  !
 ! A30   A(10,5,15)            109.9964         calculate D2E/DX2 analytically  !
 ! A31   A(5,10,37)            148.4718         calculate D2E/DX2 analytically  !
 ! A32   A(3,11,4)             115.2266         calculate D2E/DX2 analytically  !
 ! A33   A(3,12,79)            113.2295         calculate D2E/DX2 analytically  !
 ! A34   A(2,13,20)            113.5784         calculate D2E/DX2 analytically  !
 ! A35   A(1,14,24)            114.5093         calculate D2E/DX2 analytically  !
 ! A36   A(5,15,28)            114.1625         calculate D2E/DX2 analytically  !
 ! A37   A(4,16,17)            105.1407         calculate D2E/DX2 analytically  !
 ! A38   A(4,16,18)            105.5388         calculate D2E/DX2 analytically  !
 ! A39   A(4,16,19)            113.6583         calculate D2E/DX2 analytically  !
 ! A40   A(17,16,18)           105.1476         calculate D2E/DX2 analytically  !
 ! A41   A(17,16,19)           113.847          calculate D2E/DX2 analytically  !
 ! A42   A(18,16,19)           112.6853         calculate D2E/DX2 analytically  !
 ! A43   A(16,19,37)           124.814          calculate D2E/DX2 analytically  !
 ! A44   A(16,19,83)           110.8953         calculate D2E/DX2 analytically  !
 ! A45   A(37,19,83)            67.7865         calculate D2E/DX2 analytically  !
 ! A46   A(13,20,21)           112.205          calculate D2E/DX2 analytically  !
 ! A47   A(13,20,22)           111.2266         calculate D2E/DX2 analytically  !
 ! A48   A(13,20,23)           106.8982         calculate D2E/DX2 analytically  !
 ! A49   A(21,20,22)           108.5674         calculate D2E/DX2 analytically  !
 ! A50   A(21,20,23)           108.6083         calculate D2E/DX2 analytically  !
 ! A51   A(22,20,23)           109.2635         calculate D2E/DX2 analytically  !
 ! A52   A(14,24,25)           111.062          calculate D2E/DX2 analytically  !
 ! A53   A(14,24,26)           111.6329         calculate D2E/DX2 analytically  !
 ! A54   A(14,24,27)           106.6442         calculate D2E/DX2 analytically  !
 ! A55   A(25,24,26)           109.0412         calculate D2E/DX2 analytically  !
 ! A56   A(25,24,27)           108.8569         calculate D2E/DX2 analytically  !
 ! A57   A(26,24,27)           109.5386         calculate D2E/DX2 analytically  !
 ! A58   A(15,28,29)           111.1901         calculate D2E/DX2 analytically  !
 ! A59   A(15,28,30)           111.7915         calculate D2E/DX2 analytically  !
 ! A60   A(15,28,31)           106.5882         calculate D2E/DX2 analytically  !
 ! A61   A(29,28,30)           109.0242         calculate D2E/DX2 analytically  !
 ! A62   A(29,28,31)           109.2166         calculate D2E/DX2 analytically  !
 ! A63   A(30,28,31)           108.9577         calculate D2E/DX2 analytically  !
 ! A64   A(33,32,36)           107.2761         calculate D2E/DX2 analytically  !
 ! A65   A(33,32,39)           109.1034         calculate D2E/DX2 analytically  !
 ! A66   A(33,32,45)           108.9182         calculate D2E/DX2 analytically  !
 ! A67   A(36,32,39)           110.4546         calculate D2E/DX2 analytically  !
 ! A68   A(36,32,45)           110.3049         calculate D2E/DX2 analytically  !
 ! A69   A(39,32,45)           110.6989         calculate D2E/DX2 analytically  !
 ! A70   A(32,33,34)           111.0791         calculate D2E/DX2 analytically  !
 ! A71   A(32,33,38)           110.0251         calculate D2E/DX2 analytically  !
 ! A72   A(32,33,44)           114.4743         calculate D2E/DX2 analytically  !
 ! A73   A(34,33,38)           102.5859         calculate D2E/DX2 analytically  !
 ! A74   A(34,33,44)           108.7841         calculate D2E/DX2 analytically  !
 ! A75   A(38,33,44)           109.2157         calculate D2E/DX2 analytically  !
 ! A76   A(33,34,37)           120.5615         calculate D2E/DX2 analytically  !
 ! A77   A(33,34,42)           122.3907         calculate D2E/DX2 analytically  !
 ! A78   A(33,34,53)            97.3838         calculate D2E/DX2 analytically  !
 ! A79   A(37,34,42)           114.6296         calculate D2E/DX2 analytically  !
 ! A80   A(37,34,53)            88.5617         calculate D2E/DX2 analytically  !
 ! A81   A(42,34,53)            99.24           calculate D2E/DX2 analytically  !
 ! A82   A(36,35,40)           109.3794         calculate D2E/DX2 analytically  !
 ! A83   A(36,35,42)           112.3398         calculate D2E/DX2 analytically  !
 ! A84   A(36,35,47)           114.0267         calculate D2E/DX2 analytically  !
 ! A85   A(40,35,42)           104.6351         calculate D2E/DX2 analytically  !
 ! A86   A(40,35,47)           109.5559         calculate D2E/DX2 analytically  !
 ! A87   A(42,35,47)           106.4509         calculate D2E/DX2 analytically  !
 ! A88   A(32,36,35)           111.4615         calculate D2E/DX2 analytically  !
 ! A89   A(32,36,41)           108.2755         calculate D2E/DX2 analytically  !
 ! A90   A(32,36,46)           111.0809         calculate D2E/DX2 analytically  !
 ! A91   A(35,36,41)           109.062          calculate D2E/DX2 analytically  !
 ! A92   A(35,36,46)           106.4255         calculate D2E/DX2 analytically  !
 ! A93   A(41,36,46)           110.5277         calculate D2E/DX2 analytically  !
 ! A94   A(10,37,19)            77.2608         calculate D2E/DX2 analytically  !
 ! A95   A(10,37,34)           119.6846         calculate D2E/DX2 analytically  !
 ! A96   A(19,37,34)            98.0894         calculate D2E/DX2 analytically  !
 ! A97   A(34,42,35)           121.2995         calculate D2E/DX2 analytically  !
 ! A98   A(33,44,63)           114.0599         calculate D2E/DX2 analytically  !
 ! A99   A(32,45,67)           113.8851         calculate D2E/DX2 analytically  !
 ! A100  A(36,46,71)           113.6836         calculate D2E/DX2 analytically  !
 ! A101  A(35,47,48)           108.1592         calculate D2E/DX2 analytically  !
 ! A102  A(35,47,49)           109.2651         calculate D2E/DX2 analytically  !
 ! A103  A(35,47,50)           108.8103         calculate D2E/DX2 analytically  !
 ! A104  A(48,47,49)           108.1589         calculate D2E/DX2 analytically  !
 ! A105  A(48,47,50)           111.3192         calculate D2E/DX2 analytically  !
 ! A106  A(49,47,50)           111.065          calculate D2E/DX2 analytically  !
 ! A107  A(47,50,75)           112.454          calculate D2E/DX2 analytically  !
 ! A108  A(43,51,52)           114.6384         calculate D2E/DX2 analytically  !
 ! A109  A(43,51,53)           112.0075         calculate D2E/DX2 analytically  !
 ! A110  A(43,51,54)           105.448          calculate D2E/DX2 analytically  !
 ! A111  A(52,51,53)           112.3414         calculate D2E/DX2 analytically  !
 ! A112  A(52,51,54)           107.1597         calculate D2E/DX2 analytically  !
 ! A113  A(53,51,54)           104.3206         calculate D2E/DX2 analytically  !
 ! A114  A(34,53,51)           114.9971         calculate D2E/DX2 analytically  !
 ! A115  A(51,54,55)           119.5973         calculate D2E/DX2 analytically  !
 ! A116  A(51,54,56)           119.3995         calculate D2E/DX2 analytically  !
 ! A117  A(55,54,56)           120.9677         calculate D2E/DX2 analytically  !
 ! A118  A(54,55,57)           119.2776         calculate D2E/DX2 analytically  !
 ! A119  A(54,55,58)           120.4274         calculate D2E/DX2 analytically  !
 ! A120  A(57,55,58)           120.1981         calculate D2E/DX2 analytically  !
 ! A121  A(54,56,59)           119.0833         calculate D2E/DX2 analytically  !
 ! A122  A(54,56,60)           120.2821         calculate D2E/DX2 analytically  !
 ! A123  A(59,56,60)           120.5917         calculate D2E/DX2 analytically  !
 ! A124  A(55,57,61)           120.8108         calculate D2E/DX2 analytically  !
 ! A125  A(55,57,93)           117.8292         calculate D2E/DX2 analytically  !
 ! A126  A(61,57,93)           121.2208         calculate D2E/DX2 analytically  !
 ! A127  A(55,58,84)           163.2953         calculate D2E/DX2 analytically  !
 ! A128  A(55,58,87)           146.0025         calculate D2E/DX2 analytically  !
 ! A129  A(84,58,87)            50.0809         calculate D2E/DX2 analytically  !
 ! A130  A(56,59,61)           120.825          calculate D2E/DX2 analytically  !
 ! A131  A(56,59,97)           119.4087         calculate D2E/DX2 analytically  !
 ! A132  A(61,59,97)           119.7586         calculate D2E/DX2 analytically  !
 ! A133  A(57,61,59)           119.0261         calculate D2E/DX2 analytically  !
 ! A134  A(57,61,62)           120.5191         calculate D2E/DX2 analytically  !
 ! A135  A(59,61,62)           120.4477         calculate D2E/DX2 analytically  !
 ! A136  A(44,63,64)           109.8648         calculate D2E/DX2 analytically  !
 ! A137  A(44,63,65)           110.8512         calculate D2E/DX2 analytically  !
 ! A138  A(44,63,66)           106.0246         calculate D2E/DX2 analytically  !
 ! A139  A(64,63,65)           110.0389         calculate D2E/DX2 analytically  !
 ! A140  A(64,63,66)           109.9288         calculate D2E/DX2 analytically  !
 ! A141  A(65,63,66)           110.0598         calculate D2E/DX2 analytically  !
 ! A142  A(45,67,68)           111.3501         calculate D2E/DX2 analytically  !
 ! A143  A(45,67,69)           111.1319         calculate D2E/DX2 analytically  !
 ! A144  A(45,67,70)           106.4279         calculate D2E/DX2 analytically  !
 ! A145  A(68,67,69)           109.0641         calculate D2E/DX2 analytically  !
 ! A146  A(68,67,70)           109.5884         calculate D2E/DX2 analytically  !
 ! A147  A(69,67,70)           109.2257         calculate D2E/DX2 analytically  !
 ! A148  A(46,71,72)           111.0176         calculate D2E/DX2 analytically  !
 ! A149  A(46,71,73)           111.1027         calculate D2E/DX2 analytically  !
 ! A150  A(46,71,74)           106.5603         calculate D2E/DX2 analytically  !
 ! A151  A(72,71,73)           109.2063         calculate D2E/DX2 analytically  !
 ! A152  A(72,71,74)           109.471          calculate D2E/DX2 analytically  !
 ! A153  A(73,71,74)           109.4345         calculate D2E/DX2 analytically  !
 ! A154  A(50,75,76)           106.9474         calculate D2E/DX2 analytically  !
 ! A155  A(50,75,77)           111.2422         calculate D2E/DX2 analytically  !
 ! A156  A(50,75,78)           111.2234         calculate D2E/DX2 analytically  !
 ! A157  A(76,75,77)           109.2552         calculate D2E/DX2 analytically  !
 ! A158  A(76,75,78)           109.3846         calculate D2E/DX2 analytically  !
 ! A159  A(77,75,78)           108.748          calculate D2E/DX2 analytically  !
 ! A160  A(12,79,80)           106.8046         calculate D2E/DX2 analytically  !
 ! A161  A(12,79,81)           111.5044         calculate D2E/DX2 analytically  !
 ! A162  A(12,79,82)           110.7848         calculate D2E/DX2 analytically  !
 ! A163  A(80,79,81)           109.4877         calculate D2E/DX2 analytically  !
 ! A164  A(80,79,82)           109.3338         calculate D2E/DX2 analytically  !
 ! A165  A(81,79,82)           108.8852         calculate D2E/DX2 analytically  !
 ! A166  A(19,83,84)           159.6056         calculate D2E/DX2 analytically  !
 ! A167  A(58,84,83)            75.9979         calculate D2E/DX2 analytically  !
 ! A168  A(58,84,85)            83.9386         calculate D2E/DX2 analytically  !
 ! A169  A(58,84,89)           122.9692         calculate D2E/DX2 analytically  !
 ! A170  A(83,84,85)           126.4826         calculate D2E/DX2 analytically  !
 ! A171  A(83,84,89)           120.189          calculate D2E/DX2 analytically  !
 ! A172  A(85,84,89)           112.4453         calculate D2E/DX2 analytically  !
 ! A173  A(84,85,86)           110.4481         calculate D2E/DX2 analytically  !
 ! A174  A(84,85,87)           106.6959         calculate D2E/DX2 analytically  !
 ! A175  A(84,85,88)           110.6706         calculate D2E/DX2 analytically  !
 ! A176  A(86,85,87)           109.922          calculate D2E/DX2 analytically  !
 ! A177  A(86,85,88)           109.0365         calculate D2E/DX2 analytically  !
 ! A178  A(87,85,88)           110.049          calculate D2E/DX2 analytically  !
 ! A179  A(58,87,85)            84.0916         calculate D2E/DX2 analytically  !
 ! A180  A(84,89,90)           110.6304         calculate D2E/DX2 analytically  !
 ! A181  A(84,89,91)           107.1651         calculate D2E/DX2 analytically  !
 ! A182  A(84,89,92)           110.7523         calculate D2E/DX2 analytically  !
 ! A183  A(90,89,91)           109.3789         calculate D2E/DX2 analytically  !
 ! A184  A(90,89,92)           109.4884         calculate D2E/DX2 analytically  !
 ! A185  A(91,89,92)           109.3824         calculate D2E/DX2 analytically  !
 ! A186  A(57,93,94)           111.783          calculate D2E/DX2 analytically  !
 ! A187  A(57,93,95)           112.8703         calculate D2E/DX2 analytically  !
 ! A188  A(57,93,96)           110.8672         calculate D2E/DX2 analytically  !
 ! A189  A(94,93,95)           107.6672         calculate D2E/DX2 analytically  !
 ! A190  A(94,93,96)           106.1106         calculate D2E/DX2 analytically  !
 ! A191  A(95,93,96)           107.1935         calculate D2E/DX2 analytically  !
 ! A192  A(59,97,98)           111.9986         calculate D2E/DX2 analytically  !
 ! A193  A(59,97,99)           111.777          calculate D2E/DX2 analytically  !
 ! A194  A(59,97,100)          111.5352         calculate D2E/DX2 analytically  !
 ! A195  A(98,97,99)           107.1126         calculate D2E/DX2 analytically  !
 ! A196  A(98,97,100)          107.4311         calculate D2E/DX2 analytically  !
 ! A197  A(99,97,100)          106.686          calculate D2E/DX2 analytically  !
 ! D1    D(5,1,2,3)            -53.0657         calculate D2E/DX2 analytically  !
 ! D2    D(5,1,2,7)             63.8851         calculate D2E/DX2 analytically  !
 ! D3    D(5,1,2,13)          -176.3836         calculate D2E/DX2 analytically  !
 ! D4    D(8,1,2,3)             66.6001         calculate D2E/DX2 analytically  !
 ! D5    D(8,1,2,7)           -176.4491         calculate D2E/DX2 analytically  !
 ! D6    D(8,1,2,13)           -56.7178         calculate D2E/DX2 analytically  !
 ! D7    D(14,1,2,3)          -171.677          calculate D2E/DX2 analytically  !
 ! D8    D(14,1,2,7)           -54.7263         calculate D2E/DX2 analytically  !
 ! D9    D(14,1,2,13)           65.0051         calculate D2E/DX2 analytically  !
 ! D10   D(2,1,5,4)             47.8148         calculate D2E/DX2 analytically  !
 ! D11   D(2,1,5,10)           -72.4199         calculate D2E/DX2 analytically  !
 ! D12   D(2,1,5,15)           167.8928         calculate D2E/DX2 analytically  !
 ! D13   D(8,1,5,4)            -72.158          calculate D2E/DX2 analytically  !
 ! D14   D(8,1,5,10)           167.6073         calculate D2E/DX2 analytically  !
 ! D15   D(8,1,5,15)            47.92           calculate D2E/DX2 analytically  !
 ! D16   D(14,1,5,4)           168.8053         calculate D2E/DX2 analytically  !
 ! D17   D(14,1,5,10)           48.5705         calculate D2E/DX2 analytically  !
 ! D18   D(14,1,5,15)          -71.1168         calculate D2E/DX2 analytically  !
 ! D19   D(2,1,14,24)          -96.1679         calculate D2E/DX2 analytically  !
 ! D20   D(5,1,14,24)          143.2508         calculate D2E/DX2 analytically  !
 ! D21   D(8,1,14,24)           25.0753         calculate D2E/DX2 analytically  !
 ! D22   D(1,2,3,6)            174.0731         calculate D2E/DX2 analytically  !
 ! D23   D(1,2,3,11)            59.3515         calculate D2E/DX2 analytically  !
 ! D24   D(1,2,3,12)           -64.2382         calculate D2E/DX2 analytically  !
 ! D25   D(7,2,3,6)             56.4173         calculate D2E/DX2 analytically  !
 ! D26   D(7,2,3,11)           -58.3043         calculate D2E/DX2 analytically  !
 ! D27   D(7,2,3,12)           178.1061         calculate D2E/DX2 analytically  !
 ! D28   D(13,2,3,6)           -64.3823         calculate D2E/DX2 analytically  !
 ! D29   D(13,2,3,11)         -179.1039         calculate D2E/DX2 analytically  !
 ! D30   D(13,2,3,12)           57.3065         calculate D2E/DX2 analytically  !
 ! D31   D(1,2,13,20)         -155.4853         calculate D2E/DX2 analytically  !
 ! D32   D(3,2,13,20)           82.4566         calculate D2E/DX2 analytically  !
 ! D33   D(7,2,13,20)          -36.7486         calculate D2E/DX2 analytically  !
 ! D34   D(2,3,11,4)           -61.2502         calculate D2E/DX2 analytically  !
 ! D35   D(6,3,11,4)           179.2608         calculate D2E/DX2 analytically  !
 ! D36   D(12,3,11,4)           59.9154         calculate D2E/DX2 analytically  !
 ! D37   D(2,3,12,79)         -173.6406         calculate D2E/DX2 analytically  !
 ! D38   D(6,3,12,79)          -51.073          calculate D2E/DX2 analytically  !
 ! D39   D(11,3,12,79)          64.6483         calculate D2E/DX2 analytically  !
 ! D40   D(9,4,5,1)             72.7441         calculate D2E/DX2 analytically  !
 ! D41   D(9,4,5,10)          -167.3867         calculate D2E/DX2 analytically  !
 ! D42   D(9,4,5,15)           -48.6735         calculate D2E/DX2 analytically  !
 ! D43   D(11,4,5,1)           -46.7424         calculate D2E/DX2 analytically  !
 ! D44   D(11,4,5,10)           73.1268         calculate D2E/DX2 analytically  !
 ! D45   D(11,4,5,15)         -168.16           calculate D2E/DX2 analytically  !
 ! D46   D(16,4,5,1)          -165.1411         calculate D2E/DX2 analytically  !
 ! D47   D(16,4,5,10)          -45.272          calculate D2E/DX2 analytically  !
 ! D48   D(16,4,5,15)           73.4413         calculate D2E/DX2 analytically  !
 ! D49   D(5,4,11,3)            54.4614         calculate D2E/DX2 analytically  !
 ! D50   D(9,4,11,3)           -64.7823         calculate D2E/DX2 analytically  !
 ! D51   D(16,4,11,3)          176.377          calculate D2E/DX2 analytically  !
 ! D52   D(5,4,16,17)          -59.3594         calculate D2E/DX2 analytically  !
 ! D53   D(5,4,16,18)         -170.2271         calculate D2E/DX2 analytically  !
 ! D54   D(5,4,16,19)           65.7968         calculate D2E/DX2 analytically  !
 ! D55   D(9,4,16,17)           61.5987         calculate D2E/DX2 analytically  !
 ! D56   D(9,4,16,18)          -49.2689         calculate D2E/DX2 analytically  !
 ! D57   D(9,4,16,19)         -173.2451         calculate D2E/DX2 analytically  !
 ! D58   D(11,4,16,17)         179.3754         calculate D2E/DX2 analytically  !
 ! D59   D(11,4,16,18)          68.5078         calculate D2E/DX2 analytically  !
 ! D60   D(11,4,16,19)         -55.4684         calculate D2E/DX2 analytically  !
 ! D61   D(1,5,10,37)          105.0641         calculate D2E/DX2 analytically  !
 ! D62   D(4,5,10,37)          -18.54           calculate D2E/DX2 analytically  !
 ! D63   D(15,5,10,37)        -135.4873         calculate D2E/DX2 analytically  !
 ! D64   D(1,5,15,28)          106.9416         calculate D2E/DX2 analytically  !
 ! D65   D(4,5,15,28)         -129.0308         calculate D2E/DX2 analytically  !
 ! D66   D(10,5,15,28)         -11.3578         calculate D2E/DX2 analytically  !
 ! D67   D(5,10,37,19)          43.5568         calculate D2E/DX2 analytically  !
 ! D68   D(5,10,37,34)         135.6881         calculate D2E/DX2 analytically  !
 ! D69   D(3,12,79,80)         173.9547         calculate D2E/DX2 analytically  !
 ! D70   D(3,12,79,81)         -66.4711         calculate D2E/DX2 analytically  !
 ! D71   D(3,12,79,82)          54.9722         calculate D2E/DX2 analytically  !
 ! D72   D(2,13,20,21)         -66.5471         calculate D2E/DX2 analytically  !
 ! D73   D(2,13,20,22)          55.2899         calculate D2E/DX2 analytically  !
 ! D74   D(2,13,20,23)         174.4918         calculate D2E/DX2 analytically  !
 ! D75   D(1,14,24,25)         -59.3295         calculate D2E/DX2 analytically  !
 ! D76   D(1,14,24,26)          62.5966         calculate D2E/DX2 analytically  !
 ! D77   D(1,14,24,27)        -177.7943         calculate D2E/DX2 analytically  !
 ! D78   D(5,15,28,29)         -59.0557         calculate D2E/DX2 analytically  !
 ! D79   D(5,15,28,30)          63.0515         calculate D2E/DX2 analytically  !
 ! D80   D(5,15,28,31)        -177.991          calculate D2E/DX2 analytically  !
 ! D81   D(4,16,19,37)         -30.6538         calculate D2E/DX2 analytically  !
 ! D82   D(4,16,19,83)          46.2008         calculate D2E/DX2 analytically  !
 ! D83   D(17,16,19,37)         89.7059         calculate D2E/DX2 analytically  !
 ! D84   D(17,16,19,83)        166.5606         calculate D2E/DX2 analytically  !
 ! D85   D(18,16,19,37)       -150.6622         calculate D2E/DX2 analytically  !
 ! D86   D(18,16,19,83)        -73.8075         calculate D2E/DX2 analytically  !
 ! D87   D(16,19,37,10)         -8.1458         calculate D2E/DX2 analytically  !
 ! D88   D(16,19,37,34)       -126.8764         calculate D2E/DX2 analytically  !
 ! D89   D(83,19,37,10)       -108.8229         calculate D2E/DX2 analytically  !
 ! D90   D(83,19,37,34)        132.4465         calculate D2E/DX2 analytically  !
 ! D91   D(16,19,83,84)         34.8751         calculate D2E/DX2 analytically  !
 ! D92   D(37,19,83,84)        155.1529         calculate D2E/DX2 analytically  !
 ! D93   D(36,32,33,34)        -51.9864         calculate D2E/DX2 analytically  !
 ! D94   D(36,32,33,38)         60.9084         calculate D2E/DX2 analytically  !
 ! D95   D(36,32,33,44)       -175.6706         calculate D2E/DX2 analytically  !
 ! D96   D(39,32,33,34)         67.6848         calculate D2E/DX2 analytically  !
 ! D97   D(39,32,33,38)       -179.4205         calculate D2E/DX2 analytically  !
 ! D98   D(39,32,33,44)        -55.9994         calculate D2E/DX2 analytically  !
 ! D99   D(45,32,33,34)       -171.3766         calculate D2E/DX2 analytically  !
 ! D100  D(45,32,33,38)        -58.4818         calculate D2E/DX2 analytically  !
 ! D101  D(45,32,33,44)         64.9392         calculate D2E/DX2 analytically  !
 ! D102  D(33,32,36,35)         58.8983         calculate D2E/DX2 analytically  !
 ! D103  D(33,32,36,41)        -61.0615         calculate D2E/DX2 analytically  !
 ! D104  D(33,32,36,46)        177.3994         calculate D2E/DX2 analytically  !
 ! D105  D(39,32,36,35)        -59.9047         calculate D2E/DX2 analytically  !
 ! D106  D(39,32,36,41)       -179.8645         calculate D2E/DX2 analytically  !
 ! D107  D(39,32,36,46)         58.5964         calculate D2E/DX2 analytically  !
 ! D108  D(45,32,36,35)        177.3951         calculate D2E/DX2 analytically  !
 ! D109  D(45,32,36,41)         57.4352         calculate D2E/DX2 analytically  !
 ! D110  D(45,32,36,46)        -64.1038         calculate D2E/DX2 analytically  !
 ! D111  D(33,32,45,67)       -141.9098         calculate D2E/DX2 analytically  !
 ! D112  D(36,32,45,67)        100.6031         calculate D2E/DX2 analytically  !
 ! D113  D(39,32,45,67)        -21.9539         calculate D2E/DX2 analytically  !
 ! D114  D(32,33,34,37)       -160.578          calculate D2E/DX2 analytically  !
 ! D115  D(32,33,34,42)         38.0232         calculate D2E/DX2 analytically  !
 ! D116  D(32,33,34,53)        -67.8767         calculate D2E/DX2 analytically  !
 ! D117  D(38,33,34,37)         81.9004         calculate D2E/DX2 analytically  !
 ! D118  D(38,33,34,42)        -79.4984         calculate D2E/DX2 analytically  !
 ! D119  D(38,33,34,53)        174.6017         calculate D2E/DX2 analytically  !
 ! D120  D(44,33,34,37)        -33.703          calculate D2E/DX2 analytically  !
 ! D121  D(44,33,34,42)        164.8982         calculate D2E/DX2 analytically  !
 ! D122  D(44,33,34,53)         58.9984         calculate D2E/DX2 analytically  !
 ! D123  D(32,33,44,63)        -90.9301         calculate D2E/DX2 analytically  !
 ! D124  D(34,33,44,63)        144.1654         calculate D2E/DX2 analytically  !
 ! D125  D(38,33,44,63)         32.9246         calculate D2E/DX2 analytically  !
 ! D126  D(33,34,37,10)       -134.1685         calculate D2E/DX2 analytically  !
 ! D127  D(33,34,37,19)        -54.2679         calculate D2E/DX2 analytically  !
 ! D128  D(42,34,37,10)         28.5955         calculate D2E/DX2 analytically  !
 ! D129  D(42,34,37,19)        108.4961         calculate D2E/DX2 analytically  !
 ! D130  D(53,34,37,10)        128.1035         calculate D2E/DX2 analytically  !
 ! D131  D(53,34,37,19)       -151.9959         calculate D2E/DX2 analytically  !
 ! D132  D(33,34,42,35)        -26.6644         calculate D2E/DX2 analytically  !
 ! D133  D(37,34,42,35)        170.9229         calculate D2E/DX2 analytically  !
 ! D134  D(53,34,42,35)         78.2515         calculate D2E/DX2 analytically  !
 ! D135  D(33,34,53,51)        -96.4474         calculate D2E/DX2 analytically  !
 ! D136  D(37,34,53,51)         24.1914         calculate D2E/DX2 analytically  !
 ! D137  D(42,34,53,51)        138.9172         calculate D2E/DX2 analytically  !
 ! D138  D(40,35,36,32)         68.4881         calculate D2E/DX2 analytically  !
 ! D139  D(40,35,36,41)       -172.0174         calculate D2E/DX2 analytically  !
 ! D140  D(40,35,36,46)        -52.7652         calculate D2E/DX2 analytically  !
 ! D141  D(42,35,36,32)        -47.2412         calculate D2E/DX2 analytically  !
 ! D142  D(42,35,36,41)         72.2533         calculate D2E/DX2 analytically  !
 ! D143  D(42,35,36,46)       -168.4946         calculate D2E/DX2 analytically  !
 ! D144  D(47,35,36,32)       -168.4669         calculate D2E/DX2 analytically  !
 ! D145  D(47,35,36,41)        -48.9724         calculate D2E/DX2 analytically  !
 ! D146  D(47,35,36,46)         70.2797         calculate D2E/DX2 analytically  !
 ! D147  D(36,35,42,34)         30.3626         calculate D2E/DX2 analytically  !
 ! D148  D(40,35,42,34)        -88.198          calculate D2E/DX2 analytically  !
 ! D149  D(47,35,42,34)        155.8368         calculate D2E/DX2 analytically  !
 ! D150  D(36,35,47,48)        -67.5777         calculate D2E/DX2 analytically  !
 ! D151  D(36,35,47,49)        174.9006         calculate D2E/DX2 analytically  !
 ! D152  D(36,35,47,50)         53.4821         calculate D2E/DX2 analytically  !
 ! D153  D(40,35,47,48)         55.3712         calculate D2E/DX2 analytically  !
 ! D154  D(40,35,47,49)        -62.1504         calculate D2E/DX2 analytically  !
 ! D155  D(40,35,47,50)        176.4311         calculate D2E/DX2 analytically  !
 ! D156  D(42,35,47,48)        167.9816         calculate D2E/DX2 analytically  !
 ! D157  D(42,35,47,49)         50.4599         calculate D2E/DX2 analytically  !
 ! D158  D(42,35,47,50)        -70.9586         calculate D2E/DX2 analytically  !
 ! D159  D(32,36,46,71)        116.5786         calculate D2E/DX2 analytically  !
 ! D160  D(35,36,46,71)       -121.9251         calculate D2E/DX2 analytically  !
 ! D161  D(41,36,46,71)         -3.6338         calculate D2E/DX2 analytically  !
 ! D162  D(33,44,63,64)        -58.3781         calculate D2E/DX2 analytically  !
 ! D163  D(33,44,63,65)         63.4576         calculate D2E/DX2 analytically  !
 ! D164  D(33,44,63,66)       -177.1182         calculate D2E/DX2 analytically  !
 ! D165  D(32,45,67,68)        -61.8371         calculate D2E/DX2 analytically  !
 ! D166  D(32,45,67,69)         59.9698         calculate D2E/DX2 analytically  !
 ! D167  D(32,45,67,70)        178.787          calculate D2E/DX2 analytically  !
 ! D168  D(36,46,71,72)        -62.8879         calculate D2E/DX2 analytically  !
 ! D169  D(36,46,71,73)         58.8494         calculate D2E/DX2 analytically  !
 ! D170  D(36,46,71,74)        177.9824         calculate D2E/DX2 analytically  !
 ! D171  D(35,47,50,75)        177.7152         calculate D2E/DX2 analytically  !
 ! D172  D(48,47,50,75)        -63.1828         calculate D2E/DX2 analytically  !
 ! D173  D(49,47,50,75)         57.4027         calculate D2E/DX2 analytically  !
 ! D174  D(47,50,75,76)       -179.856          calculate D2E/DX2 analytically  !
 ! D175  D(47,50,75,77)        -60.625          calculate D2E/DX2 analytically  !
 ! D176  D(47,50,75,78)         60.7666         calculate D2E/DX2 analytically  !
 ! D177  D(43,51,53,34)        -15.312          calculate D2E/DX2 analytically  !
 ! D178  D(52,51,53,34)       -146.0237         calculate D2E/DX2 analytically  !
 ! D179  D(54,51,53,34)         98.2468         calculate D2E/DX2 analytically  !
 ! D180  D(43,51,54,55)        -16.2668         calculate D2E/DX2 analytically  !
 ! D181  D(43,51,54,56)        161.5883         calculate D2E/DX2 analytically  !
 ! D182  D(52,51,54,55)        106.2806         calculate D2E/DX2 analytically  !
 ! D183  D(52,51,54,56)        -75.8643         calculate D2E/DX2 analytically  !
 ! D184  D(53,51,54,55)       -134.4172         calculate D2E/DX2 analytically  !
 ! D185  D(53,51,54,56)         43.4379         calculate D2E/DX2 analytically  !
 ! D186  D(51,54,55,57)        176.6757         calculate D2E/DX2 analytically  !
 ! D187  D(51,54,55,58)          0.2469         calculate D2E/DX2 analytically  !
 ! D188  D(56,54,55,57)         -1.145          calculate D2E/DX2 analytically  !
 ! D189  D(56,54,55,58)       -177.5738         calculate D2E/DX2 analytically  !
 ! D190  D(51,54,56,59)       -177.1692         calculate D2E/DX2 analytically  !
 ! D191  D(51,54,56,60)          0.4642         calculate D2E/DX2 analytically  !
 ! D192  D(55,54,56,59)          0.6557         calculate D2E/DX2 analytically  !
 ! D193  D(55,54,56,60)        178.2891         calculate D2E/DX2 analytically  !
 ! D194  D(54,55,57,61)          0.7968         calculate D2E/DX2 analytically  !
 ! D195  D(54,55,57,93)       -174.9656         calculate D2E/DX2 analytically  !
 ! D196  D(58,55,57,61)        177.234          calculate D2E/DX2 analytically  !
 ! D197  D(58,55,57,93)          1.4716         calculate D2E/DX2 analytically  !
 ! D198  D(54,55,58,84)        116.247          calculate D2E/DX2 analytically  !
 ! D199  D(54,55,58,87)        -45.198          calculate D2E/DX2 analytically  !
 ! D200  D(57,55,58,84)        -60.1489         calculate D2E/DX2 analytically  !
 ! D201  D(57,55,58,87)        138.4061         calculate D2E/DX2 analytically  !
 ! D202  D(54,56,59,61)          0.1927         calculate D2E/DX2 analytically  !
 ! D203  D(54,56,59,97)       -178.7979         calculate D2E/DX2 analytically  !
 ! D204  D(60,56,59,61)       -177.4331         calculate D2E/DX2 analytically  !
 ! D205  D(60,56,59,97)          3.5762         calculate D2E/DX2 analytically  !
 ! D206  D(55,57,61,59)          0.0301         calculate D2E/DX2 analytically  !
 ! D207  D(55,57,61,62)       -179.0061         calculate D2E/DX2 analytically  !
 ! D208  D(93,57,61,59)        175.6476         calculate D2E/DX2 analytically  !
 ! D209  D(93,57,61,62)         -3.3886         calculate D2E/DX2 analytically  !
 ! D210  D(55,57,93,94)        -51.0803         calculate D2E/DX2 analytically  !
 ! D211  D(55,57,93,95)       -172.6324         calculate D2E/DX2 analytically  !
 ! D212  D(55,57,93,96)         67.0936         calculate D2E/DX2 analytically  !
 ! D213  D(61,57,93,94)        133.1757         calculate D2E/DX2 analytically  !
 ! D214  D(61,57,93,95)         11.6235         calculate D2E/DX2 analytically  !
 ! D215  D(61,57,93,96)       -108.6505         calculate D2E/DX2 analytically  !
 ! D216  D(55,58,84,83)        -64.4811         calculate D2E/DX2 analytically  !
 ! D217  D(55,58,84,85)        165.5246         calculate D2E/DX2 analytically  !
 ! D218  D(55,58,84,89)         52.6468         calculate D2E/DX2 analytically  !
 ! D219  D(87,58,84,83)        102.1041         calculate D2E/DX2 analytically  !
 ! D220  D(87,58,84,85)        -27.8902         calculate D2E/DX2 analytically  !
 ! D221  D(87,58,84,89)       -140.768          calculate D2E/DX2 analytically  !
 ! D222  D(55,58,87,85)       -149.1655         calculate D2E/DX2 analytically  !
 ! D223  D(84,58,87,85)         37.684          calculate D2E/DX2 analytically  !
 ! D224  D(56,59,61,57)         -0.5291         calculate D2E/DX2 analytically  !
 ! D225  D(56,59,61,62)        178.5078         calculate D2E/DX2 analytically  !
 ! D226  D(97,59,61,57)        178.458          calculate D2E/DX2 analytically  !
 ! D227  D(97,59,61,62)         -2.5051         calculate D2E/DX2 analytically  !
 ! D228  D(56,59,97,98)       -154.4996         calculate D2E/DX2 analytically  !
 ! D229  D(56,59,97,99)         85.2921         calculate D2E/DX2 analytically  !
 ! D230  D(56,59,97,100)       -34.0518         calculate D2E/DX2 analytically  !
 ! D231  D(61,59,97,98)         26.4989         calculate D2E/DX2 analytically  !
 ! D232  D(61,59,97,99)        -93.7094         calculate D2E/DX2 analytically  !
 ! D233  D(61,59,97,100)       146.9467         calculate D2E/DX2 analytically  !
 ! D234  D(19,83,84,58)        158.4709         calculate D2E/DX2 analytically  !
 ! D235  D(19,83,84,85)       -130.1773         calculate D2E/DX2 analytically  !
 ! D236  D(19,83,84,89)         38.2202         calculate D2E/DX2 analytically  !
 ! D237  D(58,84,85,86)        -61.6235         calculate D2E/DX2 analytically  !
 ! D238  D(58,84,85,87)         57.8152         calculate D2E/DX2 analytically  !
 ! D239  D(58,84,85,88)        177.531          calculate D2E/DX2 analytically  !
 ! D240  D(83,84,85,86)       -129.2189         calculate D2E/DX2 analytically  !
 ! D241  D(83,84,85,87)         -9.7802         calculate D2E/DX2 analytically  !
 ! D242  D(83,84,85,88)        109.9356         calculate D2E/DX2 analytically  !
 ! D243  D(89,84,85,86)         61.6226         calculate D2E/DX2 analytically  !
 ! D244  D(89,84,85,87)       -178.9387         calculate D2E/DX2 analytically  !
 ! D245  D(89,84,85,88)        -59.2229         calculate D2E/DX2 analytically  !
 ! D246  D(58,84,89,90)        158.3153         calculate D2E/DX2 analytically  !
 ! D247  D(58,84,89,91)        -82.5171         calculate D2E/DX2 analytically  !
 ! D248  D(58,84,89,92)         36.7237         calculate D2E/DX2 analytically  !
 ! D249  D(83,84,89,90)       -109.1801         calculate D2E/DX2 analytically  !
 ! D250  D(83,84,89,91)          9.9875         calculate D2E/DX2 analytically  !
 ! D251  D(83,84,89,92)        129.2282         calculate D2E/DX2 analytically  !
 ! D252  D(85,84,89,90)         60.7434         calculate D2E/DX2 analytically  !
 ! D253  D(85,84,89,91)        179.911          calculate D2E/DX2 analytically  !
 ! D254  D(85,84,89,92)        -60.8483         calculate D2E/DX2 analytically  !
 ! D255  D(84,85,87,58)        -52.7465         calculate D2E/DX2 analytically  !
 ! D256  D(86,85,87,58)         67.0325         calculate D2E/DX2 analytically  !
 ! D257  D(88,85,87,58)       -172.8632         calculate D2E/DX2 analytically  !
 --------------------------------------------------------------------------------
 Trust Radius=3.00D-02 FncErr=1.00D-07 GrdErr=1.00D-06 EigMax=2.50D+02 EigMin=1.00D-04
 Number of steps in this run=    569 maximum allowed number of steps=    600.
 Search for a saddle point of order  1.
 Step   0 in ReCalcFC=30 IGetFC= 4 compute analytic Hessian.
 GradGradGradGradGradGradGradGradGradGradGradGradGradGradGradGradGradGrad

 Leave Link  103 at Mon May 20 13:49:08 2019, MaxMem=  6442450944 cpu:               4.7 elap:               0.2
 (Enter /home/ekwan/sw/g16/l202.exe)
 Stoichiometry    C30H47F6NaO15S
 Framework group  C1[X(C30H47F6NaO15S)]
 Deg. of freedom   294
 Full point group                 C1      NOp   1
 Largest Abelian subgroup         C1      NOp   1
 Largest concise Abelian subgroup C1      NOp   1
                         Standard orientation:                         
 ---------------------------------------------------------------------
 Center     Atomic      Atomic             Coordinates (Angstroms)
 Number     Number       Type             X           Y           Z
 ---------------------------------------------------------------------
      1          6           0       -4.618373   -0.435918    0.834395
      2          6           0       -3.845373   -1.739646    1.029483
      3          6           0       -3.736769   -2.489844   -0.305044
      4          6           0       -3.726921   -0.424139   -1.568773
      5          6           0       -4.001614    0.384288   -0.297249
      6          1           0       -3.097910   -3.377971   -0.218764
      7          1           0       -2.823106   -1.491992    1.348159
      8          1           0       -5.659890   -0.666323    0.577451
      9          1           0       -4.686081   -0.640568   -2.056139
     10          1           0       -3.053063    0.791296    0.064653
     11          8           0       -3.068372   -1.676251   -1.255819
     12          8           0       -5.022057   -2.858258   -0.717318
     13          8           0       -4.489355   -2.516034    2.027032
     14          8           0       -4.569319    0.368372    2.009336
     15          8           0       -4.883019    1.445996   -0.654194
     16          6           0       -2.787764    0.322648   -2.536700
     17          1           0       -3.312411    1.273120   -2.774797
     18          1           0       -2.806028   -0.265647   -3.484247
     19          8           0       -1.516596    0.497727   -2.046210
     20          6           0       -3.625353   -3.434322    2.677065
     21          1           0       -3.272307   -4.223918    1.998846
     22          1           0       -2.750877   -2.923549    3.104949
     23          1           0       -4.201523   -3.897589    3.481479
     24          6           0       -5.693522    0.229610    2.865505
     25          1           0       -6.624007    0.496551    2.342694
     26          1           0       -5.781858   -0.790394    3.253630
     27          1           0       -5.542639    0.925035    3.695763
     28          6           0       -4.448018    2.730497   -0.230128
     29          1           0       -4.329376    2.769117    0.859388
     30          1           0       -3.500301    3.016413   -0.703472
     31          1           0       -5.224652    3.439072   -0.533139
     32          6           0        1.622848    2.895184   -0.580039
     33          6           0        0.700686    1.738257   -0.966730
     34          6           0       -0.457580    1.632541   -0.020647
     35          6           0       -0.339110    3.948771    0.621662
     36          6           0        0.749855    4.144138   -0.437488
     37          1           0       -1.019130    0.722504    0.053916
     38          1           0        0.207698    1.954005   -1.925982
     39          1           0        2.113494    2.660192    0.371422
     40          1           0        0.123110    3.890316    1.610715
     41          1           0        0.276544    4.344383   -1.404276
     42          8           0       -1.047404    2.668439    0.466042
     43          8           0       -0.359935   -1.188162    1.152699
     44          8           0        1.339342    0.482886   -1.044952
     45          8           0        2.582359    3.080462   -1.605959
     46          8           0        1.519887    5.259968   -0.020010
     47          6           0       -1.399233    5.027562    0.621224
     48          1           0       -0.932108    5.967292    0.950192
     49          1           0       -2.185267    4.764167    1.343924
     50          8           0       -1.927847    5.146000   -0.683008
     51         16           0        0.681080   -0.465790    1.945652
     52          8           0        0.698452   -0.795900    3.381362
     53          8           0        0.647397    1.028565    1.698699
     54          6           0        2.257371   -0.994372    1.260646
     55          6           0        2.311717   -2.126510    0.460651
     56          6           0        3.398619   -0.234106    1.505212
     57          6           0        3.524998   -2.491133   -0.124363
     58          1           0        1.412874   -2.688363    0.244615
     59          6           0        4.605318   -0.616751    0.922218
     60          1           0        3.338117    0.663568    2.109136
     61          6           0        4.677322   -1.743601    0.099302
     62          1           0        5.612589   -2.021518   -0.369742
     63          6           0        1.848380    0.166685   -2.346033
     64          1           0        1.032633    0.181602   -3.079169
     65          1           0        2.628610    0.871755   -2.640035
     66          1           0        2.262712   -0.840286   -2.270928
     67          6           0        3.883079    3.413751   -1.126530
     68          1           0        3.875044    4.361411   -0.577979
     69          1           0        4.278157    2.625202   -0.473856
     70          1           0        4.522763    3.505798   -2.007261
     71          6           0        1.560259    6.317575   -0.975268
     72          1           0        2.042274    5.990242   -1.904325
     73          1           0        0.550779    6.684121   -1.201932
     74          1           0        2.146158    7.121592   -0.524897
     75          6           0       -2.970137    6.105490   -0.760206
     76          1           0       -3.311555    6.121725   -1.796967
     77          1           0       -3.810752    5.833924   -0.105914
     78          1           0       -2.611768    7.106061   -0.478274
     79          6           0       -5.024481   -3.686357   -1.874735
     80          1           0       -6.058030   -3.997658   -2.037920
     81          1           0       -4.661930   -3.145535   -2.756486
     82          1           0       -4.396546   -4.575729   -1.719570
     83         11           0       -0.735967   -1.403167   -1.152305
     84          8           0       -0.369185   -3.692921   -0.845213
     85          6           0       -0.510352   -4.417824    0.373921
     86          1           0        0.389766   -5.014266    0.571906
     87          1           0       -0.647469   -3.678702    1.163791
     88          1           0       -1.380497   -5.086574    0.328831
     89          6           0       -0.205788   -4.549362   -1.971259
     90          1           0       -1.080447   -5.202389   -2.090817
     91          1           0       -0.108077   -3.909955   -2.850951
     92          1           0        0.696362   -5.162361   -1.865202
     93          6           0        3.523492   -3.653199   -1.075165
     94          9           0        2.921596   -4.741375   -0.538056
     95          9           0        4.760418   -4.017750   -1.456962
     96          9           0        2.825197   -3.354385   -2.205126
     97          6           0        5.847517    0.182979    1.203143
     98          9           0        6.755799    0.071023    0.211472
     99          9           0        6.453095   -0.215435    2.343982
    100          9           0        5.568012    1.500569    1.350709
 ---------------------------------------------------------------------
 Rotational constants (GHZ):           0.0594609           0.0446773           0.0311288
 Leave Link  202 at Mon May 20 13:49:08 2019, MaxMem=  6442450944 cpu:               4.9 elap:               0.2
 (Enter /home/ekwan/sw/g16/l301.exe)
 Standard basis: 6-31G(d) (6D, 7F)
 Ernie: Thresh=  0.10000D-02 Tol=  0.10000D-05 Strict=F.
 There are   897 symmetry adapted cartesian basis functions of A   symmetry.
 There are   897 symmetry adapted basis functions of A   symmetry.
   897 basis functions,  1720 primitive gaussians,   897 cartesian basis functions
   214 alpha electrons      214 beta electrons
       nuclear repulsion energy      9631.6960930024 Hartrees.
 IExCor=  402 DFT=T Ex+Corr=B3LYP ExCW=0 ScaHFX=  0.200000
 ScaDFX=  0.800000  0.720000  1.000000  0.810000 ScalE2=  1.000000  1.000000
 IRadAn=      5 IRanWt=     -1 IRanGd=            0 ICorTp=0 IEmpDi=141
 NAtoms=  100 NActive=  100 NUniq=  100 SFac= 1.00D+00 NAtFMM=   60 NAOKFM=T Big=T
 Integral buffers will be    131072 words long.
 Raffenetti 2 integral format.
 Two-electron integral symmetry is turned on.
 R6Disp:  Grimme-D3(BJ) Dispersion energy=       -0.2343742488 Hartrees.
 Nuclear repulsion after empirical dispersion term =     9631.4617187535 Hartrees.
 Force inversion solution in PCM.
 ------------------------------------------------------------------------------
 Polarizable Continuum Model (PCM)
 =================================
 Model                : PCM.
 Atomic radii         : UFF (Universal Force Field).
 Polarization charges : Total charges.
 Charge compensation  : None.
 Solution method      : Matrix inversion.
 Cavity type          : Scaled VdW (van der Waals Surface) (Alpha=1.100).
 Cavity algorithm     : GePol (No added spheres)
                        Default sphere list used, NSphG=  100.
                        Lebedev-Laikov grids with approx.  5.0 points / Ang**2.
                        Smoothing algorithm: York/Karplus (Gamma=1.0000).
                        Polarization charges: spherical gaussians, with
                                              point-specific exponents (IZeta= 3).
                        Self-potential: point-specific (ISelfS= 7).
                        Self-field    : sphere-specific E.n sum rule (ISelfD= 2).
 1st derivatives      : Analytical E(r).r(x)/FMM algorithm (CHGder, D1EAlg=3).
                        Cavity 1st derivative terms included.
 2nd derivatives      : Analytical E(r).r(xy)/FMM algorithm (CHGder, D2EAlg=3).
                        Cavity 2nd derivative terms included.
 Solvent              : TetraHydroFuran, Eps=   7.425700 Eps(inf)=   1.974025
 ------------------------------------------------------------------------------
 GePol: Number of generator spheres                  =     100
 GePol: Total number of spheres                      =     100
 GePol: Number of exposed spheres                    =     100 (100.00%)
 GePol: Number of points                             =    6184
[...]
 0,-0.00006376,0.00054585,0.00000861,0.00013666,0.00006521,-0.00001281,
 0.00001106,-0.00000307,0.00001058,-0.00001295,-0.00000305,0.00000678,0
 .00000189,0.00000973,-0.00000456,-0.00000063,0.00002228,-0.00000264,0.
 00000542,0.00061188,-0.00063675,-0.00024634,-0.00015812,0.00011761,0.0
 0017557,-0.00017602,0.00037482,-0.00007318,-0.00036257,-0.00079644,0.0
 0034481,-0.00061634,0.00006496,0.00019296,0.00026626,-0.00052096,-0.00
 149964,0.00029160,0.00017395,0.00071316,0.00004761,0.00008366,-0.00003
 121,-0.00870993,0.01122543,-0.00773344,-0.00039614,0.00012548,-0.00008
 997,0.00050353,0.00024138,0.00043770,0.00001036,0.00004997,-0.00013674
 ,-0.00003181,-0.00003902,0.00005150,0.00000432,0.00001249,-0.00001323,
 0.00000851,0.00000646,-0.00003077,-0.00000971,0.00000400,0.00003145,-0
 .00045894,0.00044321,-0.00041363,0.00002131,-0.00006797,0.00005096,-0.
 00020353,-0.00018572,-0.00025511,0.00003155,-0.00006477,0.00008378,-0.
 00001117,0.00003537,-0.00001445,-0.00000469,0.00000453,-0.00000767,0.0
 0001068,-0.00000593,0.00000250,-0.00000324,0.00000365,-0.00000031,-0.0
 0001178,0.00000584,-0.00000018,0.00000060,-0.00000110,0.00000141,0.000
 00306,-0.00000062,-0.00000232,0.00000105,-0.00000001,-0.00000041,0.000
 00184,-0.00000031,0.00000606,-0.00000130,-0.00000081,-0.00000055,0.000
 00134,0.00000021,-0.00000139,-0.00000008,0.00000105,-0.00000120,0.0000
 9654,-0.00003284,0.00007665,-0.00006608,-0.00004874,-0.00005967,0.0000
 2424,0.00001295,-0.00000665,-0.00000202,0.00001744,0.00000078,0.000018
 71,0.00000250,-0.00000617,-0.00001513,-0.00000827,-0.00000764,0.000002
 92,0.00002129,0.00005840,-0.00000798,-0.00001133,-0.00000854,0.0000027
 8,0.00000289,-0.00000640,0.00000474,0.00000501,-0.00000016,0.00008979,
 0.00032334,0.00033464,-0.00001956,-0.00007883,-0.00006044,0.00003496,-
 0.00008469,-0.00010046,-0.00005712,-0.00004857,-0.00014545,0.01867364,
 -0.07852793,0.03205024,-0.00211894,0.01098541,0.01060286,-0.04421024,0
 .10083914,0.00000873,-0.00002011,-0.00003311,0.00005102,0.00003498,-0.
 00002684,0.00007440,0.00005090,-0.00001783,0.00000461,-0.00000862,0.00
 000683,0.00004183,-0.00001457,0.00000488,0.00000339,0.00000385,0.00000
 210,0.00001077,0.00000149,-0.00001867,-0.00000887,0.00000404,0.0000048
 1,-0.00001751,-0.00000603,-0.00000012,-0.00000020,-0.00000967,-0.00001
 305,-0.00005694,-0.00002188,0.00002370,-0.00005331,-0.00002977,-0.0000
 1288,-0.00003098,-0.00004064,0.00004607,-0.00002945,0.00001448,0.00004
 956,-0.00003458,0.00002232,0.00001024,0.00018280,0.00000815,0.00004284
 ,-0.00003978,0.00002004,-0.00001249,-0.00003740,-0.00002055,-0.0000310
 4,-0.00024306,-0.00003620,-0.00009140,-0.00000520,0.00001864,-0.000014
 42,0.00000761,0.00000235,-0.00000084,0.00000614,0.00000008,-0.00000807
 ,-0.00000688,-0.00000481,0.00000577,0.00002953,0.00000210,-0.00002593,
 -0.00000584,-0.00000056,0.00000135,-0.00000390,-0.00000437,0.00000146,
 -0.00000274,0.00000362,0.00000514,0.00001330,-0.00001209,-0.00001802,0
 .00000344,0.00000040,0.00000357,-0.00000033,-0.00000087,0.00000719,-0.
 00000701,0.00000420,-0.00000098,0.00012856,-0.00002744,-0.00002421,0.0
 0013296,-0.00022168,-0.00002921,0.00040556,-0.00028022,0.00021797,-0.0
 0002022,-0.00011090,-0.00004176,0.00001589,-0.00010059,-0.00002800,0.0
 0001319,0.00000137,-0.00000602,-0.00000264,0.00004909,-0.00000722,-0.0
 0000202,-0.00003851,-0.00003754,0.00001654,0.00000225,-0.00000176,-0.0
 0000253,0.00001189,0.00000411,-0.00016303,0.00028654,0.00006590,-0.000
 91844,0.00002261,0.00009479,-0.00025036,0.00018906,-0.00018481,-0.0003
 4758,0.00011872,-0.00008436,-0.00000513,0.00015879,0.00000460,0.000024
 97,-0.00003026,0.00000804,-0.00000225,0.00001357,-0.00000752,-0.000019
 64,0.00000390,-0.00000242,-0.00005410,0.00004612,0.00000362,0.00192860
 ,-0.00105196,-0.00146810,-0.00039780,0.00009447,0.00090056,-0.00061489
 ,0.00072228,0.00006374,-0.00122694,-0.00143853,0.00081195,-0.00077518,
 0.00010749,0.00005206,0.00065180,-0.00174318,-0.00222242,-0.00017517,-
 0.00102621,0.00056003,0.00006833,0.00018113,-0.00010321,-0.02167455,0.
 00472604,-0.01660379,-0.00021728,0.00062420,-0.00062545,-0.00126384,0.
 00080973,0.00108134,0.00009447,0.00073213,-0.00044610,0.00001416,-0.00
 002125,0.00013636,-0.00004099,0.00002378,-0.00004842,0.00001767,-0.000
 01754,0.00001018,0.00001711,0.00003901,0.00008230,0.00029954,-0.000331
 17,0.00029388,-0.00002909,0.00010452,-0.00004358,0.00002850,0.00007765
 ,0.00003217,-0.00001153,0.00002610,-0.00004278,0.00000842,-0.00008111,
 0.00004675,0.00000131,-0.00000336,0.00000508,-0.00001179,0.00000963,-0
 .00000818,0.00000862,0.00001531,-0.00000328,0.00003646,-0.00003659,-0.
 00000227,-0.00000291,0.00000286,-0.00000188,-0.00000828,0.00000172,0.0
 0000450,-0.00000180,0.00000927,0.00000248,0.00000422,0.00001598,0.0000
 1036,-0.00000557,-0.00000253,-0.00000190,0.00000217,-0.00000287,0.0000
 0142,0.00000322,-0.00000096,-0.00000320,0.00027268,0.00002808,0.000161
 84,-0.00017822,-0.00019076,-0.00006124,0.00005293,0.00008764,-0.000105
 49,0.00001499,0.00002245,-0.00000808,0.00003434,0.00002759,-0.00002582
 ,-0.00003796,-0.00003025,-0.00001057,0.00000352,0.00005279,0.00012793,
 -0.00002901,-0.00002871,-0.00002043,0.00001179,0.00000226,-0.00000266,
 0.00001950,0.00002081,-0.00000141,-0.00016231,0.00148732,0.00100256,-0
 .00017156,-0.00075291,-0.00009462,0.00021957,-0.00041174,-0.00027816,-
 0.00014541,-0.00027336,-0.00050517,-0.08213578,0.03223062,-0.19692299,
 0.00605406,0.01349523,-0.07842344,0.11472426,-0.07990834,0.29573934,0.
 00000830,-0.00000940,-0.00001259,0.00003704,0.00002033,-0.00000834,0.0
 0005200,0.00003379,0.00000183,0.00000389,-0.00000363,0.00000782,0.0000
 3371,-0.00000878,0.00000915,0.00000156,0.00000261,0.00000157,0.0000066
 6,0.00000229,-0.00001335,-0.00000793,0.00000213,0.00000246,-0.00001335
 ,-0.00000520,-0.00000103,-0.00000216,-0.00000717,-0.00000842,-0.000036
 95,-0.00001324,0.00000299,-0.00003937,-0.00002490,-0.00002078,-0.00002
 683,-0.00002244,0.00001553,-0.00002407,0.00000728,0.00002247,-0.000027
 07,0.00001433,-0.00000084,0.00013655,-0.00000029,0.00003468,-0.0000295
 5,0.00001553,-0.00000855,-0.00003313,-0.00001866,-0.00003024,-0.000171
 62,-0.00003837,-0.00009318,0.00000959,0.00001285,-0.00000053,0.0000044
 6,0.00000038,-0.00000202,0.00000073,-0.00000176,-0.00000646,-0.0000040
 3,-0.00000255,0.00000364,0.00002306,0.00000152,-0.00001490,-0.00000623
 ,0.00000042,-0.00000122,-0.00000173,-0.00000186,0.00000151,-0.00000058
 ,0.00000038,0.00000188,0.00001079,-0.00000636,-0.00000612,0.00000364,-
 0.00000138,-0.00000050,0.00000074,-0.00000041,0.00000676,-0.00000654,0
 .00000343,-0.00000098,0.00022350,-0.00006128,0.00006166,0.00005400,-0.
 00005305,-0.00000185,0.00032170,-0.00021420,0.00023734,-0.00000277,-0.
 00005774,-0.00001151,0.00000312,-0.00010285,-0.00003040,0.00000403,0.0
 0000793,-0.00000381,0.00000457,0.00002530,-0.00000316,0.00001690,-0.00
 002405,-0.00004903,0.00001479,-0.00000138,-0.00000557,-0.00000399,0.00
 001606,-0.00000217,-0.00011355,0.00018678,0.00001764,-0.00056480,-0.00
 004796,-0.00001939,-0.00009356,0.00004862,-0.00019417,-0.00063053,0.00
 010582,-0.00032235,-0.00000961,0.00014991,-0.00002110,0.00002491,-0.00
 003396,0.00002602,-0.00000202,0.00000779,-0.00000666,-0.00001421,0.000
 00535,-0.00000421,-0.00005426,0.00004363,-0.00001845,0.00147510,-0.000
 38535,-0.00064920,-0.00033092,0.00004734,0.00045683,-0.00050352,0.0004
 6434,-0.00003775,0.00106715,-0.00020394,-0.00026522,-0.00015595,-0.000
 74540,-0.00042651,-0.00238751,-0.00130119,0.00122834,-0.00066101,-0.00
 096055,-0.00145520,0.00009608,-0.00003149,-0.00004493,0.00807343,-0.02
 569892,-0.00516908,-0.00040964,-0.00191486,-0.00094930,-0.00322508,-0.
 00048848,0.00196804,0.00015638,-0.00040032,-0.00000571,-0.00003347,-0.
 00000147,0.00015894,-0.00001659,0.00001580,-0.00004078,0.00000041,0.00
 002404,-0.00000067,0.00000155,0.00000093,0.00005020,0.00075349,-0.0006
 3464,0.00059757,-0.00003308,0.00018573,-0.00010111,-0.00089682,0.00061
 740,-0.00093834,-0.00005656,0.00019045,-0.00019201,0.00000269,-0.00009
 582,0.00006627,0.00000439,-0.00000788,-0.00000171,-0.00001062,0.000011
 50,-0.00000933,0.00000539,0.00001452,-0.00000081,0.00003314,-0.0000351
 3,0.00000248,-0.00000470,0.00000322,-0.00000414,-0.00000609,0.00000310
 ,0.00000314,-0.00000235,0.00000807,0.00000314,0.00000220,0.00001386,0.
 00001557,-0.00000388,-0.00000233,-0.00000185,0.00000173,-0.00000072,-0
 .00000109,0.00000236,-0.00000139,-0.00000220,0.00016274,0.00002554,0.0
 0012887,-0.00011518,-0.00011834,-0.00007206,0.00003659,0.00004732,-0.0
 0004674,0.00000775,0.00002072,-0.00000429,0.00002656,0.00001641,-0.000
 01658,-0.00002648,-0.00001796,-0.00000980,0.00000346,0.00003959,0.0001
 0016,-0.00001924,-0.00001937,-0.00001442,0.00000654,0.00000382,-0.0000
 0558,0.00001377,0.00001363,0.00000042,-0.00047319,0.00118366,0.0008989
 1,-0.00010379,-0.00050590,-0.00010578,0.00024892,-0.00027805,-0.000252
 87,-0.00011997,-0.00026760,-0.00060159,-0.07763288,0.01401512,0.001881
 69,-0.01305005,0.04236900,0.02430543,-0.00230223,0.03672351,-0.0140776
 7,0.09131918,0.00001159,-0.00003299,-0.00002069,0.00004496,0.00001279,
 -0.00000012,0.00005951,-0.00000163,0.00001979,0.00002651,-0.00004526,0
 .00001919,0.00002141,-0.00002905,0.00001134,0.00000380,0.00001630,0.00
 000134,0.00001309,-0.00000257,-0.00001767,-0.00000680,0.00000597,0.000
 00203,-0.00001014,0.00000383,-0.00000307,-0.00000099,-0.00000661,-0.00
 000370,-0.00004661,0.00004060,-0.00001866,-0.00004536,-0.00000418,-0.0
 0002237,-0.00004776,0.00000611,0.00000027,-0.00001978,0.00002879,0.000
 02810,-0.00001521,0.00006008,0.00000266,0.00005630,0.00000003,0.000015
 09,-0.00002147,0.00001428,-0.00000907,-0.00000694,-0.00000534,-0.00000
 723,-0.00005474,0.00006016,-0.00004727,0.00003186,-0.00000638,0.000006
 63,0.00000531,0.00000823,0.00000261,0.00000204,-0.00000552,-0.00001122
 ,-0.00000603,-0.00000218,0.00000296,0.00001805,-0.00000702,-0.00001396
 ,-0.00000583,0.00000021,-0.00000073,0.00000041,0.00000068,-0.00000103,
 -0.00000128,0.00000180,0.00000562,-0.00001422,-0.00003538,-0.00001218,
 0.00000220,0.00000067,0.00000370,0.00000322,-0.00000210,-0.00000007,-0
 .00000283,0.00000559,-0.00000041,-0.00080110,-0.00000768,0.00031241,0.
 00014285,-0.00045167,-0.00019492,0.00035907,-0.00038580,0.00049118,-0.
 00011187,-0.00031708,0.00000011,-0.00004425,0.00002041,-0.00000248,0.0
 0003977,-0.00002290,-0.00005293,-0.00001113,0.00005729,-0.00002124,-0.
 00008710,-0.00009726,0.00005086,-0.00000431,0.00001175,0.00000972,0.00
 001080,-0.00000972,0.00001329,-0.00011324,0.00044179,0.00003106,-0.000
 98450,0.00020553,0.00005571,-0.00016054,0.00043081,-0.00015743,0.00188
 357,0.00000244,0.00061657,0.00020333,-0.00004439,0.00004944,-0.0000088
 4,0.00003618,-0.00004984,-0.00000965,0.00002305,0.00000570,0.00002788,
 -0.00001505,-0.00000068,0.00006887,-0.00000843,0.00002798,0.00220168,-
 0.00181820,-0.00114469,-0.00057258,0.00029186,0.00073823,-0.00065604,0
 .00131716,-0.00016241,-0.00089812,0.00022484,-0.00057526,-0.00052087,-
 0.00042614,0.00012149,0.00256786,-0.00104043,-0.00202420,0.00007893,-0
 .00133638,-0.00216602,0.00009326,0.00010868,0.00015239,0.00419206,-0.0
 4327966,-0.00926944,-0.00164607,-0.00044529,0.00149052,-0.00720681,-0.
 00123932,0.00270868,0.00043770,0.00044867,0.00060627,-0.00005228,-0.00
 014640,0.00008093,-0.00000562,0.00004599,-0.00003852,0.00003863,-0.000
 01437,-0.00007499,0.00000556,0.00005072,0.00009890,-0.00148211,0.00166
 635,-0.00136153,0.00004279,-0.00023976,0.00015308,-0.00007739,-0.00134
 685,-0.00005296,0.00012154,-0.00029870,0.00036368,-0.00003029,0.000122
 27,-0.00005987,-0.00001543,0.00001551,-0.00001923,0.00003267,-0.000020
 02,0.00000905,-0.00000885,0.00001075,-0.00000199,-0.00003446,0.0000183
 2,-0.00000352,0.00000303,-0.00000364,0.00000555,0.00000829,-0.00000280
 ,-0.00000616,0.00000341,0.00000016,-0.00000161,0.00000637,0.00000025,0
 .00001335,-0.00000479,-0.00000236,-0.00000152,0.00000310,-0.00000100,-
 0.00000207,0.00000017,0.00000322,-0.00000390,0.00028057,-0.00009871,0.
 00021119,-0.00022664,-0.00016755,-0.00013743,0.00008624,0.00005932,-0.
 00006259,0.00000401,0.00005210,-0.00000754,0.00005018,0.00001577,-0.00
 002226,-0.00005106,-0.00002952,-0.00002062,0.00002558,0.00004879,0.000
 16671,-0.00003733,-0.00003271,-0.00002349,0.00001304,0.00000618,-0.000
 01223,0.00001937,0.00003492,0.00000160,-0.00050104,0.00186808,0.001643
 30,-0.00024297,-0.00098535,-0.00016898,0.00020901,-0.00048263,-0.00041
 891,-0.00030496,-0.00034844,-0.00109660,0.00618173,-0.24763283,-0.0218
 2058,0.03087950,-0.02159520,-0.03025404,0.02848863,-0.04405201,0.03152
 002,-0.06189312,0.36072717,0.00000252,-0.00000813,-0.00001508,0.000011
 29,0.00000937,-0.00001002,0.00002351,0.00001323,-0.00001047,0.00000092
 ,-0.00000405,0.00000052,0.00001168,-0.00000617,-0.00000016,0.00000112,
 0.00000183,0.00000097,0.00000330,-0.00000025,-0.00000435,-0.00000191,0
 .00000124,0.00000201,-0.00000542,-0.00000182,0.00000056,0.00000090,-0.
 00000260,-0.00000490,-0.00001842,-0.00000545,0.00001175,-0.00001604,-0
 .00000624,0.00000016,-0.00000840,-0.00000905,0.00001574,-0.00000767,0.
 00000686,0.00001993,-0.00001048,0.00000941,0.00000640,0.00005778,0.000
 00361,0.00001379,-0.00001255,0.00000656,-0.00000426,-0.00001009,-0.000
 00557,-0.00000741,-0.00008353,-0.00001028,-0.00001822,-0.00000251,0.00
 000240,-0.00000585,0.00000245,0.00000193,0.00000084,0.00000289,-0.0000
 0006,-0.00000226,-0.00000204,-0.00000153,0.00000170,0.00000808,-0.0000
 0044,-0.00000875,-0.00000115,-0.00000036,0.00000100,-0.00000131,-0.000
 00136,0.00000019,-0.00000133,0.00000184,0.00000253,0.00000393,-0.00000
 567,-0.00000913,0.00000065,0.00000085,0.00000242,-0.00000035,-0.000000
 31,0.00000183,-0.00000187,0.00000133,-0.00000016,0.00021536,0.00001698
 ,-0.00021059,0.00004030,-0.00006928,0.00003313,0.00010900,-0.00008223,
 -0.00002307,-0.00001182,-0.00001543,-0.00003868,0.00000096,-0.00005964
 ,0.00000146,0.00000019,0.00000048,0.00000869,0.00000392,0.00002187,-0.
 00000027,0.00000560,-0.00001128,0.00000138,0.00000063,0.00000086,0.000
 00427,0.00000466,-0.00000130,0.00000475,-0.00005103,0.00008860,0.00004
 224,-0.00021057,0.00003141,0.00008524,-0.00008867,0.00005738,-0.000035
 98,-0.00072231,0.00009866,-0.00016793,-0.00001978,0.00007309,0.0000229
 9,-0.00000118,-0.00001441,0.00000330,0.00000073,0.00000613,-0.00000283
 ,-0.00001147,0.00000358,-0.00000034,-0.00001492,0.00001456,0.00001115,
 0.00040399,-0.00028468,-0.00045932,-0.00009561,0.00002416,0.00024800,-
 0.00012169,0.00017895,0.00006536,-0.00029761,0.00042111,-0.00006364,0.
 00006608,-0.00038316,-0.00013451,0.00071825,-0.00026100,-0.00102955,-0
 .00076608,0.00019849,-0.00047447,0.00003002,0.00004068,0.00006840,-0.0
 0040479,-0.01273647,0.00786691,-0.00038484,0.00058593,0.00060632,-0.00
 029459,0.00002426,0.00121387,0.00024694,0.00022289,0.00041408,0.000031
 21,-0.00000423,0.00001964,-0.00001912,0.00000487,-0.00001292,0.0000030
 2,-0.00000668,0.00002143,0.00000697,0.00001419,0.00002638,0.00051437,-
 0.00045706,0.00074232,-0.00006097,0.00024847,-0.00013668,-0.00095548,0
 .00064875,-0.00206088,-0.00001129,0.00011233,-0.00008108,0.00001023,-0
 .00004077,0.00000973,0.00000177,-0.00000732,0.00001123,-0.00000556,0.0
 0000448,-0.00000063,0.00000384,0.00001027,-0.00000141,0.00001100,-0.00
 001258,-0.00000156,-0.00000020,0.00000071,0.00000032,-0.00000325,0.000
 00044,0.00000154,-0.00000012,0.00000357,0.00000045,0.00000218,0.000003
 04,0.00000059,-0.00000180,-0.00000062,-0.00000029,0.00000075,-0.000001
 15,0.00000095,0.00000071,0.00000029,-0.00000110,0.00009232,0.00000801,
 0.00003399,-0.00005894,-0.00005584,-0.00001330,0.00002009,0.00002539,-
 0.00003553,0.00000379,0.00000922,-0.00000195,0.00001087,0.00000613,-0.
 00000647,-0.00001302,-0.00000933,-0.00000316,0.00000592,0.00001466,0.0
 0003642,-0.00000996,-0.00000857,-0.00000548,0.00000469,0.00000035,0.00
 000013,0.00000656,0.00000978,-0.00000004,-0.00009425,0.00057556,0.0002
 3831,-0.00005408,-0.00016933,-0.00000708,0.00005027,-0.00012257,-0.000
 08575,-0.00004913,-0.00013377,-0.00023210,0.00213229,-0.02448867,-0.07
 341796,0.02294142,-0.03956364,-0.01110699,-0.01691993,0.04538552,-0.00
 287614,-0.00589277,0.02981380,0.08090341\\0.00000074,-0.00000198,0.000
 00078,0.00000086,-0.00000183,0.00000002,0.00000114,-0.00000065,0.00000
 007,-0.00000049,-0.00000057,0.00000123,0.00000007,-0.00000150,-0.00000
 050,0.00000133,-0.00000125,-0.00000017,0.00000151,-0.00000117,0.000000
 45,0.00000078,-0.00000240,0.00000184,-0.00000045,-0.00000100,0.0000015
 4,-0.00000025,-0.00000143,0.00000159,0.00000077,-0.00000122,0.00000054
 ,0.00000091,-0.00000091,0.00000149,0.00000210,-0.00000203,0.00000149,0
 .00000090,-0.00000166,0.00000155,-0.00000181,-0.00000230,0.00000436,0.
 00000021,-0.00000031,0.00000045,-0.00000156,-0.00000077,0.00000122,-0.
 00000116,-0.00000024,0.00000066,-0.00000089,-0.00000053,-0.00000016,0.
 00000165,-0.00000210,0.00000073,0.00000277,-0.00000184,-0.00000026,0.0
 0000299,-0.00000252,0.00000008,0.00000308,-0.00000231,0.00000033,0.000
 00139,-0.00000326,0.00000112,0.00000094,-0.00000300,0.00000262,0.00000
 191,-0.00000306,0.00000159,0.00000133,-0.00000273,0.00000252,0.0000000
 6,-0.00000149,-0.00000001,-0.00000116,-0.00000213,0.00000358,-0.000001
 46,0.00000063,0.00000204,-0.00000150,-0.00000179,0.00000271,-0.0000012
 7,0.00000080,0.00000006,-0.00000095,0.00000119,-0.00000005,-0.00000175
 ,0.00000092,0.00000080,-0.00000125,-0.00000042,0.00000143,-0.00000182,
 0.00000108,0.00000073,0.00000040,0.00000057,0.00000151,-0.00000166,0.0
 0000009,0.00000034,-0.00000059,0.00000092,-0.00000080,-0.00000038,-0.0
 0000071,0.00000049,-0.00000206,0.00000017,0.00000027,-0.00000030,-0.00
 000103,-0.00000026,0.00000157,0.00000043,-0.00000041,0.,0.00000177,-0.
 00000017,-0.00000195,0.00000169,-0.00000043,-0.00000165,0.00000068,-0.
 00000030,-0.00000220,-0.00000010,0.00000137,-0.00000185,-0.00000067,0.
 00000186,-0.00000152,-0.00000122,0.00000165,-0.00000148,0.00000054,0.0
 0000241,0.00000104,0.00000085,-0.00000109,0.00000174,-0.00000064,-0.00
 000050,0.00000104,-0.00000096,0.00000030,0.00000030,0.00000024,-0.0000
 0162,0.00000190,0.00000156,-0.00000124,0.00000183,0.00000159,-0.000001
 66,0.00000108,0.00000127,-0.00000253,0.00000073,0.00000028,-0.00000170
 ,0.00000021,0.00000145,-0.00000266,0.00000068,0.00000094,-0.00000160,0
 .00000068,0.00000295,-0.00000223,0.00000097,0.00000243,-0.00000323,-0.
 00000078,0.00000125,-0.00000176,-0.00000077,0.00000131,-0.00000043,-0.
 00000124,0.00000211,-0.00000120,-0.00000042,0.00000151,-0.00000132,-0.
 00000167,0.00000159,-0.00000127,-0.00000181,0.00000233,-0.00000043,-0.
 00000110,0.00000212,-0.00000133,-0.00000204,0.00000265,-0.00000124,-0.
 00000293,0.00000183,0.00000164,-0.00000302,0.00000151,0.00000026,-0.00
 000316,0.00000059,0.00000120,-0.00000310,0.00000088,0.00000058,-0.0000
 0295,-0.00000121,0.00000260,-0.00000313,-0.00000066,0.00000265,-0.0000
 0218,-0.00000120,0.00000284,-0.00000291,-0.00000061,0.00000257,0.00000
 144,-0.00000188,0.00000044,0.00000086,-0.00000170,0.00000106,0.0000002
 7,-0.00000098,0.00000073,0.00000109,-0.00000086,0.00000020,-0.00000072
 ,0.00000009,-0.00000011,0.00000167,0.,-0.00000062,0.00000211,-0.000000
 09,-0.00000055,0.00000236,0.00000034,-0.00000197,0.00000220,-0.0000000
 7,-0.00000152,0.00000243,-0.00000026,-0.00000114,0.00000062,0.00000101
 ,-0.00000244,0.00000140,0.00000044,-0.00000126,0.00000088,0.00000062,-
 0.00000093,0.00000136,0.00000084,-0.00000174,0.00000082,0.00000122,-0.
 00000279,0.00000208,0.00000199,-0.00000280,0.00000130,0.00000247,-0.00
 000308,0.00000050,0.00000219,-0.00000256,0.00000105,0.00000235,-0.0000
 0267,0.00000001,0.00000294,-0.00000258,0.00000113,0.00000231,-0.000003
 01,0.00000012,0.00000177,-0.00000223\\\@


 MAN IS THE MEASURE OF ALL THINGS.
  -- PROTAGORAS (5TH CENTURY B.C.)
 Job cpu time:       4 days 13 hours 45 minutes 28.8 seconds.
 Elapsed time:       0 days  3 hours 32 minutes 40.0 seconds.
 File lengths (MBytes):  RWF=   9778 Int=      0 D2E=      0 Chk=     86 Scr=      1
 Normal termination of Gaussian 16 at Mon May 20 20:59:41 2019.
