 Entering Gaussian System, Link 0=g16
 Input=clay_new-glu_gluC6-CCDR-Na2_1Me2O-bisCF3-ts-b3lyp_d3bj-631gd-pcm_thf.gjf
 Output=clay_new-glu_gluC6-CCDR-Na2_1Me2O-bisCF3-ts-b3lyp_d3bj-631gd-pcm_thf.out
 Initial command:
 /home/ekwan/sw/g16/l1.exe "/scratch/users/ekwan/clay_new-glu_gluC6-CCDR-Na2_1Me2O-bisCF3-ts-b3lyp_d3bj-631gd-pcm_thf/Gau-13271.inp" -scrdir="/scratch/users/ekwan/clay_new-glu_gluC6-CCDR-Na2_1Me2O-bisCF3-ts-b3lyp_d3bj-631gd-pcm_thf/"
 Entering Link 1 = /home/ekwan/sw/g16/l1.exe PID=     13272.
  
 Copyright (c) 1988,1990,1992,1993,1995,1998,2003,2009,2016,
            Gaussian, Inc.  All Rights Reserved.
  
 This is part of the Gaussian(R) 16 program.  It is based on
 the Gaussian(R) 09 system (copyright 2009, Gaussian, Inc.),
 the Gaussian(R) 03 system (copyright 2003, Gaussian, Inc.),
 the Gaussian(R) 98 system (copyright 1998, Gaussian, Inc.),
 the Gaussian(R) 94 system (copyright 1995, Gaussian, Inc.),
 the Gaussian 92(TM) system (copyright 1992, Gaussian, Inc.),
 the Gaussian 90(TM) system (copyright 1990, Gaussian, Inc.),
 the Gaussian 88(TM) system (copyright 1988, Gaussian, Inc.),
 the Gaussian 86(TM) system (copyright 1986, Carnegie Mellon
 University), and the Gaussian 82(TM) system (copyright 1983,
 Carnegie Mellon University). Gaussian is a federally registered
 trademark of Gaussian, Inc.
  
 This software contains proprietary and confidential information,
 including trade secrets, belonging to Gaussian, Inc.
  
 This software is provided under written license and may be
 used, copied, transmitted, or stored only in accord with that
 written license.
  
 The following legend is applicable only to US Government
 contracts under FAR:
  
                    RESTRICTED RIGHTS LEGEND
  
 Use, reproduction and disclosure by the US Government is
 subject to restrictions as set forth in subparagraphs (a)
 and (c) of the Commercial Computer Software - Restricted
 Rights clause in FAR 52.227-19.
  
 Gaussian, Inc.
 340 Quinnipiac St., Bldg. 40, Wallingford CT 06492
  
  
 ---------------------------------------------------------------
 Warning -- This program may not be used in any manner that
 competes with the business of Gaussian, Inc. or will provide
 assistance to any competitor of Gaussian, Inc.  The licensee
 of this program is prohibited from giving any competitor of
 Gaussian, Inc. access to this program.  By using this program,
 the user acknowledges that Gaussian, Inc. is engaged in the
 business of creating and licensing software in the field of
 computational chemistry and represents and warrants to the
 licensee that it is not a competitor of Gaussian, Inc. and that
 it will not use this program in any manner prohibited above.
 ---------------------------------------------------------------
  

 Cite this work as:
 Gaussian 16, Revision A.03,
 M. J. Frisch, G. W. Trucks, H. B. Schlegel, G. E. Scuseria, 
 M. A. Robb, J. R. Cheeseman, G. Scalmani, V. Barone, 
 G. A. Petersson, H. Nakatsuji, X. Li, M. Caricato, A. V. Marenich, 
 J. Bloino, B. G. Janesko, R. Gomperts, B. Mennucci, H. P. Hratchian, 
 J. V. Ortiz, A. F. Izmaylov, J. L. Sonnenberg, D. Williams-Young, 
 F. Ding, F. Lipparini, F. Egidi, J. Goings, B. Peng, A. Petrone, 
 T. Henderson, D. Ranasinghe, V. G. Zakrzewski, J. Gao, N. Rega, 
 G. Zheng, W. Liang, M. Hada, M. Ehara, K. Toyota, R. Fukuda, 
 J. Hasegawa, M. Ishida, T. Nakajima, Y. Honda, O. Kitao, H. Nakai, 
 T. Vreven, K. Throssell, J. A. Montgomery, Jr., J. E. Peralta, 
 F. Ogliaro, M. J. Bearpark, J. J. Heyd, E. N. Brothers, K. N. Kudin, 
 V. N. Staroverov, T. A. Keith, R. Kobayashi, J. Normand, 
 K. Raghavachari, A. P. Rendell, J. C. Burant, S. S. Iyengar, 
 J. Tomasi, M. Cossi, J. M. Millam, M. Klene, C. Adamo, R. Cammi, 
 J. W. Ochterski, R. L. Martin, K. Morokuma, O. Farkas, 
 J. B. Foresman, and D. J. Fox, Gaussian, Inc., Wallingford CT, 2016.
 
 ******************************************
 Gaussian 16:  AS64L-G16RevA.03 25-Dec-2016
                22-May-2019 
 ******************************************
 %mem=48GB
 %nprocshared=32
 Will use up to   32 processors via shared memory.
 ----------------------------------------------------------------------
 #p opt=(ts,noeigentest,calcfc,maxstep=3,modredundant,recalc=30) freq=n
 oraman b3lyp 6-31g* pop=none scrf=(solvent=tetrahydrofuran,pcm) empiri
 caldispersion=gd3bj
 ----------------------------------------------------------------------
 1/5=1,8=3,10=4,11=1,18=120,26=3,38=1,71=30/1,3;
 2/9=110,12=2,17=6,18=5,40=1/2;
 3/5=1,6=6,7=1,11=2,25=1,30=1,70=2201,71=2,72=20,74=-5,124=41,140=1/1,2,3;
 4//1;
 5/5=2,38=5,53=20/2;
 8/6=4,10=90,11=11/1;
 11/6=1,8=1,9=11,15=111,16=1/1,2,10;
 10/6=1,13=1/2;
 7/10=1,18=20,25=1/1,2,3,16;
 1/5=1,8=3,10=4,11=1,18=20,26=3,71=30/3(2);
 2/9=110/2;
 99//99;
 2/9=110/2;
 3/5=1,6=6,7=1,11=2,25=1,30=1,70=2205,71=1,72=20,74=-5,124=41/1,2,3;
 4/5=5,16=3,69=1/1;
 5/5=2,38=5,53=20/2;
 7//1,2,3,16;
 1/5=1,8=3,11=1,18=20,26=3,71=30/3(-5);
 2/9=110/2;
 99/9=1/99;
 Leave Link    1 at Wed May 22 13:20:09 2019, MaxMem=  6442450944 cpu:               5.6 elap:               0.2
 (Enter /home/ekwan/sw/g16/l101.exe)
 -----
 title
 -----
 Symbolic Z-matrix:
 Charge =  0 Multiplicity = 1
 C                     0.91289  -1.70781   2.93876 
 C                    -0.2438   -1.42696   1.97906 
 C                    -0.87921  -0.05263   2.25263 
 C                     1.19489   0.81905   3.15771 
 C                     1.89397  -0.53664   3.00948 
 H                    -1.57718   0.22925   1.45539 
 H                     0.15561  -1.40527   0.95708 
 H                     0.50452  -1.87241   3.9441 
 H                     0.78431   0.88637   4.17325 
 H                     2.50139  -0.52744   2.09944 
 O                     0.11531   0.96065   2.20458 
 O                    -1.53898  -0.1049    3.4838 
 O                    -1.18003  -2.48475   2.10395 
 O                     1.64146  -2.86196   2.51513 
 O                     2.7366   -0.65987   4.15269 
 C                     2.1514    1.99564   2.87806 
 H                     3.01479   1.84359   3.55773 
 H                     1.62988   2.90405   3.27517 
 O                     2.49245   2.10801   1.54967 
 C                    -2.0183   -2.64332   0.97268 
 H                    -2.68815  -1.78627   0.83321 
 H                    -1.43096  -2.78355   0.05504 
 H                    -2.62462  -3.53559   1.14424 
 C                     1.25621  -4.07389   3.14945 
 H                     1.38539  -4.00738   4.23954 
 H                     0.216    -4.33138   2.9274 
 H                     1.91896  -4.85272   2.76233 
 C                     3.9689   -1.32377   3.91978 
 H                     3.83048  -2.40083   3.77782 
 H                     4.47693  -0.91829   3.03401 
 H                     4.59222  -1.14944   4.80172 
 C                     3.30386   0.79598  -2.38641 
 C                     2.68915   1.47861  -1.16256 
 C                     1.81153   0.5397   -0.39381 
 C                     2.89304  -1.43422  -1.26931 
 C                     3.93113  -0.52297  -1.92606 
 H                     1.09489   0.88943   0.32725 
 H                     3.4827    1.70795  -0.43479 
 H                     2.51474   0.60703  -3.12289 
 H                     2.17006  -1.76584  -2.01967 
 H                     4.71731  -0.29531  -1.19904 
 O                     2.08711  -0.71145  -0.27408 
 O                    -1.13221   2.07675  -3.02781 
 O                     1.9655    2.65518  -1.45269 
 O                     4.30451   1.64344  -2.92433 
 O                     4.46375  -1.23788  -3.02896 
 C                     3.46403  -2.6352   -0.54919 
 H                     3.8428   -3.34181  -1.30248 
 H                     2.66072  -3.12274   0.02012 
 O                     4.49752  -2.20749   0.31438 
 S                    -0.92186   1.32371  -1.77765 
 O                    -0.91239   2.14976  -0.53822 
 O                     0.24061   0.35688  -1.85314 
 C                    -2.35311   0.25512  -1.55281 
 C                    -3.3862    0.69154  -0.72741 
 C                    -2.4253   -0.97414  -2.20159 
 C                    -4.50692  -0.11826  -0.5488 
 H                    -3.29738   1.64015  -0.21364 
 C                    -3.55356  -1.77307  -2.01436 
 H                    -1.6039   -1.31178  -2.82229 
 C                    -4.59931  -1.35181  -1.19248 
 H                    -5.46441  -1.98579  -1.04069 
 C                     2.7552    3.84879  -1.3794 
 H                     3.16694   3.96575  -0.36934 
 H                     3.56508   3.8257   -2.11171 
 H                     2.07425   4.67307  -1.60315 
 C                     4.33065   1.67464  -4.34876 
 H                     4.51177   0.67846  -4.76553 
 H                     3.38765   2.06973  -4.75031 
 H                     5.14777   2.3434   -4.62875 
 C                     5.86699  -1.47329  -2.93468 
 H                     6.4246   -0.52876  -2.9435 
 H                     6.11352  -2.0298   -2.02174 
 H                     6.14263  -2.06626  -3.80936 
 C                     5.00472  -3.27697   1.09746 
 H                     5.79447  -2.86448   1.72848 
 H                     4.21692  -3.70386   1.73153 
 H                     5.42559  -4.06993   0.46189 
 C                    -2.37445   1.02376   3.7181 
 H                    -2.87638   0.85271   4.6723 
 H                    -1.78887   1.94901   3.77683 
 H                    -3.12677   1.12193   2.92339 
 Na                    0.59362   3.09959   0.86266 
 O                    -0.90327   4.88572   1.01996 
 C                    -2.16654   4.46614   1.5271 
 H                    -2.63813   3.74762   0.84455 
 H                    -1.98529   3.98797   2.49184 
 H                    -2.83347   5.32712   1.66785 
 C                    -1.03334   5.53321  -0.24434 
 H                    -1.67639   6.41924  -0.16028 
 H                    -0.03203   5.84342  -0.55182 
 H                    -1.44915   4.8444   -0.99033 
 C                    -5.63109   0.35847   0.32947 
 F                    -5.18126   1.16782   1.31824 
 F                    -6.2843   -0.66882   0.91032 
 F                    -6.54544   1.06757  -0.36889 
 C                    -3.58988  -3.15315  -2.60992 
 F                    -3.0374   -4.06064  -1.76521 
 F                    -2.89898  -3.22295  -3.76593 
 F                    -4.85045  -3.56468  -2.85694 
 
 Add virtual bond connecting atoms C34        and O53        Dist= 4.07D+00.
 Add virtual bond connecting atoms H37        and O11        Dist= 4.00D+00.
 Add virtual bond connecting atoms H37        and O19        Dist= 4.20D+00.
 Add virtual bond connecting atoms H38        and O19        Dist= 4.26D+00.
 Add virtual bond connecting atoms O84        and Na83       Dist= 4.41D+00.
 Add virtual bond connecting atoms H86        and H58        Dist= 4.63D+00.
 Add virtual bond connecting atoms H87        and H81        Dist= 4.57D+00.
 The following ModRedundant input section has been read:
 
 ITRead=  0  0  0  0  0  0  0  0  0  0  0  0  0  0  0  0  0  0  0  0
 ITRead=  0  0  0  0  0  0  0  0  0  0  0  0  0  0  0  0  0  0  0  0
 ITRead=  0  0  0  0  0  0  0  0  0  0  0  0  0  0  0  0  0  0  0  0
 ITRead=  0  0  0  0  0  0  0  0  0  0  0  0  0  0  0  0  0  0  0  0
 ITRead=  0  0  0  0  0  0  0  0  0  0  0  0  0  0  0  0  0  0  0  0
 MicOpt= -1 -1 -1 -1 -1 -1 -1 -1 -1 -1 -1 -1 -1 -1 -1 -1 -1 -1 -1 -1
 MicOpt= -1 -1 -1 -1 -1 -1 -1 -1 -1 -1 -1 -1 -1 -1 -1 -1 -1 -1 -1 -1
 MicOpt= -1 -1 -1 -1 -1 -1 -1 -1 -1 -1 -1 -1 -1 -1 -1 -1 -1 -1 -1 -1
 MicOpt= -1 -1 -1 -1 -1 -1 -1 -1 -1 -1 -1 -1 -1 -1 -1 -1 -1 -1 -1 -1
 MicOpt= -1 -1 -1 -1 -1 -1 -1 -1 -1 -1 -1 -1 -1 -1 -1 -1 -1 -1 -1 -1
 NAtoms=    100 NQM=      100 NQMF=       0 NMMI=      0 NMMIF=      0
                NMic=       0 NMicF=      0.
                    Isotopes and Nuclear Properties:
 (Nuclear quadrupole moments (NQMom) in fm**2, nuclear magnetic moments (NMagM)
  in nuclear magnetons)

  Atom         1           2           3           4           5           6           7           8           9          10
 IAtWgt=          12          12          12          12          12           1           1           1           1           1
 AtmWgt=  12.0000000  12.0000000  12.0000000  12.0000000  12.0000000   1.0078250   1.0078250   1.0078250   1.0078250   1.0078250
 NucSpn=           0           0           0           0           0           1           1           1           1           1
 AtZEff=   0.0000000   0.0000000   0.0000000   0.0000000   0.0000000   0.0000000   0.0000000   0.0000000   0.0000000   0.0000000
 NQMom=    0.0000000   0.0000000   0.0000000   0.0000000   0.0000000   0.0000000   0.0000000   0.0000000   0.0000000   0.0000000
 NMagM=    0.0000000   0.0000000   0.0000000   0.0000000   0.0000000   2.7928460   2.7928460   2.7928460   2.7928460   2.7928460
 AtZNuc=   6.0000000   6.0000000   6.0000000   6.0000000   6.0000000   1.0000000   1.0000000   1.0000000   1.0000000   1.0000000

  Atom        11          12          13          14          15          16          17          18          19          20
 IAtWgt=          16          16          16          16          16          12           1           1          16          12
 AtmWgt=  15.9949146  15.9949146  15.9949146  15.9949146  15.9949146  12.0000000   1.0078250   1.0078250  15.9949146  12.0000000
 NucSpn=           0           0           0           0           0           0           1           1           0           0
 AtZEff=   0.0000000   0.0000000   0.0000000   0.0000000   0.0000000   0.0000000   0.0000000   0.0000000   0.0000000   0.0000000
 NQMom=    0.0000000   0.0000000   0.0000000   0.0000000   0.0000000   0.0000000   0.0000000   0.0000000   0.0000000   0.0000000
 NMagM=    0.0000000   0.0000000   0.0000000   0.0000000   0.0000000   0.0000000   2.7928460   2.7928460   0.0000000   0.0000000
 AtZNuc=   8.0000000   8.0000000   8.0000000   8.0000000   8.0000000   6.0000000   1.0000000   1.0000000   8.0000000   6.0000000

  Atom        21          22          23          24          25          26          27          28          29          30
 IAtWgt=           1           1           1          12           1           1           1          12           1           1
 AtmWgt=   1.0078250   1.0078250   1.0078250  12.0000000   1.0078250   1.0078250   1.0078250  12.0000000   1.0078250   1.0078250
 NucSpn=           1           1           1           0           1           1           1           0           1           1
 AtZEff=   0.0000000   0.0000000   0.0000000   0.0000000   0.0000000   0.0000000   0.0000000   0.0000000   0.0000000   0.0000000
 NQMom=    0.0000000   0.0000000   0.0000000   0.0000000   0.0000000   0.0000000   0.0000000   0.0000000   0.0000000   0.0000000
 NMagM=    2.7928460   2.7928460   2.7928460   0.0000000   2.7928460   2.7928460   2.7928460   0.0000000   2.7928460   2.7928460
 AtZNuc=   1.0000000   1.0000000   1.0000000   6.0000000   1.0000000   1.0000000   1.0000000   6.0000000   1.0000000   1.0000000

  Atom        31          32          33          34          35          36          37          38          39          40
 IAtWgt=           1          12          12          12          12          12           1           1           1           1
 AtmWgt=   1.0078250  12.0000000  12.0000000  12.0000000  12.0000000  12.0000000   1.0078250   1.0078250   1.0078250   1.0078250
 NucSpn=           1           0           0           0           0           0           1           1           1           1
 AtZEff=   0.0000000   0.0000000   0.0000000   0.0000000   0.0000000   0.0000000   0.0000000   0.0000000   0.0000000   0.0000000
 NQMom=    0.0000000   0.0000000   0.0000000   0.0000000   0.0000000   0.0000000   0.0000000   0.0000000   0.0000000   0.0000000
 NMagM=    2.7928460   0.0000000   0.0000000   0.0000000   0.0000000   0.0000000   2.7928460   2.7928460   2.7928460   2.7928460
 AtZNuc=   1.0000000   6.0000000   6.0000000   6.0000000   6.0000000   6.0000000   1.0000000   1.0000000   1.0000000   1.0000000

  Atom        41          42          43          44          45          46          47          48          49          50
 IAtWgt=           1          16          16          16          16          16          12           1           1          16
 AtmWgt=   1.0078250  15.9949146  15.9949146  15.9949146  15.9949146  15.9949146  12.0000000   1.0078250   1.0078250  15.9949146
 NucSpn=           1           0           0           0           0           0           0           1           1           0
 AtZEff=   0.0000000   0.0000000   0.0000000   0.0000000   0.0000000   0.0000000   0.0000000   0.0000000   0.0000000   0.0000000
 NQMom=    0.0000000   0.0000000   0.0000000   0.0000000   0.0000000   0.0000000   0.0000000   0.0000000   0.0000000   0.0000000
 NMagM=    2.7928460   0.0000000   0.0000000   0.0000000   0.0000000   0.0000000   0.0000000   2.7928460   2.7928460   0.0000000
 AtZNuc=   1.0000000   8.0000000   8.0000000   8.0000000   8.0000000   8.0000000   6.0000000   1.0000000   1.0000000   8.0000000

  Atom        51          52          53          54          55          56          57          58          59          60
 IAtWgt=          32          16          16          12          12          12          12           1          12           1
 AtmWgt=  31.9720718  15.9949146  15.9949146  12.0000000  12.0000000  12.0000000  12.0000000   1.0078250  12.0000000   1.0078250
 NucSpn=           0           0           0           0           0           0           0           1           0           1
 AtZEff=   0.0000000   0.0000000   0.0000000   0.0000000   0.0000000   0.0000000   0.0000000   0.0000000   0.0000000   0.0000000
 NQMom=    0.0000000   0.0000000   0.0000000   0.0000000   0.0000000   0.0000000   0.0000000   0.0000000   0.0000000   0.0000000
 NMagM=    0.0000000   0.0000000   0.0000000   0.0000000   0.0000000   0.0000000   0.0000000   2.7928460   0.0000000   2.7928460
 AtZNuc=  16.0000000   8.0000000   8.0000000   6.0000000   6.0000000   6.0000000   6.0000000   1.0000000   6.0000000   1.0000000

  Atom        61          62          63          64          65          66          67          68          69          70
 IAtWgt=          12           1          12           1           1           1          12           1           1           1
 AtmWgt=  12.0000000   1.0078250  12.0000000   1.0078250   1.0078250   1.0078250  12.0000000   1.0078250   1.0078250   1.0078250
 NucSpn=           0           1           0           1           1           1           0           1           1           1
 AtZEff=   0.0000000   0.0000000   0.0000000   0.0000000   0.0000000   0.0000000   0.0000000   0.0000000   0.0000000   0.0000000
 NQMom=    0.0000000   0.0000000   0.0000000   0.0000000   0.0000000   0.0000000   0.0000000   0.0000000   0.0000000   0.0000000
 NMagM=    0.0000000   2.7928460   0.0000000   2.7928460   2.7928460   2.7928460   0.0000000   2.7928460   2.7928460   2.7928460
 AtZNuc=   6.0000000   1.0000000   6.0000000   1.0000000   1.0000000   1.0000000   6.0000000   1.0000000   1.0000000   1.0000000

  Atom        71          72          73          74          75          76          77          78          79          80
 IAtWgt=          12           1           1           1          12           1           1           1          12           1
 AtmWgt=  12.0000000   1.0078250   1.0078250   1.0078250  12.0000000   1.0078250   1.0078250   1.0078250  12.0000000   1.0078250
 NucSpn=           0           1           1           1           0           1           1           1           0           1
 AtZEff=   0.0000000   0.0000000   0.0000000   0.0000000   0.0000000   0.0000000   0.0000000   0.0000000   0.0000000   0.0000000
 NQMom=    0.0000000   0.0000000   0.0000000   0.0000000   0.0000000   0.0000000   0.0000000   0.0000000   0.0000000   0.0000000
 NMagM=    0.0000000   2.7928460   2.7928460   2.7928460   0.0000000   2.7928460   2.7928460   2.7928460   0.0000000   2.7928460
 AtZNuc=   6.0000000   1.0000000   1.0000000   1.0000000   6.0000000   1.0000000   1.0000000   1.0000000   6.0000000   1.0000000

  Atom        81          82          83          84          85          86          87          88          89          90
 IAtWgt=           1           1          23          16          12           1           1           1          12           1
 AtmWgt=   1.0078250   1.0078250  22.9897697  15.9949146  12.0000000   1.0078250   1.0078250   1.0078250  12.0000000   1.0078250
 NucSpn=           1           1           3           0           0           1           1           1           0           1
 AtZEff=   0.0000000   0.0000000   0.0000000   0.0000000   0.0000000   0.0000000   0.0000000   0.0000000   0.0000000   0.0000000
 NQMom=    0.0000000   0.0000000  10.4000000   0.0000000   0.0000000   0.0000000   0.0000000   0.0000000   0.0000000   0.0000000
 NMagM=    2.7928460   2.7928460   2.2175200   0.0000000   0.0000000   2.7928460   2.7928460   2.7928460   0.0000000   2.7928460
 AtZNuc=   1.0000000   1.0000000  11.0000000   8.0000000   6.0000000   1.0000000   1.0000000   1.0000000   6.0000000   1.0000000

  Atom        91          92          93          94          95          96          97          98          99         100
 IAtWgt=           1           1          12          19          19          19          12          19          19          19
 AtmWgt=   1.0078250   1.0078250  12.0000000  18.9984033  18.9984033  18.9984033  12.0000000  18.9984033  18.9984033  18.9984033
 NucSpn=           1           1           0           1           1           1           0           1           1           1
 AtZEff=   0.0000000   0.0000000   0.0000000   0.0000000   0.0000000   0.0000000   0.0000000   0.0000000   0.0000000   0.0000000
 NQMom=    0.0000000   0.0000000   0.0000000   0.0000000   0.0000000   0.0000000   0.0000000   0.0000000   0.0000000   0.0000000
 NMagM=    2.7928460   2.7928460   0.0000000   2.6288670   2.6288670   2.6288670   0.0000000   2.6288670   2.6288670   2.6288670
 AtZNuc=   1.0000000   1.0000000   6.0000000   9.0000000   9.0000000   9.0000000   6.0000000   9.0000000   9.0000000   9.0000000
 Leave Link  101 at Wed May 22 13:20:10 2019, MaxMem=  6442450944 cpu:              18.2 elap:               0.7
 (Enter /home/ekwan/sw/g16/l103.exe)

 GradGradGradGradGradGradGradGradGradGradGradGradGradGradGradGradGradGrad
 Berny optimization.
 Initialization pass.
                           ----------------------------
                           !    Initial Parameters    !
                           ! (Angstroms and Degrees)  !
 --------------------------                            --------------------------
 ! Name  Definition              Value          Derivative Info.                !
 --------------------------------------------------------------------------------
 ! R1    R(1,2)                  1.529          calculate D2E/DX2 analytically  !
 ! R2    R(1,5)                  1.5294         calculate D2E/DX2 analytically  !
 ! R3    R(1,8)                  1.0975         calculate D2E/DX2 analytically  !
 ! R4    R(1,14)                 1.4291         calculate D2E/DX2 analytically  !
 ! R5    R(2,3)                  1.5386         calculate D2E/DX2 analytically  !
 ! R6    R(2,7)                  1.0975         calculate D2E/DX2 analytically  !
 ! R7    R(2,13)                 1.4181         calculate D2E/DX2 analytically  !
 ! R8    R(3,6)                  1.0965         calculate D2E/DX2 analytically  !
 ! R9    R(3,11)                 1.4206         calculate D2E/DX2 analytically  !
 ! R10   R(3,12)                 1.3978         calculate D2E/DX2 analytically  !
 ! R11   R(4,5)                  1.5325         calculate D2E/DX2 analytically  !
 ! R12   R(4,9)                  1.0975         calculate D2E/DX2 analytically  !
 ! R13   R(4,11)                 1.4471         calculate D2E/DX2 analytically  !
 ! R14   R(4,16)                 1.5419         calculate D2E/DX2 analytically  !
 ! R15   R(5,10)                 1.0942         calculate D2E/DX2 analytically  !
 ! R16   R(5,15)                 1.4255         calculate D2E/DX2 analytically  !
 ! R17   R(11,37)                2.1187         calculate D2E/DX2 analytically  !
 ! R18   R(12,79)                1.4237         calculate D2E/DX2 analytically  !
 ! R19   R(13,20)                1.4169         calculate D2E/DX2 analytically  !
 ! R20   R(14,24)                1.4211         calculate D2E/DX2 analytically  !
 ! R21   R(15,28)                1.419          calculate D2E/DX2 analytically  !
 ! R22   R(16,17)                1.1093         calculate D2E/DX2 analytically  !
 ! R23   R(16,18)                1.1202         calculate D2E/DX2 analytically  !
 ! R24   R(16,19)                1.3761         calculate D2E/DX2 analytically  !
 ! R25   R(16,83)                2.7762         calculate D2E/DX2 analytically  !
 ! R26   R(19,37)                2.2209         calculate D2E/DX2 analytically  !
 ! R27   R(19,38)                2.2536         calculate D2E/DX2 analytically  !
 ! R28   R(19,83)                2.2496         calculate D2E/DX2 analytically  !
 ! R29   R(20,21)                1.0967         calculate D2E/DX2 analytically  !
 ! R30   R(20,22)                1.0985         calculate D2E/DX2 analytically  !
 ! R31   R(20,23)                1.0923         calculate D2E/DX2 analytically  !
 ! R32   R(24,25)                1.0997         calculate D2E/DX2 analytically  !
 ! R33   R(24,26)                1.0944         calculate D2E/DX2 analytically  !
 ! R34   R(24,27)                1.0935         calculate D2E/DX2 analytically  !
 ! R35   R(28,29)                1.0952         calculate D2E/DX2 analytically  !
 ! R36   R(28,30)                1.0987         calculate D2E/DX2 analytically  !
 ! R37   R(28,31)                1.094          calculate D2E/DX2 analytically  !
 ! R38   R(32,33)                1.5303         calculate D2E/DX2 analytically  !
 ! R39   R(32,36)                1.5313         calculate D2E/DX2 analytically  !
 ! R40   R(32,39)                1.0958         calculate D2E/DX2 analytically  !
 ! R41   R(32,45)                1.4173         calculate D2E/DX2 analytically  !
 ! R42   R(33,34)                1.4976         calculate D2E/DX2 analytically  !
 ! R43   R(33,38)                1.1009         calculate D2E/DX2 analytically  !
 ! R44   R(33,44)                1.4114         calculate D2E/DX2 analytically  !
 ! R45   R(34,37)                1.0751         calculate D2E/DX2 analytically  !
 ! R46   R(34,42)                1.2867         calculate D2E/DX2 analytically  !
 ! R47   R(34,53)                2.1519         calculate D2E/DX2 analytically  !
 ! R48   R(35,36)                1.5295         calculate D2E/DX2 analytically  !
 ! R49   R(35,40)                1.0935         calculate D2E/DX2 analytically  !
 ! R50   R(35,42)                1.4705         calculate D2E/DX2 analytically  !
 ! R51   R(35,47)                1.5123         calculate D2E/DX2 analytically  !
 ! R52   R(36,41)                1.0947         calculate D2E/DX2 analytically  !
 ! R53   R(36,46)                1.4182         calculate D2E/DX2 analytically  !
 ! R54   R(43,51)                1.4745         calculate D2E/DX2 analytically  !
 ! R55   R(44,63)                1.4331         calculate D2E/DX2 analytically  !
 ! R56   R(45,67)                1.425          calculate D2E/DX2 analytically  !
 ! R57   R(46,71)                1.426          calculate D2E/DX2 analytically  !
 ! R58   R(47,48)                1.1001         calculate D2E/DX2 analytically  !
 ! R59   R(47,49)                1.0987         calculate D2E/DX2 analytically  !
 ! R60   R(47,50)                1.4131         calculate D2E/DX2 analytically  !
 ! R61   R(50,75)                1.4192         calculate D2E/DX2 analytically  !
 ! R62   R(51,52)                1.4895         calculate D2E/DX2 analytically  !
 ! R63   R(51,53)                1.5139         calculate D2E/DX2 analytically  !
 ! R64   R(51,54)                1.8003         calculate D2E/DX2 analytically  !
 ! R65   R(52,83)                2.2656         calculate D2E/DX2 analytically  !
 ! R66   R(54,55)                1.3925         calculate D2E/DX2 analytically  !
 ! R67   R(54,56)                1.3918         calculate D2E/DX2 analytically  !
 ! R68   R(55,57)                1.3942         calculate D2E/DX2 analytically  !
 ! R69   R(55,58)                1.0825         calculate D2E/DX2 analytically  !
 ! R70   R(56,59)                1.3951         calculate D2E/DX2 analytically  !
 ! R71   R(56,60)                1.0835         calculate D2E/DX2 analytically  !
 ! R72   R(57,61)                1.3945         calculate D2E/DX2 analytically  !
 ! R73   R(57,93)                1.5041         calculate D2E/DX2 analytically  !
 ! R74   R(58,86)                2.4486         calculate D2E/DX2 analytically  !
 ! R75   R(59,61)                1.3952         calculate D2E/DX2 analytically  !
 ! R76   R(59,97)                1.5035         calculate D2E/DX2 analytically  !
 ! R77   R(61,62)                1.0832         calculate D2E/DX2 analytically  !
 ! R78   R(63,64)                1.097          calculate D2E/DX2 analytically  !
 ! R79   R(63,65)                1.0921         calculate D2E/DX2 analytically  !
 ! R80   R(63,66)                1.0923         calculate D2E/DX2 analytically  !
 ! R81   R(67,68)                1.0949         calculate D2E/DX2 analytically  !
 ! R82   R(67,69)                1.0985         calculate D2E/DX2 analytically  !
 ! R83   R(67,70)                1.0924         calculate D2E/DX2 analytically  !
 ! R84   R(71,72)                1.0969         calculate D2E/DX2 analytically  !
 ! R85   R(71,73)                1.0972         calculate D2E/DX2 analytically  !
 ! R86   R(71,74)                1.0921         calculate D2E/DX2 analytically  !
 ! R87   R(75,76)                1.0918         calculate D2E/DX2 analytically  !
 ! R88   R(75,77)                1.0977         calculate D2E/DX2 analytically  !
 ! R89   R(75,78)                1.0999         calculate D2E/DX2 analytically  !
 ! R90   R(79,80)                1.0916         calculate D2E/DX2 analytically  !
 ! R91   R(79,81)                1.0966         calculate D2E/DX2 analytically  !
 ! R92   R(79,82)                1.0987         calculate D2E/DX2 analytically  !
 ! R93   R(81,87)                2.4181         calculate D2E/DX2 analytically  !
 ! R94   R(83,84)                2.3357         calculate D2E/DX2 analytically  !
 ! R95   R(84,85)                1.4245         calculate D2E/DX2 analytically  !
 ! R96   R(84,89)                1.4264         calculate D2E/DX2 analytically  !
 ! R97   R(85,86)                1.0975         calculate D2E/DX2 analytically  !
 ! R98   R(85,87)                1.0919         calculate D2E/DX2 analytically  !
 ! R99   R(85,88)                1.0981         calculate D2E/DX2 analytically  !
 ! R100  R(89,90)                1.098          calculate D2E/DX2 analytically  !
 ! R101  R(89,91)                1.0924         calculate D2E/DX2 analytically  !
 ! R102  R(89,92)                1.0972         calculate D2E/DX2 analytically  !
 ! R103  R(93,94)                1.3546         calculate D2E/DX2 analytically  !
 ! R104  R(93,95)                1.3488         calculate D2E/DX2 analytically  !
 ! R105  R(93,96)                1.3515         calculate D2E/DX2 analytically  !
 ! R106  R(97,98)                1.3573         calculate D2E/DX2 analytically  !
 ! R107  R(97,99)                1.3486         calculate D2E/DX2 analytically  !
 ! R108  R(97,100)               1.3489         calculate D2E/DX2 analytically  !
 ! A1    A(2,1,5)              111.9401         calculate D2E/DX2 analytically  !
 ! A2    A(2,1,8)              108.7242         calculate D2E/DX2 analytically  !
 ! A3    A(2,1,14)             110.3629         calculate D2E/DX2 analytically  !
 ! A4    A(5,1,8)              108.1291         calculate D2E/DX2 analytically  !
 ! A5    A(5,1,14)             107.7648         calculate D2E/DX2 analytically  !
 ! A6    A(8,1,14)             109.8829         calculate D2E/DX2 analytically  !
 ! A7    A(1,2,3)              111.4007         calculate D2E/DX2 analytically  !
 ! A8    A(1,2,7)              108.2278         calculate D2E/DX2 analytically  !
 ! A9    A(1,2,13)             107.8873         calculate D2E/DX2 analytically  !
 ! A10   A(3,2,7)              107.3508         calculate D2E/DX2 analytically  !
 ! A11   A(3,2,13)             112.2077         calculate D2E/DX2 analytically  !
 ! A12   A(7,2,13)             109.6953         calculate D2E/DX2 analytically  !
 ! A13   A(2,3,6)              111.2991         calculate D2E/DX2 analytically  !
 ! A14   A(2,3,11)             109.9982         calculate D2E/DX2 analytically  !
 ! A15   A(2,3,12)             108.55           calculate D2E/DX2 analytically  !
 ! A16   A(6,3,11)             103.7496         calculate D2E/DX2 analytically  !
 ! A17   A(6,3,12)             110.4619         calculate D2E/DX2 analytically  !
 ! A18   A(11,3,12)            112.7617         calculate D2E/DX2 analytically  !
 ! A19   A(5,4,9)              108.3262         calculate D2E/DX2 analytically  !
 ! A20   A(5,4,11)             111.2959         calculate D2E/DX2 analytically  !
 ! A21   A(5,4,16)             111.9942         calculate D2E/DX2 analytically  !
 ! A22   A(9,4,11)             108.928          calculate D2E/DX2 analytically  !
 ! A23   A(9,4,16)             110.6768         calculate D2E/DX2 analytically  !
 ! A24   A(11,4,16)            105.5853         calculate D2E/DX2 analytically  !
 ! A25   A(1,5,4)              112.9087         calculate D2E/DX2 analytically  !
 ! A26   A(1,5,10)             108.9103         calculate D2E/DX2 analytically  !
 ! A27   A(1,5,15)             110.4912         calculate D2E/DX2 analytically  !
 ! A28   A(4,5,10)             109.0407         calculate D2E/DX2 analytically  !
 ! A29   A(4,5,15)             105.5776         calculate D2E/DX2 analytically  !
 ! A30   A(10,5,15)            109.8509         calculate D2E/DX2 analytically  !
 ! A31   A(3,11,4)             115.4808         calculate D2E/DX2 analytically  !
 ! A32   A(3,11,37)            109.2481         calculate D2E/DX2 analytically  !
 ! A33   A(4,11,37)            103.6149         calculate D2E/DX2 analytically  !
 ! A34   A(3,12,79)            113.0982         calculate D2E/DX2 analytically  !
 ! A35   A(2,13,20)            113.8129         calculate D2E/DX2 analytically  !
 ! A36   A(1,14,24)            114.7219         calculate D2E/DX2 analytically  !
 ! A37   A(5,15,28)            114.97           calculate D2E/DX2 analytically  !
 ! A38   A(4,16,17)            105.4927         calculate D2E/DX2 analytically  !
 ! A39   A(4,16,18)            105.4089         calculate D2E/DX2 analytically  !
 ! A40   A(4,16,19)            113.0258         calculate D2E/DX2 analytically  !
 ! A41   A(4,16,83)             94.9919         calculate D2E/DX2 analytically  !
 ! A42   A(17,16,18)           104.8504         calculate D2E/DX2 analytically  !
 ! A43   A(17,16,19)           114.1904         calculate D2E/DX2 analytically  !
 ! A44   A(17,16,83)           159.3976         calculate D2E/DX2 analytically  !
 ! A45   A(18,16,19)           113.0398         calculate D2E/DX2 analytically  !
 ! A46   A(18,16,83)            70.953          calculate D2E/DX2 analytically  !
 ! A47   A(16,19,37)           109.3035         calculate D2E/DX2 analytically  !
 ! A48   A(16,19,38)           160.8161         calculate D2E/DX2 analytically  !
 ! A49   A(37,19,38)            72.2073         calculate D2E/DX2 analytically  !
 ! A50   A(37,19,83)            62.781          calculate D2E/DX2 analytically  !
 ! A51   A(38,19,83)           100.3827         calculate D2E/DX2 analytically  !
 ! A52   A(13,20,21)           112.0513         calculate D2E/DX2 analytically  !
 ! A53   A(13,20,22)           111.4027         calculate D2E/DX2 analytically  !
 ! A54   A(13,20,23)           107.1225         calculate D2E/DX2 analytically  !
 ! A55   A(21,20,22)           108.6691         calculate D2E/DX2 analytically  !
 ! A56   A(21,20,23)           108.6208         calculate D2E/DX2 analytically  !
 ! A57   A(22,20,23)           108.8874         calculate D2E/DX2 analytically  !
 ! A58   A(14,24,25)           111.0398         calculate D2E/DX2 analytically  !
 ! A59   A(14,24,26)           111.5776         calculate D2E/DX2 analytically  !
 ! A60   A(14,24,27)           106.5642         calculate D2E/DX2 analytically  !
 ! A61   A(25,24,26)           109.0872         calculate D2E/DX2 analytically  !
 ! A62   A(25,24,27)           108.8326         calculate D2E/DX2 analytically  !
 ! A63   A(26,24,27)           109.6752         calculate D2E/DX2 analytically  !
 ! A64   A(15,28,29)           111.8174         calculate D2E/DX2 analytically  !
 ! A65   A(15,28,30)           111.1747         calculate D2E/DX2 analytically  !
 ! A66   A(15,28,31)           106.7344         calculate D2E/DX2 analytically  !
 ! A67   A(29,28,30)           108.4757         calculate D2E/DX2 analytically  !
 ! A68   A(29,28,31)           109.4665         calculate D2E/DX2 analytically  !
 ! A69   A(30,28,31)           109.1273         calculate D2E/DX2 analytically  !
 ! A70   A(33,32,36)           107.9592         calculate D2E/DX2 analytically  !
 ! A71   A(33,32,39)           108.9748         calculate D2E/DX2 analytically  !
 ! A72   A(33,32,45)           108.6879         calculate D2E/DX2 analytically  !
 ! A73   A(36,32,39)           110.396          calculate D2E/DX2 analytically  !
 ! A74   A(36,32,45)           109.8705         calculate D2E/DX2 analytically  !
 ! A75   A(39,32,45)           110.8812         calculate D2E/DX2 analytically  !
 ! A76   A(32,33,34)           111.486          calculate D2E/DX2 analytically  !
 ! A77   A(32,33,38)           109.3945         calculate D2E/DX2 analytically  !
 ! A78   A(32,33,44)           114.42           calculate D2E/DX2 analytically  !
 ! A79   A(34,33,38)           102.338          calculate D2E/DX2 analytically  !
 ! A80   A(34,33,44)           109.1286         calculate D2E/DX2 analytically  !
 ! A81   A(38,33,44)           109.3783         calculate D2E/DX2 analytically  !
 ! A82   A(33,34,37)           122.0713         calculate D2E/DX2 analytically  !
 ! A83   A(33,34,42)           122.1324         calculate D2E/DX2 analytically  !
 ! A84   A(33,34,53)            97.6401         calculate D2E/DX2 analytically  !
 ! A85   A(37,34,42)           113.3698         calculate D2E/DX2 analytically  !
 ! A86   A(37,34,53)            89.7626         calculate D2E/DX2 analytically  !
 ! A87   A(42,34,53)            97.8653         calculate D2E/DX2 analytically  !
 ! A88   A(36,35,40)           109.559          calculate D2E/DX2 analytically  !
 ! A89   A(36,35,42)           111.7            calculate D2E/DX2 analytically  !
 ! A90   A(36,35,47)           114.92           calculate D2E/DX2 analytically  !
 ! A91   A(40,35,42)           104.5443         calculate D2E/DX2 analytically  !
 ! A92   A(40,35,47)           109.6065         calculate D2E/DX2 analytically  !
 ! A93   A(42,35,47)           105.9616         calculate D2E/DX2 analytically  !
 ! A94   A(32,36,35)           111.3598         calculate D2E/DX2 analytically  !
 ! A95   A(32,36,41)           108.3423         calculate D2E/DX2 analytically  !
 ! A96   A(32,36,46)           110.7468         calculate D2E/DX2 analytically  !
 ! A97   A(35,36,41)           109.0357         calculate D2E/DX2 analytically  !
 ! A98   A(35,36,46)           106.7684         calculate D2E/DX2 analytically  !
 ! A99   A(41,36,46)           110.5843         calculate D2E/DX2 analytically  !
 ! A100  A(11,37,19)            77.5725         calculate D2E/DX2 analytically  !
 ! A101  A(11,37,34)           155.981          calculate D2E/DX2 analytically  !
 ! A102  A(19,37,34)            97.3648         calculate D2E/DX2 analytically  !
 ! A103  A(19,38,33)           107.5997         calculate D2E/DX2 analytically  !
 ! A104  A(34,42,35)           122.1625         calculate D2E/DX2 analytically  !
 ! A105  A(33,44,63)           113.6571         calculate D2E/DX2 analytically  !
 ! A106  A(32,45,67)           113.9171         calculate D2E/DX2 analytically  !
 ! A107  A(36,46,71)           113.6651         calculate D2E/DX2 analytically  !
 ! A108  A(35,47,48)           108.3024         calculate D2E/DX2 analytically  !
 ! A109  A(35,47,49)           108.8494         calculate D2E/DX2 analytically  !
 ! A110  A(35,47,50)           109.0734         calculate D2E/DX2 analytically  !
 ! A111  A(48,47,49)           108.7554         calculate D2E/DX2 analytically  !
 ! A112  A(48,47,50)           111.1663         calculate D2E/DX2 analytically  !
 ! A113  A(49,47,50)           110.634          calculate D2E/DX2 analytically  !
 ! A114  A(47,50,75)           111.745          calculate D2E/DX2 analytically  !
 ! A115  A(43,51,52)           115.0352         calculate D2E/DX2 analytically  !
 ! A116  A(43,51,53)           113.1675         calculate D2E/DX2 analytically  !
 ! A117  A(43,51,54)           107.1945         calculate D2E/DX2 analytically  !
 ! A118  A(52,51,53)           113.0039         calculate D2E/DX2 analytically  !
 ! A119  A(52,51,54)           103.3157         calculate D2E/DX2 analytically  !
 ! A120  A(53,51,54)           103.7466         calculate D2E/DX2 analytically  !
 ! A121  A(51,52,83)           138.6995         calculate D2E/DX2 analytically  !
 ! A122  A(34,53,51)           118.1956         calculate D2E/DX2 analytically  !
 ! A123  A(51,54,55)           118.5437         calculate D2E/DX2 analytically  !
 ! A124  A(51,54,56)           120.4812         calculate D2E/DX2 analytically  !
 ! A125  A(55,54,56)           120.9728         calculate D2E/DX2 analytically  !
 ! A126  A(54,55,57)           119.3596         calculate D2E/DX2 analytically  !
 ! A127  A(54,55,58)           119.6782         calculate D2E/DX2 analytically  !
 ! A128  A(57,55,58)           120.9421         calculate D2E/DX2 analytically  !
 ! A129  A(54,56,59)           119.0227         calculate D2E/DX2 analytically  !
 ! A130  A(54,56,60)           120.1947         calculate D2E/DX2 analytically  !
 ! A131  A(59,56,60)           120.7655         calculate D2E/DX2 analytically  !
 ! A132  A(55,57,61)           120.5271         calculate D2E/DX2 analytically  !
 ! A133  A(55,57,93)           119.4404         calculate D2E/DX2 analytically  !
 ! A134  A(61,57,93)           120.0254         calculate D2E/DX2 analytically  !
 ! A135  A(56,59,61)           120.819          calculate D2E/DX2 analytically  !
 ! A136  A(56,59,97)           119.4734         calculate D2E/DX2 analytically  !
 ! A137  A(61,59,97)           119.4969         calculate D2E/DX2 analytically  !
 ! A138  A(57,61,59)           119.2981         calculate D2E/DX2 analytically  !
 ! A139  A(57,61,62)           120.3961         calculate D2E/DX2 analytically  !
 ! A140  A(59,61,62)           120.2942         calculate D2E/DX2 analytically  !
 ! A141  A(44,63,64)           110.0426         calculate D2E/DX2 analytically  !
 ! A142  A(44,63,65)           110.9            calculate D2E/DX2 analytically  !
 ! A143  A(44,63,66)           105.9328         calculate D2E/DX2 analytically  !
 ! A144  A(64,63,65)           109.9569         calculate D2E/DX2 analytically  !
 ! A145  A(64,63,66)           110.0067         calculate D2E/DX2 analytically  !
 ! A146  A(65,63,66)           109.9313         calculate D2E/DX2 analytically  !
 ! A147  A(45,67,68)           111.3214         calculate D2E/DX2 analytically  !
 ! A148  A(45,67,69)           110.9488         calculate D2E/DX2 analytically  !
 ! A149  A(45,67,70)           106.4587         calculate D2E/DX2 analytically  !
 ! A150  A(68,67,69)           109.2755         calculate D2E/DX2 analytically  !
 ! A151  A(68,67,70)           109.6147         calculate D2E/DX2 analytically  !
 ! A152  A(69,67,70)           109.163          calculate D2E/DX2 analytically  !
 ! A153  A(46,71,72)           110.9507         calculate D2E/DX2 analytically  !
 ! A154  A(46,71,73)           111.0908         calculate D2E/DX2 analytically  !
 ! A155  A(46,71,74)           106.562          calculate D2E/DX2 analytically  !
 ! A156  A(72,71,73)           109.2218         calculate D2E/DX2 analytically  !
 ! A157  A(72,71,74)           109.4391         calculate D2E/DX2 analytically  !
 ! A158  A(73,71,74)           109.5294         calculate D2E/DX2 analytically  !
 ! A159  A(50,75,76)           107.0194         calculate D2E/DX2 analytically  !
 ! A160  A(50,75,77)           110.8111         calculate D2E/DX2 analytically  !
 ! A161  A(50,75,78)           111.1725         calculate D2E/DX2 analytically  !
 ! A162  A(76,75,77)           109.4034         calculate D2E/DX2 analytically  !
 ! A163  A(76,75,78)           109.2416         calculate D2E/DX2 analytically  !
 ! A164  A(77,75,78)           109.1488         calculate D2E/DX2 analytically  !
 ! A165  A(12,79,80)           106.8251         calculate D2E/DX2 analytically  !
 ! A166  A(12,79,81)           111.3684         calculate D2E/DX2 analytically  !
 ! A167  A(12,79,82)           110.7094         calculate D2E/DX2 analytically  !
 ! A168  A(80,79,81)           109.3255         calculate D2E/DX2 analytically  !
 ! A169  A(80,79,82)           109.3539         calculate D2E/DX2 analytically  !
 ! A170  A(81,79,82)           109.2091         calculate D2E/DX2 analytically  !
 ! A171  A(79,81,87)           129.7646         calculate D2E/DX2 analytically  !
 ! A172  A(16,83,52)           130.9331         calculate D2E/DX2 analytically  !
 ! A173  A(16,83,84)           127.9368         calculate D2E/DX2 analytically  !
 ! A174  A(19,83,52)           124.4113         calculate D2E/DX2 analytically  !
 ! A175  A(19,83,84)           149.0287         calculate D2E/DX2 analytically  !
 ! A176  A(52,83,84)            86.3439         calculate D2E/DX2 analytically  !
 ! A177  A(83,84,85)           111.5354         calculate D2E/DX2 analytically  !
 ! A178  A(83,84,89)           110.2348         calculate D2E/DX2 analytically  !
 ! A179  A(85,84,89)           111.6166         calculate D2E/DX2 analytically  !
 ! A180  A(84,85,86)           110.6397         calculate D2E/DX2 analytically  !
 ! A181  A(84,85,87)           107.2379         calculate D2E/DX2 analytically  !
 ! A182  A(84,85,88)           110.689          calculate D2E/DX2 analytically  !
 ! A183  A(86,85,87)           109.518          calculate D2E/DX2 analytically  !
 ! A184  A(86,85,88)           109.393          calculate D2E/DX2 analytically  !
 ! A185  A(87,85,88)           109.3252         calculate D2E/DX2 analytically  !
 ! A186  A(58,86,85)           161.4254         calculate D2E/DX2 analytically  !
 ! A187  A(81,87,85)           148.4605         calculate D2E/DX2 analytically  !
 ! A188  A(84,89,90)           110.5999         calculate D2E/DX2 analytically  !
 ! A189  A(84,89,91)           107.145          calculate D2E/DX2 analytically  !
 ! A190  A(84,89,92)           110.6235         calculate D2E/DX2 analytically  !
 ! A191  A(90,89,91)           109.2209         calculate D2E/DX2 analytically  !
 ! A192  A(90,89,92)           109.6756         calculate D2E/DX2 analytically  !
 ! A193  A(91,89,92)           109.5278         calculate D2E/DX2 analytically  !
 ! A194  A(57,93,94)           111.5541         calculate D2E/DX2 analytically  !
 ! A195  A(57,93,95)           111.8386         calculate D2E/DX2 analytically  !
 ! A196  A(57,93,96)           111.7289         calculate D2E/DX2 analytically  !
 ! A197  A(94,93,95)           107.5493         calculate D2E/DX2 analytically  !
 ! A198  A(94,93,96)           106.759          calculate D2E/DX2 analytically  !
 ! A199  A(95,93,96)           107.1267         calculate D2E/DX2 analytically  !
 ! A200  A(59,97,98)           110.9374         calculate D2E/DX2 analytically  !
 ! A201  A(59,97,99)           112.0048         calculate D2E/DX2 analytically  !
 ! A202  A(59,97,100)          112.034          calculate D2E/DX2 analytically  !
 ! A203  A(98,97,99)           106.8783         calculate D2E/DX2 analytically  !
 ! A204  A(98,97,100)          106.8812         calculate D2E/DX2 analytically  !
 ! A205  A(99,97,100)          107.8194         calculate D2E/DX2 analytically  !
 ! A206  L(55,58,86,1,-1)      173.456          calculate D2E/DX2 analytically  !
 ! A207  L(55,58,86,1,-2)      171.0258         calculate D2E/DX2 analytically  !
 ! D1    D(5,1,2,3)            -49.2586         calculate D2E/DX2 analytically  !
 ! D2    D(5,1,2,7)             68.5352         calculate D2E/DX2 analytically  !
 ! D3    D(5,1,2,13)          -172.836          calculate D2E/DX2 analytically  !
 ! D4    D(8,1,2,3)             70.1302         calculate D2E/DX2 analytically  !
 ! D5    D(8,1,2,7)           -172.076          calculate D2E/DX2 analytically  !
 ! D6    D(8,1,2,13)           -53.4472         calculate D2E/DX2 analytically  !
 ! D7    D(14,1,2,3)          -169.2828         calculate D2E/DX2 analytically  !
 ! D8    D(14,1,2,7)           -51.489          calculate D2E/DX2 analytically  !
 ! D9    D(14,1,2,13)           67.1398         calculate D2E/DX2 analytically  !
 ! D10   D(2,1,5,4)             46.1124         calculate D2E/DX2 analytically  !
 ! D11   D(2,1,5,10)           -75.163          calculate D2E/DX2 analytically  !
 ! D12   D(2,1,5,15)           164.092          calculate D2E/DX2 analytically  !
 ! D13   D(8,1,5,4)            -73.626          calculate D2E/DX2 analytically  !
 ! D14   D(8,1,5,10)           165.0987         calculate D2E/DX2 analytically  !
 ! D15   D(8,1,5,15)            44.3537         calculate D2E/DX2 analytically  !
 ! D16   D(14,1,5,4)           167.6442         calculate D2E/DX2 analytically  !
 ! D17   D(14,1,5,10)           46.3688         calculate D2E/DX2 analytically  !
 ! D18   D(14,1,5,15)          -74.3762         calculate D2E/DX2 analytically  !
 ! D19   D(2,1,14,24)          -95.8096         calculate D2E/DX2 analytically  !
 ! D20   D(5,1,14,24)          141.6827         calculate D2E/DX2 analytically  !
 ! D21   D(8,1,14,24)           24.0811         calculate D2E/DX2 analytically  !
 ! D22   D(1,2,3,6)            169.3907         calculate D2E/DX2 analytically  !
 ! D23   D(1,2,3,11)            54.9748         calculate D2E/DX2 analytically  !
 ! D24   D(1,2,3,12)           -68.8333         calculate D2E/DX2 analytically  !
 ! D25   D(7,2,3,6)             51.0689         calculate D2E/DX2 analytically  !
 ! D26   D(7,2,3,11)           -63.3471         calculate D2E/DX2 analytically  !
 ! D27   D(7,2,3,12)           172.8449         calculate D2E/DX2 analytically  !
 ! D28   D(13,2,3,6)           -69.5235         calculate D2E/DX2 analytically  !
 ! D29   D(13,2,3,11)          176.0606         calculate D2E/DX2 analytically  !
 ! D30   D(13,2,3,12)           52.2525         calculate D2E/DX2 analytically  !
 ! D31   D(1,2,13,20)         -157.4582         calculate D2E/DX2 analytically  !
 ! D32   D(3,2,13,20)           79.4554         calculate D2E/DX2 analytically  !
 ! D33   D(7,2,13,20)          -39.7714         calculate D2E/DX2 analytically  !
 ! D34   D(2,3,11,4)           -59.8927         calculate D2E/DX2 analytically  !
 ! D35   D(2,3,11,37)           56.3774         calculate D2E/DX2 analytically  !
 ! D36   D(6,3,11,4)          -179.0362         calculate D2E/DX2 analytically  !
 ! D37   D(6,3,11,37)          -62.7661         calculate D2E/DX2 analytically  !
 ! D38   D(12,3,11,4)           61.4285         calculate D2E/DX2 analytically  !
 ! D39   D(12,3,11,37)         177.6987         calculate D2E/DX2 analytically  !
 ! D40   D(2,3,12,79)         -168.6356         calculate D2E/DX2 analytically  !
 ! D41   D(6,3,12,79)          -46.3491         calculate D2E/DX2 analytically  !
 ! D42   D(11,3,12,79)          69.2242         calculate D2E/DX2 analytically  !
 ! D43   D(9,4,5,1)             71.8343         calculate D2E/DX2 analytically  !
 ! D44   D(9,4,5,10)          -166.9643         calculate D2E/DX2 analytically  !
 ! D45   D(9,4,5,15)           -48.9857         calculate D2E/DX2 analytically  !
 ! D46   D(11,4,5,1)           -47.8926         calculate D2E/DX2 analytically  !
 ! D47   D(11,4,5,10)           73.3088         calculate D2E/DX2 analytically  !
 ! D48   D(11,4,5,15)         -168.7126         calculate D2E/DX2 analytically  !
 ! D49   D(16,4,5,1)          -165.8257         calculate D2E/DX2 analytically  !
 ! D50   D(16,4,5,10)          -44.6243         calculate D2E/DX2 analytically  !
 ! D51   D(16,4,5,15)           73.3542         calculate D2E/DX2 analytically  !
 ! D52   D(5,4,11,3)            56.469          calculate D2E/DX2 analytically  !
 ! D53   D(5,4,11,37)          -62.9481         calculate D2E/DX2 analytically  !
 ! D54   D(9,4,11,3)           -62.9            calculate D2E/DX2 analytically  !
 ! D55   D(9,4,11,37)          177.6829         calculate D2E/DX2 analytically  !
 ! D56   D(16,4,11,3)          178.2066         calculate D2E/DX2 analytically  !
 ! D57   D(16,4,11,37)          58.7895         calculate D2E/DX2 analytically  !
 ! D58   D(5,4,16,17)          -54.6417         calculate D2E/DX2 analytically  !
 ! D59   D(5,4,16,18)         -165.2682         calculate D2E/DX2 analytically  !
 ! D60   D(5,4,16,19)           70.7974         calculate D2E/DX2 analytically  !
 ! D61   D(5,4,16,83)          123.1366         calculate D2E/DX2 analytically  !
 ! D62   D(9,4,16,17)           66.3484         calculate D2E/DX2 analytically  !
 ! D63   D(9,4,16,18)          -44.278          calculate D2E/DX2 analytically  !
 ! D64   D(9,4,16,19)         -168.2125         calculate D2E/DX2 analytically  !
 ! D65   D(9,4,16,83)         -115.8733         calculate D2E/DX2 analytically  !
 ! D66   D(11,4,16,17)        -175.9273         calculate D2E/DX2 analytically  !
 ! D67   D(11,4,16,18)          73.4463         calculate D2E/DX2 analytically  !
 ! D68   D(11,4,16,19)         -50.4882         calculate D2E/DX2 analytically  !
 ! D69   D(11,4,16,83)           1.851          calculate D2E/DX2 analytically  !
 ! D70   D(1,5,15,28)           92.9312         calculate D2E/DX2 analytically  !
 ! D71   D(4,5,15,28)         -144.685          calculate D2E/DX2 analytically  !
 ! D72   D(10,5,15,28)         -27.2512         calculate D2E/DX2 analytically  !
 ! D73   D(3,11,37,19)        -163.548          calculate D2E/DX2 analytically  !
 ! D74   D(3,11,37,34)         -83.4541         calculate D2E/DX2 analytically  !
 ! D75   D(4,11,37,19)         -39.9455         calculate D2E/DX2 analytically  !
 ! D76   D(4,11,37,34)          40.1483         calculate D2E/DX2 analytically  !
 ! D77   D(3,12,79,80)         176.9761         calculate D2E/DX2 analytically  !
 ! D78   D(3,12,79,81)         -63.7116         calculate D2E/DX2 analytically  !
 ! D79   D(3,12,79,82)          57.9989         calculate D2E/DX2 analytically  !
 ! D80   D(2,13,20,21)         -66.1785         calculate D2E/DX2 analytically  !
 ! D81   D(2,13,20,22)          55.8076         calculate D2E/DX2 analytically  !
 ! D82   D(2,13,20,23)         174.7913         calculate D2E/DX2 analytically  !
 ! D83   D(1,14,24,25)         -59.2924         calculate D2E/DX2 analytically  !
 ! D84   D(1,14,24,26)          62.6383         calculate D2E/DX2 analytically  !
 ! D85   D(1,14,24,27)        -177.668          calculate D2E/DX2 analytically  !
 ! D86   D(5,15,28,29)         -72.6803         calculate D2E/DX2 analytically  !
 ! D87   D(5,15,28,30)          48.7285         calculate D2E/DX2 analytically  !
 ! D88   D(5,15,28,31)         167.6363         calculate D2E/DX2 analytically  !
 ! D89   D(4,16,19,37)          15.1171         calculate D2E/DX2 analytically  !
 ! D90   D(4,16,19,38)         -76.1097         calculate D2E/DX2 analytically  !
 ! D91   D(17,16,19,37)        135.7209         calculate D2E/DX2 analytically  !
 ! D92   D(17,16,19,38)         44.4941         calculate D2E/DX2 analytically  !
 ! D93   D(18,16,19,37)       -104.5188         calculate D2E/DX2 analytically  !
 ! D94   D(18,16,19,38)        164.2544         calculate D2E/DX2 analytically  !
 ! D95   D(4,16,83,52)         -25.8763         calculate D2E/DX2 analytically  !
 ! D96   D(4,16,83,84)          98.8042         calculate D2E/DX2 analytically  !
 ! D97   D(17,16,83,52)        148.0294         calculate D2E/DX2 analytically  !
 ! D98   D(17,16,83,84)        -87.2901         calculate D2E/DX2 analytically  !
 ! D99   D(18,16,83,52)       -130.4728         calculate D2E/DX2 analytically  !
 ! D100  D(18,16,83,84)         -5.7922         calculate D2E/DX2 analytically  !
 ! D101  D(16,19,37,11)         13.5359         calculate D2E/DX2 analytically  !
 ! D102  D(16,19,37,34)       -142.6164         calculate D2E/DX2 analytically  !
 ! D103  D(38,19,37,11)        173.3523         calculate D2E/DX2 analytically  !
 ! D104  D(38,19,37,34)         17.2            calculate D2E/DX2 analytically  !
 ! D105  D(83,19,37,11)        -74.4432         calculate D2E/DX2 analytically  !
 ! D106  D(83,19,37,34)        129.4044         calculate D2E/DX2 analytically  !
 ! D107  D(16,19,38,33)        120.0669         calculate D2E/DX2 analytically  !
 ! D108  D(37,19,38,33)         22.3588         calculate D2E/DX2 analytically  !
 ! D109  D(83,19,38,33)        -34.4683         calculate D2E/DX2 analytically  !
 ! D110  D(37,19,83,52)         -5.5546         calculate D2E/DX2 analytically  !
 ! D111  D(37,19,83,84)        166.8101         calculate D2E/DX2 analytically  !
 ! D112  D(38,19,83,52)         58.1125         calculate D2E/DX2 analytically  !
 ! D113  D(38,19,83,84)       -129.5228         calculate D2E/DX2 analytically  !
 ! D114  D(36,32,33,34)        -50.1495         calculate D2E/DX2 analytically  !
 ! D115  D(36,32,33,38)         62.3099         calculate D2E/DX2 analytically  !
 ! D116  D(36,32,33,44)       -174.5854         calculate D2E/DX2 analytically  !
 ! D117  D(39,32,33,34)         69.7749         calculate D2E/DX2 analytically  !
 ! D118  D(39,32,33,38)       -177.7657         calculate D2E/DX2 analytically  !
 ! D119  D(39,32,33,44)        -54.6611         calculate D2E/DX2 analytically  !
 ! D120  D(45,32,33,34)       -169.2818         calculate D2E/DX2 analytically  !
 ! D121  D(45,32,33,38)        -56.8224         calculate D2E/DX2 analytically  !
 ! D122  D(45,32,33,44)         66.2823         calculate D2E/DX2 analytically  !
 ! D123  D(33,32,36,35)         58.5238         calculate D2E/DX2 analytically  !
 ! D124  D(33,32,36,41)        -61.3849         calculate D2E/DX2 analytically  !
 ! D125  D(33,32,36,46)        177.1704         calculate D2E/DX2 analytically  !
 ! D126  D(39,32,36,35)        -60.5009         calculate D2E/DX2 analytically  !
 ! D127  D(39,32,36,41)        179.5905         calculate D2E/DX2 analytically  !
 ! D128  D(39,32,36,46)         58.1458         calculate D2E/DX2 analytically  !
 ! D129  D(45,32,36,35)        176.9022         calculate D2E/DX2 analytically  !
 ! D130  D(45,32,36,41)         56.9936         calculate D2E/DX2 analytically  !
 ! D131  D(45,32,36,46)        -64.4511         calculate D2E/DX2 analytically  !
 ! D132  D(33,32,45,67)       -140.3927         calculate D2E/DX2 analytically  !
 ! D133  D(36,32,45,67)        101.6798         calculate D2E/DX2 analytically  !
 ! D134  D(39,32,45,67)        -20.6297         calculate D2E/DX2 analytically  !
 ! D135  D(32,33,34,37)       -163.1914         calculate D2E/DX2 analytically  !
 ! D136  D(32,33,34,42)         35.6642         calculate D2E/DX2 analytically  !
 ! D137  D(32,33,34,53)        -68.6534         calculate D2E/DX2 analytically  !
 ! D138  D(38,33,34,37)         79.9745         calculate D2E/DX2 analytically  !
 ! D139  D(38,33,34,42)        -81.1698         calculate D2E/DX2 analytically  !
 ! D140  D(38,33,34,53)        174.5125         calculate D2E/DX2 analytically  !
 ! D141  D(44,33,34,37)        -35.8338         calculate D2E/DX2 analytically  !
 ! D142  D(44,33,34,42)        163.0219         calculate D2E/DX2 analytically  !
 ! D143  D(44,33,34,53)         58.7042         calculate D2E/DX2 analytically  !
 ! D144  D(32,33,38,19)       -162.9427         calculate D2E/DX2 analytically  !
 ! D145  D(34,33,38,19)        -44.6163         calculate D2E/DX2 analytically  !
 ! D146  D(44,33,38,19)         71.0109         calculate D2E/DX2 analytically  !
 ! D147  D(32,33,44,63)        -91.7315         calculate D2E/DX2 analytically  !
 ! D148  D(34,33,44,63)        142.5891         calculate D2E/DX2 analytically  !
 ! D149  D(38,33,44,63)         31.3819         calculate D2E/DX2 analytically  !
 ! D150  D(33,34,37,11)       -129.5681         calculate D2E/DX2 analytically  !
 ! D151  D(33,34,37,19)        -53.6352         calculate D2E/DX2 analytically  !
 ! D152  D(42,34,37,11)         33.0861         calculate D2E/DX2 analytically  !
 ! D153  D(42,34,37,19)        109.019          calculate D2E/DX2 analytically  !
 ! D154  D(53,34,37,11)        131.5558         calculate D2E/DX2 analytically  !
 ! D155  D(53,34,37,19)       -152.5114         calculate D2E/DX2 analytically  !
 ! D156  D(33,34,42,35)        -26.1365         calculate D2E/DX2 analytically  !
 ! D157  D(37,34,42,35)        171.2213         calculate D2E/DX2 analytically  !
 ! D158  D(53,34,42,35)         78.0605         calculate D2E/DX2 analytically  !
 ! D159  D(33,34,53,51)        -90.8118         calculate D2E/DX2 analytically  !
 ! D160  D(37,34,53,51)         31.5443         calculate D2E/DX2 analytically  !
 ! D161  D(42,34,53,51)        145.1138         calculate D2E/DX2 analytically  !
 ! D162  D(40,35,36,32)         67.3578         calculate D2E/DX2 analytically  !
 ! D163  D(40,35,36,41)       -173.1447         calculate D2E/DX2 analytically  !
 ! D164  D(40,35,36,46)        -53.6462         calculate D2E/DX2 analytically  !
 ! D165  D(42,35,36,32)        -47.9966         calculate D2E/DX2 analytically  !
 ! D166  D(42,35,36,41)         71.5009         calculate D2E/DX2 analytically  !
 ! D167  D(42,35,36,46)       -169.0005         calculate D2E/DX2 analytically  !
 ! D168  D(47,35,36,32)       -168.7432         calculate D2E/DX2 analytically  !
 ! D169  D(47,35,36,41)        -49.2457         calculate D2E/DX2 analytically  !
 ! D170  D(47,35,36,46)         70.2528         calculate D2E/DX2 analytically  !
 ! D171  D(36,35,42,34)         31.4869         calculate D2E/DX2 analytically  !
 ! D172  D(40,35,42,34)        -86.904          calculate D2E/DX2 analytically  !
 ! D173  D(47,35,42,34)        157.325          calculate D2E/DX2 analytically  !
 ! D174  D(36,35,47,48)        -71.2095         calculate D2E/DX2 analytically  !
 ! D175  D(36,35,47,49)        170.7061         calculate D2E/DX2 analytically  !
 ! D176  D(36,35,47,50)         49.9066         calculate D2E/DX2 analytically  !
 ! D177  D(40,35,47,48)         52.6643         calculate D2E/DX2 analytically  !
 ! D178  D(40,35,47,49)        -65.4201         calculate D2E/DX2 analytically  !
 ! D179  D(40,35,47,50)        173.7804         calculate D2E/DX2 analytically  !
 ! D180  D(42,35,47,48)        164.9459         calculate D2E/DX2 analytically  !
 ! D181  D(42,35,47,49)         46.8615         calculate D2E/DX2 analytically  !
 ! D182  D(42,35,47,50)        -73.938          calculate D2E/DX2 analytically  !
 ! D183  D(32,36,46,71)        119.5923         calculate D2E/DX2 analytically  !
 ! D184  D(35,36,46,71)       -119.014          calculate D2E/DX2 analytically  !
 ! D185  D(41,36,46,71)         -0.522          calculate D2E/DX2 analytically  !
 ! D186  D(33,44,63,64)        -59.9925         calculate D2E/DX2 analytically  !
 ! D187  D(33,44,63,65)         61.8922         calculate D2E/DX2 analytically  !
 ! D188  D(33,44,63,66)       -178.8662         calculate D2E/DX2 analytically  !
 ! D189  D(32,45,67,68)        -59.6595         calculate D2E/DX2 analytically  !
 ! D190  D(32,45,67,69)         62.2699         calculate D2E/DX2 analytically  !
 ! D191  D(32,45,67,70)       -179.0701         calculate D2E/DX2 analytically  !
 ! D192  D(36,46,71,72)        -63.592          calculate D2E/DX2 analytically  !
 ! D193  D(36,46,71,73)         58.1108         calculate D2E/DX2 analytically  !
 ! D194  D(36,46,71,74)        177.3527         calculate D2E/DX2 analytically  !
 ! D195  D(35,47,50,75)        175.4251         calculate D2E/DX2 analytically  !
 ! D196  D(48,47,50,75)        -65.2219         calculate D2E/DX2 analytically  !
 ! D197  D(49,47,50,75)         55.7238         calculate D2E/DX2 analytically  !
 ! D198  D(47,50,75,76)        179.8117         calculate D2E/DX2 analytically  !
 ! D199  D(47,50,75,77)        -60.9774         calculate D2E/DX2 analytically  !
 ! D200  D(47,50,75,78)         60.5924         calculate D2E/DX2 analytically  !
 ! D201  D(43,51,52,83)        -98.371          calculate D2E/DX2 analytically  !
 ! D202  D(53,51,52,83)         33.6976         calculate D2E/DX2 analytically  !
 ! D203  D(54,51,52,83)        145.1528         calculate D2E/DX2 analytically  !
 ! D204  D(43,51,53,34)        123.7215         calculate D2E/DX2 analytically  !
 ! D205  D(52,51,53,34)         -9.2582         calculate D2E/DX2 analytically  !
 ! D206  D(54,51,53,34)       -120.4477         calculate D2E/DX2 analytically  !
 ! D207  D(43,51,54,55)        -96.5282         calculate D2E/DX2 analytically  !
 ! D208  D(43,51,54,56)         82.9171         calculate D2E/DX2 analytically  !
 ! D209  D(52,51,54,55)         25.3727         calculate D2E/DX2 analytically  !
 ! D210  D(52,51,54,56)       -155.1821         calculate D2E/DX2 analytically  !
 ! D211  D(53,51,54,55)        143.4935         calculate D2E/DX2 analytically  !
 ! D212  D(53,51,54,56)        -37.0613         calculate D2E/DX2 analytically  !
 ! D213  D(51,52,83,16)        -77.8325         calculate D2E/DX2 analytically  !
 ! D214  D(51,52,83,19)        -41.2278         calculate D2E/DX2 analytically  !
 ! D215  D(51,52,83,84)        142.7009         calculate D2E/DX2 analytically  !
 ! D216  D(51,54,55,57)        179.5469         calculate D2E/DX2 analytically  !
 ! D217  D(51,54,55,58)         -2.0711         calculate D2E/DX2 analytically  !
 ! D218  D(56,54,55,57)          0.1046         calculate D2E/DX2 analytically  !
 ! D219  D(56,54,55,58)        178.4865         calculate D2E/DX2 analytically  !
 ! D220  D(51,54,56,59)       -179.4725         calculate D2E/DX2 analytically  !
 ! D221  D(51,54,56,60)          2.021          calculate D2E/DX2 analytically  !
 ! D222  D(55,54,56,59)         -0.0409         calculate D2E/DX2 analytically  !
 ! D223  D(55,54,56,60)       -178.5474         calculate D2E/DX2 analytically  !
 ! D224  D(54,55,57,61)         -0.2487         calculate D2E/DX2 analytically  !
 ! D225  D(54,55,57,93)       -179.2829         calculate D2E/DX2 analytically  !
 ! D226  D(58,55,57,61)       -178.6096         calculate D2E/DX2 analytically  !
 ! D227  D(58,55,57,93)          2.3562         calculate D2E/DX2 analytically  !
 ! D228  D(54,55,86,85)        -71.6185         calculate D2E/DX2 analytically  !
 ! D229  D(57,55,86,85)        104.0009         calculate D2E/DX2 analytically  !
 ! D230  D(54,56,59,61)          0.1207         calculate D2E/DX2 analytically  !
 ! D231  D(54,56,59,97)       -174.577          calculate D2E/DX2 analytically  !
 ! D232  D(60,56,59,61)        178.6185         calculate D2E/DX2 analytically  !
 ! D233  D(60,56,59,97)          3.9207         calculate D2E/DX2 analytically  !
 ! D234  D(55,57,61,59)          0.3266         calculate D2E/DX2 analytically  !
 ! D235  D(55,57,61,62)        179.0937         calculate D2E/DX2 analytically  !
 ! D236  D(93,57,61,59)        179.3551         calculate D2E/DX2 analytically  !
 ! D237  D(93,57,61,62)         -1.8777         calculate D2E/DX2 analytically  !
 ! D238  D(55,57,93,94)        -30.0597         calculate D2E/DX2 analytically  !
 ! D239  D(55,57,93,95)       -150.5611         calculate D2E/DX2 analytically  !
 ! D240  D(55,57,93,96)         89.3572         calculate D2E/DX2 analytically  !
 ! D241  D(61,57,93,94)        150.9012         calculate D2E/DX2 analytically  !
 ! D242  D(61,57,93,95)         30.3997         calculate D2E/DX2 analytically  !
 ! D243  D(61,57,93,96)        -89.6819         calculate D2E/DX2 analytically  !
 ! D244  D(56,59,61,57)         -0.2626         calculate D2E/DX2 analytically  !
 ! D245  D(56,59,61,62)       -179.0311         calculate D2E/DX2 analytically  !
 ! D246  D(97,59,61,57)        174.4339         calculate D2E/DX2 analytically  !
 ! D247  D(97,59,61,62)         -4.3345         calculate D2E/DX2 analytically  !
 ! D248  D(56,59,97,98)         87.2782         calculate D2E/DX2 analytically  !
 ! D249  D(56,59,97,99)        -32.0567         calculate D2E/DX2 analytically  !
 ! D250  D(56,59,97,100)      -153.3638         calculate D2E/DX2 analytically  !
 ! D251  D(61,59,97,98)        -87.4904         calculate D2E/DX2 analytically  !
 ! D252  D(61,59,97,99)        153.1747         calculate D2E/DX2 analytically  !
 ! D253  D(61,59,97,100)        31.8676         calculate D2E/DX2 analytically  !
 ! D254  D(12,79,81,87)        123.5531         calculate D2E/DX2 analytically  !
 ! D255  D(80,79,81,87)       -118.6338         calculate D2E/DX2 analytically  !
 ! D256  D(82,79,81,87)          0.9755         calculate D2E/DX2 analytically  !
 ! D257  D(79,81,87,85)        -39.1973         calculate D2E/DX2 analytically  !
 ! D258  D(16,83,84,85)        -81.8791         calculate D2E/DX2 analytically  !
 ! D259  D(16,83,84,89)        153.5408         calculate D2E/DX2 analytically  !
 ! D260  D(19,83,84,85)       -114.0736         calculate D2E/DX2 analytically  !
 ! D261  D(19,83,84,89)        121.3464         calculate D2E/DX2 analytically  !
 ! D262  D(52,83,84,85)         59.6203         calculate D2E/DX2 analytically  !
 ! D263  D(52,83,84,89)        -64.9597         calculate D2E/DX2 analytically  !
 ! D264  D(83,84,85,86)        -62.9006         calculate D2E/DX2 analytically  !
 ! D265  D(83,84,85,87)         56.4847         calculate D2E/DX2 analytically  !
 ! D266  D(83,84,85,88)        175.6647         calculate D2E/DX2 analytically  !
 ! D267  D(89,84,85,86)         60.9017         calculate D2E/DX2 analytically  !
 ! D268  D(89,84,85,87)       -179.713          calculate D2E/DX2 analytically  !
 ! D269  D(89,84,85,88)        -60.533          calculate D2E/DX2 analytically  !
 ! D270  D(83,84,89,90)       -175.7294         calculate D2E/DX2 analytically  !
 ! D271  D(83,84,89,91)        -56.7817         calculate D2E/DX2 analytically  !
 ! D272  D(83,84,89,92)         62.5499         calculate D2E/DX2 analytically  !
 ! D273  D(85,84,89,90)         59.7372         calculate D2E/DX2 analytically  !
 ! D274  D(85,84,89,91)        178.6849         calculate D2E/DX2 analytically  !
 ! D275  D(85,84,89,92)        -61.9836         calculate D2E/DX2 analytically  !
 ! D276  D(84,85,86,58)         90.8258         calculate D2E/DX2 analytically  !
 ! D277  D(87,85,86,58)        -27.1754         calculate D2E/DX2 analytically  !
 ! D278  D(88,85,86,58)       -146.9775         calculate D2E/DX2 analytically  !
 ! D279  D(84,85,87,81)       -103.0675         calculate D2E/DX2 analytically  !
 ! D280  D(86,85,87,81)         17.0353         calculate D2E/DX2 analytically  !
 ! D281  D(88,85,87,81)        136.8789         calculate D2E/DX2 analytically  !
 --------------------------------------------------------------------------------
 Trust Radius=3.00D-02 FncErr=1.00D-07 GrdErr=1.00D-06 EigMax=2.50D+02 EigMin=1.00D-04
 Number of steps in this run=    600 maximum allowed number of steps=    600.
 Search for a saddle point of order  1.
 Step   0 in ReCalcFC=30 IGetFC= 4 compute analytic Hessian.
 GradGradGradGradGradGradGradGradGradGradGradGradGradGradGradGradGradGrad

 Leave Link  103 at Wed May 22 13:20:10 2019, MaxMem=  6442450944 cpu:               4.8 elap:               0.2
 (Enter /home/ekwan/sw/g16/l202.exe)
 Stoichiometry    C30H47F6NaO15S
 Framework group  C1[X(C30H47F6NaO15S)]
 Deg. of freedom   294
 Full point group                 C1      NOp   1
 Largest Abelian subgroup         C1      NOp   1
 Largest concise Abelian subgroup C1      NOp   1
                         Standard orientation:                         
 ---------------------------------------------------------------------
 Center     Atomic      Atomic             Coordinates (Angstroms)
 Number     Number       Type             X           Y           Z
 ---------------------------------------------------------------------
      1          6           0        0.912891   -1.707811    2.938755
      2          6           0       -0.243801   -1.426955    1.979058
      3          6           0       -0.879210   -0.052630    2.252627
      4          6           0        1.194889    0.819046    3.157707
      5          6           0        1.893966   -0.536643    3.009481
      6          1           0       -1.577177    0.229249    1.455387
      7          1           0        0.155610   -1.405272    0.957084
      8          1           0        0.504523   -1.872410    3.944099
      9          1           0        0.784309    0.886369    4.173250
     10          1           0        2.501390   -0.527437    2.099442
     11          8           0        0.115308    0.960654    2.204583
     12          8           0       -1.538982   -0.104901    3.483801
     13          8           0       -1.180029   -2.484748    2.103949
     14          8           0        1.641462   -2.861959    2.515134
     15          8           0        2.736600   -0.659868    4.152688
     16          6           0        2.151397    1.995637    2.878058
     17          1           0        3.014794    1.843592    3.557733
     18          1           0        1.629880    2.904054    3.275171
     19          8           0        2.492448    2.108014    1.549666
     20          6           0       -2.018300   -2.643324    0.972681
     21          1           0       -2.688147   -1.786267    0.833211
     22          1           0       -1.430961   -2.783550    0.055038
     23          1           0       -2.624624   -3.535589    1.144240
     24          6           0        1.256208   -4.073891    3.149447
     25          1           0        1.385390   -4.007381    4.239538
     26          1           0        0.215995   -4.331375    2.927396
     27          1           0        1.918955   -4.852723    2.762328
     28          6           0        3.968896   -1.323774    3.919784
     29          1           0        3.830476   -2.400826    3.777819
     30          1           0        4.476934   -0.918285    3.034013
     31          1           0        4.592219   -1.149437    4.801717
     32          6           0        3.303861    0.795976   -2.386409
     33          6           0        2.689146    1.478612   -1.162561
     34          6           0        1.811532    0.539700   -0.393811
     35          6           0        2.893037   -1.434222   -1.269307
     36          6           0        3.931127   -0.522968   -1.926055
     37          1           0        1.094890    0.889431    0.327252
     38          1           0        3.482699    1.707948   -0.434792
     39          1           0        2.514744    0.607028   -3.122886
     40          1           0        2.170062   -1.765843   -2.019670
     41          1           0        4.717313   -0.295307   -1.199035
     42          8           0        2.087114   -0.711450   -0.274075
     43          8           0       -1.132212    2.076752   -3.027813
     44          8           0        1.965497    2.655182   -1.452691
     45          8           0        4.304511    1.643441   -2.924332
     46          8           0        4.463754   -1.237876   -3.028960
     47          6           0        3.464032   -2.635201   -0.549191
     48          1           0        3.842795   -3.341809   -1.302484
     49          1           0        2.660715   -3.122743    0.020117
     50          8           0        4.497523   -2.207486    0.314382
     51         16           0       -0.921863    1.323708   -1.777646
     52          8           0       -0.912394    2.149756   -0.538224
     53          8           0        0.240611    0.356880   -1.853137
     54          6           0       -2.353114    0.255117   -1.552805
     55          6           0       -3.386195    0.691536   -0.727413
     56          6           0       -2.425296   -0.974140   -2.201592
     57          6           0       -4.506917   -0.118257   -0.548796
     58          1           0       -3.297381    1.640151   -0.213639
     59          6           0       -3.553564   -1.773070   -2.014362
     60          1           0       -1.603904   -1.311775   -2.822293
     61          6           0       -4.599312   -1.351814   -1.192479
     62          1           0       -5.464409   -1.985794   -1.040695
     63          6           0        2.755199    3.848791   -1.379399
     64          1           0        3.166942    3.965750   -0.369341
     65          1           0        3.565077    3.825695   -2.111706
     66          1           0        2.074249    4.673065   -1.603152
     67          6           0        4.330650    1.674635   -4.348760
     68          1           0        4.511770    0.678462   -4.765529
     69          1           0        3.387647    2.069734   -4.750306
     70          1           0        5.147772    2.343403   -4.628749
     71          6           0        5.866993   -1.473286   -2.934675
     72          1           0        6.424597   -0.528762   -2.943504
     73          1           0        6.113524   -2.029799   -2.021740
     74          1           0        6.142631   -2.066262   -3.809356
     75          6           0        5.004722   -3.276973    1.097459
     76          1           0        5.794469   -2.864483    1.728477
     77          1           0        4.216915   -3.703859    1.731526
     78          1           0        5.425589   -4.069934    0.461892
     79          6           0       -2.374451    1.023763    3.718095
     80          1           0       -2.876378    0.852706    4.672295
     81          1           0       -1.788865    1.949007    3.776831
     82          1           0       -3.126775    1.121928    2.923390
     83         11           0        0.593620    3.099588    0.862659
     84          8           0       -0.903266    4.885721    1.019963
     85          6           0       -2.166542    4.466141    1.527100
     86          1           0       -2.638127    3.747619    0.844551
     87          1           0       -1.985290    3.987966    2.491840
     88          1           0       -2.833467    5.327117    1.667846
     89          6           0       -1.033343    5.533209   -0.244341
     90          1           0       -1.676390    6.419235   -0.160275
     91          1           0       -0.032026    5.843420   -0.551821
     92          1           0       -1.449154    4.844401   -0.990334
     93          6           0       -5.631094    0.358472    0.329474
     94          9           0       -5.181265    1.167821    1.318237
     95          9           0       -6.284296   -0.668820    0.910319
     96          9           0       -6.545443    1.067574   -0.368889
     97          6           0       -3.589883   -3.153152   -2.609917
     98          9           0       -3.037400   -4.060635   -1.765209
     99          9           0       -2.898981   -3.222954   -3.765932
[...]
 001074,-0.00000372,0.00003931,-0.00000269,0.00196650,0.00106403,-0.000
 37366,-0.00052669,-0.00052443,-0.00026228,-0.00111948,0.00006789,-0.00
 009207,0.00056314,0.00032993,0.00004493,0.00041254,-0.00047794,-0.0006
 4833,-0.00037680,-0.00134761,-0.00109306,0.00173217,-0.00147886,-0.000
 52826,0.00004776,0.00002967,-0.00005611,0.01885735,-0.00034117,-0.0327
 3259,0.00039675,-0.00113612,-0.00134935,-0.00382952,-0.00383335,-0.001
 54087,-0.00005507,0.00037444,-0.00022002,0.00002570,0.00006212,0.00000
 198,-0.00000558,-0.00000685,-0.00000623,-0.00001029,-0.00001141,0.0000
 0263,0.00000171,-0.00000218,0.00000019,0.00000891,-0.00000572,-0.00003
 169,-0.00000161,0.00000446,0.00000545,-0.00000129,0.00000146,0.0000008
 1,-0.00000318,-0.00000205,0.00000455,0.00002785,-0.00000911,0.00000247
 ,-0.00000227,0.00000153,-0.00000106,-0.00000387,-0.00000019,-0.0000039
 3,-0.00000690,0.00000164,0.00000452,0.00000647,-0.00001972,0.00000677,
 0.00000074,0.00000245,-0.00000081,0.00000156,-0.00000110,-0.00000464,-
 0.00000518,0.00000481,0.00000311,0.00003987,0.00001333,0.00006413,-0.0
 0000074,0.00000105,-0.00001804,-0.00000760,-0.00000584,-0.00000276,-0.
 00000840,0.00000067,-0.00000481,0.00009594,0.00008003,0.00009460,-0.00
 003705,-0.00006988,-0.00001407,0.00005298,0.00005152,0.00005600,-0.000
 03025,0.00000646,-0.00001840,-0.00000348,0.00000324,-0.00000428,-0.000
 00251,-0.00002195,-0.00001134,0.00001926,0.00004435,0.00000239,0.00000
 421,-0.00001300,-0.00000463,-0.00000844,-0.00000222,0.00000183,-0.0000
 0814,0.00000426,-0.00001735,-0.00177007,0.00009698,0.00115382,0.000254
 48,-0.00037398,-0.00063136,0.00045980,0.00011663,-0.00035649,0.0007504
 6,-0.00032711,-0.00004381,0.01150303,-0.08341522,-0.02822176,-0.009061
 71,0.00315099,0.04115966,-0.00594445,0.07724012,0.00006085,-0.00012619
 ,0.00005009,0.00023704,0.00024076,-0.00009558,0.00016992,0.00006206,0.
 00025660,0.00008722,-0.00001238,0.00010717,0.00006508,0.00004555,0.000
 01633,-0.00004588,0.00004934,-0.00000561,0.00002077,-0.00001288,0.0000
 1129,-0.00000672,0.00000946,-0.00000114,-0.00000592,0.00000453,-0.0000
 1843,-0.00000423,-0.00001050,-0.00000274,-0.00020142,-0.00011250,-0.00
 012904,-0.00001851,-0.00006543,-0.00016640,-0.00048948,-0.00026337,-0.
 00046636,-0.00007785,0.00008905,-0.00001845,-0.00012207,0.00001158,-0.
 00005320,0.00001072,0.00003585,0.00001059,-0.00001938,-0.00000881,-0.0
 0001377,0.00000610,-0.00001615,-0.00001245,-0.00006355,-0.00005146,-0.
 00002235,0.00025652,0.00012137,0.00044549,-0.00004084,0.00007322,0.000
 09744,0.00033846,0.00009534,-0.00001547,-0.00008001,-0.00005158,0.0002
 5328,0.00003003,-0.00003073,0.00003369,-0.00000459,0.00000228,-0.00001
 415,-0.00000252,-0.00002205,0.00000371,-0.00001382,0.00001460,-0.00000
 073,0.00006467,-0.00002644,-0.00001904,-0.00000191,0.00000628,0.000005
 00,-0.00000627,-0.00000096,0.00000831,-0.00001243,0.00000258,-0.000005
 66,0.00001325,-0.00000123,-0.00006907,-0.00000896,-0.00000534,-0.00005
 268,0.00038480,-0.00008645,0.00026199,0.00008319,-0.00012243,-0.000121
 89,0.00003924,-0.00001803,-0.00003237,-0.00000356,-0.00000004,-0.00002
 062,-0.00000771,-0.00001084,0.00001644,0.00000710,-0.00000909,-0.00001
 277,-0.00000016,-0.00000164,0.00000133,0.00000568,0.00000497,0.0000047
 8,-0.00017372,0.00020678,0.00002995,-0.00038139,-0.00049414,0.00062823
 ,-0.00007388,-0.00003598,0.00003877,-0.00002897,-0.00000708,0.00009119
 ,-0.00002052,0.00003443,0.00006497,0.00000841,-0.00000181,-0.00002566,
 -0.00001803,0.00001423,0.00000515,-0.00000097,-0.00001183,-0.00000195,
 -0.00000837,0.00001250,0.00003569,0.00202298,0.00094615,-0.00088318,-0
 .00057657,-0.00054134,-0.00010805,-0.00105286,0.00011479,0.00008755,-0
 .00007716,-0.00082001,0.00012266,-0.00028300,-0.00036692,-0.00017060,0
 .00263210,0.00129071,-0.00019281,0.00205476,-0.00030296,-0.00076250,-0
 .00007955,0.00004541,-0.00001154,0.02234328,-0.00722407,-0.02701999,-0
 .00133484,-0.00088400,-0.00081167,-0.00377534,-0.00571239,-0.00124839,
 -0.00031890,0.00044588,0.00020242,0.00001895,0.00005155,-0.00000726,-0
 .00000175,-0.00000483,-0.00000112,-0.00001308,-0.00001226,0.00000260,0
 .00000259,-0.00000489,-0.00000327,-0.00001090,-0.00000604,-0.00007270,
 -0.00000969,0.00001013,0.00000598,0.00000747,-0.00001016,0.00000525,0.
 00000296,0.00000196,0.00000847,-0.00000009,-0.00000244,-0.00000509,0.0
 0000128,0.00000362,-0.00000038,0.00000203,-0.00000370,0.00000182,-0.00
 000983,0.00000404,0.00000486,0.00001376,0.00000151,-0.00001513,0.00000
 097,-0.00000048,0.00000058,-0.00000144,-0.00000689,0.00000275,-0.00000
 482,0.00000395,0.00000493,0.00001917,0.00006298,0.00007940,0.00000496,
 -0.00000070,-0.00001863,-0.00001397,-0.00002246,-0.00000704,-0.0000045
 0,0.00000214,-0.00000885,0.00009800,0.00009625,0.00005517,-0.00004270,
 -0.00008153,0.00001931,0.00006421,0.00005289,0.00004251,-0.00003067,0.
 00001079,-0.00002076,-0.00000127,0.00000479,0.00000220,-0.00000437,-0.
 00002308,-0.00001152,0.00001217,0.00004868,-0.00002691,0.00000474,-0.0
 0001343,-0.00000234,-0.00000994,-0.00000478,0.00000226,-0.00000324,0.0
 0000686,-0.00001399,-0.00184031,0.00036997,0.00092195,0.00028528,-0.00
 049901,-0.00074099,0.00042014,-0.00000935,-0.00032452,0.00075218,-0.00
 039905,0.00004598,0.07732304,-0.03528909,-0.21615192,0.00881724,0.0289
 6672,-0.06732079,-0.13781056,0.01276263,0.30957970,0.00004123,-0.00007
 778,0.00006520,0.00014576,0.00019260,0.00001349,0.00003153,0.00005129,
 0.00027417,0.00006243,0.00000266,0.00009940,0.00005789,0.00003401,0.00
 003873,-0.00004013,0.00003698,-0.00000718,0.00002374,0.00000102,-0.000
 00722,-0.00000723,0.00001035,-0.00001737,0.00000106,0.00000479,-0.0000
 2714,0.00000733,-0.00000870,-0.00000078,-0.00011048,-0.00008005,-0.000
 14856,0.00007290,-0.00007752,-0.00019983,-0.00028026,-0.00023557,-0.00
 052779,-0.00004680,0.00007494,-0.00007994,-0.00010015,0.00001089,-0.00
 007080,-0.00001786,0.00002591,0.00009940,-0.00001927,-0.00000673,-0.00
 003141,0.00002064,-0.00003154,-0.00003460,-0.00004442,-0.00008606,-0.0
 0014237,-0.00006208,0.00007827,0.00065800,-0.00001193,-0.00001403,0.00
 002688,0.00041130,0.00015056,-0.00007473,-0.00008718,0.00001526,0.0001
 5320,0.00001199,-0.00004947,0.00006427,-0.00000809,-0.00000282,-0.0000
 3027,-0.00000674,-0.00001335,0.00001514,0.00000002,0.00000666,0.000004
 57,0.00004939,-0.00002198,-0.00000596,-0.00000213,0.00000348,0.0000087
 0,-0.00000058,0.00000489,0.00000491,-0.00001356,0.00000018,-0.00000935
 ,0.00007504,0.00004193,-0.00002823,-0.00003992,0.00002428,-0.00003091,
 0.00042923,0.00009294,0.00034228,0.00010672,-0.00000589,0.00001683,0.0
 0005057,-0.00000567,-0.00003884,-0.00003204,0.,0.00000221,-0.00000407,
 -0.00001167,0.00002121,0.00000067,0.00000636,-0.00002911,0.00000370,0.
 00000743,-0.00001561,-0.00001389,-0.00000480,0.00000299,-0.00013181,0.
 00002357,-0.00003759,-0.00027277,-0.00048163,0.00047646,-0.00007142,-0
 .00011125,0.00001271,-0.00007377,-0.00005269,0.00005636,-0.00010161,0.
 00001115,0.00003038,0.00008472,0.00000701,0.00004633,-0.00000260,-0.00
 000010,-0.00000607,-0.00000402,-0.00001374,0.00001963,-0.00010514,0.00
 001478,-0.00007548,0.00166201,0.00101292,-0.00051245,-0.00049374,-0.00
 066196,-0.00039005,-0.00085641,-0.00009903,-0.00009344,-0.00091955,-0.
 00047182,0.00080088,0.00025143,-0.00004923,-0.00029565,0.00186815,-0.0
 0300550,-0.00294304,0.00095128,-0.00100352,-0.00052218,0.00011923,0.00
 009520,-0.00011732,-0.01964114,-0.01184923,-0.00594267,0.00046745,0.00
 069396,-0.00003811,-0.00248937,0.00118990,0.00361270,0.00160874,0.0003
 7049,-0.00165065,0.00004170,0.00009655,0.00000643,-0.00000855,-0.00000
 790,-0.00000877,-0.00001319,-0.00001076,0.00000298,0.00000282,-0.00001
 020,0.00000155,0.00000977,0.00000805,-0.00004294,0.00000797,0.00000074
 ,0.00000499,0.00000126,0.00000684,0.00000471,-0.00001000,-0.00000808,0
 .00000639,0.00008198,-0.00000910,0.00000334,-0.00001335,-0.00000910,-0
 .00000303,-0.00000553,0.00000348,-0.00000496,-0.00000414,0.00000468,0.
 00000234,0.00003200,-0.00004460,0.00003202,-0.00001115,-0.00000082,-0.
 00000996,0.00000194,0.00000587,0.00000248,-0.00000092,0.00001146,0.000
 00167,-0.00003241,0.00007855,0.00005443,0.00000794,-0.00000600,-0.0000
 2501,-0.00000190,-0.00001824,0.00000012,-0.00000415,-0.00000993,0.0000
 0257,0.00007086,0.00012298,0.00009967,-0.00000168,-0.00007092,-0.00001
 548,0.00002075,0.00003714,0.00005079,-0.00003002,0.00001229,-0.0000126
 1,-0.00000329,0.00000598,-0.00000066,0.00000070,-0.00002533,-0.0000110
 9,0.00001406,0.00004321,-0.00000432,0.00000487,-0.00001717,-0.00000676
 ,-0.00000425,0.00000133,0.00000269,-0.00001455,0.00000767,-0.00001728,
 -0.00132626,0.00001256,0.00049855,0.00024272,-0.00015576,-0.00024862,0
 .00039236,0.00018789,-0.00022565,0.00049596,-0.00020932,0.00001056,-0.
 22231403,-0.07321155,-0.04046425,-0.05200567,0.01413548,-0.03732238,-0
 .06038635,-0.01419089,0.03046170,0.35225774,0.00006309,-0.00006995,0.0
 0003134,0.00000489,-0.00002595,0.00000549,0.00013884,-0.00005761,0.000
 31183,0.00008951,-0.00001121,0.00009535,0.00004356,-0.00000652,0.00003
 018,-0.00005845,0.00004036,0.00000702,0.00001276,-0.00000712,-0.000021
 55,-0.00000868,0.00000909,-0.00001086,-0.00000168,0.00000828,-0.000026
 45,0.00000795,-0.00000976,0.00000184,-0.00014786,-0.00000092,-0.000159
 94,0.00000735,0.00000214,-0.00020948,-0.00014875,0.00014751,-0.0001966
 8,-0.00003732,0.00012527,-0.00003032,-0.00007778,0.00003327,-0.0000500
 0,-0.00002684,0.00001374,0.00011134,-0.00002116,-0.00000720,-0.0000362
 0,0.00001897,-0.00002087,-0.00003476,-0.00005652,-0.00006945,-0.000161
 13,0.00024736,-0.00027608,0.00012673,-0.00008573,0.00007773,0.00012930
 ,-0.00003311,-0.00015500,-0.00000317,0.00001643,0.00008261,-0.00009981
 ,-0.00001946,-0.00006757,0.00003646,0.00000279,0.00000696,-0.00001072,
 0.00000902,-0.00000724,-0.00000300,-0.00000918,0.00001225,-0.00000171,
 0.00004333,-0.00002698,-0.00000666,-0.00000394,0.00000824,0.00000449,-
 0.00000104,0.00000268,0.00000297,-0.00000998,0.00000161,-0.00000544,0.
 00007772,0.00002009,-0.00003807,-0.00002665,-0.00000915,-0.00005799,0.
 00064819,-0.00009742,0.00051910,0.00013364,-0.00009619,-0.00006095,0.0
 0004644,-0.00002026,-0.00002490,-0.00004113,-0.00000976,0.00000424,-0.
 00001262,-0.00001553,0.00002675,0.00000442,-0.00000092,-0.00003712,-0.
 00000567,-0.00000967,0.00000729,-0.00000624,0.00000091,0.00000240,-0.0
 0022137,0.00026127,-0.00004789,-0.00059359,-0.00068545,0.00073455,-0.0
 0011176,-0.00008385,0.00001750,-0.00007267,-0.00002392,0.00005874,-0.0
 0008416,0.00004105,0.00004349,0.00002166,-0.00002564,0.00002581,-0.000
 01488,0.00000880,-0.00000092,-0.00000182,-0.00000842,-0.00000359,-0.00
 004213,0.00004509,-0.00003426,0.00304587,0.00114540,-0.00073809,-0.000
 84008,-0.00086244,-0.00052461,-0.00147308,0.00011787,-0.00011403,-0.00
 108148,-0.00214721,0.00095867,-0.00066519,-0.00071680,-0.00019346,0.00
 260813,-0.00347882,-0.00500933,-0.00005600,-0.00018149,0.00026740,0.00
 000118,0.00004938,-0.00005519,-0.04082629,-0.01252838,-0.01024945,-0.0
 0004074,0.00057063,-0.00016329,-0.00098971,-0.00100911,-0.00009045,-0.
 00041997,-0.00135888,-0.00116022,0.00004231,0.00010116,0.00000498,-0.0
 0000921,-0.00001029,-0.00000994,-0.00001569,-0.00001604,0.00000377,0.0
 0000290,-0.00000581,0.00000079,0.00001263,-0.00000212,-0.00004658,0.00
 000150,0.00000451,0.00000719,-0.00000104,0.00000402,0.00000246,-0.0000
 0693,-0.00000520,0.00000692,0.00005909,-0.00001220,0.00000445,-0.00000
 734,-0.00000222,-0.00000222,-0.00000605,0.00000139,-0.00000587,-0.0000
 0803,0.00000331,0.00000504,0.00001727,-0.00003724,0.00002077,-0.000003
 47,0.00000222,-0.00000467,0.00000243,0.00000179,-0.00000418,-0.0000051
 4,0.00000892,0.00000327,0.00002297,0.00003971,0.00007653,0.00000230,-0
 .00000104,-0.00002584,-0.00000625,-0.00001028,-0.00000065,-0.00001057,
 -0.00000478,-0.00000282,0.00013074,0.00012814,0.00014565,-0.00003263,-
 0.00009729,-0.00002528,0.00005467,0.00006300,0.00007675,-0.00004208,0.
 00001039,-0.00002168,-0.00000513,0.00000517,-0.00000540,-0.00000153,-0
 .00003117,-0.00001556,0.00002637,0.00006125,0.00000373,0.00000590,-0.0
 0002013,-0.00000787,-0.00000999,-0.00000132,0.00000255,-0.00001528,0.0
 0000796,-0.00002565,-0.00171479,0.00058109,0.00113048,0.00027004,-0.00
 033465,-0.00050270,0.00052918,0.00011762,-0.00041296,0.00065893,-0.000
 34110,-0.00005876,-0.06566093,-0.10934013,-0.02229376,0.02779390,0.014
 87007,0.01200641,-0.00845912,0.01138905,0.00742207,0.08746961,0.104228
 75,0.00002957,-0.00005808,0.00003089,0.00011011,0.00012051,-0.00002047
 ,0.00005536,0.00003163,0.00014030,0.00004503,-0.00000217,0.00005887,0.
 00003596,0.00002180,0.00001631,-0.00002472,0.00002306,0.00000086,0.000
 01345,-0.00000304,0.00000172,-0.00000384,0.00000572,-0.00000459,-0.000
 00158,0.00000310,-0.00001338,0.00000100,-0.00000589,-0.00000084,-0.000
 08839,-0.00005223,-0.00007949,0.00001293,-0.00004214,-0.00009826,-0.00
 022650,-0.00013536,-0.00026933,-0.00003672,0.00004558,-0.00002568,-0.0
 0006507,0.00000735,-0.00003553,-0.00000257,0.00001737,0.00003594,-0.00
 001134,-0.00000434,-0.00001426,0.00000817,-0.00001406,-0.00001451,-0.0
 0003417,-0.00004131,-0.00005246,0.00006381,0.00003888,0.00031618,-0.00
 000867,0.00002611,0.00003623,0.00022373,0.00009922,0.00001552,-0.00003
 201,-0.00001180,0.00008878,0.00001395,-0.00002124,0.00002635,-0.000003
 28,-0.00000001,-0.00001198,-0.00000250,-0.00001011,0.00000465,-0.00000
 447,0.00000634,0.00000112,0.00003411,-0.00001430,-0.00000758,-0.000001
 23,0.00000294,0.00000382,-0.00000212,0.00000093,0.00000405,-0.00000749
 ,0.00000090,-0.00000436,0.00002757,0.00001198,-0.00003098,-0.00001405,
 0.00000319,-0.00002724,0.00026521,-0.00000973,0.00019660,0.00005944,-0
 .00004423,-0.00003713,0.00002767,-0.00000828,-0.00002109,-0.00001166,-
 0.00000178,-0.00000427,-0.00000416,-0.00000703,0.00001180,0.00000232,-
 0.00000115,-0.00001341,0.00000021,0.00000068,-0.00000287,-0.00000205,0
 .00000048,0.00000231,-0.00009970,0.00008585,-0.00000369,-0.00022654,-0
 .00033424,0.00039355,-0.00004925,-0.00004456,0.00001704,-0.00003202,-0
 .00001745,0.00004672,-0.00003669,0.00001554,0.00003045,0.00002518,0.00
 000019,0.00000482,-0.00000691,0.00000489,-0.00000005,-0.00000158,-0.00
 000743,0.00000423,-0.00003132,0.00000917,-0.00000921,0.00130217,0.0006
 0100,-0.00054174,-0.00040561,-0.00046146,-0.00022002,-0.00064324,0.000
 04000,0.00001004,-0.00124801,-0.00061440,0.00038885,-0.00007125,-0.000
 28841,-0.00012010,0.00162423,-0.00276981,-0.00220976,-0.00043180,-0.00
 005962,0.00024055,-0.00002817,-0.00001247,0.00000257,-0.01782248,-0.00
 940855,0.00594726,-0.00016254,-0.00010501,0.00000953,-0.00031032,-0.00
 039015,-0.00087215,-0.00094175,-0.00106435,-0.00050329,0.00001905,0.00
 004762,-0.00000052,-0.00000330,-0.00000427,-0.00000309,-0.00000858,-0.
 00000767,0.00000179,0.00000178,-0.00000465,-0.00000069,-0.00000049,0.0
 0000026,-0.00003692,-0.00000084,0.00000360,0.00000352,0.00000280,-0.00
 000119,0.00000306,-0.00000208,-0.00000176,0.00000466,0.00002396,-0.000
 00360,-0.00000072,-0.00000343,-0.00000136,-0.00000102,-0.00000108,-0.0
 0000023,-0.00000091,-0.00000454,0.00000269,0.00000237,0.00001333,-0.00
 001212,0.00000393,-0.00000272,-0.00000029,-0.00000260,-0.00000002,-0.0
 0000056,0.00000146,-0.00000190,0.00000456,0.00000209,-0.00000336,0.000
 04069,0.00003713,0.00000399,-0.00000111,-0.00001106,-0.00000557,-0.000
 01188,-0.00000186,-0.00000224,-0.00000100,-0.00000279,0.00005731,0.000
 06964,0.00005513,-0.00001068,-0.00004866,0.00000078,0.00002279,0.00002
 604,0.00002840,-0.00001912,0.00000669,-0.00000935,-0.00000113,0.000003
 19,0.00000052,-0.00000077,-0.00001466,-0.00000711,0.00000864,0.0000291
 4,-0.00001058,0.00000293,-0.00001010,-0.00000326,-0.00000434,-0.000000
 90,0.00000158,-0.00000644,0.00000494,-0.00001064,-0.00076914,0.0004500
 8,0.00042493,0.00011383,-0.00018330,-0.00022409,0.00022439,-0.00001657
 ,-0.00015540,0.00033597,-0.00020396,0.00001646,-0.03530564,-0.02204806
 ,-0.08367394,-0.04364653,0.00566217,-0.01096420,0.04374027,0.01240836,
 0.00368370,0.05438951,0.01866002,0.08803111\\0.00000012,-0.00000057,-0
 .00000043,0.00000032,-0.00000102,0.00000039,0.00000027,-0.00000105,-0.
 00000045,-0.00000004,-0.00000035,0.00000030,0.00000049,-0.00000048,-0.
 00000023,-0.00000003,-0.00000101,0.00000030,0.00000048,-0.00000026,-0.
 00000062,0.00000067,-0.00000091,-0.00000055,-0.00000005,-0.00000094,0.
 00000020,0.00000016,0.00000010,-0.00000002,0.00000005,-0.00000011,0.00
 000051,0.00000032,-0.00000115,-0.00000022,0.00000097,-0.00000128,0.,0.
 00000087,-0.00000022,-0.00000066,-0.00000017,-0.00000030,-0.00000036,-
 0.00000045,-0.00000097,0.00000081,-0.00000057,-0.00000007,0.00000041,-
 0.00000117,0.00000003,0.00000048,-0.00000018,0.00000068,0.00000062,0.0
 0000027,-0.00000101,-0.00000055,0.00000035,-0.00000071,-0.00000043,0.0
 0000081,-0.00000048,-0.00000093,0.00000102,-0.00000092,-0.00000084,0.0
 0000075,-0.00000085,-0.00000138,0.00000114,-0.00000084,-0.00000103,0.0
 0000151,-0.00000061,-0.00000092,0.00000137,-0.00000012,-0.00000111,0.0
 0000098,0.00000017,-0.00000086,0.00000067,-0.00000050,-0.00000075,0.00
 000030,0.00000017,-0.00000003,0.00000046,-0.00000008,-0.00000040,-0.00
 000059,0.00000163,-0.00000028,0.00000027,0.00000098,0.00000066,0.00000
 049,0.00000137,-0.00000004,-0.00000032,0.00000088,-0.00000099,0.000000
 66,0.00000090,-0.00000017,-0.00000117,-0.00000092,-0.00000029,-0.00000
 089,0.00000063,0.00000006,-0.00000038,0.00000146,0.00000019,0.00000058
 ,0.00000099,-0.00000031,0.00000015,0.00000151,-0.00000013,0.00000034,0
 .,-0.00000025,-0.00000020,0.00000101,0.00000098,-0.00000111,0.00000083
 ,0.00000034,-0.00000065,0.00000169,0.00000078,-0.00000004,0.00000199,-
 0.00000026,0.00000047,0.00000092,-0.00000045,0.00000093,0.00000114,-0.
 00000108,0.00000086,0.00000074,-0.00000095,0.00000090,0.00000065,-0.00
 000061,-0.00000002,0.00000066,0.00000081,-0.00000085,-0.00000058,-0.00
 000159,-0.00000056,0.00000082,0.00000033,-0.00000032,-0.00000031,0.000
 00097,0.00000091,-0.00000073,0.00000003,0.00000025,-0.00000020,-0.0000
 0028,-0.00000057,-0.00000143,0.00000013,-0.00000045,-0.00000061,-0.000
 00017,0.00000069,-0.00000022,0.00000005,0.00000005,0.00000025,-0.00000
 007,0.00000098,-0.00000072,-0.00000008,0.00000010,-0.00000144,-0.00000
 021,-0.00000181,0.00000152,0.00000147,-0.00000096,0.00000077,0.0000008
 4,-0.00000084,0.00000127,0.00000057,-0.00000119,0.00000068,0.00000100,
 -0.00000024,0.00000158,0.00000002,-0.00000044,0.00000242,0.00000003,-0
 .00000088,0.00000205,0.00000032,-0.00000078,0.00000243,0.00000040,-0.0
 0000012,0.00000226,0.00000006,0.00000025,0.00000239,-0.00000042,0.0000
 0050,0.00000198,-0.00000084,0.00000056,0.00000219,-0.00000101,0.000000
 81,0.00000095,-0.00000141,0.00000085,0.00000095,-0.00000084,0.00000096
 ,0.00000055,-0.00000098,0.00000100,0.00000139,-0.00000097,-0.00000004,
 -0.00000129,0.00000048,-0.00000027,-0.00000212,0.00000048,-0.00000048,
 -0.00000135,0.00000016,-0.00000058,-0.00000151,0.00000019,0.00000067,-
 0.00000152,0.00000028,-0.00000062,-0.00000013,0.00000273,-0.00000043,-
 0.00000168,0.00000003,-0.00000309,-0.00000132,0.00000273,-0.00000038,-
 0.00000124,0.00000165,-0.00000150,-0.00000106,0.00000089,-0.00000175,-
 0.00000100,0.00000081,-0.00000188,-0.00000019,0.00000177,-0.00000156,0
 .00000007,0.00000146,-0.00000104,-0.00000081,0.00000129,0.00000003,-0.
 00000200,0.00000036,-0.00000021,-0.00000176,0.00000081,0.00000028,-0.0
 0000163,-0.00000028,-0.00000024,-0.00000168,0.00000054,0.00000120,-0.0
 0000031,-0.00000048,0.00000095,-0.00000031,-0.00000087,0.00000061,-0.0
 0000003,-0.00000080,0.00000047,-0.00000073,-0.00000084\\\@


 "ANNA, YOU MUSN'T SPEAK OF OXIDIZED MURIATIC ACID
 ANYMORE, FROM NOW ON YOU MUST SAY CHLORINE."
   -- JENS JACOB BERZELIUS, IN 1820, TO HIS COOK, WHO HAD
 COMPLAINED OF THE SMELL OF THE FLASK SHE WAS CLEANING.
 Job cpu time:       4 days 18 hours 51 minutes  3.5 seconds.
 Elapsed time:       0 days  3 hours 51 minutes 59.4 seconds.
 File lengths (MBytes):  RWF=   9761 Int=      0 D2E=      0 Chk=     85 Scr=      1
 Normal termination of Gaussian 16 at Wed May 22 21:04:22 2019.
