 Entering Gaussian System, Link 0=g16
 Input=clay_new-glu_gluC6-AADL-Na2_1Me2O-bisCF3-ts-b3lyp_d3bj-631gd-pcm_thf.gjf
 Output=clay_new-glu_gluC6-AADL-Na2_1Me2O-bisCF3-ts-b3lyp_d3bj-631gd-pcm_thf.out
 Initial command:
 /home/ekwan/sw/g16/l1.exe "/scratch/users/ekwan/clay_new-glu_gluC6-AADL-Na2_1Me2O-bisCF3-ts-b3lyp_d3bj-631gd-pcm_thf/Gau-19803.inp" -scrdir="/scratch/users/ekwan/clay_new-glu_gluC6-AADL-Na2_1Me2O-bisCF3-ts-b3lyp_d3bj-631gd-pcm_thf/"
 Entering Link 1 = /home/ekwan/sw/g16/l1.exe PID=     19804.
  
 Copyright (c) 1988,1990,1992,1993,1995,1998,2003,2009,2016,
            Gaussian, Inc.  All Rights Reserved.
  
 This is part of the Gaussian(R) 16 program.  It is based on
 the Gaussian(R) 09 system (copyright 2009, Gaussian, Inc.),
 the Gaussian(R) 03 system (copyright 2003, Gaussian, Inc.),
 the Gaussian(R) 98 system (copyright 1998, Gaussian, Inc.),
 the Gaussian(R) 94 system (copyright 1995, Gaussian, Inc.),
 the Gaussian 92(TM) system (copyright 1992, Gaussian, Inc.),
 the Gaussian 90(TM) system (copyright 1990, Gaussian, Inc.),
 the Gaussian 88(TM) system (copyright 1988, Gaussian, Inc.),
 the Gaussian 86(TM) system (copyright 1986, Carnegie Mellon
 University), and the Gaussian 82(TM) system (copyright 1983,
 Carnegie Mellon University). Gaussian is a federally registered
 trademark of Gaussian, Inc.
  
 This software contains proprietary and confidential information,
 including trade secrets, belonging to Gaussian, Inc.
  
 This software is provided under written license and may be
 used, copied, transmitted, or stored only in accord with that
 written license.
  
 The following legend is applicable only to US Government
 contracts under FAR:
  
                    RESTRICTED RIGHTS LEGEND
  
 Use, reproduction and disclosure by the US Government is
 subject to restrictions as set forth in subparagraphs (a)
 and (c) of the Commercial Computer Software - Restricted
 Rights clause in FAR 52.227-19.
  
 Gaussian, Inc.
 340 Quinnipiac St., Bldg. 40, Wallingford CT 06492
  
  
 ---------------------------------------------------------------
 Warning -- This program may not be used in any manner that
 competes with the business of Gaussian, Inc. or will provide
 assistance to any competitor of Gaussian, Inc.  The licensee
 of this program is prohibited from giving any competitor of
 Gaussian, Inc. access to this program.  By using this program,
 the user acknowledges that Gaussian, Inc. is engaged in the
 business of creating and licensing software in the field of
 computational chemistry and represents and warrants to the
 licensee that it is not a competitor of Gaussian, Inc. and that
 it will not use this program in any manner prohibited above.
 ---------------------------------------------------------------
  

 Cite this work as:
 Gaussian 16, Revision A.03,
 M. J. Frisch, G. W. Trucks, H. B. Schlegel, G. E. Scuseria, 
 M. A. Robb, J. R. Cheeseman, G. Scalmani, V. Barone, 
 G. A. Petersson, H. Nakatsuji, X. Li, M. Caricato, A. V. Marenich, 
 J. Bloino, B. G. Janesko, R. Gomperts, B. Mennucci, H. P. Hratchian, 
 J. V. Ortiz, A. F. Izmaylov, J. L. Sonnenberg, D. Williams-Young, 
 F. Ding, F. Lipparini, F. Egidi, J. Goings, B. Peng, A. Petrone, 
 T. Henderson, D. Ranasinghe, V. G. Zakrzewski, J. Gao, N. Rega, 
 G. Zheng, W. Liang, M. Hada, M. Ehara, K. Toyota, R. Fukuda, 
 J. Hasegawa, M. Ishida, T. Nakajima, Y. Honda, O. Kitao, H. Nakai, 
 T. Vreven, K. Throssell, J. A. Montgomery, Jr., J. E. Peralta, 
 F. Ogliaro, M. J. Bearpark, J. J. Heyd, E. N. Brothers, K. N. Kudin, 
 V. N. Staroverov, T. A. Keith, R. Kobayashi, J. Normand, 
 K. Raghavachari, A. P. Rendell, J. C. Burant, S. S. Iyengar, 
 J. Tomasi, M. Cossi, J. M. Millam, M. Klene, C. Adamo, R. Cammi, 
 J. W. Ochterski, R. L. Martin, K. Morokuma, O. Farkas, 
 J. B. Foresman, and D. J. Fox, Gaussian, Inc., Wallingford CT, 2016.
 
 ******************************************
 Gaussian 16:  AS64L-G16RevA.03 25-Dec-2016
                30-May-2019 
 ******************************************
 %mem=48GB
 %nprocshared=32
 Will use up to   32 processors via shared memory.
 ----------------------------------------------------------------------
 #p opt=(ts,noeigentest,calcfc,maxstep=5,modredundant,recalc=30) freq=n
 oraman b3lyp 6-31g* pop=none scrf=(solvent=tetrahydrofuran,pcm) empiri
 caldispersion=gd3bj
 ----------------------------------------------------------------------
 1/5=1,8=5,10=4,11=1,18=120,26=3,38=1,71=30/1,3;
 2/9=110,12=2,17=6,18=5,40=1/2;
 3/5=1,6=6,7=1,11=2,25=1,30=1,70=2201,71=2,72=20,74=-5,124=41,140=1/1,2,3;
 4//1;
 5/5=2,38=5,53=20/2;
 8/6=4,10=90,11=11/1;
 11/6=1,8=1,9=11,15=111,16=1/1,2,10;
 10/6=1,13=1/2;
 7/10=1,18=20,25=1/1,2,3,16;
 1/5=1,8=5,10=4,11=1,18=20,26=3,71=30/3(2);
 2/9=110/2;
 99//99;
 2/9=110/2;
 3/5=1,6=6,7=1,11=2,25=1,30=1,70=2205,71=1,72=20,74=-5,124=41/1,2,3;
 4/5=5,16=3,69=1/1;
 5/5=2,38=5,53=20/2;
 7//1,2,3,16;
 1/5=1,8=5,11=1,18=20,26=3,71=30/3(-5);
 2/9=110/2;
 99/9=1/99;
 Leave Link    1 at Thu May 30 18:50:02 2019, MaxMem=  6442450944 cpu:               5.3 elap:               0.2
 (Enter /home/ekwan/sw/g16/l101.exe)
 -----
 title
 -----
 Symbolic Z-matrix:
 Charge =  0 Multiplicity = 1
 C                     3.4215    1.4391    1.03527 
 C                     4.16569   0.64324  -0.03876 
 C                     4.63749  -0.71308   0.50402 
 C                     2.86195  -0.7583    2.14002 
 C                     2.31149   0.58599   1.6474 
 H                     5.00569  -1.35838  -0.30338 
 H                     3.45578   0.44285  -0.85258 
 H                     4.12354   1.72811   1.82781 
 H                     3.59077  -0.56769   2.93844 
 H                     1.5603    0.40717   0.87237 
 O                     3.53604  -1.42876   1.04301 
 O                     5.64748  -0.49055   1.44666 
 O                     5.24355   1.42906  -0.52021 
 O                     2.84225   2.60198   0.45477 
 O                     1.73363   1.29211   2.74069 
 C                     1.78294  -1.72925   2.6436 
 H                     1.32073  -1.23184   3.52259 
 H                     2.33921  -2.59824   3.06524 
 O                     0.88254  -2.10766   1.67811 
 C                     5.67023   1.06854  -1.82271 
 H                     6.11024   0.06127  -1.85316 
 H                     4.83759   1.10876  -2.5402 
 H                     6.43431   1.79125  -2.11889 
 C                     3.57399   3.79398   0.70544 
 H                     3.5824    4.02867   1.77956 
 H                     4.60446   3.70974   0.34452 
 H                     3.06176   4.59464   0.17258 
 C                     0.3132    1.30502   2.71869 
 H                    -0.06457   1.82306   1.8291 
 H                    -0.10596   0.29174   2.74463 
 H                    -0.01099   1.85058   3.60945 
 C                    -2.81283  -3.06315  -0.22275 
 C                    -1.37826  -2.83084   0.26662 
 C                    -1.09084  -1.3685    0.35896 
 C                    -3.42491  -0.81458   0.76401 
 C                    -3.7538   -2.31126   0.71932 
 H                    -0.08907  -0.98012   0.32842 
 H                    -1.29563  -3.17082   1.30883 
 H                    -2.91793  -2.66902  -1.23968 
 H                    -3.83442  -0.33939  -0.12802 
 H                    -3.6614   -2.73534   1.72654 
 O                    -1.98117  -0.51625   0.70428 
 O                     0.2396    0.14582  -3.68653 
 O                    -0.40451  -3.49072  -0.51829 
 O                    -3.13098  -4.44199  -0.18245 
 O                    -5.09779  -2.36274   0.27766 
 C                    -3.9342   -0.10109   1.99603 
 H                    -5.02993  -0.1992    2.01879 
 H                    -3.68884   0.96836   1.9249 
 O                    -3.32918  -0.69177   3.12456 
 S                    -0.03441  -0.05117  -2.24961 
 O                     1.19479  -0.21169  -1.40901 
 O                    -1.04526  -1.13041  -1.9699 
 C                    -0.84493   1.43353  -1.62669 
 C                    -2.23075   1.50834  -1.76672 
 C                    -0.12698   2.45355  -1.00853 
 C                    -2.91134   2.61156  -1.2608 
 H                    -2.76708   0.6973   -2.24486 
 C                    -0.8282    3.56704  -0.52837 
 H                     0.94798   2.37889  -0.87082 
 C                    -2.21362   3.6486   -0.64145 
 H                    -2.74373   4.50896  -0.25451 
 C                     0.06633  -4.70522   0.08986 
 H                     0.59487  -4.46231   1.01805 
 H                    -0.76695  -5.38528   0.28796 
 H                     0.74736  -5.16107  -0.6325 
 C                    -3.1487   -5.06641  -1.46393 
 H                    -3.91294  -4.61444  -2.10958 
 H                    -2.17225  -4.99508  -1.95614 
 H                    -3.39555  -6.11651  -1.29354 
 C                    -5.8898   -3.35702   0.92451 
 H                    -5.4912   -4.3596    0.74395 
 H                    -5.94116  -3.17483   2.00691 
 H                    -6.8924   -3.27459   0.49922 
 C                    -3.70701  -0.06023   4.33703 
 H                    -3.18844  -0.58264   5.14329 
 H                    -3.41208   0.99911   4.3425 
 H                    -4.79267  -0.12479   4.50017 
 C                     6.2523   -1.69115   1.91365 
 H                     7.08724  -1.39604   2.55213 
 H                     5.54644  -2.29863   2.49159 
 H                     6.63093  -2.29017   1.07273 
 Na                    1.82722  -2.23422  -0.38988 
 O                     3.36782  -2.77826  -1.99754 
 C                     3.44126  -2.06949  -3.23143 
 H                     3.33902  -2.75811  -4.08097 
 H                     2.62186  -1.35038  -3.23564 
 H                     4.39934  -1.53829  -3.31384 
 C                     4.38798  -3.75684  -1.8624 
 H                     5.38385  -3.29399  -1.90688 
 H                     4.25446  -4.23136  -0.88765 
 H                     4.31224  -4.5156   -2.65305 
 C                    -0.06654   4.68333   0.13435 
 F                     0.52524   4.28157   1.27984 
 F                    -0.86158   5.73014   0.44435 
 F                     0.9128    5.15308  -0.67461 
 C                    -4.41242   2.63289  -1.31229 
 F                    -4.91313   3.87732  -1.19344 
 F                    -4.9461    1.89638  -0.29593 
 F                    -4.88653   2.10184  -2.4571 
 
 Add virtual bond connecting atoms H37        and O19        Dist= 3.80D+00.
 Add virtual bond connecting atoms O52        and H7         Dist= 4.57D+00.
 Add virtual bond connecting atoms O52        and H10        Dist= 4.52D+00.
 Add virtual bond connecting atoms O52        and H37        Dist= 4.33D+00.
 Add virtual bond connecting atoms O52        and Na83       Dist= 4.44D+00.
 Add virtual bond connecting atoms O53        and C34        Dist= 4.42D+00.
 The following ModRedundant input section has been read:
 
 ITRead=  0  0  0  0  0  0  0  0  0  0  0  0  0  0  0  0  0  0  0  0
 ITRead=  0  0  0  0  0  0  0  0  0  0  0  0  0  0  0  0  0  0  0  0
 ITRead=  0  0  0  0  0  0  0  0  0  0  0  0  0  0  0  0  0  0  0  0
 ITRead=  0  0  0  0  0  0  0  0  0  0  0  0  0  0  0  0  0  0  0  0
 ITRead=  0  0  0  0  0  0  0  0  0  0  0  0  0  0  0  0  0  0  0  0
 MicOpt= -1 -1 -1 -1 -1 -1 -1 -1 -1 -1 -1 -1 -1 -1 -1 -1 -1 -1 -1 -1
 MicOpt= -1 -1 -1 -1 -1 -1 -1 -1 -1 -1 -1 -1 -1 -1 -1 -1 -1 -1 -1 -1
 MicOpt= -1 -1 -1 -1 -1 -1 -1 -1 -1 -1 -1 -1 -1 -1 -1 -1 -1 -1 -1 -1
 MicOpt= -1 -1 -1 -1 -1 -1 -1 -1 -1 -1 -1 -1 -1 -1 -1 -1 -1 -1 -1 -1
 MicOpt= -1 -1 -1 -1 -1 -1 -1 -1 -1 -1 -1 -1 -1 -1 -1 -1 -1 -1 -1 -1
 NAtoms=    100 NQM=      100 NQMF=       0 NMMI=      0 NMMIF=      0
                NMic=       0 NMicF=      0.
                    Isotopes and Nuclear Properties:
 (Nuclear quadrupole moments (NQMom) in fm**2, nuclear magnetic moments (NMagM)
  in nuclear magnetons)

  Atom         1           2           3           4           5           6           7           8           9          10
 IAtWgt=          12          12          12          12          12           1           1           1           1           1
 AtmWgt=  12.0000000  12.0000000  12.0000000  12.0000000  12.0000000   1.0078250   1.0078250   1.0078250   1.0078250   1.0078250
 NucSpn=           0           0           0           0           0           1           1           1           1           1
 AtZEff=   0.0000000   0.0000000   0.0000000   0.0000000   0.0000000   0.0000000   0.0000000   0.0000000   0.0000000   0.0000000
 NQMom=    0.0000000   0.0000000   0.0000000   0.0000000   0.0000000   0.0000000   0.0000000   0.0000000   0.0000000   0.0000000
 NMagM=    0.0000000   0.0000000   0.0000000   0.0000000   0.0000000   2.7928460   2.7928460   2.7928460   2.7928460   2.7928460
 AtZNuc=   6.0000000   6.0000000   6.0000000   6.0000000   6.0000000   1.0000000   1.0000000   1.0000000   1.0000000   1.0000000

  Atom        11          12          13          14          15          16          17          18          19          20
 IAtWgt=          16          16          16          16          16          12           1           1          16          12
 AtmWgt=  15.9949146  15.9949146  15.9949146  15.9949146  15.9949146  12.0000000   1.0078250   1.0078250  15.9949146  12.0000000
 NucSpn=           0           0           0           0           0           0           1           1           0           0
 AtZEff=   0.0000000   0.0000000   0.0000000   0.0000000   0.0000000   0.0000000   0.0000000   0.0000000   0.0000000   0.0000000
 NQMom=    0.0000000   0.0000000   0.0000000   0.0000000   0.0000000   0.0000000   0.0000000   0.0000000   0.0000000   0.0000000
 NMagM=    0.0000000   0.0000000   0.0000000   0.0000000   0.0000000   0.0000000   2.7928460   2.7928460   0.0000000   0.0000000
 AtZNuc=   8.0000000   8.0000000   8.0000000   8.0000000   8.0000000   6.0000000   1.0000000   1.0000000   8.0000000   6.0000000

  Atom        21          22          23          24          25          26          27          28          29          30
 IAtWgt=           1           1           1          12           1           1           1          12           1           1
 AtmWgt=   1.0078250   1.0078250   1.0078250  12.0000000   1.0078250   1.0078250   1.0078250  12.0000000   1.0078250   1.0078250
 NucSpn=           1           1           1           0           1           1           1           0           1           1
 AtZEff=   0.0000000   0.0000000   0.0000000   0.0000000   0.0000000   0.0000000   0.0000000   0.0000000   0.0000000   0.0000000
 NQMom=    0.0000000   0.0000000   0.0000000   0.0000000   0.0000000   0.0000000   0.0000000   0.0000000   0.0000000   0.0000000
 NMagM=    2.7928460   2.7928460   2.7928460   0.0000000   2.7928460   2.7928460   2.7928460   0.0000000   2.7928460   2.7928460
 AtZNuc=   1.0000000   1.0000000   1.0000000   6.0000000   1.0000000   1.0000000   1.0000000   6.0000000   1.0000000   1.0000000

  Atom        31          32          33          34          35          36          37          38          39          40
 IAtWgt=           1          12          12          12          12          12           1           1           1           1
 AtmWgt=   1.0078250  12.0000000  12.0000000  12.0000000  12.0000000  12.0000000   1.0078250   1.0078250   1.0078250   1.0078250
 NucSpn=           1           0           0           0           0           0           1           1           1           1
 AtZEff=   0.0000000   0.0000000   0.0000000   0.0000000   0.0000000   0.0000000   0.0000000   0.0000000   0.0000000   0.0000000
 NQMom=    0.0000000   0.0000000   0.0000000   0.0000000   0.0000000   0.0000000   0.0000000   0.0000000   0.0000000   0.0000000
 NMagM=    2.7928460   0.0000000   0.0000000   0.0000000   0.0000000   0.0000000   2.7928460   2.7928460   2.7928460   2.7928460
 AtZNuc=   1.0000000   6.0000000   6.0000000   6.0000000   6.0000000   6.0000000   1.0000000   1.0000000   1.0000000   1.0000000

  Atom        41          42          43          44          45          46          47          48          49          50
 IAtWgt=           1          16          16          16          16          16          12           1           1          16
 AtmWgt=   1.0078250  15.9949146  15.9949146  15.9949146  15.9949146  15.9949146  12.0000000   1.0078250   1.0078250  15.9949146
 NucSpn=           1           0           0           0           0           0           0           1           1           0
 AtZEff=   0.0000000   0.0000000   0.0000000   0.0000000   0.0000000   0.0000000   0.0000000   0.0000000   0.0000000   0.0000000
 NQMom=    0.0000000   0.0000000   0.0000000   0.0000000   0.0000000   0.0000000   0.0000000   0.0000000   0.0000000   0.0000000
 NMagM=    2.7928460   0.0000000   0.0000000   0.0000000   0.0000000   0.0000000   0.0000000   2.7928460   2.7928460   0.0000000
 AtZNuc=   1.0000000   8.0000000   8.0000000   8.0000000   8.0000000   8.0000000   6.0000000   1.0000000   1.0000000   8.0000000

  Atom        51          52          53          54          55          56          57          58          59          60
 IAtWgt=          32          16          16          12          12          12          12           1          12           1
 AtmWgt=  31.9720718  15.9949146  15.9949146  12.0000000  12.0000000  12.0000000  12.0000000   1.0078250  12.0000000   1.0078250
 NucSpn=           0           0           0           0           0           0           0           1           0           1
 AtZEff=   0.0000000   0.0000000   0.0000000   0.0000000   0.0000000   0.0000000   0.0000000   0.0000000   0.0000000   0.0000000
 NQMom=    0.0000000   0.0000000   0.0000000   0.0000000   0.0000000   0.0000000   0.0000000   0.0000000   0.0000000   0.0000000
 NMagM=    0.0000000   0.0000000   0.0000000   0.0000000   0.0000000   0.0000000   0.0000000   2.7928460   0.0000000   2.7928460
 AtZNuc=  16.0000000   8.0000000   8.0000000   6.0000000   6.0000000   6.0000000   6.0000000   1.0000000   6.0000000   1.0000000

  Atom        61          62          63          64          65          66          67          68          69          70
 IAtWgt=          12           1          12           1           1           1          12           1           1           1
 AtmWgt=  12.0000000   1.0078250  12.0000000   1.0078250   1.0078250   1.0078250  12.0000000   1.0078250   1.0078250   1.0078250
 NucSpn=           0           1           0           1           1           1           0           1           1           1
 AtZEff=   0.0000000   0.0000000   0.0000000   0.0000000   0.0000000   0.0000000   0.0000000   0.0000000   0.0000000   0.0000000
 NQMom=    0.0000000   0.0000000   0.0000000   0.0000000   0.0000000   0.0000000   0.0000000   0.0000000   0.0000000   0.0000000
 NMagM=    0.0000000   2.7928460   0.0000000   2.7928460   2.7928460   2.7928460   0.0000000   2.7928460   2.7928460   2.7928460
 AtZNuc=   6.0000000   1.0000000   6.0000000   1.0000000   1.0000000   1.0000000   6.0000000   1.0000000   1.0000000   1.0000000

  Atom        71          72          73          74          75          76          77          78          79          80
 IAtWgt=          12           1           1           1          12           1           1           1          12           1
 AtmWgt=  12.0000000   1.0078250   1.0078250   1.0078250  12.0000000   1.0078250   1.0078250   1.0078250  12.0000000   1.0078250
 NucSpn=           0           1           1           1           0           1           1           1           0           1
 AtZEff=   0.0000000   0.0000000   0.0000000   0.0000000   0.0000000   0.0000000   0.0000000   0.0000000   0.0000000   0.0000000
 NQMom=    0.0000000   0.0000000   0.0000000   0.0000000   0.0000000   0.0000000   0.0000000   0.0000000   0.0000000   0.0000000
 NMagM=    0.0000000   2.7928460   2.7928460   2.7928460   0.0000000   2.7928460   2.7928460   2.7928460   0.0000000   2.7928460
 AtZNuc=   6.0000000   1.0000000   1.0000000   1.0000000   6.0000000   1.0000000   1.0000000   1.0000000   6.0000000   1.0000000

  Atom        81          82          83          84          85          86          87          88          89          90
 IAtWgt=           1           1          23          16          12           1           1           1          12           1
 AtmWgt=   1.0078250   1.0078250  22.9897697  15.9949146  12.0000000   1.0078250   1.0078250   1.0078250  12.0000000   1.0078250
 NucSpn=           1           1           3           0           0           1           1           1           0           1
 AtZEff=   0.0000000   0.0000000   0.0000000   0.0000000   0.0000000   0.0000000   0.0000000   0.0000000   0.0000000   0.0000000
 NQMom=    0.0000000   0.0000000  10.4000000   0.0000000   0.0000000   0.0000000   0.0000000   0.0000000   0.0000000   0.0000000
 NMagM=    2.7928460   2.7928460   2.2175200   0.0000000   0.0000000   2.7928460   2.7928460   2.7928460   0.0000000   2.7928460
 AtZNuc=   1.0000000   1.0000000  11.0000000   8.0000000   6.0000000   1.0000000   1.0000000   1.0000000   6.0000000   1.0000000

  Atom        91          92          93          94          95          96          97          98          99         100
 IAtWgt=           1           1          12          19          19          19          12          19          19          19
 AtmWgt=   1.0078250   1.0078250  12.0000000  18.9984033  18.9984033  18.9984033  12.0000000  18.9984033  18.9984033  18.9984033
 NucSpn=           1           1           0           1           1           1           0           1           1           1
 AtZEff=   0.0000000   0.0000000   0.0000000   0.0000000   0.0000000   0.0000000   0.0000000   0.0000000   0.0000000   0.0000000
 NQMom=    0.0000000   0.0000000   0.0000000   0.0000000   0.0000000   0.0000000   0.0000000   0.0000000   0.0000000   0.0000000
 NMagM=    2.7928460   2.7928460   0.0000000   2.6288670   2.6288670   2.6288670   0.0000000   2.6288670   2.6288670   2.6288670
 AtZNuc=   1.0000000   1.0000000   6.0000000   9.0000000   9.0000000   9.0000000   6.0000000   9.0000000   9.0000000   9.0000000
 Leave Link  101 at Thu May 30 18:50:03 2019, MaxMem=  6442450944 cpu:              17.6 elap:               0.7
 (Enter /home/ekwan/sw/g16/l103.exe)

 GradGradGradGradGradGradGradGradGradGradGradGradGradGradGradGradGradGrad
 Berny optimization.
 Initialization pass.
                           ----------------------------
                           !    Initial Parameters    !
                           ! (Angstroms and Degrees)  !
 --------------------------                            --------------------------
 ! Name  Definition              Value          Derivative Info.                !
 --------------------------------------------------------------------------------
 ! R1    R(1,2)                  1.53           calculate D2E/DX2 analytically  !
 ! R2    R(1,5)                  1.5279         calculate D2E/DX2 analytically  !
 ! R3    R(1,8)                  1.0975         calculate D2E/DX2 analytically  !
 ! R4    R(1,14)                 1.4229         calculate D2E/DX2 analytically  !
 ! R5    R(2,3)                  1.5352         calculate D2E/DX2 analytically  !
 ! R6    R(2,7)                  1.0984         calculate D2E/DX2 analytically  !
 ! R7    R(2,13)                 1.4181         calculate D2E/DX2 analytically  !
 ! R8    R(3,6)                  1.0972         calculate D2E/DX2 analytically  !
 ! R9    R(3,11)                 1.4198         calculate D2E/DX2 analytically  !
 ! R10   R(3,12)                 1.3993         calculate D2E/DX2 analytically  !
 ! R11   R(4,5)                  1.5339         calculate D2E/DX2 analytically  !
 ! R12   R(4,9)                  1.0977         calculate D2E/DX2 analytically  !
 ! R13   R(4,11)                 1.4517         calculate D2E/DX2 analytically  !
 ! R14   R(4,16)                 1.5364         calculate D2E/DX2 analytically  !
 ! R15   R(5,10)                 1.094          calculate D2E/DX2 analytically  !
 ! R16   R(5,15)                 1.424          calculate D2E/DX2 analytically  !
 ! R17   R(7,52)                 2.4187         calculate D2E/DX2 analytically  !
 ! R18   R(10,52)                2.3919         calculate D2E/DX2 analytically  !
 ! R19   R(12,79)                1.4231         calculate D2E/DX2 analytically  !
 ! R20   R(13,20)                1.4172         calculate D2E/DX2 analytically  !
 ! R21   R(14,24)                1.421          calculate D2E/DX2 analytically  !
 ! R22   R(15,28)                1.4207         calculate D2E/DX2 analytically  !
 ! R23   R(16,17)                1.1107         calculate D2E/DX2 analytically  !
 ! R24   R(16,18)                1.1146         calculate D2E/DX2 analytically  !
 ! R25   R(16,19)                1.3734         calculate D2E/DX2 analytically  !
 ! R26   R(19,37)                2.0092         calculate D2E/DX2 analytically  !
 ! R27   R(19,83)                2.2771         calculate D2E/DX2 analytically  !
 ! R28   R(20,21)                1.0996         calculate D2E/DX2 analytically  !
 ! R29   R(20,22)                1.0999         calculate D2E/DX2 analytically  !
 ! R30   R(20,23)                1.0926         calculate D2E/DX2 analytically  !
 ! R31   R(24,25)                1.0995         calculate D2E/DX2 analytically  !
 ! R32   R(24,26)                1.0951         calculate D2E/DX2 analytically  !
 ! R33   R(24,27)                1.0897         calculate D2E/DX2 analytically  !
 ! R34   R(28,29)                1.0966         calculate D2E/DX2 analytically  !
 ! R35   R(28,30)                1.0969         calculate D2E/DX2 analytically  !
 ! R36   R(28,31)                1.0937         calculate D2E/DX2 analytically  !
 ! R37   R(32,33)                1.5334         calculate D2E/DX2 analytically  !
 ! R38   R(32,36)                1.5291         calculate D2E/DX2 analytically  !
 ! R39   R(32,39)                1.0957         calculate D2E/DX2 analytically  !
 ! R40   R(32,45)                1.4156         calculate D2E/DX2 analytically  !
 ! R41   R(33,34)                1.4932         calculate D2E/DX2 analytically  !
 ! R42   R(33,38)                1.0994         calculate D2E/DX2 analytically  !
 ! R43   R(33,44)                1.4141         calculate D2E/DX2 analytically  !
 ! R44   R(34,37)                1.0749         calculate D2E/DX2 analytically  !
 ! R45   R(34,42)                1.2799         calculate D2E/DX2 analytically  !
 ! R46   R(34,53)                2.3414         calculate D2E/DX2 analytically  !
 ! R47   R(35,36)                1.533          calculate D2E/DX2 analytically  !
 ! R48   R(35,40)                1.0905         calculate D2E/DX2 analytically  !
 ! R49   R(35,42)                1.4754         calculate D2E/DX2 analytically  !
 ! R50   R(35,47)                1.5121         calculate D2E/DX2 analytically  !
 ! R51   R(36,41)                1.0968         calculate D2E/DX2 analytically  !
 ! R52   R(36,46)                1.4156         calculate D2E/DX2 analytically  !
 ! R53   R(37,52)                2.2929         calculate D2E/DX2 analytically  !
 ! R54   R(43,51)                1.476          calculate D2E/DX2 analytically  !
 ! R55   R(44,63)                1.4375         calculate D2E/DX2 analytically  !
 ! R56   R(45,67)                1.4256         calculate D2E/DX2 analytically  !
 ! R57   R(46,71)                1.4263         calculate D2E/DX2 analytically  !
 ! R58   R(47,48)                1.1004         calculate D2E/DX2 analytically  !
 ! R59   R(47,49)                1.0995         calculate D2E/DX2 analytically  !
 ! R60   R(47,50)                1.4101         calculate D2E/DX2 analytically  !
 ! R61   R(50,75)                1.4183         calculate D2E/DX2 analytically  !
 ! R62   R(51,52)                1.4978         calculate D2E/DX2 analytically  !
 ! R63   R(51,53)                1.5049         calculate D2E/DX2 analytically  !
 ! R64   R(51,54)                1.8026         calculate D2E/DX2 analytically  !
 ! R65   R(52,83)                2.3514         calculate D2E/DX2 analytically  !
 ! R66   R(54,55)                1.3949         calculate D2E/DX2 analytically  !
 ! R67   R(54,56)                1.3921         calculate D2E/DX2 analytically  !
 ! R68   R(55,57)                1.3915         calculate D2E/DX2 analytically  !
 ! R69   R(55,58)                1.0835         calculate D2E/DX2 analytically  !
 ! R70   R(56,59)                1.4008         calculate D2E/DX2 analytically  !
 ! R71   R(56,60)                1.0863         calculate D2E/DX2 analytically  !
 ! R72   R(57,61)                1.3949         calculate D2E/DX2 analytically  !
 ! R73   R(57,97)                1.5021         calculate D2E/DX2 analytically  !
 ! R74   R(59,61)                1.3924         calculate D2E/DX2 analytically  !
 ! R75   R(59,93)                1.5051         calculate D2E/DX2 analytically  !
 ! R76   R(61,62)                1.0821         calculate D2E/DX2 analytically  !
 ! R77   R(63,64)                1.0954         calculate D2E/DX2 analytically  !
 ! R78   R(63,65)                1.0937         calculate D2E/DX2 analytically  !
 ! R79   R(63,66)                1.0924         calculate D2E/DX2 analytically  !
 ! R80   R(67,68)                1.0978         calculate D2E/DX2 analytically  !
 ! R81   R(67,69)                1.0958         calculate D2E/DX2 analytically  !
 ! R82   R(67,70)                1.0921         calculate D2E/DX2 analytically  !
 ! R83   R(71,72)                1.0939         calculate D2E/DX2 analytically  !
 ! R84   R(71,73)                1.0988         calculate D2E/DX2 analytically  !
 ! R85   R(71,74)                1.0922         calculate D2E/DX2 analytically  !
 ! R86   R(75,76)                1.0917         calculate D2E/DX2 analytically  !
 ! R87   R(75,77)                1.0996         calculate D2E/DX2 analytically  !
 ! R88   R(75,78)                1.0997         calculate D2E/DX2 analytically  !
 ! R89   R(79,80)                1.0917         calculate D2E/DX2 analytically  !
 ! R90   R(79,81)                1.096          calculate D2E/DX2 analytically  !
 ! R91   R(79,82)                1.0997         calculate D2E/DX2 analytically  !
 ! R92   R(83,84)                2.2922         calculate D2E/DX2 analytically  !
 ! R93   R(84,85)                1.4249         calculate D2E/DX2 analytically  !
 ! R94   R(84,89)                1.4201         calculate D2E/DX2 analytically  !
 ! R95   R(85,86)                1.0983         calculate D2E/DX2 analytically  !
 ! R96   R(85,87)                1.0902         calculate D2E/DX2 analytically  !
 ! R97   R(85,88)                1.0986         calculate D2E/DX2 analytically  !
 ! R98   R(89,90)                1.0991         calculate D2E/DX2 analytically  !
 ! R99   R(89,91)                1.0923         calculate D2E/DX2 analytically  !
 ! R100  R(89,92)                1.0984         calculate D2E/DX2 analytically  !
 ! R101  R(93,94)                1.3505         calculate D2E/DX2 analytically  !
 ! R102  R(93,95)                1.3506         calculate D2E/DX2 analytically  !
 ! R103  R(93,96)                1.3543         calculate D2E/DX2 analytically  !
 ! R104  R(97,98)                1.3466         calculate D2E/DX2 analytically  !
 ! R105  R(97,99)                1.3639         calculate D2E/DX2 analytically  !
 ! R106  R(97,100)               1.3481         calculate D2E/DX2 analytically  !
 ! A1    A(2,1,5)              110.1308         calculate D2E/DX2 analytically  !
 ! A2    A(2,1,8)              109.4371         calculate D2E/DX2 analytically  !
 ! A3    A(2,1,14)             109.6777         calculate D2E/DX2 analytically  !
 ! A4    A(5,1,8)              108.8104         calculate D2E/DX2 analytically  !
 ! A5    A(5,1,14)             108.9046         calculate D2E/DX2 analytically  !
 ! A6    A(8,1,14)             109.8642         calculate D2E/DX2 analytically  !
 ! A7    A(1,2,3)              111.153          calculate D2E/DX2 analytically  !
 ! A8    A(1,2,7)              107.497          calculate D2E/DX2 analytically  !
 ! A9    A(1,2,13)             108.6496         calculate D2E/DX2 analytically  !
 ! A10   A(3,2,7)              107.4219         calculate D2E/DX2 analytically  !
 ! A11   A(3,2,13)             112.0868         calculate D2E/DX2 analytically  !
 ! A12   A(7,2,13)             109.9261         calculate D2E/DX2 analytically  !
 ! A13   A(2,3,6)              111.2577         calculate D2E/DX2 analytically  !
 ! A14   A(2,3,11)             109.9465         calculate D2E/DX2 analytically  !
 ! A15   A(2,3,12)             108.6322         calculate D2E/DX2 analytically  !
 ! A16   A(6,3,11)             104.0765         calculate D2E/DX2 analytically  !
 ! A17   A(6,3,12)             110.3049         calculate D2E/DX2 analytically  !
 ! A18   A(11,3,12)            112.6033         calculate D2E/DX2 analytically  !
 ! A19   A(5,4,9)              108.6439         calculate D2E/DX2 analytically  !
 ! A20   A(5,4,11)             109.1908         calculate D2E/DX2 analytically  !
 ! A21   A(5,4,16)             114.0214         calculate D2E/DX2 analytically  !
 ! A22   A(9,4,11)             108.7559         calculate D2E/DX2 analytically  !
 ! A23   A(9,4,16)             109.7312         calculate D2E/DX2 analytically  !
 ! A24   A(11,4,16)            106.3753         calculate D2E/DX2 analytically  !
 ! A25   A(1,5,4)              110.933          calculate D2E/DX2 analytically  !
 ! A26   A(1,5,10)             107.8344         calculate D2E/DX2 analytically  !
 ! A27   A(1,5,15)             108.9969         calculate D2E/DX2 analytically  !
 ! A28   A(4,5,10)             109.3093         calculate D2E/DX2 analytically  !
 ! A29   A(4,5,15)             109.4891         calculate D2E/DX2 analytically  !
 ! A30   A(10,5,15)            110.2621         calculate D2E/DX2 analytically  !
 ! A31   A(2,7,52)             145.4884         calculate D2E/DX2 analytically  !
 ! A32   A(5,10,52)            145.3747         calculate D2E/DX2 analytically  !
 ! A33   A(3,11,4)             114.475          calculate D2E/DX2 analytically  !
 ! A34   A(3,12,79)            113.181          calculate D2E/DX2 analytically  !
 ! A35   A(2,13,20)            113.5705         calculate D2E/DX2 analytically  !
 ! A36   A(1,14,24)            113.8256         calculate D2E/DX2 analytically  !
 ! A37   A(5,15,28)            113.4747         calculate D2E/DX2 analytically  !
 ! A38   A(4,16,17)            105.5829         calculate D2E/DX2 analytically  !
 ! A39   A(4,16,18)            105.4376         calculate D2E/DX2 analytically  !
 ! A40   A(4,16,19)            113.8372         calculate D2E/DX2 analytically  !
 ! A41   A(17,16,18)           104.9195         calculate D2E/DX2 analytically  !
 ! A42   A(17,16,19)           114.0109         calculate D2E/DX2 analytically  !
 ! A43   A(18,16,19)           112.23           calculate D2E/DX2 analytically  !
 ! A44   A(16,19,37)           129.395          calculate D2E/DX2 analytically  !
 ! A45   A(16,19,83)           112.4443         calculate D2E/DX2 analytically  !
 ! A46   A(37,19,83)            67.7742         calculate D2E/DX2 analytically  !
 ! A47   A(13,20,21)           112.2683         calculate D2E/DX2 analytically  !
 ! A48   A(13,20,22)           111.2422         calculate D2E/DX2 analytically  !
 ! A49   A(13,20,23)           106.9419         calculate D2E/DX2 analytically  !
 ! A50   A(21,20,22)           108.5644         calculate D2E/DX2 analytically  !
 ! A51   A(21,20,23)           108.576          calculate D2E/DX2 analytically  !
 ! A52   A(22,20,23)           109.1706         calculate D2E/DX2 analytically  !
 ! A53   A(14,24,25)           110.8143         calculate D2E/DX2 analytically  !
 ! A54   A(14,24,26)           111.217          calculate D2E/DX2 analytically  !
 ! A55   A(14,24,27)           106.7406         calculate D2E/DX2 analytically  !
 ! A56   A(25,24,26)           109.3411         calculate D2E/DX2 analytically  !
 ! A57   A(25,24,27)           108.9348         calculate D2E/DX2 analytically  !
 ! A58   A(26,24,27)           109.7359         calculate D2E/DX2 analytically  !
 ! A59   A(15,28,29)           111.1802         calculate D2E/DX2 analytically  !
 ! A60   A(15,28,30)           111.9209         calculate D2E/DX2 analytically  !
 ! A61   A(15,28,31)           106.7558         calculate D2E/DX2 analytically  !
 ! A62   A(29,28,30)           108.9019         calculate D2E/DX2 analytically  !
 ! A63   A(29,28,31)           108.8414         calculate D2E/DX2 analytically  !
 ! A64   A(30,28,31)           109.1645         calculate D2E/DX2 analytically  !
 ! A65   A(33,32,36)           107.733          calculate D2E/DX2 analytically  !
 ! A66   A(33,32,39)           109.3564         calculate D2E/DX2 analytically  !
 ! A67   A(33,32,45)           110.4093         calculate D2E/DX2 analytically  !
 ! A68   A(36,32,39)           109.627          calculate D2E/DX2 analytically  !
 ! A69   A(36,32,45)           108.8495         calculate D2E/DX2 analytically  !
 ! A70   A(39,32,45)           110.8071         calculate D2E/DX2 analytically  !
 ! A71   A(32,33,34)           110.3758         calculate D2E/DX2 analytically  !
 ! A72   A(32,33,38)           109.0265         calculate D2E/DX2 analytically  !
 ! A73   A(32,33,44)           113.351          calculate D2E/DX2 analytically  !
 ! A74   A(34,33,38)           103.284          calculate D2E/DX2 analytically  !
 ! A75   A(34,33,44)           111.0255         calculate D2E/DX2 analytically  !
 ! A76   A(38,33,44)           109.2767         calculate D2E/DX2 analytically  !
 ! A77   A(33,34,37)           122.1075         calculate D2E/DX2 analytically  !
 ! A78   A(33,34,42)           122.3363         calculate D2E/DX2 analytically  !
 ! A79   A(33,34,53)            92.397          calculate D2E/DX2 analytically  !
 ! A80   A(37,34,42)           114.5431         calculate D2E/DX2 analytically  !
 ! A81   A(37,34,53)            85.2307         calculate D2E/DX2 analytically  !
 ! A82   A(42,34,53)           102.3674         calculate D2E/DX2 analytically  !
 ! A83   A(36,35,40)           108.7236         calculate D2E/DX2 analytically  !
 ! A84   A(36,35,42)           113.9632         calculate D2E/DX2 analytically  !
 ! A85   A(36,35,47)           114.3409         calculate D2E/DX2 analytically  !
 ! A86   A(40,35,42)           104.2546         calculate D2E/DX2 analytically  !
 ! A87   A(40,35,47)           109.5356         calculate D2E/DX2 analytically  !
 ! A88   A(42,35,47)           105.4952         calculate D2E/DX2 analytically  !
 ! A89   A(32,36,35)           111.4681         calculate D2E/DX2 analytically  !
 ! A90   A(32,36,41)           108.8937         calculate D2E/DX2 analytically  !
 ! A91   A(32,36,46)           111.9703         calculate D2E/DX2 analytically  !
 ! A92   A(35,36,41)           109.4296         calculate D2E/DX2 analytically  !
 ! A93   A(35,36,46)           104.3758         calculate D2E/DX2 analytically  !
 ! A94   A(41,36,46)           110.6369         calculate D2E/DX2 analytically  !
 ! A95   A(19,37,34)           103.2284         calculate D2E/DX2 analytically  !
 ! A96   A(19,37,52)           115.2339         calculate D2E/DX2 analytically  !
 ! A97   A(34,37,52)           131.642          calculate D2E/DX2 analytically  !
 ! A98   A(34,42,35)           123.8443         calculate D2E/DX2 analytically  !
 ! A99   A(33,44,63)           112.6411         calculate D2E/DX2 analytically  !
 ! A100  A(32,45,67)           113.8171         calculate D2E/DX2 analytically  !
 ! A101  A(36,46,71)           114.2708         calculate D2E/DX2 analytically  !
 ! A102  A(35,47,48)           108.0703         calculate D2E/DX2 analytically  !
 ! A103  A(35,47,49)           109.3341         calculate D2E/DX2 analytically  !
 ! A104  A(35,47,50)           108.0534         calculate D2E/DX2 analytically  !
 ! A105  A(48,47,49)           108.0754         calculate D2E/DX2 analytically  !
 ! A106  A(48,47,50)           111.9224         calculate D2E/DX2 analytically  !
 ! A107  A(49,47,50)           111.3125         calculate D2E/DX2 analytically  !
 ! A108  A(47,50,75)           112.5396         calculate D2E/DX2 analytically  !
 ! A109  A(43,51,52)           114.0994         calculate D2E/DX2 analytically  !
 ! A110  A(43,51,53)           113.6622         calculate D2E/DX2 analytically  !
 ! A111  A(43,51,54)           108.0572         calculate D2E/DX2 analytically  !
 ! A112  A(52,51,53)           111.7203         calculate D2E/DX2 analytically  !
 ! A113  A(52,51,54)           105.2684         calculate D2E/DX2 analytically  !
 ! A114  A(53,51,54)           102.969          calculate D2E/DX2 analytically  !
 ! A115  A(7,52,10)             64.3873         calculate D2E/DX2 analytically  !
 ! A116  A(7,52,37)            116.0903         calculate D2E/DX2 analytically  !
 ! A117  A(7,52,51)            150.1447         calculate D2E/DX2 analytically  !
 ! A118  A(7,52,83)             83.2024         calculate D2E/DX2 analytically  !
 ! A119  A(10,52,37)            56.6022         calculate D2E/DX2 analytically  !
 ! A120  A(10,52,51)           129.2706         calculate D2E/DX2 analytically  !
 ! A121  A(10,52,83)            76.5888         calculate D2E/DX2 analytically  !
 ! A122  A(37,52,51)            90.0956         calculate D2E/DX2 analytically  !
 ! A123  A(37,52,83)            62.2203         calculate D2E/DX2 analytically  !
 ! A124  A(51,52,83)           123.7904         calculate D2E/DX2 analytically  !
 ! A125  A(34,53,51)           105.7154         calculate D2E/DX2 analytically  !
 ! A126  A(51,54,55)           117.1424         calculate D2E/DX2 analytically  !
 ! A127  A(51,54,56)           121.6722         calculate D2E/DX2 analytically  !
 ! A128  A(55,54,56)           121.1744         calculate D2E/DX2 analytically  !
 ! A129  A(54,55,57)           119.469          calculate D2E/DX2 analytically  !
 ! A130  A(54,55,58)           119.7306         calculate D2E/DX2 analytically  !
 ! A131  A(57,55,58)           120.7824         calculate D2E/DX2 analytically  !
 ! A132  A(54,56,59)           118.4564         calculate D2E/DX2 analytically  !
 ! A133  A(54,56,60)           121.0814         calculate D2E/DX2 analytically  !
 ! A134  A(59,56,60)           120.4343         calculate D2E/DX2 analytically  !
 ! A135  A(55,57,61)           120.4113         calculate D2E/DX2 analytically  !
 ! A136  A(55,57,97)           119.1809         calculate D2E/DX2 analytically  !
 ! A137  A(61,57,97)           120.2977         calculate D2E/DX2 analytically  !
 ! A138  A(56,59,61)           121.1184         calculate D2E/DX2 analytically  !
 ! A139  A(56,59,93)           119.1542         calculate D2E/DX2 analytically  !
 ! A140  A(61,59,93)           119.7236         calculate D2E/DX2 analytically  !
 ! A141  A(57,61,59)           119.352          calculate D2E/DX2 analytically  !
 ! A142  A(57,61,62)           120.3192         calculate D2E/DX2 analytically  !
 ! A143  A(59,61,62)           120.3286         calculate D2E/DX2 analytically  !
 ! A144  A(44,63,64)           109.2177         calculate D2E/DX2 analytically  !
 ! A145  A(44,63,65)           110.6353         calculate D2E/DX2 analytically  !
 ! A146  A(44,63,66)           106.0804         calculate D2E/DX2 analytically  !
 ! A147  A(64,63,65)           110.6124         calculate D2E/DX2 analytically  !
 ! A148  A(64,63,66)           110.6119         calculate D2E/DX2 analytically  !
 ! A149  A(65,63,66)           109.59           calculate D2E/DX2 analytically  !
 ! A150  A(45,67,68)           110.9146         calculate D2E/DX2 analytically  !
 ! A151  A(45,67,69)           111.3566         calculate D2E/DX2 analytically  !
 ! A152  A(45,67,70)           106.4824         calculate D2E/DX2 analytically  !
 ! A153  A(68,67,69)           109.2292         calculate D2E/DX2 analytically  !
 ! A154  A(68,67,70)           109.2855         calculate D2E/DX2 analytically  !
 ! A155  A(69,67,70)           109.5169         calculate D2E/DX2 analytically  !
 ! A156  A(46,71,72)           111.2052         calculate D2E/DX2 analytically  !
 ! A157  A(46,71,73)           110.9234         calculate D2E/DX2 analytically  !
 ! A158  A(46,71,74)           106.292          calculate D2E/DX2 analytically  !
 ! A159  A(72,71,73)           109.3648         calculate D2E/DX2 analytically  !
 ! A160  A(72,71,74)           109.8393         calculate D2E/DX2 analytically  !
 ! A161  A(73,71,74)           109.1569         calculate D2E/DX2 analytically  !
 ! A162  A(50,75,76)           106.9613         calculate D2E/DX2 analytically  !
 ! A163  A(50,75,77)           111.2081         calculate D2E/DX2 analytically  !
 ! A164  A(50,75,78)           111.3246         calculate D2E/DX2 analytically  !
 ! A165  A(76,75,77)           109.2629         calculate D2E/DX2 analytically  !
 ! A166  A(76,75,78)           109.3457         calculate D2E/DX2 analytically  !
 ! A167  A(77,75,78)           108.6978         calculate D2E/DX2 analytically  !
 ! A168  A(12,79,80)           106.7919         calculate D2E/DX2 analytically  !
 ! A169  A(12,79,81)           111.5252         calculate D2E/DX2 analytically  !
 ! A170  A(12,79,82)           110.7896         calculate D2E/DX2 analytically  !
 ! A171  A(80,79,81)           109.5101         calculate D2E/DX2 analytically  !
 ! A172  A(80,79,82)           109.338          calculate D2E/DX2 analytically  !
 ! A173  A(81,79,82)           108.8469         calculate D2E/DX2 analytically  !
 ! A174  A(19,83,52)           103.5461         calculate D2E/DX2 analytically  !
 ! A175  A(19,83,84)           158.2803         calculate D2E/DX2 analytically  !
 ! A176  A(52,83,84)            94.6427         calculate D2E/DX2 analytically  !
 ! A177  A(83,84,85)           121.5973         calculate D2E/DX2 analytically  !
 ! A178  A(83,84,89)           125.4265         calculate D2E/DX2 analytically  !
 ! A179  A(85,84,89)           112.84           calculate D2E/DX2 analytically  !
 ! A180  A(84,85,86)           110.6796         calculate D2E/DX2 analytically  !
 ! A181  A(84,85,87)           107.0202         calculate D2E/DX2 analytically  !
 ! A182  A(84,85,88)           110.5137         calculate D2E/DX2 analytically  !
 ! A183  A(86,85,87)           109.9139         calculate D2E/DX2 analytically  !
 ! A184  A(86,85,88)           109.045          calculate D2E/DX2 analytically  !
 ! A185  A(87,85,88)           109.6478         calculate D2E/DX2 analytically  !
 ! A186  A(84,89,90)           110.9089         calculate D2E/DX2 analytically  !
 ! A187  A(84,89,91)           107.2453         calculate D2E/DX2 analytically  !
 ! A188  A(84,89,92)           110.976          calculate D2E/DX2 analytically  !
 ! A189  A(90,89,91)           109.2576         calculate D2E/DX2 analytically  !
 ! A190  A(90,89,92)           108.9196         calculate D2E/DX2 analytically  !
 ! A191  A(91,89,92)           109.5008         calculate D2E/DX2 analytically  !
 ! A192  A(59,93,94)           111.9988         calculate D2E/DX2 analytically  !
 ! A193  A(59,93,95)           112.2111         calculate D2E/DX2 analytically  !
 ! A194  A(59,93,96)           111.1107         calculate D2E/DX2 analytically  !
 ! A195  A(94,93,95)           107.0893         calculate D2E/DX2 analytically  !
 ! A196  A(94,93,96)           107.0358         calculate D2E/DX2 analytically  !
 ! A197  A(95,93,96)           107.094          calculate D2E/DX2 analytically  !
 ! A198  A(57,97,98)           112.4367         calculate D2E/DX2 analytically  !
 ! A199  A(57,97,99)           110.9653         calculate D2E/DX2 analytically  !
 ! A200  A(57,97,100)          112.0217         calculate D2E/DX2 analytically  !
 ! A201  A(98,97,99)           106.7238         calculate D2E/DX2 analytically  !
 ! A202  A(98,97,100)          107.9517         calculate D2E/DX2 analytically  !
 ! A203  A(99,97,100)          106.4081         calculate D2E/DX2 analytically  !
 ! D1    D(5,1,2,3)            -52.2688         calculate D2E/DX2 analytically  !
 ! D2    D(5,1,2,7)             65.0272         calculate D2E/DX2 analytically  !
 ! D3    D(5,1,2,13)          -176.056          calculate D2E/DX2 analytically  !
 ! D4    D(8,1,2,3)             67.3036         calculate D2E/DX2 analytically  !
 ! D5    D(8,1,2,7)           -175.4004         calculate D2E/DX2 analytically  !
 ! D6    D(8,1,2,13)           -56.4836         calculate D2E/DX2 analytically  !
 ! D7    D(14,1,2,3)          -172.1076         calculate D2E/DX2 analytically  !
 ! D8    D(14,1,2,7)           -54.8117         calculate D2E/DX2 analytically  !
 ! D9    D(14,1,2,13)           64.1052         calculate D2E/DX2 analytically  !
 ! D10   D(2,1,5,4)             52.9838         calculate D2E/DX2 analytically  !
 ! D11   D(2,1,5,10)           -66.6842         calculate D2E/DX2 analytically  !
 ! D12   D(2,1,5,15)           173.6123         calculate D2E/DX2 analytically  !
 ! D13   D(8,1,5,4)            -66.9687         calculate D2E/DX2 analytically  !
 ! D14   D(8,1,5,10)           173.3633         calculate D2E/DX2 analytically  !
 ! D15   D(8,1,5,15)            53.6598         calculate D2E/DX2 analytically  !
 ! D16   D(14,1,5,4)           173.29           calculate D2E/DX2 analytically  !
 ! D17   D(14,1,5,10)           53.622          calculate D2E/DX2 analytically  !
 ! D18   D(14,1,5,15)          -66.0815         calculate D2E/DX2 analytically  !
 ! D19   D(2,1,14,24)         -101.6341         calculate D2E/DX2 analytically  !
 ! D20   D(5,1,14,24)          137.7806         calculate D2E/DX2 analytically  !
 ! D21   D(8,1,14,24)           18.6952         calculate D2E/DX2 analytically  !
 ! D22   D(1,2,3,6)            169.6088         calculate D2E/DX2 analytically  !
 ! D23   D(1,2,3,11)            54.849          calculate D2E/DX2 analytically  !
 ! D24   D(1,2,3,12)           -68.7827         calculate D2E/DX2 analytically  !
 ! D25   D(7,2,3,6)             52.267          calculate D2E/DX2 analytically  !
 ! D26   D(7,2,3,11)           -62.4927         calculate D2E/DX2 analytically  !
 ! D27   D(7,2,3,12)           173.8756         calculate D2E/DX2 analytically  !
 ! D28   D(13,2,3,6)           -68.5848         calculate D2E/DX2 analytically  !
 ! D29   D(13,2,3,11)          176.6554         calculate D2E/DX2 analytically  !
 ! D30   D(13,2,3,12)           53.0238         calculate D2E/DX2 analytically  !
 ! D31   D(1,2,7,52)           -42.2201         calculate D2E/DX2 analytically  !
 ! D32   D(3,2,7,52)            77.4813         calculate D2E/DX2 analytically  !
 ! D33   D(13,2,7,52)         -160.3143         calculate D2E/DX2 analytically  !
 ! D34   D(1,2,13,20)         -156.4437         calculate D2E/DX2 analytically  !
 ! D35   D(3,2,13,20)           80.3281         calculate D2E/DX2 analytically  !
 ! D36   D(7,2,13,20)          -39.0648         calculate D2E/DX2 analytically  !
 ! D37   D(2,3,11,4)           -60.2217         calculate D2E/DX2 analytically  !
 ! D38   D(6,3,11,4)          -179.473          calculate D2E/DX2 analytically  !
 ! D39   D(12,3,11,4)           61.0603         calculate D2E/DX2 analytically  !
 ! D40   D(2,3,12,79)         -173.9255         calculate D2E/DX2 analytically  !
 ! D41   D(6,3,12,79)          -51.7359         calculate D2E/DX2 analytically  !
 ! D42   D(11,3,12,79)          64.0464         calculate D2E/DX2 analytically  !
 ! D43   D(9,4,5,1)             62.9756         calculate D2E/DX2 analytically  !
 ! D44   D(9,4,5,10)          -178.2423         calculate D2E/DX2 analytically  !
 ! D45   D(9,4,5,15)           -57.3611         calculate D2E/DX2 analytically  !
 ! D46   D(11,4,5,1)           -55.4974         calculate D2E/DX2 analytically  !
 ! D47   D(11,4,5,10)           63.2848         calculate D2E/DX2 analytically  !
 ! D48   D(11,4,5,15)         -175.834          calculate D2E/DX2 analytically  !
 ! D49   D(16,4,5,1)          -174.3097         calculate D2E/DX2 analytically  !
 ! D50   D(16,4,5,10)          -55.5275         calculate D2E/DX2 analytically  !
 ! D51   D(16,4,5,15)           65.3537         calculate D2E/DX2 analytically  !
 ! D52   D(5,4,11,3)            60.638          calculate D2E/DX2 analytically  !
 ! D53   D(9,4,11,3)           -57.7649         calculate D2E/DX2 analytically  !
 ! D54   D(16,4,11,3)         -175.89           calculate D2E/DX2 analytically  !
 ! D55   D(5,4,16,17)          -63.1767         calculate D2E/DX2 analytically  !
 ! D56   D(5,4,16,18)         -173.9276         calculate D2E/DX2 analytically  !
 ! D57   D(5,4,16,19)           62.6298         calculate D2E/DX2 analytically  !
 ! D58   D(9,4,16,17)           58.9422         calculate D2E/DX2 analytically  !
 ! D59   D(9,4,16,18)          -51.8087         calculate D2E/DX2 analytically  !
 ! D60   D(9,4,16,19)         -175.2512         calculate D2E/DX2 analytically  !
 ! D61   D(11,4,16,17)         176.4215         calculate D2E/DX2 analytically  !
 ! D62   D(11,4,16,18)          65.6707         calculate D2E/DX2 analytically  !
 ! D63   D(11,4,16,19)         -57.7719         calculate D2E/DX2 analytically  !
 ! D64   D(1,5,10,52)           45.5698         calculate D2E/DX2 analytically  !
 ! D65   D(4,5,10,52)          -75.1212         calculate D2E/DX2 analytically  !
 ! D66   D(15,5,10,52)         164.4693         calculate D2E/DX2 analytically  !
 ! D67   D(1,5,15,28)          132.454          calculate D2E/DX2 analytically  !
 ! D68   D(4,5,15,28)         -106.0353         calculate D2E/DX2 analytically  !
 ! D69   D(10,5,15,28)          14.2662         calculate D2E/DX2 analytically  !
 ! D70   D(2,7,52,10)           13.6604         calculate D2E/DX2 analytically  !
 ! D71   D(2,7,52,37)          -10.2129         calculate D2E/DX2 analytically  !
 ! D72   D(2,7,52,51)          138.7528         calculate D2E/DX2 analytically  !
 ! D73   D(2,7,52,83)          -64.6921         calculate D2E/DX2 analytically  !
 ! D74   D(5,10,52,7)          -15.6718         calculate D2E/DX2 analytically  !
 ! D75   D(5,10,52,37)         138.5194         calculate D2E/DX2 analytically  !
 ! D76   D(5,10,52,51)        -163.9266         calculate D2E/DX2 analytically  !
 ! D77   D(5,10,52,83)          73.1459         calculate D2E/DX2 analytically  !
 ! D78   D(3,12,79,80)         173.9817         calculate D2E/DX2 analytically  !
 ! D79   D(3,12,79,81)         -66.413          calculate D2E/DX2 analytically  !
 ! D80   D(3,12,79,82)          54.999          calculate D2E/DX2 analytically  !
 ! D81   D(2,13,20,21)         -65.9564         calculate D2E/DX2 analytically  !
 ! D82   D(2,13,20,22)          55.9329         calculate D2E/DX2 analytically  !
 ! D83   D(2,13,20,23)         175.0579         calculate D2E/DX2 analytically  !
 ! D84   D(1,14,24,25)         -64.304          calculate D2E/DX2 analytically  !
 ! D85   D(1,14,24,26)          57.5434         calculate D2E/DX2 analytically  !
 ! D86   D(1,14,24,27)         177.2158         calculate D2E/DX2 analytically  !
 ! D87   D(5,15,28,29)         -62.6663         calculate D2E/DX2 analytically  !
 ! D88   D(5,15,28,30)          59.3677         calculate D2E/DX2 analytically  !
 ! D89   D(5,15,28,31)         178.7553         calculate D2E/DX2 analytically  !
 ! D90   D(4,16,19,37)         -45.9246         calculate D2E/DX2 analytically  !
 ! D91   D(4,16,19,83)          33.1025         calculate D2E/DX2 analytically  !
 ! D92   D(17,16,19,37)         75.295          calculate D2E/DX2 analytically  !
 ! D93   D(17,16,19,83)        154.3221         calculate D2E/DX2 analytically  !
 ! D94   D(18,16,19,37)       -165.5915         calculate D2E/DX2 analytically  !
 ! D95   D(18,16,19,83)        -86.5644         calculate D2E/DX2 analytically  !
 ! D96   D(16,19,37,34)       -136.4683         calculate D2E/DX2 analytically  !
 ! D97   D(16,19,37,52)         73.6056         calculate D2E/DX2 analytically  !
 ! D98   D(83,19,37,34)        122.1056         calculate D2E/DX2 analytically  !
 ! D99   D(83,19,37,52)        -27.8205         calculate D2E/DX2 analytically  !
 ! D100  D(16,19,83,52)        -99.9079         calculate D2E/DX2 analytically  !
 ! D101  D(16,19,83,84)         46.171          calculate D2E/DX2 analytically  !
 ! D102  D(37,19,83,52)         25.052          calculate D2E/DX2 analytically  !
 ! D103  D(37,19,83,84)        171.1309         calculate D2E/DX2 analytically  !
 ! D104  D(36,32,33,34)        -55.3823         calculate D2E/DX2 analytically  !
 ! D105  D(36,32,33,38)         57.408          calculate D2E/DX2 analytically  !
 ! D106  D(36,32,33,44)        179.3621         calculate D2E/DX2 analytically  !
 ! D107  D(39,32,33,34)         63.7033         calculate D2E/DX2 analytically  !
 ! D108  D(39,32,33,38)        176.4936         calculate D2E/DX2 analytically  !
 ! D109  D(39,32,33,44)        -61.5523         calculate D2E/DX2 analytically  !
 ! D110  D(45,32,33,34)       -174.1267         calculate D2E/DX2 analytically  !
 ! D111  D(45,32,33,38)        -61.3363         calculate D2E/DX2 analytically  !
 ! D112  D(45,32,33,44)         60.6178         calculate D2E/DX2 analytically  !
 ! D113  D(33,32,36,35)         58.0261         calculate D2E/DX2 analytically  !
 ! D114  D(33,32,36,41)        -62.7978         calculate D2E/DX2 analytically  !
 ! D115  D(33,32,36,46)        174.5349         calculate D2E/DX2 analytically  !
 ! D116  D(39,32,36,35)        -60.8867         calculate D2E/DX2 analytically  !
 ! D117  D(39,32,36,41)        178.2895         calculate D2E/DX2 analytically  !
 ! D118  D(39,32,36,46)         55.6222         calculate D2E/DX2 analytically  !
 ! D119  D(45,32,36,35)        177.7642         calculate D2E/DX2 analytically  !
 ! D120  D(45,32,36,41)         56.9403         calculate D2E/DX2 analytically  !
 ! D121  D(45,32,36,46)        -65.727          calculate D2E/DX2 analytically  !
 ! D122  D(33,32,45,67)       -105.1462         calculate D2E/DX2 analytically  !
 ! D123  D(36,32,45,67)        136.792          calculate D2E/DX2 analytically  !
 ! D124  D(39,32,45,67)         16.1666         calculate D2E/DX2 analytically  !
 ! D125  D(32,33,34,37)       -157.2967         calculate D2E/DX2 analytically  !
 ! D126  D(32,33,34,42)         34.8486         calculate D2E/DX2 analytically  !
 ! D127  D(32,33,34,53)        -71.4242         calculate D2E/DX2 analytically  !
 ! D128  D(38,33,34,37)         86.2791         calculate D2E/DX2 analytically  !
 ! D129  D(38,33,34,42)        -81.5756         calculate D2E/DX2 analytically  !
 ! D130  D(38,33,34,53)        172.1516         calculate D2E/DX2 analytically  !
 ! D131  D(44,33,34,37)        -30.7312         calculate D2E/DX2 analytically  !
 ! D132  D(44,33,34,42)        161.4141         calculate D2E/DX2 analytically  !
 ! D133  D(44,33,34,53)         55.1413         calculate D2E/DX2 analytically  !
 ! D134  D(32,33,44,63)       -100.9428         calculate D2E/DX2 analytically  !
 ! D135  D(34,33,44,63)        134.1512         calculate D2E/DX2 analytically  !
 ! D136  D(38,33,44,63)         20.8716         calculate D2E/DX2 analytically  !
 ! D137  D(33,34,37,19)        -49.4015         calculate D2E/DX2 analytically  !
 ! D138  D(33,34,37,52)         93.2565         calculate D2E/DX2 analytically  !
 ! D139  D(42,34,37,19)        119.3291         calculate D2E/DX2 analytically  !
 ! D140  D(42,34,37,52)        -98.0128         calculate D2E/DX2 analytically  !
 ! D141  D(53,34,37,19)       -139.2408         calculate D2E/DX2 analytically  !
 ! D142  D(53,34,37,52)          3.4173         calculate D2E/DX2 analytically  !
 ! D143  D(33,34,42,35)        -13.7069         calculate D2E/DX2 analytically  !
 ! D144  D(37,34,42,35)        177.5912         calculate D2E/DX2 analytically  !
 ! D145  D(53,34,42,35)         87.2157         calculate D2E/DX2 analytically  !
 ! D146  D(33,34,53,51)       -147.2398         calculate D2E/DX2 analytically  !
 ! D147  D(37,34,53,51)        -25.2121         calculate D2E/DX2 analytically  !
 ! D148  D(42,34,53,51)         88.8941         calculate D2E/DX2 analytically  !
 ! D149  D(40,35,36,32)         78.4757         calculate D2E/DX2 analytically  !
 ! D150  D(40,35,36,41)       -161.0145         calculate D2E/DX2 analytically  !
 ! D151  D(40,35,36,46)        -42.5759         calculate D2E/DX2 analytically  !
 ! D152  D(42,35,36,32)        -37.3197         calculate D2E/DX2 analytically  !
 ! D153  D(42,35,36,41)         83.1901         calculate D2E/DX2 analytically  !
 ! D154  D(42,35,36,46)       -158.3713         calculate D2E/DX2 analytically  !
 ! D155  D(47,35,36,32)       -158.7824         calculate D2E/DX2 analytically  !
 ! D156  D(47,35,36,41)        -38.2726         calculate D2E/DX2 analytically  !
 ! D157  D(47,35,36,46)         80.166          calculate D2E/DX2 analytically  !
 ! D158  D(36,35,42,34)         14.4711         calculate D2E/DX2 analytically  !
 ! D159  D(40,35,42,34)       -103.9115         calculate D2E/DX2 analytically  !
 ! D160  D(47,35,42,34)        140.7185         calculate D2E/DX2 analytically  !
 ! D161  D(36,35,47,48)        -60.3932         calculate D2E/DX2 analytically  !
 ! D162  D(36,35,47,49)       -177.8029         calculate D2E/DX2 analytically  !
 ! D163  D(36,35,47,50)         60.8992         calculate D2E/DX2 analytically  !
 ! D164  D(40,35,47,48)         61.9069         calculate D2E/DX2 analytically  !
 ! D165  D(40,35,47,49)        -55.5028         calculate D2E/DX2 analytically  !
 ! D166  D(40,35,47,50)       -176.8006         calculate D2E/DX2 analytically  !
 ! D167  D(42,35,47,48)        173.5913         calculate D2E/DX2 analytically  !
 ! D168  D(42,35,47,49)         56.1816         calculate D2E/DX2 analytically  !
 ! D169  D(42,35,47,50)        -65.1162         calculate D2E/DX2 analytically  !
 ! D170  D(32,36,46,71)         98.4725         calculate D2E/DX2 analytically  !
 ! D171  D(35,36,46,71)       -140.8104         calculate D2E/DX2 analytically  !
 ! D172  D(41,36,46,71)        -23.1989         calculate D2E/DX2 analytically  !
 ! D173  D(19,37,52,7)         -37.7681         calculate D2E/DX2 analytically  !
 ! D174  D(19,37,52,10)        -63.6891         calculate D2E/DX2 analytically  !
 ! D175  D(19,37,52,51)        157.1031         calculate D2E/DX2 analytically  !
 ! D176  D(19,37,52,83)         28.2204         calculate D2E/DX2 analytically  !
 ! D177  D(34,37,52,7)        -177.0177         calculate D2E/DX2 analytically  !
 ! D178  D(34,37,52,10)        157.0614         calculate D2E/DX2 analytically  !
 ! D179  D(34,37,52,51)         17.8536         calculate D2E/DX2 analytically  !
 ! D180  D(34,37,52,83)       -111.0292         calculate D2E/DX2 analytically  !
 ! D181  D(33,44,63,64)        -65.0033         calculate D2E/DX2 analytically  !
 ! D182  D(33,44,63,65)         56.9783         calculate D2E/DX2 analytically  !
 ! D183  D(33,44,63,66)        175.7563         calculate D2E/DX2 analytically  !
 ! D184  D(32,45,67,68)        -61.6771         calculate D2E/DX2 analytically  !
 ! D185  D(32,45,67,69)         60.1937         calculate D2E/DX2 analytically  !
 ! D186  D(32,45,67,70)        179.5201         calculate D2E/DX2 analytically  !
 ! D187  D(36,46,71,72)        -61.173          calculate D2E/DX2 analytically  !
 ! D188  D(36,46,71,73)         60.7723         calculate D2E/DX2 analytically  !
 ! D189  D(36,46,71,74)        179.3118         calculate D2E/DX2 analytically  !
 ! D190  D(35,47,50,75)        177.9306         calculate D2E/DX2 analytically  !
 ! D191  D(48,47,50,75)        -63.1974         calculate D2E/DX2 analytically  !
 ! D192  D(49,47,50,75)         57.8679         calculate D2E/DX2 analytically  !
 ! D193  D(47,50,75,76)       -179.7957         calculate D2E/DX2 analytically  !
 ! D194  D(47,50,75,77)        -60.566          calculate D2E/DX2 analytically  !
 ! D195  D(47,50,75,78)         60.8079         calculate D2E/DX2 analytically  !
 ! D196  D(43,51,52,7)          41.5978         calculate D2E/DX2 analytically  !
 ! D197  D(43,51,52,10)        149.223          calculate D2E/DX2 analytically  !
 ! D198  D(43,51,52,37)       -165.9842         calculate D2E/DX2 analytically  !
 ! D199  D(43,51,52,83)       -110.0186         calculate D2E/DX2 analytically  !
 ! D200  D(53,51,52,7)         172.2493         calculate D2E/DX2 analytically  !
 ! D201  D(53,51,52,10)        -80.1255         calculate D2E/DX2 analytically  !
 ! D202  D(53,51,52,37)        -35.3328         calculate D2E/DX2 analytically  !
 ! D203  D(53,51,52,83)         20.6328         calculate D2E/DX2 analytically  !
 ! D204  D(54,51,52,7)         -76.7023         calculate D2E/DX2 analytically  !
 ! D205  D(54,51,52,10)         30.9229         calculate D2E/DX2 analytically  !
 ! D206  D(54,51,52,37)         75.7156         calculate D2E/DX2 analytically  !
 ! D207  D(54,51,52,83)        131.6812         calculate D2E/DX2 analytically  !
 ! D208  D(43,51,53,34)        173.937          calculate D2E/DX2 analytically  !
 ! D209  D(52,51,53,34)         43.061          calculate D2E/DX2 analytically  !
 ! D210  D(54,51,53,34)        -69.4355         calculate D2E/DX2 analytically  !
 ! D211  D(43,51,54,55)         85.8069         calculate D2E/DX2 analytically  !
 ! D212  D(43,51,54,56)        -95.3895         calculate D2E/DX2 analytically  !
 ! D213  D(52,51,54,55)       -151.9045         calculate D2E/DX2 analytically  !
 ! D214  D(52,51,54,56)         26.8991         calculate D2E/DX2 analytically  !
 ! D215  D(53,51,54,55)        -34.7416         calculate D2E/DX2 analytically  !
 ! D216  D(53,51,54,56)        144.0621         calculate D2E/DX2 analytically  !
 ! D217  D(7,52,83,19)         101.4461         calculate D2E/DX2 analytically  !
 ! D218  D(7,52,83,84)         -66.5958         calculate D2E/DX2 analytically  !
 ! D219  D(10,52,83,19)         36.2257         calculate D2E/DX2 analytically  !
 ! D220  D(10,52,83,84)       -131.8163         calculate D2E/DX2 analytically  !
 ! D221  D(37,52,83,19)        -22.8444         calculate D2E/DX2 analytically  !
 ! D222  D(37,52,83,84)        169.1137         calculate D2E/DX2 analytically  !
 ! D223  D(51,52,83,19)        -92.3413         calculate D2E/DX2 analytically  !
 ! D224  D(51,52,83,84)         99.6167         calculate D2E/DX2 analytically  !
 ! D225  D(51,54,55,57)        177.7606         calculate D2E/DX2 analytically  !
 ! D226  D(51,54,55,58)         -0.71           calculate D2E/DX2 analytically  !
 ! D227  D(56,54,55,57)         -1.0493         calculate D2E/DX2 analytically  !
 ! D228  D(56,54,55,58)       -179.5199         calculate D2E/DX2 analytically  !
 ! D229  D(51,54,56,59)       -178.8903         calculate D2E/DX2 analytically  !
 ! D230  D(51,54,56,60)         -0.8045         calculate D2E/DX2 analytically  !
 ! D231  D(55,54,56,59)         -0.1346         calculate D2E/DX2 analytically  !
 ! D232  D(55,54,56,60)        177.9512         calculate D2E/DX2 analytically  !
 ! D233  D(54,55,57,61)          1.2617         calculate D2E/DX2 analytically  !
 ! D234  D(54,55,57,97)       -174.9359         calculate D2E/DX2 analytically  !
 ! D235  D(58,55,57,61)        179.7159         calculate D2E/DX2 analytically  !
 ! D236  D(58,55,57,97)          3.5182         calculate D2E/DX2 analytically  !
 ! D237  D(54,56,59,61)          1.1299         calculate D2E/DX2 analytically  !
 ! D238  D(54,56,59,93)       -179.5909         calculate D2E/DX2 analytically  !
 ! D239  D(60,56,59,61)       -176.9687         calculate D2E/DX2 analytically  !
 ! D240  D(60,56,59,93)          2.3105         calculate D2E/DX2 analytically  !
 ! D241  D(55,57,61,59)         -0.29           calculate D2E/DX2 analytically  !
 ! D242  D(55,57,61,62)        179.5843         calculate D2E/DX2 analytically  !
 ! D243  D(97,57,61,59)        175.865          calculate D2E/DX2 analytically  !
 ! D244  D(97,57,61,62)         -4.2607         calculate D2E/DX2 analytically  !
 ! D245  D(55,57,97,98)       -160.4599         calculate D2E/DX2 analytically  !
 ! D246  D(55,57,97,99)         80.0934         calculate D2E/DX2 analytically  !
 ! D247  D(55,57,97,100)       -38.6763         calculate D2E/DX2 analytically  !
 ! D248  D(61,57,97,98)         23.338          calculate D2E/DX2 analytically  !
 ! D249  D(61,57,97,99)        -96.1087         calculate D2E/DX2 analytically  !
 ! D250  D(61,57,97,100)       145.1216         calculate D2E/DX2 analytically  !
 ! D251  D(56,59,61,57)         -0.924          calculate D2E/DX2 analytically  !
 ! D252  D(56,59,61,62)        179.2017         calculate D2E/DX2 analytically  !
 ! D253  D(93,59,61,57)        179.8009         calculate D2E/DX2 analytically  !
 ! D254  D(93,59,61,62)         -0.0733         calculate D2E/DX2 analytically  !
 ! D255  D(56,59,93,94)        -64.5797         calculate D2E/DX2 analytically  !
 ! D256  D(56,59,93,95)        174.936          calculate D2E/DX2 analytically  !
 ! D257  D(56,59,93,96)         55.0692         calculate D2E/DX2 analytically  !
 ! D258  D(61,59,93,94)        114.7096         calculate D2E/DX2 analytically  !
 ! D259  D(61,59,93,95)         -5.7747         calculate D2E/DX2 analytically  !
 ! D260  D(61,59,93,96)       -125.6414         calculate D2E/DX2 analytically  !
 ! D261  D(19,83,84,85)       -158.5883         calculate D2E/DX2 analytically  !
 ! D262  D(19,83,84,89)         16.8586         calculate D2E/DX2 analytically  !
 ! D263  D(52,83,84,85)        -11.566          calculate D2E/DX2 analytically  !
 ! D264  D(52,83,84,89)        163.881          calculate D2E/DX2 analytically  !
 ! D265  D(83,84,85,86)       -123.8361         calculate D2E/DX2 analytically  !
 ! D266  D(83,84,85,87)         -4.0814         calculate D2E/DX2 analytically  !
 ! D267  D(83,84,85,88)        115.2581         calculate D2E/DX2 analytically  !
 ! D268  D(89,84,85,86)         60.1887         calculate D2E/DX2 analytically  !
 ! D269  D(89,84,85,87)        179.9434         calculate D2E/DX2 analytically  !
 ! D270  D(89,84,85,88)        -60.7171         calculate D2E/DX2 analytically  !
 ! D271  D(83,84,89,90)       -115.7388         calculate D2E/DX2 analytically  !
 ! D272  D(83,84,89,91)          3.4886         calculate D2E/DX2 analytically  !
 ! D273  D(83,84,89,92)        123.0496         calculate D2E/DX2 analytically  !
 ! D274  D(85,84,89,90)         60.0538         calculate D2E/DX2 analytically  !
 ! D275  D(85,84,89,91)        179.2812         calculate D2E/DX2 analytically  !
 ! D276  D(85,84,89,92)        -61.1578         calculate D2E/DX2 analytically  !
 --------------------------------------------------------------------------------
 Trust Radius=5.00D-02 FncErr=1.00D-07 GrdErr=1.00D-06 EigMax=2.50D+02 EigMin=1.00D-04
 Number of steps in this run=    595 maximum allowed number of steps=    600.
 Search for a saddle point of order  1.
 Step   0 in ReCalcFC=30 IGetFC= 4 compute analytic Hessian.
 GradGradGradGradGradGradGradGradGradGradGradGradGradGradGradGradGradGrad

 Leave Link  103 at Thu May 30 18:50:03 2019, MaxMem=  6442450944 cpu:               3.9 elap:               0.2
 (Enter /home/ekwan/sw/g16/l202.exe)
 Stoichiometry    C30H47F6NaO15S
 Framework group  C1[X(C30H47F6NaO15S)]
 Deg. of freedom   294
 Full point group                 C1      NOp   1
 Largest Abelian subgroup         C1      NOp   1
 Largest concise Abelian subgroup C1      NOp   1
                         Standard orientation:                         
 ---------------------------------------------------------------------
 Center     Atomic      Atomic             Coordinates (Angstroms)
 Number     Number       Type             X           Y           Z
 ---------------------------------------------------------------------
      1          6           0        3.421499    1.439101    1.035271
      2          6           0        4.165688    0.643242   -0.038764
      3          6           0        4.637488   -0.713077    0.504021
      4          6           0        2.861950   -0.758299    2.140016
      5          6           0        2.311485    0.585993    1.647395
      6          1           0        5.005692   -1.358385   -0.303379
      7          1           0        3.455776    0.442847   -0.852577
      8          1           0        4.123542    1.728104    1.827806
      9          1           0        3.590774   -0.567692    2.938443
     10          1           0        1.560302    0.407169    0.872365
     11          8           0        3.536043   -1.428760    1.043007
     12          8           0        5.647476   -0.490555    1.446664
     13          8           0        5.243546    1.429063   -0.520209
     14          8           0        2.842252    2.601975    0.454771
     15          8           0        1.733629    1.292111    2.740694
     16          6           0        1.782942   -1.729248    2.643601
     17          1           0        1.320726   -1.231843    3.522593
     18          1           0        2.339214   -2.598238    3.065239
     19          8           0        0.882537   -2.107657    1.678110
     20          6           0        5.670228    1.068540   -1.822714
     21          1           0        6.110241    0.061264   -1.853160
     22          1           0        4.837594    1.108762   -2.540195
     23          1           0        6.434307    1.791246   -2.118892
     24          6           0        3.573987    3.793978    0.705444
     25          1           0        3.582405    4.028666    1.779558
     26          1           0        4.604464    3.709743    0.344519
     27          1           0        3.061759    4.594636    0.172577
     28          6           0        0.313202    1.305021    2.718694
     29          1           0       -0.064565    1.823058    1.829101
     30          1           0       -0.105962    0.291741    2.744625
     31          1           0       -0.010993    1.850584    3.609448
     32          6           0       -2.812825   -3.063145   -0.222754
     33          6           0       -1.378256   -2.830839    0.266622
     34          6           0       -1.090839   -1.368496    0.358959
     35          6           0       -3.424905   -0.814579    0.764011
     36          6           0       -3.753801   -2.311258    0.719321
     37          1           0       -0.089066   -0.980119    0.328421
     38          1           0       -1.295629   -3.170824    1.308828
     39          1           0       -2.917929   -2.669015   -1.239677
     40          1           0       -3.834423   -0.339386   -0.128020
     41          1           0       -3.661396   -2.735338    1.726542
     42          8           0       -1.981168   -0.516246    0.704278
     43          8           0        0.239601    0.145824   -3.686534
     44          8           0       -0.404509   -3.490720   -0.518288
     45          8           0       -3.130986   -4.441987   -0.182454
     46          8           0       -5.097790   -2.362741    0.277660
     47          6           0       -3.934199   -0.101088    1.996034
     48          1           0       -5.029932   -0.199194    2.018786
     49          1           0       -3.688840    0.968363    1.924895
     50          8           0       -3.329180   -0.691771    3.124556
     51         16           0       -0.034411   -0.051168   -2.249611
     52          8           0        1.194787   -0.211689   -1.409006
     53          8           0       -1.045257   -1.130413   -1.969902
     54          6           0       -0.844926    1.433528   -1.626690
     55          6           0       -2.230746    1.508342   -1.766724
     56          6           0       -0.126984    2.453553   -1.008532
     57          6           0       -2.911336    2.611557   -1.260800
     58          1           0       -2.767083    0.697301   -2.244859
     59          6           0       -0.828202    3.567042   -0.528369
     60          1           0        0.947976    2.378886   -0.870820
     61          6           0       -2.213616    3.648603   -0.641449
     62          1           0       -2.743726    4.508963   -0.254514
     63          6           0        0.066328   -4.705217    0.089860
     64          1           0        0.594867   -4.462307    1.018048
     65          1           0       -0.766953   -5.385279    0.287956
     66          1           0        0.747362   -5.161066   -0.632498
     67          6           0       -3.148702   -5.066414   -1.463933
     68          1           0       -3.912943   -4.614440   -2.109579
     69          1           0       -2.172254   -4.995081   -1.956143
     70          1           0       -3.395552   -6.116510   -1.293543
     71          6           0       -5.889796   -3.357016    0.924513
     72          1           0       -5.491199   -4.359597    0.743949
     73          1           0       -5.941156   -3.174831    2.006912
     74          1           0       -6.892400   -3.274588    0.499216
     75          6           0       -3.707007   -0.060233    4.337025
     76          1           0       -3.188440   -0.582640    5.143288
     77          1           0       -3.412078    0.999113    4.342498
     78          1           0       -4.792666   -0.124786    4.500166
     79          6           0        6.252300   -1.691146    1.913651
     80          1           0        7.087237   -1.396040    2.552128
     81          1           0        5.546439   -2.298628    2.491590
     82          1           0        6.630927   -2.290172    1.072725
     83         11           0        1.827218   -2.234215   -0.389879
     84          8           0        3.367818   -2.778263   -1.997536
     85          6           0        3.441257   -2.069494   -3.231432
     86          1           0        3.339024   -2.758110   -4.080971
     87          1           0        2.621857   -1.350380   -3.235635
     88          1           0        4.399335   -1.538292   -3.313839
     89          6           0        4.387976   -3.756839   -1.862404
     90          1           0        5.383852   -3.293993   -1.906884
     91          1           0        4.254456   -4.231359   -0.887646
     92          1           0        4.312235   -4.515600   -2.653054
     93          6           0       -0.066538    4.683328    0.134353
     94          9           0        0.525243    4.281567    1.279835
     95          9           0       -0.861579    5.730140    0.444345
     96          9           0        0.912796    5.153080   -0.674608
     97          6           0       -4.412424    2.632893   -1.312291
     98          9           0       -4.913129    3.877325   -1.193437
     99          9           0       -4.946104    1.896379   -0.295926
    100          9           0       -4.886533    2.101839   -2.457098
 ---------------------------------------------------------------------
 Rotational constants (GHZ):           0.0614043           0.0461579           0.0349052
 Leave Link  202 at Thu May 30 18:50:03 2019, MaxMem=  6442450944 cpu:               2.8 elap:               0.1
 (Enter /home/ekwan/sw/g16/l301.exe)
 Standard basis: 6-31G(d) (6D, 7F)
 Ernie: Thresh=  0.10000D-02 Tol=  0.10000D-05 Strict=F.
 There are   897 symmetry adapted cartesian basis functions of A   symmetry.
 There are   897 symmetry adapted basis functions of A   symmetry.
   897 basis functions,  1720 primitive gaussians,   897 cartesian basis functions
   214 alpha electrons      214 beta electrons
       nuclear repulsion energy      9760.4238232906 Hartrees.
 IExCor=  402 DFT=T Ex+Corr=B3LYP ExCW=0 ScaHFX=  0.200000
 ScaDFX=  0.800000  0.720000  1.000000  0.810000 ScalE2=  1.000000  1.000000
[...]
 014510,-0.00010083,-0.00037048,-0.00064688,-0.00017210,0.00017742,-0.0
 0038102,0.00096853,-0.00000443,-0.00171308,-0.00044038,-0.00033537,0.0
 0053640,-0.00008508,0.00035340,0.00076669,-0.00033855,-0.00154245,0.00
 066949,-0.00096649,-0.00021366,-0.00208241,-0.00043455,-0.00026929,0.0
 0071533,0.00052489,-0.01057844,0.00289043,0.01233572,-0.00014550,-0.00
 005194,0.00075202,0.00030147,0.00020503,-0.00040096,0.00007809,-0.0000
 2764,0.00013013,-0.00000614,0.00058532,-0.00031859,0.00035541,0.000013
 16,0.00052025,-0.00003619,0.00008262,-0.00004721,-0.00000087,0.0000006
 8,0.00000892,-0.00000787,0.00000272,0.00000142,0.00001594,-0.00002114,
 -0.00000287,0.00000396,0.00006991,0.00016974,-0.00000297,0.00000744,-0
 .00001569,0.00001716,-0.00000860,-0.00003018,-0.00000427,-0.00002954,-
 0.00002082,0.00024565,0.00024836,-0.00017981,-0.00001366,-0.00007103,0
 .00003040,-0.00000882,-0.00002140,0.00003333,-0.00003620,-0.00000258,0
 .00000651,0.00018749,-0.00031207,-0.00050634,-0.00000041,0.00001135,0.
 00010662,-0.00003282,0.00009058,0.00001481,-0.00006244,0.00004784,0.00
 003530,-0.00000006,-0.00001359,0.00000646,-0.00000075,0.00000169,-0.00
 000078,0.00000079,0.00000317,-0.00000292,-0.00000051,0.00000117,-0.000
 00019,-0.00006803,-0.00007373,0.00008601,-0.00000512,0.00003026,-0.000
 01825,0.00000772,-0.00002245,0.00001771,-0.00000433,0.00000695,0.00000
 010,0.00000279,-0.00000625,-0.00000970,0.00000161,0.00000332,-0.000002
 39,0.00000799,-0.00001428,0.00000434,-0.00000003,0.00000231,0.00000026
 ,-0.00000255,0.00000293,-0.00000334,-0.00000281,0.00000254,0.00000179,
 0.00045853,0.00050588,0.00047297,-0.00017571,-0.00006378,-0.00027901,-
 0.00009435,-0.00017649,-0.00012223,-0.00023560,-0.00019801,0.00000182,
 -0.04019638,-0.10904923,0.05573971,-0.00871882,-0.06524532,0.04202303,
 0.05691709,0.15778092,-0.00003338,0.00010881,-0.00005154,-0.00002530,-
 0.00001532,-0.00003095,0.00000626,0.00004285,-0.00004540,0.00000684,0.
 00001692,-0.00002386,-0.00001815,-0.00002890,-0.00009755,-0.00000173,-
 0.00000501,0.00000507,-0.00001233,0.00000536,0.00000996,0.00001709,-0.
 00000946,0.00001825,-0.00000022,-0.00001110,0.00000955,0.00001985,0.00
 003255,-0.00001919,-0.00002631,-0.00002570,0.00005436,0.00001552,-0.00
 002750,0.00002864,0.00002506,-0.00001485,0.00002275,0.00014656,-0.0000
 2348,0.00009847,-0.00008163,-0.00000900,0.00008993,0.00007944,0.000058
 25,0.00003894,-0.00000524,-0.00000584,-0.00000143,-0.00003163,-0.00000
 922,-0.00001799,-0.00015923,-0.00003720,-0.00001628,-0.00002536,0.0000
 0688,-0.00001389,0.00000581,-0.00000725,0.00000197,0.00000713,0.000003
 02,0.00000791,0.00000084,0.00000145,-0.00000054,-0.00003741,-0.0000576
 4,-0.00002771,0.00000957,0.00001106,0.00002244,0.00001659,0.00000612,0
 .00000450,-0.00002219,-0.00001583,0.00000033,0.00003604,0.00006600,-0.
 00008642,0.00003655,0.00000387,-0.00001195,0.00001106,-0.00003999,0.00
 002876,0.00000997,-0.00000540,0.00004463,0.00015317,-0.00009497,-0.000
 22188,0.00014443,-0.00001093,-0.00002380,0.00064209,-0.00063382,-0.000
 77210,0.00121241,-0.00012547,0.00049971,-0.00051609,-0.00026917,-0.000
 26662,0.00001316,0.00008847,0.00003228,0.00001251,-0.00002062,0.000020
 94,0.00002309,0.00001228,0.00000740,0.00025375,-0.00075134,-0.00133281
 ,0.00003222,0.00013463,-0.00000209,-0.00117362,0.00072862,0.00039359,0
 .00016241,-0.00038854,-0.00025745,-0.00015212,0.00009066,0.00007586,-0
 .00003682,0.00025110,0.00021238,0.00009930,0.00026699,0.00005910,-0.00
 048793,-0.00150680,0.00015499,-0.00011950,-0.00021105,0.00021976,0.000
 59707,0.00118724,0.00021927,-0.00027734,0.00087555,-0.00101674,-0.0003
 5575,0.00172382,0.00026002,0.00040630,-0.00050203,0.00018100,-0.000213
 15,-0.00080745,0.00035941,0.00016053,-0.00036651,0.00049361,-0.0002516
 8,0.00059110,0.00097119,0.00028594,0.00043161,0.00002090,0.01371796,0.
 01254884,-0.00423894,-0.00027457,0.00029894,-0.00044232,0.00135326,0.0
 0003635,0.00087007,-0.00009725,0.00005454,-0.00011461,0.00117876,-0.00
 163862,-0.00178171,-0.00014775,0.00019844,-0.00049056,0.00001446,-0.00
 004242,0.00002624,0.00000401,-0.00000071,-0.00000345,0.00000445,-0.000
 00586,-0.00000180,-0.00001318,0.00001599,0.00000220,-0.00002049,-0.000
 04599,-0.00016958,0.00001452,-0.00000415,0.00001890,-0.00001567,0.0000
 1004,0.00002569,0.00000426,0.00001814,0.00002202,-0.00017583,-0.000183
 37,0.00009709,0.00000836,0.00005878,-0.00001997,0.00000852,0.00001044,
 -0.00000238,0.00003187,-0.00000143,-0.00001165,-0.00022362,0.00026012,
 0.00060818,-0.00000504,0.00000619,-0.00011333,0.00006140,-0.00008063,0
 .00001121,0.00006951,-0.00005766,-0.00003435,-0.00000291,0.00001781,-0
 .00001013,0.00000297,-0.00000198,0.00000151,-0.00000151,-0.00000452,0.
 00000244,0.00000020,-0.00000172,0.00000120,0.00003003,0.00008365,-0.00
 009806,0.00002445,-0.00003905,0.00002729,-0.00001597,0.00002648,-0.000
 02411,0.00000294,-0.00000568,0.00000229,-0.00000829,0.00000445,0.00000
 947,0.00000250,-0.00000329,0.00000407,-0.00002152,0.00002361,-0.000009
 41,0.00000408,-0.00000179,-0.00000074,0.00000232,-0.00000489,0.0000050
 9,0.00000358,-0.00000327,-0.00000166,-0.00040345,-0.00110672,-0.000700
 17,0.00032343,0.00019858,0.00055706,0.00003149,0.00033661,0.00021375,0
 .00030366,0.00031171,0.00002184,0.05725929,0.05600175,-0.14623304,-0.0
 0125493,0.03192517,-0.00057427,-0.08121564,-0.11494138,0.23435777,0.00
 007439,-0.00013929,0.00005615,0.00008292,0.00003560,-0.00000249,0.0001
 1042,-0.00003151,0.00003293,0.00004306,-0.00007347,-0.00001173,0.00011
 957,0.00001120,0.00008384,-0.00001567,0.00001354,0.00000262,0.00002295
 ,-0.00000513,-0.00001750,-0.00003364,0.00001007,-0.00002765,-0.0000238
 3,0.00001413,-0.00001745,-0.00003110,-0.00003884,0.00001778,-0.0000915
 0,0.00004372,0.00000065,-0.00009341,0.00004774,-0.00004791,-0.00010323
 ,-0.00000038,0.00005307,-0.00030979,-0.00002883,-0.00012074,-0.0001598
 7,0.00006995,-0.00009123,0.00005082,0.00004913,0.00010398,-0.00000331,
 -0.00002472,-0.00001567,-0.00004676,0.00003024,-0.00004337,-0.00010323
 ,0.00007098,-0.00013400,0.00004373,-0.00002308,-0.00004562,-0.00000827
 ,0.00001599,0.00000481,-0.00000240,0.00000147,-0.00000188,-0.00000957,
 -0.00000429,0.00000779,0.00009665,0.00014241,0.00003670,-0.00001480,-0
 .00002311,-0.00003181,-0.00004754,-0.00001385,-0.00001050,0.00005254,0
 .00001904,-0.00000714,0.00017927,-0.00011528,0.00019415,-0.00002917,0.
 00003058,-0.00004010,-0.00001173,0.00002762,-0.00003355,-0.00000979,0.
 00000585,-0.00005251,-0.00007656,-0.00007316,-0.00003749,0.00003744,-0
 .00002641,-0.00002450,0.00011373,-0.00034332,0.00043562,-0.00030265,-0
 .00007665,0.00008276,-0.00014715,-0.00006020,-0.00003851,0.00003099,-0
 .00003472,0.00002248,0.00000078,0.00001999,0.00001703,-0.00002876,-0.0
 0001322,-0.00001124,-0.00011280,0.00001365,-0.00002512,0.00001762,0.00
 001089,0.00000713,0.00014577,0.00020067,-0.00015789,-0.00034405,0.0005
 3165,0.00082145,-0.00001125,0.00011990,-0.00000812,0.00007215,0.000115
 11,0.00005446,0.00016444,0.00002598,0.00004001,-0.00003885,-0.00003740
 ,0.00005228,0.00003380,0.00002507,-0.00003548,-0.00004963,0.00001163,0
 .00000582,0.00005782,0.00002035,-0.00006755,0.00109690,-0.00252414,-0.
 00124079,-0.00073305,0.00075071,-0.00004688,0.00008596,0.00115349,-0.0
 0001162,-0.00000825,-0.00050551,0.00015260,-0.00078500,-0.00084472,-0.
 00073255,-0.00080052,-0.00035626,-0.00040248,-0.01779488,-0.02052088,-
 0.03935272,-0.00161174,0.00018654,-0.00077130,-0.00185371,-0.00211641,
 0.00018858,0.00022966,0.00001542,-0.00001759,-0.00496229,0.00525516,0.
 00025631,0.00038988,0.00018898,-0.00040420,0.00003764,-0.00006935,0.00
 001634,-0.00000053,-0.00000777,-0.00000483,0.00000106,0.00001902,-0.00
 000577,-0.00000963,0.00000796,0.00000380,-0.00003322,-0.00001979,-0.00
 008002,0.00001158,-0.00000213,0.00001895,0.00000309,-0.00000319,0.0000
 0334,0.00000356,0.00000735,0.00000793,-0.00003236,-0.00001993,0.000013
 38,0.00000128,0.00000040,-0.00000403,0.00000050,0.00000532,0.00000274,
 0.00002500,0.00001498,-0.00000239,-0.00004323,-0.00001357,0.00003605,0
 .00000035,0.00000065,-0.00000592,0.00000118,0.00000971,-0.00000046,0.0
 0001915,0.00000391,-0.00000639,0.00003099,-0.00004943,0.00001196,-0.00
 000799,0.00000336,-0.00000543,0.00000217,0.00000576,-0.00000106,-0.000
 00312,0.00000908,0.00000488,0.00008772,-0.00018057,0.00003616,-0.00004
 562,0.00005565,0.00001490,0.00002712,-0.00002609,-0.00000686,-0.000010
 74,0.00001880,0.00000764,0.00002225,-0.00001251,-0.00003200,-0.0000095
 8,0.00000360,-0.00000251,0.00003774,-0.00004460,0.00000654,-0.00000758
 ,0.00000237,-0.00000045,-0.00000210,0.00000283,-0.00000512,-0.00000549
 ,0.00001067,0.00000701,0.00082277,0.00212661,0.00133163,-0.00049860,-0
 .00031649,-0.00070466,-0.00009150,-0.00066090,-0.00029737,-0.00088678,
 -0.00088963,0.00006566,-0.12049892,-0.02869145,-0.06992322,0.01733758,
 0.00234824,0.00851501,0.01717865,0.00364594,0.00885085,0.11399209,0.00
 002140,-0.00004913,0.00001805,0.00001453,0.00000318,-0.00000436,0.0000
 1297,-0.00001465,0.00000758,0.00001224,-0.00002233,-0.00000454,0.00003
 420,-0.00000757,0.00000568,-0.00000474,0.00000462,0.00000010,0.0000031
 0,-0.00000252,-0.00000253,-0.00000783,0.00000515,-0.00000658,-0.000001
 42,0.00000617,-0.00000307,-0.00000659,-0.00001517,0.00000394,-0.000013
 15,0.00002093,0.00000405,-0.00001475,0.00001480,-0.00000669,-0.0000206
 8,0.00000732,0.00001674,-0.00008194,0.00001094,-0.00002929,-0.00005527
 ,0.00003692,-0.00001133,-0.00001913,-0.00002432,-0.00001655,0.00000027
 ,0.00000260,0.00000875,0.00000400,0.00000857,0.00000148,0.00003426,0.0
 0003885,0.00001856,0.00000877,-0.00000719,-0.00001463,-0.00000277,0.00
 000478,0.00000117,0.00000056,-0.00000065,0.00000018,-0.00000129,-0.000
 00060,0.00000175,0.00002131,0.00002568,0.00000547,-0.00000200,-0.00000
 514,-0.00000564,-0.00001239,-0.00000340,-0.00000228,0.00001471,0.00000
 657,-0.00000366,0.00006126,-0.00004992,0.00005233,-0.00000981,0.000008
 41,-0.00001775,-0.00000229,0.00001202,-0.00001548,-0.00000207,0.000004
 80,-0.00000791,-0.00003055,0.00003400,-0.00005780,-0.00002799,-0.00000
 702,0.00000262,-0.00005943,-0.00000253,0.00005347,-0.00024276,0.000099
 29,-0.00016927,-0.00005213,0.00000604,-0.00000560,-0.00000554,-0.00001
 598,0.00000169,0.00000192,0.00000413,0.00000318,-0.00001119,0.00000728
 ,0.00000922,-0.00012022,0.00002744,-0.00011562,0.00000341,-0.00002468,
 0.00001065,0.00015111,-0.00000118,-0.00002925,-0.00001577,0.00015116,0
 .00021410,0.00003674,-0.00000062,0.00000751,0.00003216,-0.00001581,0.0
 0003748,0.00002486,-0.00005505,0.00007782,0.00001540,-0.00008262,-0.00
 005337,0.00001526,0.00000449,-0.00001130,-0.00002591,0.00003028,-0.000
 00968,0.00001646,0.00004894,0.00009690,-0.00013222,-0.00071735,-0.0003
 7389,-0.00008145,0.00022505,0.00005382,0.00017033,0.00027964,0.0000262
 6,-0.00070141,0.00038149,0.00069808,0.00118327,-0.00240365,0.00010217,
 -0.00005648,0.00006395,-0.00007156,-0.00664953,0.00479367,-0.01150316,
 0.00022232,0.00128845,0.00030513,-0.00031201,-0.00007462,0.00056028,0.
 00009872,0.00012412,-0.00001401,-0.00037061,0.00102913,-0.00011555,0.0
 0055577,0.00049212,0.00000437,-0.00000690,0.00001125,-0.00001020,0.000
 00181,-0.00000278,0.00000313,-0.00000238,0.00000373,-0.00000161,-0.000
 00061,-0.00000136,-0.00000021,-0.00002908,0.00001520,-0.00003099,0.000
 01544,0.00000286,0.00001065,0.00000257,0.00000096,-0.00000182,0.000001
 42,-0.00000766,0.00000576,0.00004376,0.00004651,-0.00004268,-0.0000029
 7,-0.00001196,0.00000322,-0.00000196,-0.00000477,0.00002142,0.00000928
 ,0.00000581,-0.00000428,0.00000302,-0.00005269,-0.00003740,-0.00000139
 ,0.00000502,0.00000789,0.00000327,0.00001761,0.00000514,-0.00000109,0.
 00000383,0.00000293,0.00000586,-0.00001204,0.00000189,-0.00000077,0.00
 000091,-0.00000086,0.00000039,0.00000113,-0.00000108,-0.00000116,0.000
 00207,0.00000174,-0.00000743,-0.00004276,-0.00000143,0.00000504,0.0000
 1110,0.00000789,-0.00000031,-0.00000648,-0.00000451,-0.00000409,0.0000
 0627,0.00000394,0.00000085,-0.00000662,-0.00000766,0.00000252,0.000001
 16,0.00000068,-0.00000121,-0.00000539,-0.00000226,0.00000174,0.0000013
 6,-0.00000035,-0.00000091,-0.00000057,-0.00000042,-0.00000108,0.000002
 29,0.00000217,0.00030235,0.00034626,0.00028596,-0.00010321,-0.00003431
 ,-0.00012432,-0.00008228,-0.00009600,-0.00004975,-0.00021697,-0.000190
 55,0.00002258,-0.03253599,-0.09832246,-0.05907341,-0.00689537,-0.04719
 871,-0.05084241,0.00440438,0.01564519,0.01502064,0.04147549,0.12415724
 ,0.00004075,-0.00006015,0.00001735,0.00004782,0.00001766,-0.00002288,0
 .00007873,-0.00000498,-0.00000066,0.00003735,-0.00004977,-0.00002330,0
 .00008396,-0.00001271,0.00000386,-0.00001354,0.00000874,0.00000438,0.0
 0001006,-0.00000081,-0.00000740,-0.00001613,0.00000451,-0.00001113,-0.
 00001510,0.00000670,-0.00000729,-0.00001267,-0.00001544,0.00000408,-0.
 00007844,0.00002557,0.00003266,-0.00005720,0.00002315,-0.00001664,-0.0
 0006413,-0.00000479,0.00005947,-0.00016405,-0.00001905,-0.00003626,-0.
 00016730,0.00006145,-0.00001429,0.00005894,0.00004461,0.00007132,-0.00
 000496,-0.00001609,-0.00000454,-0.00004168,0.00001842,-0.00003425,-0.0
 0012123,0.00004700,-0.00007670,0.00001718,-0.00001513,-0.00004925,-0.0
 0000310,0.00000862,0.00000548,0.00000378,0.00000303,0.00000413,-0.0000
 0656,-0.00000227,0.00000561,0.00005276,0.00007065,0.00000860,-0.000004
 62,-0.00001159,-0.00000924,-0.00002905,-0.00000614,-0.00000558,0.00002
 916,0.00000637,-0.00000772,0.00015856,-0.00006585,0.00010219,-0.000005
 77,0.00002141,-0.00004183,-0.00000418,0.00000480,-0.00001460,-0.000002
 49,0.00000280,-0.00001163,0.00000451,-0.00007644,-0.00015620,0.0000820
 9,-0.00002529,-0.00002198,0.00036227,-0.00052031,-0.00009555,0.0003357
 1,-0.00018460,0.00021807,-0.00030497,-0.00013780,-0.00014743,0.0000220
 6,0.00001033,0.00002964,0.00000691,0.00000369,0.00002260,-0.00000860,0
 .00000129,0.00000186,0.00016523,-0.00052099,-0.00034634,0.00002466,0.0
 0005774,0.00001096,-0.00043069,0.00046862,0.00009047,-0.00014184,0.000
 22637,0.00060430,-0.00006510,0.00011761,0.00003993,0.00003942,0.000183
 13,0.00015853,0.00013495,0.00012836,0.00008542,-0.00001452,-0.00070432
 ,0.00036508,-0.00004177,-0.00007380,0.00005482,0.00034852,0.00020092,0
 .00036953,-0.00010285,0.00031421,-0.00041939,0.00035480,-0.00119920,-0
 .00099076,-0.00034786,0.00039218,0.00010793,0.00008176,0.00049042,0.00
 021097,-0.00094592,0.00017793,0.00051280,0.00171538,-0.00272641,-0.000
 23303,-0.00015316,0.00040015,0.00010665,-0.01250969,-0.01206217,-0.013
 36644,-0.00025559,0.00143446,-0.00025347,-0.00017811,-0.00128890,-0.00
 043465,0.00012800,0.00011230,0.00001046,-0.00364984,0.00247570,0.00065
 880,0.00043249,0.00034983,0.00010125,0.00002635,-0.00005619,0.00001609
 ,0.00000264,-0.00000666,-0.00000258,0.00000153,0.00001030,-0.00000525,
 -0.00001332,0.00001243,0.00000340,-0.00004148,-0.00003018,-0.00015105,
 0.00002342,-0.00000185,0.00002490,-0.00000690,0.00000455,0.00001320,0.
 00000482,0.00000880,0.00001872,-0.00007809,-0.00007952,0.00003375,0.00
 000219,0.00002524,-0.00001062,0.00000455,0.00000557,0.00001134,0.00003
 086,0.00000602,-0.00001033,-0.00010692,0.00006961,0.00023555,-0.000005
 62,0.00000812,-0.00004863,0.00002972,-0.00001328,0.00000377,0.00003582
 ,-0.00002212,-0.00001357,0.00002087,-0.00002768,0.00000238,-0.00000356
 ,0.00000155,-0.00000303,0.00000058,0.00000158,0.00000007,-0.00000256,0
 .00000595,0.00000486,0.00006392,-0.00009478,-0.00003019,-0.00001073,0.
 00001830,0.00003268,0.00000708,-0.00000373,-0.00002288,-0.00000833,0.0
 0001349,0.00000908,0.00000931,-0.00000869,-0.00002098,-0.00000375,0.00
 000122,0.00000134,0.00000972,-0.00001710,-0.00000271,-0.00000127,0.000
 00131,-0.00000107,-0.00000049,-0.00000160,-0.00000030,-0.00000213,0.00
 000635,0.00000468,0.00050344,0.00109731,0.00044069,-0.00027447,-0.0001
 6985,-0.00037629,-0.00012728,-0.00029271,-0.00011366,-0.00049553,-0.00
 045992,0.00013782,-0.07698197,-0.05726775,-0.19705146,0.00191876,-0.04
 050649,-0.01533704,-0.00296789,0.00454486,-0.08213877,0.09354162,0.105
 10180,0.30712736\\0.00000048,-0.00000145,0.00000139,0.00000055,-0.0000
 0156,0.00000151,-0.00000016,-0.00000183,0.00000148,-0.00000084,-0.0000
 0139,0.00000087,-0.00000004,-0.00000106,0.00000084,-0.00000019,-0.0000
 0187,0.00000142,0.00000068,-0.00000128,0.00000135,0.00000038,-0.000001
 84,0.00000174,-0.00000090,-0.00000191,0.00000109,0.00000018,-0.0000007
 4,0.00000058,-0.00000067,-0.00000153,0.00000089,-0.00000046,-0.0000023
 6,0.00000169,0.00000114,-0.00000212,0.00000215,0.00000118,-0.00000126,
 0.00000144,-0.00000020,-0.00000107,0.00000089,-0.00000137,-0.00000111,
 0.00000029,-0.00000145,-0.00000102,0.00000017,-0.00000185,-0.00000136,
 0.00000028,-0.00000114,-0.00000045,-0.00000005,0.00000131,-0.00000187,
 0.00000213,0.00000095,-0.00000210,0.00000204,0.00000160,-0.00000142,0.
 00000182,0.00000174,-0.00000215,0.00000249,0.00000158,-0.00000155,0.00
 000174,0.00000139,-0.00000163,0.00000196,0.00000169,-0.00000178,0.0000
 0224,0.00000213,-0.00000114,0.00000186,-0.00000002,-0.00000053,0.00000
 037,0.00000040,-0.00000012,0.00000025,-0.00000061,-0.00000030,0.000000
 04,-0.00000020,-0.00000050,0.00000033,-0.00000100,0.00000134,-0.000001
 49,-0.00000099,0.00000067,-0.00000105,-0.00000022,0.00000042,-0.000000
 68,-0.00000043,0.00000144,-0.00000122,-0.00000091,0.00000170,-0.000001
 65,-0.00000017,0.00000017,-0.00000022,-0.00000157,0.00000037,-0.000000
 92,-0.00000046,0.00000158,-0.00000149,0.00000018,0.00000187,-0.0000014
 8,-0.00000145,0.00000135,-0.00000177,-0.00000036,0.00000094,-0.0000007
 2,0.00000153,0.00000070,0.00000009,-0.00000126,0.00000013,-0.00000072,
 -0.00000155,0.00000146,-0.00000187,-0.00000079,0.00000223,-0.00000216,
 -0.00000038,0.00000140,-0.00000140,-0.00000051,0.00000183,-0.00000174,
 0.00000002,0.00000135,-0.00000107,-0.00000110,0.00000096,-0.00000130,0
 .00000120,0.00000057,-0.00000033,0.00000090,-0.00000015,0.00000047,0.0
 0000036,0.00000086,-0.00000038,0.00000134,0.00000063,-0.00000008,0.000
 00116,0.00000152,-0.00000047,0.00000191,0.00000049,0.00000052,0.000001
 75,0.00000167,-0.00000046,0.00000132,0.00000159,-0.00000075,0.00000178
 ,0.00000071,0.00000038,0.00000159,-0.00000013,0.00000081,0.00000183,0.
 00000110,-0.00000022,0.00000229,0.00000132,-0.00000013,-0.00000178,0.0
 0000041,-0.00000084,-0.00000191,-0.00000023,-0.00000063,-0.00000208,0.
 00000041,-0.00000124,-0.00000164,0.,-0.00000070,-0.00000134,0.00000172
 ,-0.00000200,-0.00000093,0.00000216,-0.00000217,-0.00000118,0.00000143
 ,-0.00000165,-0.00000184,0.00000181,-0.00000226,-0.00000142,0.00000246
 ,-0.00000264,-0.00000182,0.00000231,-0.00000265,-0.00000173,0.00000229
 ,-0.00000259,-0.00000127,0.00000294,-0.00000293,-0.00000124,0.00000090
 ,-0.00000127,-0.00000171,0.00000055,-0.00000119,-0.00000079,0.00000080
 ,-0.00000098,-0.00000131,0.00000135,-0.00000165,-0.00000110,-0.0000027
 6,0.00000180,-0.00000118,-0.00000327,0.00000214,-0.00000153,-0.0000026
 6,0.00000146,-0.00000104,-0.00000283,0.00000185,-0.00000016,0.00000019
 ,0.00000019,-0.00000028,-0.00000129,0.00000044,0.00000047,-0.00000069,
 0.00000078,0.00000050,-0.00000049,0.00000063,0.00000081,-0.00000037,0.
 00000061,0.00000075,-0.00000107,0.00000124,-0.00000061,-0.00000139,0.0
 0000072,-0.00000047,-0.00000173,0.00000121,-0.00000137,-0.00000152,0.0
 0000080,-0.00000071,-0.00000117,0.00000063,0.00000226,0.00000023,0.000
 00080,0.00000170,-0.00000027,0.00000095,0.00000249,0.00000044,0.000000
 76,0.00000265,-0.00000011,0.00000122,0.00000205,0.00000215,-0.00000100
 ,0.00000230,0.00000237,-0.00000099,0.00000117,0.00000237,-0.00000139,0
 .00000200,0.00000274,-0.00000128\\\@


 KEEP CLOSE TO NATURES HEART, YOURSELF;
 AND BREAK CLEAR AWAY, ONCE IN A WHILE, AND
 CLIMB A MOUNTAIN OR SPEND A WEEK IN THE
 WOODS.  WASH YOUR SPIRIT CLEAN...
                                         -- JOHN MUIR
 Job cpu time:       4 days 15 hours 22 minutes 12.0 seconds.
 Elapsed time:       0 days  3 hours 46 minutes 17.1 seconds.
 File lengths (MBytes):  RWF=   9759 Int=      0 D2E=      0 Chk=    108 Scr=      1
 Normal termination of Gaussian 16 at Fri May 31 02:28:03 2019.
